Protein in water
77526
    1DC     O5'    1   3.001   4.366   3.338
    1DC     H5T    2   3.059   4.327   3.406
    1DC     C5'    3   2.881   4.290   3.328
    1DC    H5'1    4   2.810   4.343   3.264
    1DC    H5'2    5   2.836   4.283   3.427
    1DC     C4'    6   2.897   4.148   3.272
    1DC     H4'    7   2.797   4.107   3.254
    1DC     O4'    8   2.971   4.139   3.151
    1DC     C1'    9   3.042   4.015   3.147
    1DC     H1'   10   3.010   3.955   3.060
    1DC      N1   11   3.190   4.037   3.141
    1DC      C6   12   3.248   4.150   3.192
    1DC      H6   13   3.187   4.222   3.246
    1DC      C5   14   3.381   4.172   3.177
    1DC      H5   15   3.426   4.259   3.221
    1DC      C4   16   3.456   4.072   3.110
    1DC      N4   17   3.584   4.089   3.091
    1DC     H41   18   3.631   4.162   3.141
    1DC     H42   19   3.635   4.011   3.051
    1DC      N3   20   3.403   3.964   3.057
    1DC      C2   21   3.270   3.941   3.077
    1DC      O2   22   3.225   3.834   3.035
    1DC     C3'   23   2.966   4.053   3.368
    1DC     H3'   24   3.056   4.100   3.407
    1DC     C2'   25   3.003   3.940   3.274
    1DC    H2'1   26   3.084   3.880   3.314
    1DC    H2'2   27   2.916   3.876   3.256
    1DC     O3'   28   2.879   4.011   3.470
    2DG       P   29   2.936   3.988   3.617
    2DG     O1P   30   2.817   3.959   3.700
    2DG     O2P   31   3.021   4.104   3.647
    2DG     O5'   32   3.022   3.855   3.596
    2DG     C5'   33   2.955   3.730   3.588
    2DG    H5'1   34   2.872   3.738   3.517
    2DG    H5'2   35   2.914   3.705   3.686
    2DG     C4'   36   3.046   3.618   3.542
    2DG     H4'   37   2.987   3.527   3.530
    2DG     O4'   38   3.107   3.647   3.417
    2DG     C1'   39   3.234   3.584   3.415
    2DG     H1'   40   3.239   3.514   3.333
    2DG      N9   41   3.341   3.683   3.396
    2DG      C8   42   3.336   3.819   3.411
    2DG      H8   43   3.248   3.870   3.448
    2DG      N7   44   3.446   3.880   3.375
    2DG      C5   45   3.533   3.775   3.344
    2DG      C6   46   3.670   3.775   3.302
    2DG      O6   47   3.743   3.870   3.275
    2DG      N1   48   3.723   3.649   3.288
    2DG      H1   49   3.821   3.642   3.265
    2DG      C2   50   3.653   3.535   3.306
    2DG      N2   51   3.718   3.424   3.288
    2DG     H21   52   3.818   3.428   3.269
    2DG     H22   53   3.668   3.337   3.291
    2DG      N3   54   3.523   3.529   3.337
    2DG      C4   55   3.470   3.653   3.358
    2DG     C3'   56   3.157   3.584   3.640
    2DG     H3'   57   3.200   3.675   3.683
    2DG     C2'   58   3.254   3.512   3.548
    2DG    H2'1   59   3.356   3.519   3.584
    2DG    H2'2   60   3.226   3.407   3.538
    2DG     O3'   61   3.109   3.493   3.736
    3DA       P   62   3.176   3.480   3.879
    3DA     O1P   63   3.094   3.383   3.952
    3DA     O2P   64   3.198   3.616   3.933
    3DA     O5'   65   3.319   3.414   3.845
    3DA     C5'   66   3.325   3.275   3.815
    3DA    H5'1   67   3.251   3.253   3.738
    3DA    H5'2   68   3.296   3.220   3.905
    3DA     C4'   69   3.460   3.220   3.768
    3DA     H4'   70   3.446   3.113   3.752
    3DA     O4'   71   3.507   3.274   3.644
    3DA     C1'   72   3.646   3.298   3.654
    3DA     H1'   73   3.701   3.258   3.569
    3DA      N9   74   3.676   3.442   3.659
    3DA      C8   75   3.599   3.549   3.699
    3DA      H8   76   3.501   3.537   3.744
    3DA      N7   77   3.652   3.665   3.672
    3DA      C5   78   3.777   3.632   3.618
    3DA      C6   79   3.889   3.703   3.569
    3DA      N6   80   3.900   3.835   3.564
    3DA     H61   81   3.832   3.889   3.616
    3DA     H62   82   3.990   3.874   3.544
    3DA      N1   83   3.997   3.639   3.523
    3DA      C2   84   3.997   3.507   3.526
    3DA      H2   85   4.087   3.459   3.490
    3DA      N3   86   3.901   3.426   3.566
    3DA      C4   87   3.793   3.496   3.612
    3DA     C3'   88   3.572   3.232   3.870
    3DA     H3'   89   3.564   3.326   3.926
    3DA     C2'   90   3.694   3.227   3.780
    3DA    H2'1   91   3.779   3.275   3.825
    3DA    H2'2   92   3.718   3.123   3.757
    3DA     O3'   93   3.574   3.117   3.951
    4DC       P   94   3.622   3.125   4.103
    4DC     O1P   95   3.596   2.989   4.154
    4DC     O2P   96   3.555   3.241   4.163
    4DC     O5'   97   3.780   3.153   4.087
    4DC     C5'   98   3.873   3.046   4.075
    4DC    H5'1   99   3.838   2.979   3.997
    4DC    H5'2  100   3.875   2.991   4.169
    4DC     C4'  101   4.017   3.090   4.041
    4DC     H4'  102   4.076   3.000   4.030
    4DC     O4'  103   4.024   3.162   3.917
    4DC     C1'  104   4.127   3.261   3.924
    4DC     H1'  105   4.200   3.244   3.845
    4DC      N1  106   4.077   3.401   3.911
    4DC      C6  107   3.949   3.435   3.944
    4DC      H6  108   3.882   3.361   3.987
    4DC      C5  109   3.907   3.563   3.924
    4DC      H5  110   3.805   3.590   3.947
    4DC      C4  111   4.001   3.658   3.878
    4DC      N4  112   3.965   3.782   3.862
    4DC     H41  113   3.873   3.810   3.890
    4DC     H42  114   4.033   3.851   3.833
    4DC      N3  115   4.126   3.627   3.847
    4DC      C2  116   4.165   3.498   3.863
    4DC      O2  117   4.282   3.470   3.833
    4DC     C3'  118   4.090   3.174   4.147
    4DC     H3'  119   4.021   3.244   4.195
    4DC     C2'  120   4.193   3.244   4.060
    4DC    H2'1  121   4.223   3.339   4.104
    4DC    H2'2  122   4.280   3.180   4.048
    4DC     O3'  123   4.162   3.093   4.240
    5DT       P  124   4.209   3.151   4.383
    5DT     O1P  125   4.274   3.043   4.459
    5DT     O2P  126   4.103   3.234   4.442
    5DT     O5'  127   4.327   3.252   4.343
    5DT     C5'  128   4.456   3.203   4.313
    5DT    H5'1  129   4.448   3.132   4.232
    5DT    H5'2  130   4.496   3.149   4.399
    5DT     C4'  131   4.552   3.314   4.275
    5DT     H4'  132   4.648   3.268   4.253
    5DT     O4'  133   4.507   3.382   4.158
    5DT     C1'  134   4.539   3.520   4.170
    5DT     H1'  135   4.602   3.549   4.086
    5DT      N1  136   4.421   3.610   4.171
    5DT      C6  137   4.298   3.572   4.222
    5DT      H6  138   4.287   3.477   4.272
    5DT      C5  139   4.189   3.653   4.208
    5DT      C7  140   4.056   3.606   4.263
    5DT     H71  141   3.998   3.691   4.299
    5DT     H72  142   3.998   3.556   4.186
    5DT     H73  143   4.070   3.537   4.347
    5DT      C4  144   4.201   3.783   4.143
    5DT      O4  145   4.112   3.862   4.117
    5DT      N3  146   4.330   3.818   4.107
    5DT      H3  147   4.343   3.914   4.078
    5DT      C2  148   4.441   3.738   4.118
    5DT      O2  149   4.552   3.778   4.081
    5DT     C3'  150   4.577   3.418   4.384
    5DT     H3'  151   4.485   3.440   4.439
    5DT     C2'  152   4.620   3.536   4.298
    5DT    H2'1  153   4.600   3.631   4.347
    5DT    H2'2  154   4.727   3.528   4.275
    5DT     O3'  155   4.686   3.380   4.467
    6DC       P  156   4.699   3.434   4.617
    6DC     O1P  157   4.820   3.367   4.671
    6DC     O2P  158   4.569   3.416   4.684
    6DC     O5'  159   4.729   3.589   4.597
    6DC     C5'  160   4.860   3.632   4.567
    6DC    H5'1  161   4.893   3.578   4.479
    6DC    H5'2  162   4.925   3.606   4.650
    6DC     C4'  163   4.875   3.781   4.537
    6DC     H4'  164   4.982   3.801   4.525
    6DC     O4'  165   4.809   3.820   4.417
    6DC     C1'  166   4.761   3.954   4.434
    6DC     H1'  167   4.804   4.019   4.357
    6DC      N1  168   4.613   3.965   4.424
    6DC      C6  169   4.527   3.863   4.458
    6DC      H6  170   4.566   3.772   4.502
    6DC      C5  171   4.393   3.879   4.442
    6DC      H5  172   4.326   3.800   4.470
    6DC      C4  173   4.347   4.005   4.395
    6DC      N4  174   4.220   4.026   4.375
    6DC     H41  175   4.149   3.961   4.405
    6DC     H42  176   4.188   4.117   4.347
    6DC      N3  177   4.427   4.106   4.368
    6DC      C2  178   4.560   4.088   4.382
    6DC      O2  179   4.634   4.184   4.357
    6DC     C3'  180   4.827   3.871   4.650
    6DC     H3'  181   4.733   3.833   4.690
    6DC     C2'  182   4.807   4.000   4.572
    6DC    H2'1  183   4.734   4.064   4.620
    6DC    H2'2  184   4.902   4.052   4.564
    6DC     O3'  185   4.928   3.886   4.748
    7DT       P  186   4.889   3.933   4.896
    7DT     O1P  187   5.012   3.928   4.977
    7DT     O2P  188   4.772   3.855   4.937
    7DT     O5'  189   4.849   4.085   4.872
    7DT     C5'  190   4.948   4.182   4.849
    7DT    H5'1  191   5.012   4.149   4.767
    7DT    H5'2  192   5.009   4.192   4.940
    7DT     C4'  193   4.891   4.320   4.814
    7DT     H4'  194   4.976   4.383   4.793
    7DT     O4'  195   4.808   4.322   4.698
    7DT     C1'  196   4.697   4.409   4.722
    7DT     H1'  197   4.692   4.487   4.646
    7DT      N1  198   4.566   4.337   4.720
    7DT      C6  199   4.554   4.205   4.758
    7DT      H6  200   4.637   4.153   4.803
    7DT      C5  201   4.438   4.137   4.740
    7DT      C7  202   4.432   3.991   4.781
    7DT     H71  203   4.328   3.959   4.792
    7DT     H72  204   4.480   3.929   4.706
    7DT     H73  205   4.482   3.976   4.877
    7DT      C4  206   4.320   4.206   4.689
    7DT      O4  207   4.209   4.158   4.666
    7DT      N3  208   4.337   4.340   4.663
    7DT      H3  209   4.255   4.392   4.638
    7DT      C2  210   4.454   4.409   4.677
    7DT      O2  211   4.459   4.529   4.648
    7DT     C3'  212   4.817   4.385   4.929
    7DT     H3'  213   4.764   4.311   4.990
    7DT     C2'  214   4.720   4.477   4.857
    7DT    H2'1  215   4.628   4.488   4.913
    7DT    H2'2  216   4.765   4.575   4.841
    7DT     O3'  217   4.909   4.464   5.002
    8DA       P  218   4.888   4.489   5.158
    8DA     O1P  219   5.003   4.574   5.197
    8DA     O2P  220   4.877   4.357   5.221
    8DA     O5'  221   4.753   4.577   5.164
    8DA     C5'  222   4.759   4.715   5.132
    8DA    H5'1  223   4.823   4.728   5.045
    8DA    H5'2  224   4.805   4.767   5.216
    8DA     C4'  225   4.625   4.784   5.101
    8DA     H4'  226   4.650   4.887   5.077
    8DA     O4'  227   4.556   4.734   4.987
    8DA     C1'  228   4.417   4.763   5.004
    8DA     H1'  229   4.381   4.828   4.924
    8DA      N9  230   4.340   4.637   4.999
    8DA      C8  231   4.384   4.510   5.026
    8DA      H8  232   4.483   4.490   5.062
    8DA      N7  233   4.296   4.417   4.999
    8DA      C5  234   4.182   4.489   4.962
    8DA      C6  235   4.050   4.455   4.927
    8DA      N6  236   4.004   4.331   4.919
    8DA     H61  237   4.066   4.255   4.938
    8DA     H62  238   3.910   4.314   4.886
    8DA      N1  239   3.961   4.551   4.900
    8DA      C2  240   3.999   4.677   4.906
    8DA      H2  241   3.923   4.750   4.884
    8DA      N3  242   4.120   4.725   4.936
    8DA      C4  243   4.207   4.624   4.964
    8DA     C3'  244   4.527   4.793   5.217
    8DA     H3'  245   4.518   4.697   5.269
    8DA     C2'  246   4.401   4.831   5.140
    8DA    H2'1  247   4.311   4.797   5.191
    8DA    H2'2  248   4.396   4.939   5.125
    8DA     O3'  249   4.566   4.901   5.300
    9DC       P  250   4.527   4.910   5.454
    9DC     O1P  251   4.589   5.038   5.498
    9DC     O2P  252   4.565   4.784   5.522
    9DC     O5'  253   4.367   4.924   5.456
    9DC     C5'  254   4.304   5.049   5.433
    9DC    H5'1  255   4.351   5.097   5.347
    9DC    H5'2  256   4.320   5.113   5.521
    9DC     C4'  257   4.153   5.040   5.405
    9DC     H4'  258   4.119   5.140   5.382
    9DC     O4'  259   4.126   4.958   5.292
    9DC     C1'  260   3.997   4.901   5.305
    9DC     H1'  261   3.933   4.939   5.225
    9DC      N1  262   4.000   4.752   5.297
    9DC      C6  263   4.111   4.679   5.330
    9DC      H6  264   4.199   4.729   5.370
    9DC      C5  265   4.110   4.545   5.312
    9DC      H5  266   4.198   4.486   5.336
    9DC      C4  267   3.990   4.485   5.265
    9DC      N4  268   3.986   4.357   5.243
    9DC     H41  269   4.070   4.301   5.254
    9DC     H42  270   3.900   4.315   5.210
    9DC      N3  271   3.881   4.553   5.237
    9DC      C2  272   3.883   4.688   5.254
    9DC      O2  273   3.780   4.752   5.231
    9DC     C3'  274   4.066   4.986   5.519
    9DC     H3'  275   4.114   4.900   5.567
    9DC     C2'  276   3.942   4.945   5.440
    9DC    H2'1  277   3.889   4.865   5.491
    9DC    H2'2  278   3.876   5.030   5.427
    9DC     O3'  279   4.028   5.087   5.612
   10DG       P  280   3.978   5.048   5.761
   10DG     O1P  281   3.954   5.176   5.831
   10DG     O2P  282   4.073   4.951   5.818
   10DG     O5'  283   3.836   4.977   5.738
   10DG     C5'  284   3.717   5.053   5.729
   10DG    H5'1  285   3.725   5.120   5.643
   10DG    H5'2  286   3.706   5.113   5.820
   10DG     C4'  287   3.588   4.972   5.713
   10DG     H4'  288   3.507   5.044   5.707
   10DG     O4'  289   3.589   4.900   5.590
   10DG     C1'  290   3.522   4.777   5.608
   10DG     H1'  291   3.442   4.766   5.535
   10DG      N9  292   3.613   4.662   5.591
   10DG      C8  293   3.749   4.653   5.611
   10DG      H8  294   3.807   4.735   5.651
   10DG      N7  295   3.800   4.538   5.576
   10DG      C5  296   3.689   4.462   5.537
   10DG      C6  297   3.675   4.326   5.495
   10DG      O6  298   3.761   4.239   5.478
   10DG      N1  299   3.545   4.288   5.472
   10DG      H1  300   3.530   4.192   5.445
   10DG      C2  301   3.439   4.370   5.486
   10DG      N2  302   3.321   4.319   5.468
   10DG     H21  303   3.312   4.219   5.449
   10DG     H22  304   3.242   4.378   5.485
   10DG      N3  305   3.445   4.498   5.523
   10DG      C4  306   3.574   4.538   5.548
   10DG     C3'  307   3.553   4.877   5.828
   10DG     H3'  308   3.642   4.826   5.866
   10DG     C2'  309   3.462   4.782   5.749
   10DG    H2'1  310   3.459   4.684   5.794
   10DG    H2'2  311   3.362   4.824   5.743
   10DG     O3'  312   3.479   4.945   5.929
   11DG       P  313   3.451   4.883   6.076
   11DG     O1P  314   3.361   4.977   6.149
   11DG     O2P  315   3.578   4.845   6.141
   11DG     O5'  316   3.367   4.749   6.044
   11DG     C5'  317   3.230   4.756   6.006
   11DG    H5'1  318   3.219   4.825   5.922
   11DG    H5'2  319   3.173   4.796   6.090
   11DG     C4'  320   3.169   4.621   5.967
   11DG     H4'  321   3.063   4.637   5.947
   11DG     O4'  322   3.225   4.565   5.849
   11DG     C1'  323   3.229   4.423   5.861
   11DG     H1'  324   3.170   4.375   5.783
   11DG      N9  325   3.366   4.372   5.849
   11DG      C8  326   3.486   4.431   5.880
   11DG      H8  327   3.493   4.530   5.925
   11DG      N7  328   3.590   4.359   5.850
   11DG      C5  329   3.535   4.239   5.805
   11DG      C6  330   3.595   4.115   5.766
   11DG      O6  331   3.714   4.087   5.755
   11DG      N1  332   3.504   4.015   5.740
   11DG      H1  333   3.543   3.925   5.714
   11DG      C2  334   3.371   4.031   5.747
   11DG      N2  335   3.297   3.924   5.732
   11DG     H21  336   3.342   3.834   5.720
   11DG     H22  337   3.198   3.936   5.739
   11DG      N3  338   3.308   4.144   5.779
   11DG      C4  339   3.397   4.244   5.808
   11DG     C3'  340   3.179   4.516   6.077
   11DG     H3'  341   3.274   4.525   6.129
   11DG     C2'  342   3.171   4.387   5.997
   11DG    H2'1  343   3.228   4.308   6.045
   11DG    H2'2  344   3.068   4.354   5.985
   11DG     O3'  345   3.066   4.524   6.162
   12DA       P  346   3.075   4.475   6.314
   12DA     O1P  347   2.939   4.494   6.368
   12DA     O2P  348   3.187   4.547   6.376
   12DA     O5'  349   3.105   4.317   6.297
   12DA     C5'  350   2.997   4.227   6.281
   12DA    H5'1  351   2.930   4.268   6.205
   12DA    H5'2  352   2.942   4.226   6.375
   12DA     C4'  353   3.025   4.081   6.243
   12DA     H4'  354   2.928   4.033   6.240
   12DA     O4'  355   3.085   4.061   6.115
   12DA     C1'  356   3.170   3.947   6.121
   12DA     H1'  357   3.148   3.876   6.041
   12DA      N9  358   3.313   3.982   6.110
   12DA      C8  359   3.377   4.100   6.141
   12DA      H8  360   3.326   4.185   6.183
   12DA      N7  361   3.505   4.100   6.113
   12DA      C5  362   3.528   3.969   6.069
   12DA      C6  363   3.642   3.896   6.027
   12DA      N6  364   3.762   3.947   6.010
   12DA     H61  365   3.772   4.045   5.992
   12DA     H62  366   3.837   3.885   5.979
   12DA      N1  367   3.632   3.766   6.000
   12DA      C2  368   3.513   3.708   6.007
   12DA      H2  369   3.511   3.603   5.982
   12DA      N3  370   3.397   3.763   6.040
   12DA      C4  371   3.412   3.895   6.071
   12DA     C3'  372   3.105   4.000   6.344
   12DA     H3'  373   3.191   4.057   6.380
   12DA     C2'  374   3.146   3.882   6.257
   12DA    H2'1  375   3.235   3.833   6.295
   12DA    H2'2  376   3.066   3.809   6.249
   12DA     O3'  377   3.020   3.956   6.447
   13DA       P  378   3.077   3.923   6.593
   13DA     O1P  379   2.957   3.894   6.675
   13DA     O2P  380   3.169   4.033   6.632
   13DA     O5'  381   3.159   3.788   6.564
   13DA     C5'  382   3.093   3.664   6.547
   13DA    H5'1  383   3.014   3.677   6.473
   13DA    H5'2  384   3.047   3.637   6.643
   13DA     C4'  385   3.180   3.545   6.503
   13DA     H4'  386   3.113   3.460   6.492
   13DA     O4'  387   3.243   3.563   6.376
   13DA     C1'  388   3.373   3.505   6.380
   13DA     H1'  389   3.388   3.435   6.298
   13DA      N9  390   3.476   3.610   6.371
   13DA      C8  391   3.465   3.744   6.400
   13DA      H8  392   3.375   3.788   6.442
   13DA      N7  393   3.569   3.814   6.367
   13DA      C5  394   3.662   3.717   6.327
   13DA      C6  395   3.797   3.719   6.288
   13DA      N6  396   3.872   3.828   6.282
   13DA     H61  397   3.833   3.916   6.312
   13DA     H62  398   3.969   3.825   6.251
   13DA      N1  399   3.861   3.606   6.259
   13DA      C2  400   3.792   3.493   6.265
   13DA      H2  401   3.849   3.405   6.241
   13DA      N3  402   3.665   3.473   6.298
   13DA      C4  403   3.606   3.592   6.330
   13DA     C3'  404   3.285   3.501   6.604
   13DA     H3'  405   3.329   3.587   6.655
   13DA     C2'  406   3.384   3.430   6.513
   13DA    H2'1  407   3.485   3.434   6.553
   13DA    H2'2  408   3.355   3.326   6.499
   13DA     O3'  409   3.226   3.406   6.691
   14DG       P  410   3.283   3.382   6.839
   14DG     O1P  411   3.198   3.274   6.895
   14DG     O2P  412   3.287   3.511   6.909
   14DG     O5'  413   3.432   3.327   6.814
   14DG     C5'  414   3.455   3.189   6.791
   14DG    H5'1  415   3.389   3.155   6.712
   14DG    H5'2  416   3.431   3.135   6.882
   14DG     C4'  417   3.600   3.154   6.752
   14DG     H4'  418   3.604   3.046   6.741
   14DG     O4'  419   3.642   3.211   6.628
   14DG     C1'  420   3.781   3.243   6.635
   14DG     H1'  421   3.836   3.196   6.554
   14DG      N9  422   3.806   3.389   6.627
   14DG      C8  423   3.725   3.494   6.663
   14DG      H8  424   3.626   3.479   6.705
   14DG      N7  425   3.778   3.612   6.644
   14DG      C5  426   3.907   3.582   6.597
   14DG      C6  427   4.019   3.665   6.560
   14DG      O6  428   4.027   3.788   6.556
   14DG      N1  429   4.132   3.595   6.526
   14DG      H1  430   4.214   3.649   6.504
   14DG      C2  431   4.139   3.460   6.523
   14DG      N2  432   4.256   3.409   6.496
   14DG     H21  433   4.336   3.469   6.482
   14DG     H22  434   4.262   3.309   6.490
   14DG      N3  435   4.038   3.378   6.551
   14DG      C4  436   3.925   3.445   6.588
   14DG     C3'  437   3.706   3.189   6.856
   14DG     H3'  438   3.686   3.286   6.902
   14DG     C2'  439   3.831   3.191   6.769
   14DG    H2'1  440   3.908   3.254   6.812
   14DG    H2'2  441   3.870   3.090   6.757
   14DG     O3'  442   3.718   3.084   6.950
   15DG       P  443   3.771   3.113   7.098
   15DG     O1P  444   3.762   2.982   7.168
   15DG     O2P  445   3.697   3.229   7.152
   15DG     O5'  446   3.927   3.147   7.076
   15DG     C5'  447   4.022   3.043   7.055
   15DG    H5'1  448   3.984   2.978   6.977
   15DG    H5'2  449   4.029   2.984   7.147
   15DG     C4'  450   4.164   3.086   7.016
   15DG     H4'  451   4.222   2.994   7.005
   15DG     O4'  452   4.170   3.154   6.890
   15DG     C1'  453   4.275   3.250   6.893
   15DG     H1'  454   4.345   3.234   6.811
   15DG      N9  455   4.224   3.388   6.882
   15DG      C8  456   4.099   3.436   6.911
   15DG      H8  457   4.020   3.372   6.950
   15DG      N7  458   4.084   3.563   6.887
   15DG      C5  459   4.212   3.605   6.849
   15DG      C6  460   4.265   3.734   6.815
   15DG      O6  461   4.208   3.843   6.810
   15DG      N1  462   4.399   3.734   6.786
   15DG      H1  463   4.440   3.823   6.761
   15DG      C2  464   4.476   3.622   6.785
   15DG      N2  465   4.603   3.640   6.759
   15DG     H21  466   4.640   3.734   6.745
   15DG     H22  467   4.664   3.560   6.757
   15DG      N3  468   4.432   3.499   6.812
   15DG      C4  469   4.299   3.497   6.845
   15DG     C3'  470   4.239   3.172   7.118
   15DG     H3'  471   4.174   3.248   7.161
   15DG     C2'  472   4.346   3.231   7.027
   15DG    H2'1  473   4.384   3.326   7.066
   15DG    H2'2  474   4.429   3.161   7.015
   15DG     O3'  475   4.303   3.090   7.216
   16DG       P  476   4.355   3.148   7.355
   16DG     O1P  477   4.421   3.034   7.423
   16DG     O2P  478   4.247   3.221   7.424
   16DG     O5'  479   4.471   3.254   7.316
   16DG     C5'  480   4.603   3.209   7.293
   16DG    H5'1  481   4.603   3.137   7.212
   16DG    H5'2  482   4.638   3.161   7.385
   16DG     C4'  483   4.706   3.318   7.261
   16DG     H4'  484   4.802   3.268   7.251
   16DG     O4'  485   4.679   3.382   7.137
   16DG     C1'  486   4.706   3.520   7.151
   16DG     H1'  487   4.772   3.557   7.071
   16DG      N9  488   4.583   3.602   7.144
   16DG      C8  489   4.454   3.570   7.178
   16DG      H8  490   4.425   3.473   7.214
   16DG      N7  491   4.371   3.668   7.163
   16DG      C5  492   4.449   3.775   7.119
   16DG      C6  493   4.418   3.912   7.088
   16DG      O6  494   4.310   3.972   7.092
   16DG      N1  495   4.528   3.986   7.054
   16DG      H1  496   4.512   4.083   7.032
   16DG      C2  497   4.654   3.936   7.047
   16DG      N2  498   4.751   4.019   7.020
   16DG     H21  499   4.731   4.118   7.010
   16DG     H22  500   4.841   3.978   7.006
   16DG      N3  501   4.688   3.811   7.074
   16DG      C4  502   4.580   3.735   7.108
   16DG     C3'  503   4.723   3.422   7.371
   16DG     H3'  504   4.627   3.445   7.419
   16DG     C2'  505   4.774   3.538   7.286
   16DG    H2'1  506   4.748   3.634   7.330
   16DG    H2'2  507   4.882   3.532   7.274
   16DG     O3'  508   4.823   3.378   7.463
   17DC       P  509   4.834   3.431   7.613
   17DC     O1P  510   4.956   3.366   7.668
   17DC     O2P  511   4.706   3.406   7.682
   17DC     O5'  512   4.863   3.588   7.598
   17DC     C5'  513   4.992   3.630   7.557
   17DC    H5'1  514   5.019   3.573   7.468
   17DC    H5'2  515   5.063   3.606   7.637
   17DC     C4'  516   5.010   3.777   7.521
   17DC     H4'  517   5.115   3.790   7.498
   17DC     O4'  518   4.937   3.812   7.404
   17DC     C1'  519   4.893   3.946   7.412
   17DC     H1'  520   4.927   4.003   7.325
   17DC      N1  521   4.744   3.958   7.418
   17DC      C6  522   4.663   3.855   7.457
   17DC      H6  523   4.707   3.762   7.492
   17DC      C5  524   4.529   3.869   7.451
   17DC      H5  525   4.464   3.787   7.479
   17DC      C4  526   4.478   3.994   7.408
   17DC      N4  527   4.350   4.011   7.400
   17DC     H41  528   4.293   3.927   7.405
   17DC     H42  529   4.312   4.093   7.355
   17DC      N3  530   4.554   4.097   7.375
   17DC      C2  531   4.688   4.081   7.380
   17DC      O2  532   4.760   4.178   7.354
   17DC     C3'  533   4.975   3.879   7.629
   17DC     H3'  534   4.884   3.849   7.681
   17DC     C2'  535   4.953   4.002   7.541
   17DC    H2'1  536   4.887   4.074   7.589
   17DC    H2'2  537   5.048   4.051   7.518
   17DC     O3'  538   5.086   3.902   7.716
   18DA       P  539   5.065   3.953   7.866
   18DA     O1P  540   5.200   3.970   7.926
   18DA     O2P  541   4.966   3.867   7.933
   18DA     O5'  542   5.005   4.100   7.844
   18DA     C5'  543   5.091   4.206   7.808
   18DA    H5'1  544   5.147   4.179   7.719
   18DA    H5'2  545   5.161   4.222   7.890
   18DA     C4'  546   5.020   4.339   7.782
   18DA     H4'  547   5.097   4.414   7.762
   18DA     O4'  548   4.937   4.333   7.667
   18DA     C1'  549   4.824   4.416   7.690
   18DA     H1'  550   4.812   4.489   7.610
   18DA      N9  551   4.700   4.335   7.693
   18DA      C8  552   4.682   4.201   7.720
   18DA      H8  553   4.763   4.136   7.751
   18DA      N7  554   4.559   4.160   7.704
   18DA      C5  555   4.491   4.277   7.666
   18DA      C6  556   4.357   4.310   7.634
   18DA      N6  557   4.258   4.224   7.623
   18DA     H61  558   4.279   4.126   7.619
   18DA     H62  559   4.167   4.258   7.590
   18DA      N1  560   4.323   4.437   7.610
   18DA      C2  561   4.416   4.530   7.613
   18DA      H2  562   4.384   4.631   7.591
   18DA      N3  563   4.545   4.515   7.639
   18DA      C4  564   4.576   4.384   7.664
   18DA     C3'  565   4.938   4.390   7.900
   18DA     H3'  566   4.880   4.308   7.944
   18DA     C2'  567   4.848   4.487   7.823
   18DA    H2'1  568   4.755   4.506   7.875
   18DA    H2'2  569   4.900   4.581   7.805
   18DA     O3'  570   5.020   4.456   7.996
   19DT       P  571   4.973   4.481   8.149
   19DT     O1P  572   5.082   4.554   8.217
   19DT     O2P  573   4.927   4.353   8.207
   19DT     O5'  574   4.845   4.578   8.137
   19DT     C5'  575   4.862   4.716   8.111
   19DT    H5'1  576   4.924   4.728   8.022
   19DT    H5'2  577   4.912   4.762   8.196
   19DT     C4'  578   4.731   4.793   8.086
   19DT     H4'  579   4.758   4.898   8.069
   19DT     O4'  580   4.666   4.748   7.968
   19DT     C1'  581   4.525   4.762   7.983
   19DT     H1'  582   4.484   4.824   7.903
   19DT      N1  583   4.455   4.630   7.979
   19DT      C6  584   4.519   4.513   8.011
   19DT      H6  585   4.623   4.515   8.042
   19DT      C5  586   4.455   4.393   8.003
   19DT      C7  587   4.532   4.266   8.035
   19DT     H71  588   4.489   4.182   7.981
   19DT     H72  589   4.637   4.276   8.004
   19DT     H73  590   4.526   4.246   8.141
   19DT      C4  591   4.315   4.387   7.961
   19DT      O4  592   4.246   4.286   7.956
   19DT      N3  593   4.258   4.508   7.932
   19DT      H3  594   4.161   4.506   7.902
   19DT      C2  595   4.320   4.631   7.942
   19DT      O2  596   4.255   4.734   7.924
   19DT     C3'  597   4.628   4.790   8.199
   19DT     H3'  598   4.618   4.689   8.239
   19DT     C2'  599   4.506   4.832   8.118
   19DT    H2'1  600   4.413   4.802   8.164
   19DT    H2'2  601   4.505   4.940   8.102
   19DT     O3'  602   4.656   4.886   8.301
   20DC       P  603   4.585   4.881   8.446
   20DC     O1P  604   4.640   4.997   8.518
   20DC     O2P  605   4.601   4.747   8.505
   20DC     O5'  606   4.430   4.908   8.422
   20DC     C5'  607   4.381   5.040   8.404
   20DC    H5'1  608   4.436   5.088   8.323
   20DC    H5'2  609   4.394   5.097   8.495
   20DC     C4'  610   4.233   5.037   8.368
   20DC     H4'  611   4.199   5.138   8.346
   20DC     O4'  612   4.212   4.955   8.254
   20DC     C1'  613   4.086   4.891   8.265
   20DC     H1'  614   4.023   4.923   8.181
   20DC      N1  615   4.096   4.742   8.263
   20DC      C6  616   4.214   4.675   8.287
   20DC      H6  617   4.300   4.730   8.322
   20DC      C5  618   4.220   4.541   8.269
   20DC      H5  619   4.313   4.488   8.285
   20DC      C4  620   4.101   4.474   8.230
   20DC      N4  621   4.101   4.346   8.208
   20DC     H41  622   4.188   4.298   8.193
   20DC     H42  623   4.016   4.302   8.175
   20DC      N3  624   3.986   4.536   8.214
   20DC      C2  625   3.982   4.670   8.227
   20DC      O2  626   3.875   4.728   8.206
   20DC     C3'  627   4.144   4.983   8.480
   20DC     H3'  628   4.192   4.898   8.530
   20DC     C2'  629   4.025   4.938   8.397
   20DC    H2'1  630   3.969   4.859   8.447
   20DC    H2'2  631   3.958   5.022   8.378
   20DC     O3'  632   4.107   5.087   8.569
   21DT       P  633   4.071   5.060   8.723
   21DT     O1P  634   4.024   5.190   8.778
   21DT     O2P  635   4.183   4.991   8.789
   21DT     O5'  636   3.943   4.960   8.714
   21DT     C5'  637   3.815   5.014   8.682
   21DT    H5'1  638   3.827   5.082   8.598
   21DT    H5'2  639   3.782   5.072   8.768
   21DT     C4'  640   3.702   4.916   8.646
   21DT     H4'  641   3.616   4.979   8.629
   21DT     O4'  642   3.719   4.844   8.526
   21DT     C1'  643   3.645   4.721   8.536
   21DT     H1'  644   3.573   4.712   8.455
   21DT      N1  645   3.737   4.605   8.533
   21DT      C6  646   3.871   4.620   8.565
   21DT      H6  647   3.908   4.716   8.597
   21DT      C5  648   3.957   4.515   8.560
   21DT      C7  649   4.103   4.541   8.592
   21DT     H71  650   4.165   4.467   8.543
   21DT     H72  651   4.132   4.640   8.559
   21DT     H73  652   4.118   4.533   8.700
   21DT      C4  653   3.909   4.382   8.521
   21DT      O4  654   3.976   4.279   8.515
   21DT      N3  655   3.775   4.376   8.490
   21DT      H3  656   3.740   4.286   8.464
   21DT      C2  657   3.685   4.479   8.499
   21DT      O2  658   3.565   4.457   8.480
   21DT     C3'  659   3.664   4.816   8.755
   21DT     H3'  660   3.752   4.761   8.789
   21DT     C2'  661   3.572   4.727   8.671
   21DT    H2'1  662   3.560   4.628   8.715
   21DT    H2'2  663   3.475   4.774   8.658
   21DT     O3'  664   3.592   4.877   8.860
   22DG       P  665   3.587   4.811   9.007
   22DG     O1P  666   3.522   4.910   9.095
   22DG     O2P  667   3.721   4.759   9.041
   22DG     O5'  668   3.491   4.685   8.992
   22DG     C5'  669   3.351   4.699   8.975
   22DG    H5'1  670   3.332   4.770   8.894
   22DG    H5'2  671   3.307   4.738   9.067
   22DG     C4'  672   3.283   4.567   8.939
   22DG     H4'  673   3.176   4.585   8.926
   22DG     O4'  674   3.334   4.514   8.817
   22DG     C1'  675   3.342   4.373   8.825
   22DG     H1'  676   3.284   4.327   8.744
   22DG      N9  677   3.482   4.327   8.813
   22DG      C8  678   3.599   4.393   8.841
   22DG      H8  679   3.602   4.495   8.877
   22DG      N7  680   3.707   4.324   8.817
   22DG      C5  681   3.658   4.199   8.776
   22DG      C6  682   3.724   4.075   8.742
   22DG      O6  683   3.844   4.050   8.731
   22DG      N1  684   3.636   3.971   8.721
   22DG      H1  685   3.677   3.882   8.699
   22DG      C2  686   3.502   3.982   8.727
   22DG      N2  687   3.431   3.874   8.709
   22DG     H21  688   3.480   3.785   8.694
   22DG     H22  689   3.332   3.881   8.704
   22DG      N3  690   3.435   4.095   8.753
   22DG      C4  691   3.520   4.199   8.778
   22DG     C3'  692   3.300   4.459   9.045
   22DG     H3'  693   3.401   4.465   9.088
   22DG     C2'  694   3.285   4.333   8.961
   22DG    H2'1  695   3.339   4.249   9.004
   22DG    H2'2  696   3.180   4.307   8.950
   22DG     O3'  697   3.198   4.465   9.143
   23DC       P  698   3.224   4.420   9.294
   23DC     O1P  699   3.100   4.449   9.370
   23DC     O2P  700   3.351   4.480   9.340
   23DC     O5'  701   3.242   4.260   9.282
   23DC     C5'  702   3.129   4.174   9.272
   23DC    H5'1  703   3.063   4.213   9.194
   23DC    H5'2  704   3.076   4.177   9.367
   23DC     C4'  705   3.157   4.026   9.241
   23DC     H4'  706   3.060   3.976   9.240
   23DC     O4'  707   3.215   4.008   9.112
   23DC     C1'  708   3.299   3.893   9.115
   23DC     H1'  709   3.271   3.822   9.037
   23DC      N1  710   3.443   3.928   9.096
   23DC      C6  711   3.493   4.053   9.123
   23DC      H6  712   3.428   4.130   9.163
   23DC      C5  713   3.624   4.079   9.101
   23DC      H5  714   3.663   4.178   9.121
   23DC      C4  715   3.706   3.974   9.055
   23DC      N4  716   3.832   3.996   9.036
   23DC     H41  717   3.867   4.089   9.046
   23DC     H42  718   3.890   3.925   8.991
   23DC      N3  719   3.661   3.852   9.030
   23DC      C2  720   3.530   3.828   9.050
   23DC      O2  721   3.488   3.714   9.028
   23DC     C3'  722   3.242   3.949   9.341
   23DC     H3'  723   3.330   4.008   9.370
   23DC     C2'  724   3.279   3.831   9.253
   23DC    H2'1  725   3.369   3.780   9.288
   23DC    H2'2  726   3.197   3.760   9.248
   23DC     O3'  727   3.167   3.904   9.453
   24DG       P  728   3.239   3.853   9.588
   24DG     O1P  729   3.132   3.818   9.684
   24DG     O2P  730   3.340   3.954   9.627
   24DG     O5'  731   3.315   3.719   9.549
   24DG     C5'  732   3.244   3.598   9.531
   24DG    H5'1  733   3.172   3.613   9.450
   24DG    H5'2  734   3.190   3.573   9.622
   24DG     C4'  735   3.334   3.481   9.494
   24DG     H4'  736   3.272   3.391   9.488
   24DG     O4'  737   3.393   3.501   9.366
   24DG     C1'  738   3.527   3.453   9.368
   24DG     H1'  739   3.545   3.384   9.285
   24DG      N9  740   3.625   3.564   9.358
   24DG      C8  741   3.612   3.698   9.389
   24DG      H8  742   3.522   3.739   9.431
   24DG      N7  743   3.718   3.770   9.363
   24DG      C5  744   3.810   3.676   9.314
   24DG      C6  745   3.947   3.688   9.273
   24DG      O6  746   4.018   3.789   9.266
   24DG      N1  747   4.007   3.567   9.243
   24DG      H1  748   4.103   3.570   9.214
   24DG      C2  749   3.941   3.448   9.246
   24DG      N2  750   4.008   3.341   9.216
   24DG     H21  751   4.107   3.347   9.191
   24DG     H22  752   3.952   3.258   9.204
   24DG      N3  753   3.815   3.432   9.281
   24DG      C4  754   3.754   3.550   9.315
   24DG     C3'  755   3.446   3.452   9.596
   24DG     H3'  756   3.491   3.546   9.630
   24DG     C2'  757   3.540   3.378   9.501
   24DG    H2'1  758   3.642   3.377   9.535
   24DG    H2'2  759   3.505   3.275   9.487
   24DG     O3'  760   3.404   3.369   9.704
   25DC       P  761   3.483   3.361   9.846
   25DC     O1P  762   3.416   3.257   9.928
   25DC     O2P  763   3.503   3.496   9.902
   25DC     O5'  764   3.628   3.305   9.810
   25DC     C5'  765   3.646   3.170   9.776
   25DC    H5'1  766   3.578   3.148   9.694
   25DC    H5'2  767   3.621   3.108   9.863
   25DC     C4'  768   3.787   3.135   9.730
   25DC     H4'  769   3.792   3.027   9.712
   25DC     O4'  770   3.817   3.201   9.609
   25DC     C1'  771   3.955   3.235   9.606
   25DC     H1'  772   4.001   3.195   9.514
   25DC      N1  773   3.976   3.383   9.610
   25DC      C6  774   3.877   3.473   9.642
   25DC      H6  775   3.780   3.437   9.676
   25DC      C5  776   3.900   3.606   9.632
   25DC      H5  777   3.821   3.677   9.654
   25DC      C4  778   4.029   3.647   9.588
   25DC      N4  779   4.055   3.772   9.568
   25DC     H41  780   3.979   3.837   9.562
   25DC     H42  781   4.142   3.792   9.520
   25DC      N3  782   4.127   3.563   9.565
   25DC      C2  783   4.102   3.431   9.576
   25DC      O2  784   4.198   3.355   9.561
   25DC     C3'  785   3.899   3.172   9.828
   25DC     H3'  786   3.884   3.273   9.867
   25DC     C2'  787   4.015   3.169   9.730
   25DC    H2'1  788   4.101   3.224   9.769
   25DC    H2'2  789   4.044   3.066   9.706
   25DC     O3'  790   3.921   3.077   9.931
   25DC     H3T  791   3.857   3.095  10.001
   26G      O5'  792   5.064   3.970   9.216
   26G      H5T  793   4.998   3.979   9.143
   26G      C5'  794   5.142   3.854   9.192
   26G     H5'1  795   5.237   3.861   9.244
   26G     H5'2  796   5.163   3.847   9.085
   26G      C4'  797   5.074   3.724   9.233
   26G      H4'  798   5.152   3.649   9.239
   26G      O4'  799   5.007   3.732   9.359
   26G      C1'  800   4.889   3.653   9.352
   26G      H1'  801   4.887   3.579   9.432
   26G       N9  802   4.765   3.734   9.363
   26G       C8  803   4.745   3.869   9.352
   26G       H8  804   4.823   3.939   9.323
   26G       N7  805   4.624   3.907   9.385
   26G       C5  806   4.556   3.787   9.410
   26G       C6  807   4.420   3.759   9.449
   26G       O6  808   4.327   3.836   9.474
   26G       N1  809   4.394   3.624   9.464
   26G       H1  810   4.299   3.598   9.483
   26G       C2  811   4.488   3.528   9.447
   26G       N2  812   4.450   3.405   9.464
   26G      H21  813   4.351   3.384   9.479
   26G      H22  814   4.517   3.332   9.447
   26G       N3  815   4.616   3.549   9.418
   26G       C4  816   4.643   3.681   9.398
   26G      C3'  817   4.973   3.671   9.131
   26G      H3'  818   4.910   3.753   9.095
   26G      C2'  819   4.892   3.577   9.219
   26G     H2'1  820   4.792   3.562   9.179
   26G      O2'  821   4.958   3.452   9.239
   26G     HO'2  822   4.960   3.412   9.151
   26G      O3'  823   5.039   3.603   9.025
   27C        P  824   4.969   3.592   8.883
   27C      O1P  825   5.060   3.520   8.791
   27C      O2P  826   4.922   3.727   8.848
   27C      O5'  827   4.845   3.497   8.916
   27C      C5'  828   4.862   3.356   8.924
   27C     H5'1  829   4.947   3.333   8.987
   27C     H5'2  830   4.882   3.318   8.824
   27C      C4'  831   4.738   3.283   8.978
   27C      H4'  832   4.767   3.180   9.000
   27C      O4'  833   4.686   3.343   9.096
   27C      C1'  834   4.544   3.334   9.093
   27C      H1'  835   4.510   3.279   9.180
   27C       N1  836   4.476   3.466   9.094
   27C       C6  837   4.536   3.581   9.049
   27C       H6  838   4.633   3.578   9.002
   27C       C5  839   4.472   3.700   9.063
   27C       H5  840   4.518   3.791   9.028
   27C       C4  841   4.342   3.698   9.121
   27C       N4  842   4.278   3.809   9.143
   27C      H41  843   4.314   3.896   9.111
   27C      H42  844   4.184   3.803   9.182
   27C       N3  845   4.283   3.589   9.165
   27C       C2  846   4.347   3.471   9.148
   27C       O2  847   4.289   3.369   9.185
   27C      C3'  848   4.626   3.274   8.876
   27C      H3'  849   4.619   3.368   8.820
   27C      C2'  850   4.504   3.257   8.968
   27C     H2'1  851   4.416   3.300   8.921
   27C      O2'  852   4.479   3.121   9.003
   27C     HO'2  853   4.427   3.087   8.929
   27C      O3'  854   4.645   3.161   8.792
   28G        P  855   4.592   3.164   8.642
   28G      O1P  856   4.625   3.030   8.586
   28G      O2P  857   4.647   3.286   8.580
   28G      O5'  858   4.436   3.172   8.671
   28G      C5'  859   4.360   3.053   8.675
   28G     H5'1  860   4.407   2.981   8.741
   28G     H5'2  861   4.357   3.010   8.574
   28G      C4'  862   4.217   3.072   8.723
   28G      H4'  863   4.172   2.973   8.739
   28G      O4'  864   4.205   3.146   8.845
   28G      C1'  865   4.086   3.223   8.836
   28G      H1'  866   4.016   3.198   8.916
   28G       N9  867   4.111   3.368   8.843
   28G       C8  868   4.221   3.442   8.806
   28G       H8  869   4.309   3.398   8.760
   28G       N7  870   4.211   3.569   8.834
   28G       C5  871   4.080   3.583   8.883
   28G       C6  872   4.003   3.697   8.925
   28G       O6  873   4.036   3.815   8.936
   28G       N1  874   3.872   3.666   8.955
   28G       H1  875   3.809   3.742   8.973
   28G       C2  876   3.820   3.542   8.948
   28G       N2  877   3.693   3.529   8.970
   28G      H21  878   3.636   3.612   8.981
   28G      H22  879   3.652   3.439   8.957
   28G       N3  880   3.889   3.432   8.918
   28G       C4  881   4.018   3.460   8.884
   28G      C3'  882   4.133   3.141   8.617
   28G      H3'  883   4.188   3.224   8.571
   28G      C2'  884   4.018   3.191   8.703
   28G     H2'1  885   3.972   3.279   8.659
   28G      O2'  886   3.920   3.090   8.723
   28G     HO'2  887   3.894   3.066   8.632
   28G      O3'  888   4.093   3.043   8.523
   29C        P  889   4.040   3.086   8.380
   29C      O1P  890   4.008   2.960   8.310
   29C      O2P  891   4.136   3.182   8.324
   29C      O5'  892   3.906   3.162   8.422
   29C      C5'  893   3.782   3.094   8.429
   29C     H5'1  894   3.791   3.006   8.493
   29C     H5'2  895   3.757   3.059   8.329
   29C      C4'  896   3.667   3.182   8.478
   29C      H4'  897   3.582   3.117   8.494
   29C      O4'  898   3.693   3.251   8.600
   29C      C1'  899   3.629   3.378   8.595
   29C      H1'  900   3.559   3.388   8.678
   29C       N1  901   3.724   3.492   8.600
   29C       C6  902   3.853   3.481   8.555
   29C       H6  903   3.885   3.390   8.506
   29C       C5  904   3.937   3.586   8.564
   29C       H5  905   4.038   3.576   8.528
   29C       C4  906   3.884   3.708   8.613
   29C       N4  907   3.959   3.814   8.613
   29C      H41  908   4.042   3.809   8.558
   29C      H42  909   3.918   3.901   8.645
   29C       N3  910   3.761   3.720   8.659
   29C       C2  911   3.679   3.613   8.652
   29C       O2  912   3.563   3.626   8.694
   29C      C3'  913   3.622   3.285   8.375
   29C      H3'  914   3.708   3.329   8.325
   29C      C2'  915   3.549   3.384   8.465
   29C     H2'1  916   3.548   3.484   8.421
   29C      O2'  917   3.418   3.338   8.493
   29C     HO'2  918   3.393   3.291   8.412
   29C      O3'  919   3.531   3.224   8.287
   30A        P  920   3.510   3.278   8.139
   30A      O1P  921   3.418   3.178   8.080
   30A      O2P  922   3.643   3.302   8.082
   30A      O5'  923   3.433   3.416   8.167
   30A      C5'  924   3.294   3.419   8.190
   30A     H5'1  925   3.270   3.349   8.270
   30A     H5'2  926   3.242   3.386   8.100
   30A      C4'  927   3.239   3.557   8.229
   30A      H4'  928   3.135   3.544   8.257
   30A      O4'  929   3.307   3.611   8.344
   30A      C1'  930   3.327   3.750   8.326
   30A      H1'  931   3.285   3.804   8.410
   30A       N9  932   3.470   3.788   8.317
   30A       C8  933   3.579   3.716   8.274
   30A       H8  934   3.571   3.617   8.231
   30A       N7  935   3.693   3.777   8.293
   30A       C5  936   3.656   3.901   8.344
   30A       C6  937   3.725   4.017   8.386
   30A       N6  938   3.856   4.032   8.387
   30A      H61  939   3.910   3.960   8.343
   30A      H62  940   3.895   4.120   8.417
   30A       N1  941   3.659   4.124   8.431
   30A       C2  942   3.527   4.117   8.435
   30A       H2  943   3.479   4.204   8.476
   30A       N3  944   3.447   4.016   8.403
   30A       C4  945   3.519   3.910   8.356
   30A      C3'  946   3.238   3.663   8.118
   30A      H3'  947   3.324   3.650   8.051
   30A      C2'  948   3.250   3.792   8.201
   30A     H2'1  949   3.304   3.869   8.145
   30A      O2'  950   3.123   3.839   8.244
   30A     HO'2  951   3.066   3.823   8.167
   30A      O3'  952   3.113   3.661   8.050
   31G        P  953   3.093   3.728   7.905
   31G      O1P  954   2.947   3.734   7.880
   31G      O2P  955   3.181   3.660   7.809
   31G      O5'  956   3.144   3.878   7.929
   31G      C5'  957   3.048   3.979   7.945
   31G     H5'1  958   2.977   3.949   8.021
   31G     H5'2  959   2.997   3.987   7.849
   31G      C4'  960   3.098   4.118   7.979
   31G      H4'  961   3.010   4.178   8.001
   31G      O4'  962   3.185   4.123   8.091
   31G      C1'  963   3.274   4.230   8.069
   31G      H1'  964   3.263   4.304   8.148
   31G       N9  965   3.415   4.186   8.068
   31G       C8  966   3.470   4.065   8.037
   31G       H8  967   3.411   3.980   8.003
   31G       N7  968   3.599   4.059   8.056
   31G       C5  969   3.633   4.189   8.092
   31G       C6  970   3.760   4.251   8.125
   31G       O6  971   3.871   4.202   8.135
   31G       N1  972   3.749   4.386   8.149
   31G       H1  973   3.836   4.436   8.164
   31G       C2  974   3.633   4.455   8.148
   31G       N2  975   3.637   4.583   8.171
   31G      H21  976   3.728   4.628   8.181
   31G      H22  977   3.552   4.634   8.163
   31G       N3  978   3.513   4.402   8.126
   31G       C4  979   3.521   4.268   8.097
   31G      C3'  980   3.168   4.184   7.862
   31G      H3'  981   3.239   4.114   7.815
   31G      C2'  982   3.240   4.296   7.936
   31G     H2'1  983   3.330   4.326   7.882
   31G      O2'  984   3.156   4.408   7.960
   31G     HO'2  985   3.171   4.465   7.883
   31G      O3'  986   3.071   4.232   7.771
   32A        P  987   3.110   4.268   7.622
   32A      O1P  988   2.983   4.309   7.558
   32A      O2P  989   3.186   4.156   7.567
   32A      O5'  990   3.208   4.393   7.646
   32A      C5'  991   3.161   4.525   7.649
   32A     H5'1  992   3.076   4.533   7.717
   32A     H5'2  993   3.127   4.551   7.549
   32A      C4'  994   3.270   4.625   7.692
   32A      H4'  995   3.221   4.719   7.716
   32A      O4'  996   3.346   4.583   7.805
   32A      C1'  997   3.481   4.628   7.790
   32A      H1'  998   3.510   4.692   7.872
   32A       N9  999   3.580   4.517   7.784
   32A       C8 1000   3.563   4.386   7.747
   32A       H8 1001   3.470   4.347   7.706
   32A       N7 1002   3.668   4.312   7.768
   32A       C5 1003   3.765   4.403   7.812
   32A       C6 1004   3.902   4.394   7.848
   32A       N6 1005   3.972   4.283   7.849
   32A      H61 1006   3.929   4.200   7.810
   32A      H62 1007   4.070   4.285   7.873
   32A       N1 1008   3.970   4.503   7.885
   32A       C2 1009   3.905   4.619   7.887
   32A       H2 1010   3.964   4.704   7.916
   32A       N3 1011   3.777   4.643   7.859
   32A       C4 1012   3.712   4.529   7.820
   32A      C3' 1013   3.369   4.656   7.580
   32A      H3' 1014   3.395   4.564   7.527
   32A      C2' 1015   3.487   4.709   7.661
   32A     H2'1 1016   3.581   4.693   7.607
   32A      O2' 1017   3.468   4.846   7.694
   32A     HO'2 1018   3.451   4.886   7.608
   32A      O3' 1019   3.316   4.758   7.497
   33U        P 1020   3.353   4.761   7.342
   33U      O1P 1021   3.276   4.874   7.284
   33U      O2P 1022   3.335   4.624   7.292
   33U      O5' 1023   3.509   4.798   7.352
   33U      C5' 1024   3.550   4.933   7.352
   33U     H5'1 1025   3.485   4.989   7.417
   33U     H5'2 1026   3.537   4.973   7.251
   33U      C4' 1027   3.696   4.956   7.395
   33U      H4' 1028   3.706   5.063   7.418
   33U      O4' 1029   3.737   4.882   7.510
   33U      C1' 1030   3.877   4.853   7.497
   33U      H1' 1031   3.933   4.899   7.579
   33U       N1 1032   3.906   4.707   7.499
   33U       C6 1033   3.811   4.613   7.465
   33U       H6 1034   3.715   4.643   7.426
   33U       C5 1035   3.838   4.480   7.481
   33U       H5 1036   3.764   4.406   7.457
   33U       C4 1037   3.966   4.434   7.529
   33U       O4 1038   3.998   4.318   7.553
   33U       N3 1039   4.057   4.533   7.552
   33U       H3 1040   4.149   4.502   7.578
   33U       C2 1041   4.034   4.668   7.539
   33U       O2 1042   4.124   4.749   7.565
   33U      C3' 1043   3.796   4.926   7.285
   33U      H3' 1044   3.772   4.831   7.238
   33U      C2' 1045   3.925   4.916   7.367
   33U     H2'1 1046   3.998   4.853   7.316
   33U      O2' 1047   3.979   5.045   7.395
   33U     HO'2 1048   3.982   5.089   7.309
   33U      O3' 1049   3.798   5.035   7.195
   34G        P 1050   3.833   5.013   7.042
   34G      O1P 1051   3.829   5.149   6.983
   34G      O2P 1052   3.744   4.908   6.990
   34G      O5' 1053   3.985   4.966   7.057
   34G      C5' 1054   4.087   5.064   7.065
   34G     H5'1 1055   4.058   5.140   7.138
   34G     H5'2 1056   4.096   5.112   6.967
   34G      C4' 1057   4.224   5.010   7.105
   34G      H4' 1058   4.290   5.096   7.117
   34G      O4' 1059   4.227   4.938   7.228
   34G      C1' 1060   4.326   4.835   7.216
   34G      H1' 1061   4.398   4.840   7.297
   34G       N9 1062   4.265   4.700   7.220
   34G       C8 1063   4.136   4.661   7.192
   34G       H8 1064   4.061   4.729   7.154
   34G       N7 1065   4.113   4.536   7.219
   34G       C5 1066   4.238   4.485   7.257
   34G       C6 1067   4.283   4.352   7.292
   34G       O6 1068   4.220   4.248   7.307
   34G       N1 1069   4.420   4.344   7.309
   34G       H1 1070   4.459   4.252   7.323
   34G       C2 1071   4.504   4.450   7.300
   34G       N2 1072   4.631   4.426   7.313
   34G      H21 1073   4.664   4.330   7.321
   34G      H22 1074   4.694   4.503   7.303
   34G       N3 1075   4.467   4.576   7.276
   34G       C4 1076   4.332   4.586   7.253
   34G      C3' 1077   4.287   4.922   6.999
   34G      H3' 1078   4.215   4.850   6.959
   34G      C2' 1079   4.397   4.854   7.082
   34G     H2'1 1080   4.426   4.759   7.038
   34G      O2' 1081   4.508   4.942   7.095
   34G     HO'2 1082   4.504   4.989   7.010
   34G      O3' 1083   4.345   5.005   6.900
   35C        P 1084   4.366   4.952   6.752
   35C      O1P 1085   4.422   5.068   6.679
   35C      O2P 1086   4.243   4.886   6.707
   35C      O5' 1087   4.479   4.841   6.776
   35C      C5' 1088   4.615   4.875   6.780
   35C     H5'1 1089   4.627   4.960   6.846
   35C     H5'2 1090   4.644   4.906   6.679
   35C      C4' 1091   4.706   4.760   6.825
   35C      H4' 1092   4.805   4.801   6.843
   35C      O4' 1093   4.666   4.696   6.945
   35C      C1' 1094   4.694   4.556   6.933
   35C      H1' 1095   4.761   4.523   7.012
   35C       N1 1096   4.570   4.473   6.939
   35C       C6 1097   4.446   4.520   6.902
   35C       H6 1098   4.436   4.618   6.858
   35C       C5 1099   4.337   4.442   6.917
   35C       H5 1100   4.240   4.479   6.888
   35C       C4 1101   4.356   4.312   6.971
   35C       N4 1102   4.253   4.235   6.992
   35C      H41 1103   4.161   4.265   6.967
   35C      H42 1104   4.270   4.142   7.030
   35C       N3 1105   4.474   4.264   7.003
   35C       C2 1106   4.583   4.342   6.986
   35C       O2 1107   4.694   4.295   7.012
   35C      C3' 1108   4.720   4.654   6.717
   35C      H3' 1109   4.623   4.636   6.670
   35C      C2' 1110   4.764   4.533   6.799
   35C     H2'1 1111   4.727   4.441   6.752
   35C      O2' 1112   4.905   4.524   6.818
   35C     HO'2 1113   4.934   4.464   6.748
   35C      O3' 1114   4.819   4.697   6.626
   36C        P 1115   4.809   4.654   6.473
   36C      O1P 1116   4.929   4.712   6.408
   36C      O2P 1117   4.674   4.691   6.427
   36C      O5' 1118   4.827   4.495   6.488
   36C      C5' 1119   4.957   4.440   6.489
   36C     H5'1 1120   5.021   4.499   6.555
   36C     H5'2 1121   4.995   4.450   6.387
   36C      C4' 1122   4.968   4.293   6.529
   36C      H4' 1123   5.073   4.271   6.548
   36C      O4' 1124   4.897   4.262   6.648
   36C      C1' 1125   4.847   4.129   6.638
   36C      H1' 1126   4.886   4.067   6.719
   36C       N1 1127   4.698   4.124   6.647
   36C       C6 1128   4.619   4.233   6.621
   36C       H6 1129   4.663   4.322   6.578
   36C       C5 1130   4.487   4.229   6.649
   36C       H5 1131   4.424   4.315   6.631
   36C       C4 1132   4.433   4.107   6.698
   36C       N4 1133   4.306   4.095   6.722
   36C      H41 1134   4.244   4.171   6.699
   36C      H42 1135   4.272   4.005   6.753
   36C       N3 1136   4.507   4.000   6.720
   36C       C2 1137   4.639   4.005   6.694
   36C       O2 1138   4.706   3.904   6.713
   36C      C3' 1139   4.924   4.195   6.420
   36C      H3' 1140   4.834   4.232   6.370
   36C      C2' 1141   4.895   4.070   6.504
   36C     H2'1 1142   4.816   4.012   6.457
   36C      O2' 1143   5.008   3.987   6.530
   36C     HO'2 1144   4.989   3.905   6.482
   36C      O3' 1145   5.033   4.178   6.331
   37C        P 1146   5.013   4.117   6.184
   37C      O1P 1147   5.151   4.097   6.135
   37C      O2P 1148   4.925   4.208   6.110
   37C      O5' 1149   4.941   3.975   6.203
   37C      C5' 1150   5.016   3.854   6.215
   37C     H5'1 1151   5.094   3.868   6.289
   37C     H5'2 1152   5.064   3.833   6.119
   37C      C4' 1153   4.931   3.732   6.255
   37C      H4' 1154   4.999   3.649   6.275
   37C      O4' 1155   4.853   3.756   6.372
   37C      C1' 1156   4.736   3.672   6.368
   37C      H1' 1157   4.744   3.594   6.445
   37C       N1 1158   4.608   3.745   6.389
   37C       C6 1159   4.595   3.877   6.356
   37C       H6 1160   4.678   3.930   6.310
   37C       C5 1161   4.478   3.941   6.378
   37C       H5 1162   4.467   4.045   6.351
   37C       C4 1163   4.371   3.866   6.432
   37C       N4 1164   4.257   3.925   6.455
   37C      H41 1165   4.243   4.020   6.423
   37C      H42 1166   4.179   3.872   6.491
   37C       N3 1167   4.379   3.737   6.459
   37C       C2 1168   4.497   3.674   6.435
   37C       O2 1169   4.501   3.551   6.453
   37C      C3' 1170   4.834   3.685   6.147
   37C      H3' 1171   4.785   3.771   6.100
   37C      C2' 1172   4.733   3.605   6.230
   37C     H2'1 1173   4.634   3.614   6.186
   37C      O2' 1174   4.766   3.468   6.247
   37C     HO'2 1175   4.703   3.419   6.193
   37C      O3' 1176   4.901   3.604   6.051
   38U        P 1177   4.839   3.581   5.906
   38U      O1P 1178   4.935   3.493   5.835
   38U      O2P 1179   4.810   3.713   5.848
   38U      O5' 1180   4.704   3.498   5.933
   38U      C5' 1181   4.710   3.357   5.949
   38U     H5'1 1182   4.789   3.334   6.020
   38U     H5'2 1183   4.735   3.312   5.853
   38U      C4' 1184   4.581   3.293   6.001
   38U      H4' 1185   4.602   3.189   6.028
   38U      O4' 1186   4.531   3.360   6.117
   38U      C1' 1187   4.389   3.351   6.116
   38U      H1' 1188   4.355   3.294   6.203
   38U       N1 1189   4.324   3.485   6.119
   38U       C6 1190   4.388   3.599   6.075
   38U       H6 1191   4.485   3.592   6.028
   38U       C5 1192   4.330   3.721   6.093
   38U       H5 1193   4.380   3.811   6.061
   38U       C4 1194   4.200   3.735   6.155
   38U       O4 1195   4.141   3.839   6.178
   38U       N3 1196   4.141   3.616   6.189
   38U       H3 1197   4.047   3.622   6.225
   38U       C2 1198   4.194   3.491   6.170
   38U       O2 1199   4.127   3.392   6.197
   38U      C3' 1200   4.469   3.289   5.899
   38U      H3' 1201   4.464   3.384   5.844
   38U      C2' 1202   4.348   3.272   5.991
   38U     H2'1 1203   4.257   3.312   5.945
   38U      O2' 1204   4.329   3.137   6.031
   38U     HO'2 1205   4.364   3.080   5.960
   38U      O3' 1206   4.485   3.177   5.813
   39U        P 1207   4.436   3.181   5.662
   39U      O1P 1208   4.471   3.050   5.603
   39U      O2P 1209   4.488   3.305   5.601
   39U      O5' 1210   4.276   3.190   5.678
   39U      C5' 1211   4.201   3.072   5.705
   39U     H5'1 1212   4.245   3.022   5.791
   39U     H5'2 1213   4.208   3.006   5.618
   39U      C4' 1214   4.053   3.095   5.736
   39U      H4' 1215   4.006   2.997   5.746
   39U      O4' 1216   4.036   3.164   5.859
   39U      C1' 1217   3.915   3.239   5.853
   39U      H1' 1218   3.847   3.208   5.933
   39U       N1 1219   3.938   3.385   5.865
   39U       C6 1220   4.055   3.445   5.820
   39U       H6 1221   4.132   3.384   5.775
   39U       C5 1222   4.073   3.579   5.834
   39U       H5 1223   4.164   3.626   5.800
   39U       C4 1224   3.972   3.663   5.893
   39U       O4 1225   3.979   3.784   5.908
   39U       N3 1226   3.858   3.598   5.931
   39U       H3 1227   3.784   3.656   5.967
   39U       C2 1228   3.834   3.463   5.918
   39U       O2 1229   3.725   3.417   5.951
   39U      C3' 1230   3.971   3.169   5.630
   39U      H3' 1231   4.025   3.259   5.599
   39U      C2' 1232   3.851   3.206   5.718
   39U     H2'1 1233   3.798   3.292   5.679
   39U      O2' 1234   3.762   3.097   5.736
   39U     HO'2 1235   3.715   3.090   5.652
   39U      O3' 1236   3.934   3.089   5.518
   40C        P 1237   3.874   3.158   5.387
   40C      O1P 1238   3.853   3.055   5.284
   40C      O2P 1239   3.956   3.276   5.356
   40C      O5' 1240   3.734   3.211   5.436
   40C      C5' 1241   3.620   3.128   5.444
   40C     H5'1 1242   3.638   3.043   5.509
   40C     H5'2 1243   3.593   3.092   5.344
   40C      C4' 1244   3.506   3.214   5.499
   40C      H4' 1245   3.422   3.149   5.523
   40C      O4' 1246   3.539   3.284   5.618
   40C      C1' 1247   3.472   3.410   5.618
   40C      H1' 1248   3.406   3.417   5.705
   40C       N1 1249   3.567   3.525   5.621
   40C       C6 1250   3.697   3.514   5.580
   40C       H6 1251   3.731   3.422   5.535
   40C       C5 1252   3.783   3.617   5.594
   40C       H5 1253   3.885   3.608   5.561
   40C       C4 1254   3.731   3.738   5.648
   40C       N4 1255   3.810   3.840   5.662
   40C      H41 1256   3.908   3.832   5.641
   40C      H42 1257   3.773   3.925   5.703
   40C       N3 1258   3.605   3.752   5.682
   40C       C2 1259   3.521   3.647   5.670
   40C       O2 1260   3.403   3.662   5.703
   40C      C3' 1261   3.458   3.317   5.397
   40C      H3' 1262   3.542   3.364   5.345
   40C      C2' 1263   3.387   3.414   5.491
   40C     H2'1 1264   3.384   3.514   5.448
   40C      O2' 1265   3.256   3.365   5.515
   40C     HO'2 1266   3.234   3.328   5.428
   40C      O3' 1267   3.366   3.253   5.308
   41C        P 1268   3.337   3.310   5.162
   41C      O1P 1269   3.226   3.227   5.112
   41C      O2P 1270   3.462   3.320   5.085
   41C      O5' 1271   3.276   3.454   5.194
   41C      C5' 1272   3.136   3.469   5.212
   41C     H5'1 1273   3.102   3.398   5.287
   41C     H5'2 1274   3.086   3.446   5.118
   41C      C4' 1275   3.094   3.609   5.256
   41C      H4' 1276   2.988   3.606   5.276
   41C      O4' 1277   3.156   3.654   5.375
   41C      C1' 1278   3.172   3.795   5.368
   41C      H1' 1279   3.121   3.844   5.450
   41C       N1 1280   3.314   3.839   5.370
   41C       C6 1281   3.417   3.754   5.338
   41C       H6 1282   3.397   3.655   5.299
   41C       C5 1283   3.544   3.796   5.354
   41C       H5 1284   3.624   3.728   5.330
   41C       C4 1285   3.567   3.930   5.394
   41C       N4 1286   3.689   3.971   5.408
   41C      H41 1287   3.763   3.903   5.395
   41C      H42 1288   3.709   4.066   5.438
   41C       N3 1289   3.468   4.015   5.421
   41C       C2 1290   3.341   3.971   5.407
   41C       O2 1291   3.248   4.050   5.427
   41C      C3' 1292   3.113   3.715   5.148
   41C      H3' 1293   3.209   3.703   5.098
   41C      C2' 1294   3.110   3.840   5.236
   41C     H2'1 1295   3.167   3.921   5.190
   41C      O2' 1296   2.976   3.880   5.258
   41C     HO'2 1297   2.943   3.897   5.169
   41C      O3' 1298   3.002   3.716   5.058
   42G        P 1299   3.011   3.793   4.919
   42G      O1P 1300   2.878   3.785   4.857
   42G      O2P 1301   3.130   3.744   4.848
   42G      O5' 1302   3.035   3.946   4.958
   42G      C5' 1303   2.926   4.037   4.965
   42G     H5'1 1304   2.855   4.002   5.040
   42G     H5'2 1305   2.876   4.040   4.868
   42G      C4' 1306   2.969   4.179   5.000
   42G      H4' 1307   2.879   4.237   5.017
   42G      O4' 1308   3.047   4.185   5.119
   42G      C1' 1309   3.143   4.290   5.104
   42G      H1' 1310   3.137   4.361   5.186
   42G       N9 1311   3.282   4.239   5.102
   42G       C8 1312   3.330   4.112   5.076
   42G       H8 1313   3.266   4.030   5.046
   42G       N7 1314   3.458   4.099   5.093
   42G       C5 1315   3.502   4.228   5.126
   42G       C6 1316   3.632   4.282   5.152
   42G       O6 1317   3.742   4.225   5.158
   42G       N1 1318   3.632   4.418   5.175
   42G       H1 1319   3.721   4.462   5.192
   42G       C2 1320   3.520   4.494   5.173
   42G       N2 1321   3.535   4.623   5.187
   42G      H21 1322   3.629   4.661   5.196
   42G      H22 1323   3.456   4.682   5.169
   42G       N3 1324   3.396   4.449   5.152
   42G       C4 1325   3.394   4.315   5.128
   42G      C3' 1326   3.044   4.253   4.889
   42G      H3' 1327   3.117   4.187   4.841
   42G      C2' 1328   3.111   4.362   4.974
   42G     H2'1 1329   3.201   4.399   4.926
   42G      O2' 1330   3.021   4.468   5.003
   42G     HO'2 1331   3.008   4.512   4.918
   42G      O3' 1332   2.948   4.307   4.798
   43U        P 1333   2.986   4.353   4.651
   43U      O1P 1334   2.861   4.410   4.594
   43U      O2P 1335   3.054   4.244   4.581
   43U      O5' 1336   3.090   4.471   4.672
   43U      C5' 1337   3.047   4.604   4.690
   43U     H5'1 1338   2.972   4.609   4.768
   43U     H5'2 1339   3.004   4.639   4.596
   43U      C4' 1340   3.163   4.697   4.727
   43U      H4' 1341   3.123   4.795   4.750
   43U      O4' 1342   3.238   4.650   4.839
   43U      C1' 1343   3.374   4.691   4.822
   43U      H1' 1344   3.404   4.756   4.904
   43U       N1 1345   3.467   4.574   4.817
   43U       C6 1346   3.426   4.447   4.779
   43U       H6 1347   3.324   4.431   4.749
   43U       C5 1348   3.514   4.343   4.778
   43U       H5 1349   3.481   4.244   4.751
   43U       C4 1350   3.653   4.362   4.813
   43U       O4 1351   3.740   4.276   4.810
   43U       N3 1352   3.685   4.489   4.852
   43U       H3 1353   3.782   4.506   4.874
   43U       C2 1354   3.600   4.597   4.853
   43U       O2 1355   3.643   4.709   4.884
   43U      C3' 1356   3.263   4.714   4.613
   43U      H3' 1357   3.289   4.617   4.570
   43U      C2' 1358   3.381   4.771   4.691
   43U     H2'1 1359   3.475   4.754   4.640
   43U      O2' 1360   3.361   4.910   4.716
   43U     HO'2 1361   3.345   4.948   4.629
   43U      O3' 1362   3.212   4.804   4.516
   44A        P 1363   3.250   4.791   4.362
   44A      O1P 1364   3.171   4.896   4.294
   44A      O2P 1365   3.231   4.650   4.323
   44A      O5' 1366   3.406   4.831   4.363
   44A      C5' 1367   3.444   4.966   4.379
   44A     H5'1 1368   3.385   5.010   4.459
   44A     H5'2 1369   3.422   5.021   4.287
   44A      C4' 1370   3.592   4.988   4.415
   44A      H4' 1371   3.606   5.094   4.432
   44A      O4' 1372   3.631   4.919   4.533
   44A      C1' 1373   3.770   4.886   4.524
   44A      H1' 1374   3.826   4.931   4.606
   44A       N9 1375   3.789   4.739   4.528
   44A       C8 1376   3.696   4.639   4.516
   44A       H8 1377   3.592   4.658   4.492
   44A       N7 1378   3.742   4.520   4.539
   44A       C5 1379   3.879   4.542   4.563
   44A       C6 1380   3.990   4.458   4.589
   44A       N6 1381   3.983   4.327   4.602
   44A      H61 1382   3.893   4.284   4.607
   44A      H62 1383   4.065   4.272   4.625
   44A       N1 1384   4.112   4.511   4.604
   44A       C2 1385   4.125   4.643   4.597
   44A       H2 1386   4.225   4.681   4.612
   44A       N3 1387   4.030   4.734   4.573
   44A       C4 1388   3.908   4.675   4.556
   44A      C3' 1389   3.691   4.949   4.306
   44A      H3' 1390   3.668   4.849   4.269
   44A      C2' 1391   3.819   4.945   4.391
   44A     H2'1 1392   3.896   4.883   4.346
   44A      O2' 1393   3.869   5.076   4.417
   44A     HO'2 1394   3.871   5.122   4.333
   44A      O3' 1395   3.693   5.046   4.202
   45G        P 1396   3.724   5.003   4.051
   45G      O1P 1397   3.707   5.120   3.961
   45G      O2P 1398   3.647   4.881   4.021
   45G      O5' 1399   3.881   4.970   4.061
   45G      C5' 1400   3.974   5.076   4.081
   45G     H5'1 1401   3.939   5.140   4.162
   45G     H5'2 1402   3.978   5.136   3.990
   45G      C4' 1403   4.117   5.031   4.115
   45G      H4' 1404   4.175   5.122   4.122
   45G      O4' 1405   4.128   4.965   4.241
   45G      C1' 1406   4.225   4.861   4.231
   45G      H1' 1407   4.298   4.867   4.312
   45G       N9 1408   4.162   4.728   4.238
   45G       C8 1409   4.032   4.691   4.217
   45G       H8 1410   3.955   4.760   4.184
   45G       N7 1411   4.008   4.564   4.238
   45G       C5 1412   4.133   4.512   4.271
   45G       C6 1413   4.175   4.378   4.300
   45G       O6 1414   4.110   4.275   4.303
   45G       N1 1415   4.310   4.367   4.326
   45G       H1 1416   4.345   4.275   4.346
   45G       C2 1417   4.395   4.472   4.324
   45G       N2 1418   4.522   4.445   4.342
   45G      H21 1419   4.552   4.349   4.354
   45G      H22 1420   4.584   4.524   4.341
   45G       N3 1421   4.363   4.598   4.297
   45G       C4 1422   4.228   4.612   4.271
   45G      C3' 1423   4.186   4.944   4.010
   45G      H3' 1424   4.116   4.869   3.973
   45G      C2' 1425   4.296   4.880   4.097
   45G     H2'1 1426   4.327   4.784   4.055
   45G      O2' 1427   4.409   4.966   4.118
   45G     HO'2 1428   4.487   4.910   4.113
   45G      O3' 1429   4.240   5.024   3.906
   46A        P 1430   4.280   4.961   3.765
   46A      O1P 1431   4.356   5.068   3.697
   46A      O2P 1432   4.158   4.907   3.701
   46A      O5' 1433   4.383   4.842   3.793
   46A      C5' 1434   4.521   4.872   3.804
   46A     H5'1 1435   4.534   4.947   3.881
   46A     H5'2 1436   4.555   4.912   3.708
   46A      C4' 1437   4.610   4.753   3.837
   46A      H4' 1438   4.712   4.790   3.850
   46A      O4' 1439   4.570   4.693   3.959
   46A      C1' 1440   4.593   4.554   3.950
   46A      H1' 1441   4.657   4.520   4.031
   46A       N9 1442   4.465   4.480   3.958
   46A       C8 1443   4.337   4.526   3.937
   46A       H8 1444   4.315   4.628   3.907
   46A       N7 1445   4.244   4.436   3.955
   46A       C5 1446   4.317   4.320   3.989
   46A       C6 1447   4.284   4.186   4.020
   46A       N6 1448   4.162   4.139   4.031
   46A      H61 1449   4.085   4.204   4.029
   46A      H62 1450   4.147   4.045   4.068
   46A       N1 1451   4.380   4.097   4.044
   46A       C2 1452   4.506   4.138   4.045
   46A       H2 1453   4.580   4.063   4.068
   46A       N3 1454   4.552   4.260   4.021
   46A       C4 1455   4.451   4.347   3.991
   46A      C3' 1456   4.614   4.645   3.729
   46A      H3' 1457   4.514   4.627   3.690
   46A      C2' 1458   4.662   4.528   3.816
   46A     H2'1 1459   4.634   4.432   3.774
   46A      O2' 1460   4.802   4.535   3.838
   46A     HO'2 1461   4.842   4.558   3.753
   46A      O3' 1462   4.708   4.678   3.625
   47G        P 1463   4.692   4.623   3.476
   47G      O1P 1464   4.807   4.670   3.395
   47G      O2P 1465   4.556   4.650   3.426
   47G      O5' 1466   4.710   4.464   3.490
   47G      C5' 1467   4.842   4.412   3.504
   47G     H5'1 1468   4.894   4.469   3.580
   47G     H5'2 1469   4.895   4.425   3.409
   47G      C4' 1470   4.847   4.265   3.544
   47G      H4' 1471   4.952   4.238   3.557
   47G      O4' 1472   4.781   4.242   3.667
   47G      C1' 1473   4.728   4.111   3.666
   47G      H1' 1474   4.767   4.052   3.750
   47G       N9 1475   4.580   4.116   3.676
   47G       C8 1476   4.495   4.220   3.650
   47G       H8 1477   4.529   4.318   3.619
   47G       N7 1478   4.369   4.190   3.662
   47G       C5 1479   4.369   4.057   3.705
   47G       C6 1480   4.263   3.964   3.737
   47G       O6 1481   4.141   3.976   3.732
   47G       N1 1482   4.309   3.838   3.771
   47G       H1 1483   4.240   3.771   3.799
   47G       C2 1484   4.440   3.803   3.772
   47G       N2 1485   4.468   3.677   3.790
   47G      H21 1486   4.393   3.611   3.809
   47G      H22 1487   4.564   3.654   3.793
   47G       N3 1488   4.541   3.883   3.740
   47G       C4 1489   4.499   4.010   3.711
   47G      C3' 1490   4.788   4.169   3.442
   47G      H3' 1491   4.691   4.206   3.407
   47G      C2' 1492   4.770   4.047   3.534
   47G     H2'1 1493   4.693   3.980   3.497
   47G      O2' 1494   4.894   3.978   3.546
   47G     HO'2 1495   4.931   3.981   3.457
   47G      O3' 1496   4.878   4.144   3.334
   48U        P 1497   4.826   4.098   3.190
   48U      O1P 1498   4.942   4.085   3.099
   48U      O2P 1499   4.708   4.180   3.153
   48U      O5' 1500   4.773   3.952   3.222
   48U      C5' 1501   4.862   3.843   3.234
   48U     H5'1 1502   4.941   3.866   3.305
   48U     H5'2 1503   4.907   3.823   3.136
   48U      C4' 1504   4.788   3.717   3.280
   48U      H4' 1505   4.861   3.638   3.293
   48U      O4' 1506   4.719   3.737   3.403
   48U      C1' 1507   4.597   3.662   3.400
   48U      H1' 1508   4.591   3.597   3.487
   48U       N1 1509   4.474   3.746   3.403
   48U       C6 1510   4.474   3.880   3.368
   48U       H6 1511   4.566   3.926   3.335
   48U       C5 1512   4.361   3.954   3.375
   48U       H5 1513   4.361   4.058   3.349
   48U       C4 1514   4.235   3.896   3.419
   48U       O4 1515   4.128   3.954   3.419
   48U       N3 1516   4.244   3.764   3.455
   48U       H3 1517   4.159   3.722   3.489
   48U       C2 1518   4.356   3.684   3.445
   48U       O2 1519   4.348   3.563   3.467
   48U      C3' 1520   4.684   3.669   3.180
   48U      H3' 1521   4.624   3.753   3.146
   48U      C2' 1522   4.603   3.577   3.272
   48U     H2'1 1523   4.503   3.559   3.232
   48U      O2' 1524   4.670   3.454   3.298
   48U     HO'2 1525   4.672   3.405   3.215
   48U      O3' 1526   4.747   3.601   3.072
   49C        P 1527   4.682   3.604   2.927
   49C      O1P 1528   4.779   3.541   2.835
   49C      O2P 1529   4.637   3.741   2.900
   49C      O5' 1530   4.554   3.509   2.945
   49C      C5' 1531   4.568   3.369   2.953
   49C     H5'1 1532   4.648   3.345   3.023
   49C     H5'2 1533   4.596   3.329   2.855
   49C      C4' 1534   4.440   3.299   3.001
   49C      H4' 1535   4.463   3.194   3.014
   49C      O4' 1536   4.395   3.349   3.127
   49C      C1' 1537   4.252   3.343   3.130
   49C      H1' 1538   4.219   3.284   3.216
   49C       N1 1539   4.190   3.479   3.139
   49C       C6 1540   4.259   3.594   3.108
   49C       H6 1541   4.361   3.588   3.073
   49C       C5 1542   4.201   3.715   3.122
   49C       H5 1543   4.256   3.805   3.099
   49C       C4 1544   4.065   3.718   3.166
   49C       N4 1545   4.006   3.833   3.181
   49C      H41 1546   4.061   3.916   3.189
   49C      H42 1547   3.912   3.834   3.219
   49C       N3 1548   3.996   3.609   3.194
   49C       C2 1549   4.057   3.489   3.182
   49C       O2 1550   3.992   3.388   3.211
   49C      C3' 1551   4.322   3.310   2.904
   49C      H3' 1552   4.312   3.413   2.869
   49C      C2' 1553   4.208   3.273   3.001
   49C     H2'1 1554   4.113   3.311   2.964
   49C      O2' 1555   4.201   3.133   3.025
   49C     HO'2 1556   4.107   3.108   3.024
   49C      O3' 1557   4.334   3.218   2.797
   50G        P 1558   4.252   3.237   2.661
   50G      O1P 1559   4.283   3.120   2.576
   50G      O2P 1560   4.281   3.372   2.609
   50G      O5' 1561   4.097   3.231   2.700
   50G      C5' 1562   4.030   3.107   2.719
   50G     H5'1 1563   4.084   3.048   2.794
   50G     H5'2 1564   4.030   3.051   2.626
   50G      C4' 1565   3.885   3.126   2.765
   50G      H4' 1566   3.840   3.027   2.778
   50G      O4' 1567   3.877   3.195   2.890
   50G      C1' 1568   3.757   3.273   2.890
   50G      H1' 1569   3.690   3.244   2.972
   50G       N9 1570   3.788   3.417   2.903
   50G       C8 1571   3.900   3.486   2.865
   50G       H8 1572   3.989   3.437   2.827
   50G       N7 1573   3.890   3.616   2.875
   50G       C5 1574   3.759   3.635   2.923
   50G       C6 1575   3.682   3.754   2.949
   50G       O6 1576   3.713   3.873   2.936
   50G       N1 1577   3.554   3.728   2.992
   50G       H1 1578   3.497   3.806   3.019
   50G       C2 1579   3.502   3.603   3.005
   50G       N2 1580   3.379   3.594   3.046
   50G      H21 1581   3.325   3.678   3.063
   50G      H22 1582   3.347   3.501   3.068
   50G       N3 1583   3.569   3.491   2.981
   50G       C4 1584   3.697   3.513   2.941
   50G      C3' 1585   3.798   3.205   2.667
   50G      H3' 1586   3.853   3.294   2.635
   50G      C2' 1587   3.683   3.249   2.758
   50G     H2'1 1588   3.637   3.340   2.721
   50G      O2' 1589   3.586   3.146   2.775
   50G     HO'2 1590   3.512   3.167   2.717
   50G      O3' 1591   3.751   3.132   2.554
   50G      H3T 1592   3.775   3.184   2.476
   51SOL     OW 1593   0.249   0.618   0.050
   51SOL    HW1 1594   0.210   0.661   0.126
   51SOL    HW2 1595   0.199   0.537   0.040
   52SOL     OW 1596   0.223   0.256   0.979
   52SOL    HW1 1597   0.237   0.234   1.071
   52SOL    HW2 1598   0.129   0.244   0.965
   53SOL     OW 1599   7.992   0.351   0.650
   53SOL    HW1 1600   7.983   0.441   0.681
   53SOL    HW2 1601   7.934   0.347   0.574
   54SOL     OW 1602   0.574   1.293   1.191
   54SOL    HW1 1603   0.483   1.285   1.163
   54SOL    HW2 1604   0.585   1.387   1.210
   55SOL     OW 1605   1.549   1.505   0.707
   55SOL    HW1 1606   1.514   1.491   0.795
   55SOL    HW2 1607   1.473   1.508   0.650
   56SOL     OW 1608   1.141   0.688   0.683
   56SOL    HW1 1609   1.185   0.773   0.686
   56SOL    HW2 1610   1.076   0.692   0.753
   57SOL     OW 1611   1.732   0.583   0.209
   57SOL    HW1 1612   1.770   0.667   0.181
   57SOL    HW2 1613   1.684   0.604   0.289
   58SOL     OW 1614   0.757   1.151   1.048
   58SOL    HW1 1615   0.687   1.183   1.105
   58SOL    HW2 1616   0.790   1.229   1.004
   59SOL     OW 1617   0.866   0.760   1.818
   59SOL    HW1 1618   0.874   0.827   1.886
   59SOL    HW2 1619   0.887   0.805   1.737
   60SOL     OW 1620   0.683   0.987   0.654
   60SOL    HW1 1621   0.749   0.991   0.722
   60SOL    HW2 1622   0.611   1.042   0.687
   61SOL     OW 1623   0.703   1.143   1.809
   61SOL    HW1 1624   0.744   1.223   1.843
   61SOL    HW2 1625   0.621   1.173   1.770
   62SOL     OW 1626   0.326   1.425   1.068
   62SOL    HW1 1627   0.282   1.356   1.018
   62SOL    HW2 1628   0.380   1.471   1.004
   63SOL     OW 1629   1.459   1.493   1.369
   63SOL    HW1 1630   1.517   1.565   1.392
   63SOL    HW2 1631   1.382   1.506   1.424
   64SOL     OW 1632   0.452   0.378   1.475
   64SOL    HW1 1633   0.537   0.334   1.479
   64SOL    HW2 1634   0.393   0.321   1.524
   65SOL     OW 1635   1.562   0.460   0.717
   65SOL    HW1 1636   1.467   0.461   0.706
   65SOL    HW2 1637   1.584   0.552   0.734
   66SOL     OW 1638   0.219   1.734   0.480
   66SOL    HW1 1639   0.245   1.803   0.541
   66SOL    HW2 1640   0.299   1.711   0.433
   67SOL     OW 1641   1.142   1.336   1.667
   67SOL    HW1 1642   1.173   1.336   1.758
   67SOL    HW2 1643   1.077   1.265   1.664
   68SOL     OW 1644   0.237   1.450   0.531
   68SOL    HW1 1645   0.255   1.519   0.594
   68SOL    HW2 1646   0.198   1.379   0.582
   69SOL     OW 1647   0.585   1.814   1.385
   69SOL    HW1 1648   0.524   1.771   1.446
   69SOL    HW2 1649   0.649   1.857   1.441
   70SOL     OW 1650   0.558   1.016   0.119
   70SOL    HW1 1651   0.626   1.046   0.058
   70SOL    HW2 1652   0.593   0.935   0.156
   71SOL     OW 1653   1.635   0.178   1.461
   71SOL    HW1 1654   1.565   0.125   1.425
   71SOL    HW2 1655   1.618   0.179   1.556
   72SOL     OW 1656   0.109   0.651   0.548
   72SOL    HW1 1657   0.022   0.621   0.523
   72SOL    HW2 1658   0.095   0.704   0.627
   73SOL     OW 1659   1.822   1.755   0.319
   73SOL    HW1 1660   1.869   1.732   0.399
   73SOL    HW2 1661   1.863   1.836   0.289
   74SOL     OW 1662   0.012   1.586   0.099
   74SOL    HW1 1663   0.032   1.501   0.137
   74SOL    HW2 1664   0.056   1.649   0.156
   75SOL     OW 1665   1.675   0.933   0.655
   75SOL    HW1 1666   1.740   0.881   0.608
   75SOL    HW2 1667   1.649   1.000   0.593
   76SOL     OW 1668   1.639   1.111   0.441
   76SOL    HW1 1669   1.720   1.112   0.391
   76SOL    HW2 1670   1.649   1.179   0.507
   77SOL     OW 1671   0.612   1.376   0.749
   77SOL    HW1 1672   0.563   1.294   0.752
   77SOL    HW2 1673   0.610   1.401   0.657
   78SOL     OW 1674   1.286   1.223   1.415
   78SOL    HW1 1675   1.378   1.200   1.404
   78SOL    HW2 1676   1.276   1.245   1.507
   79SOL     OW 1677   0.821   0.034   0.553
   79SOL    HW1 1678   0.876   0.110   0.532
   79SOL    HW2 1679   0.741   0.071   0.588
   80SOL     OW 1680   0.181   0.892   1.308
   80SOL    HW1 1681   0.271   0.888   1.274
   80SOL    HW2 1682   0.128   0.913   1.231
   81SOL     OW 1683   1.484   1.014   0.225
   81SOL    HW1 1684   1.433   0.947   0.269
   81SOL    HW2 1685   1.546   1.045   0.291
   82SOL     OW 1686   1.240   1.839   1.621
   82SOL    HW1 1687   1.200   1.884   1.547
   82SOL    HW2 1688   1.218   1.747   1.609
   83SOL     OW 1689   0.323   0.250   1.760
   83SOL    HW1 1690   0.388   0.301   1.809
   83SOL    HW2 1691   0.240   0.269   1.803
   84SOL     OW 1692   1.462   1.416   0.962
   84SOL    HW1 1693   1.391   1.434   1.024
   84SOL    HW2 1694   1.440   1.331   0.924
   85SOL     OW 1695   1.638   1.744   0.577
   85SOL    HW1 1696   1.732   1.731   0.583
   85SOL    HW2 1697   1.600   1.675   0.631
   86SOL     OW 1698   1.303   0.375   0.934
   86SOL    HW1 1699   1.213   0.342   0.932
   86SOL    HW2 1700   1.347   0.321   0.999
   87SOL     OW 1701   1.558   1.651   0.298
   87SOL    HW1 1702   1.653   1.648   0.297
   87SOL    HW2 1703   1.532   1.622   0.211
   88SOL     OW 1704   0.803   0.601   1.458
   88SOL    HW1 1705   0.752   0.586   1.538
   88SOL    HW2 1706   0.761   0.545   1.392
   89SOL     OW 1707   1.414   0.481   1.672
   89SOL    HW1 1708   1.425   0.529   1.754
   89SOL    HW2 1709   1.474   0.407   1.679
   90SOL     OW 1710   0.937   0.879   1.581
   90SOL    HW1 1711   0.998   0.816   1.543
   90SOL    HW2 1712   0.900   0.925   1.505
   91SOL     OW 1713   0.998   0.408   1.215
   91SOL    HW1 1714   0.907   0.425   1.235
   91SOL    HW2 1715   0.996   0.359   1.133
   92SOL     OW 1716   1.057   0.695   0.418
   92SOL    HW1 1717   1.078   0.693   0.511
   92SOL    HW2 1718   0.969   0.659   0.412
   93SOL     OW 1719   0.085   0.800   0.779
   93SOL    HW1 1720   0.168   0.794   0.826
   93SOL    HW2 1721   0.066   0.894   0.775
   94SOL     OW 1722   0.132   1.820   1.563
   94SOL    HW1 1723   0.135   1.816   1.659
   94SOL    HW2 1724   0.041   1.803   1.541
   95SOL     OW 1725   0.883   0.363   0.227
   95SOL    HW1 1726   0.902   0.433   0.165
   95SOL    HW2 1727   0.832   0.299   0.177
   96SOL     OW 1728   1.674   0.576   1.847
   96SOL    HW1 1729   1.654   0.655   1.796
   96SOL    HW2 1730   1.713   0.516   1.783
   97SOL     OW 1731   1.368   1.127   0.534
   97SOL    HW1 1732   1.451   1.126   0.487
   97SOL    HW2 1733   1.316   1.195   0.491
   98SOL     OW 1734   0.531   0.252   0.893
   98SOL    HW1 1735   0.529   0.247   0.989
   98SOL    HW2 1736   0.535   0.346   0.874
   99SOL     OW 1737   0.991   1.439   0.467
   99SOL    HW1 1738   0.973   1.511   0.407
   99SOL    HW2 1739   0.961   1.470   0.553
  100SOL     OW 1740   0.355   1.814   0.882
  100SOL    HW1 1741   0.394   1.727   0.884
  100SOL    HW2 1742   0.427   1.873   0.906
  101SOL     OW 1743   1.793   1.042   0.894
  101SOL    HW1 1744   1.750   1.035   0.809
  101SOL    HW2 1745   1.722   1.050   0.957
  102SOL     OW 1746   1.224   1.542   1.495
  102SOL    HW1 1747   1.196   1.475   1.557
  102SOL    HW2 1748   1.142   1.583   1.466
  103SOL     OW 1749   0.332   0.947   0.256
  103SOL    HW1 1750   0.396   0.991   0.200
  103SOL    HW2 1751   0.377   0.868   0.286
  104SOL     OW 1752   1.511   0.733   0.734
  104SOL    HW1 1753   1.494   0.734   0.828
  104SOL    HW2 1754   1.572   0.806   0.720
  105SOL     OW 1755   0.443   1.210   1.744
  105SOL    HW1 1756   0.439   1.240   1.653
  105SOL    HW2 1757   0.362   1.241   1.784
  106SOL     OW 1758   1.141   1.783   0.273
  106SOL    HW1 1759   1.062   1.744   0.309
  106SOL    HW2 1760   1.165   1.725   0.200
  107SOL     OW 1761   0.170   0.284   1.490
  107SOL    HW1 1762   0.122   0.366   1.476
  107SOL    HW2 1763   0.183   0.281   1.585
  108SOL     OW 1764   1.660   1.413   0.100
  108SOL    HW1 1765   1.598   1.480   0.070
  108SOL    HW2 1766   1.610   1.332   0.100
  109SOL     OW 1767   0.458   1.746   0.334
  109SOL    HW1 1768   0.505   1.818   0.376
  109SOL    HW2 1769   0.526   1.701   0.283
  110SOL     OW 1770   1.408   0.135   0.411
  110SOL    HW1 1771   1.390   0.067   0.346
  110SOL    HW2 1772   1.500   0.124   0.433
  111SOL     OW 1773   0.253   1.793   1.230
  111SOL    HW1 1774   0.300   1.729   1.283
  111SOL    HW2 1775   0.252   1.755   1.142
  112SOL     OW 1776   0.928   1.709   0.924
  112SOL    HW1 1777   0.944   1.626   0.968
  112SOL    HW2 1778   0.905   1.685   0.834
  113SOL     OW 1779   0.374   0.698   0.481
  113SOL    HW1 1780   0.409   0.609   0.477
  113SOL    HW2 1781   0.287   0.687   0.521
  114SOL     OW 1782   1.550   0.206   1.728
  114SOL    HW1 1783   1.542   0.232   1.820
  114SOL    HW2 1784   1.485   0.136   1.718
  115SOL     OW 1785   0.601   0.090   0.110
  115SOL    HW1 1786   0.669   0.072   0.176
  115SOL    HW2 1787   0.624   0.032   0.037
  116SOL     OW 1788   0.751   0.294   1.772
  116SOL    HW1 1789   0.806   0.216   1.756
  116SOL    HW2 1790   0.692   0.267   1.842
  117SOL     OW 1791   0.877   1.514   1.167
  117SOL    HW1 1792   0.854   1.462   1.090
  117SOL    HW2 1793   0.939   1.459   1.216
  118SOL     OW 1794   1.338   0.589   1.430
  118SOL    HW1 1795   1.375   0.558   1.512
  118SOL    HW2 1796   1.370   0.679   1.421
  119SOL     OW 1797   0.821   1.392   0.932
  119SOL    HW1 1798   0.904   1.380   0.887
  119SOL    HW2 1799   0.756   1.396   0.862
  120SOL     OW 1800   0.921   0.535   0.873
  120SOL    HW1 1801   0.881   0.519   0.788
  120SOL    HW2 1802   0.952   0.449   0.902
  121SOL     OW 1803   0.505   0.020   0.423
  121SOL    HW1 1804   0.474   0.032   0.513
  121SOL    HW2 1805   0.526   0.108   0.392
  122SOL     OW 1806   1.445   1.240   0.065
  122SOL    HW1 1807   1.459   1.153   0.102
  122SOL    HW2 1808   1.354   1.261   0.086
  123SOL     OW 1809   0.345  -0.020   0.196
  123SOL    HW1 1810   0.378   0.047   0.136
  123SOL    HW2 1811   0.393  -0.005   0.277
  124SOL     OW 1812   0.950   0.257   0.470
  124SOL    HW1 1813   0.921   0.290   0.385
  124SOL    HW2 1814   1.044   0.271   0.471
  125SOL     OW 1815   1.079   0.683   1.455
  125SOL    HW1 1816   1.011   0.616   1.464
  125SOL    HW2 1817   1.161   0.634   1.455
  126SOL     OW 1818   1.240   1.554   0.786
  126SOL    HW1 1819   1.230   1.620   0.717
  126SOL    HW2 1820   1.283   1.600   0.858
  127SOL     OW 1821   0.468   1.139   0.739
  127SOL    HW1 1822   0.402   1.121   0.805
  127SOL    HW2 1823   0.422   1.129   0.655
  128SOL     OW 1824   1.245   1.791   0.595
  128SOL    HW1 1825   1.218   1.830   0.512
  128SOL    HW2 1826   1.192   1.836   0.662
  129SOL     OW 1827   1.016   0.520   0.029
  129SOL    HW1 1828   0.987   0.607   0.002
  129SOL    HW2 1829   1.080   0.536   0.098
  130SOL     OW 1830   0.112   0.587   1.400
  130SOL    HW1 1831   0.202   0.589   1.367
  130SOL    HW2 1832   0.082   0.677   1.392
  131SOL     OW 1833   0.561   0.213   1.177
  131SOL    HW1 1834   0.591   0.135   1.225
  131SOL    HW2 1835   0.470   0.224   1.204
  132SOL     OW 1836   0.834   0.455   0.629
  132SOL    HW1 1837   0.808   0.513   0.558
  132SOL    HW2 1838   0.879   0.383   0.585
  133SOL     OW 1839   1.065   0.018   0.715
  133SOL    HW1 1840   0.977   0.007   0.678
  133SOL    HW2 1841   1.054   0.084   0.783
  134SOL     OW 1842   1.447   1.165   0.844
  134SOL    HW1 1843   1.367   1.141   0.798
  134SOL    HW2 1844   1.510   1.184   0.775
  135SOL     OW 1845   1.415   0.647   1.002
  135SOL    HW1 1846   1.381   0.560   0.982
  135SOL    HW2 1847   1.493   0.631   1.056
  136SOL     OW 1848   1.793   0.783   0.447
  136SOL    HW1 1849   1.886   0.759   0.446
  136SOL    HW2 1850   1.784   0.847   0.376
  137SOL     OW 1851   0.481   1.383   0.138
  137SOL    HW1 1852   0.418   1.374   0.210
  137SOL    HW2 1853   0.494   1.294   0.106
  138SOL     OW 1854   1.665   1.254   0.676
  138SOL    HW1 1855   1.760   1.254   0.679
  138SOL    HW2 1856   1.641   1.347   0.682
  139SOL     OW 1857   1.403   0.553   0.083
  139SOL    HW1 1858   1.341   0.552   0.156
  139SOL    HW2 1859   1.489   0.552   0.124
  140SOL     OW 1860   0.515   0.267   0.304
  140SOL    HW1 1861   0.540   0.218   0.226
  140SOL    HW2 1862   0.493   0.354   0.272
  141SOL     OW 1863   1.749   1.243   1.552
  141SOL    HW1 1864   1.837   1.209   1.540
  141SOL    HW2 1865   1.761   1.331   1.587
  142SOL     OW 1866   1.055   1.330   1.301
  142SOL    HW1 1867   0.977   1.312   1.353
  142SOL    HW2 1868   1.127   1.299   1.356
  143SOL     OW 1869   1.618   1.651   1.659
  143SOL    HW1 1870   1.611   1.684   1.569
  143SOL    HW2 1871   1.693   1.591   1.656
  144SOL     OW 1872   1.131   1.174   1.089
  144SOL    HW1 1873   1.094   1.222   1.163
  144SOL    HW2 1874   1.110   1.228   1.013
  145SOL     OW 1875   1.587   1.091   1.074
  145SOL    HW1 1876   1.593   1.159   1.140
  145SOL    HW2 1877   1.539   1.131   1.002
  146SOL     OW 1878   0.927   0.126   1.421
  146SOL    HW1 1879   0.938   0.099   1.330
  146SOL    HW2 1880   1.009   0.102   1.464
  147SOL     OW 1881   0.966   1.131   1.688
  147SOL    HW1 1882   0.882   1.144   1.733
  147SOL    HW2 1883   0.965   1.038   1.663
  148SOL     OW 1884   0.731   1.090   0.397
  148SOL    HW1 1885   0.704   1.052   0.480
  148SOL    HW2 1886   0.801   1.033   0.365
  149SOL     OW 1887   0.437   0.808   1.232
  149SOL    HW1 1888   0.500   0.828   1.301
  149SOL    HW2 1889   0.404   0.721   1.253
  150SOL     OW 1890   1.263   0.378   1.272
  150SOL    HW1 1891   1.292   0.456   1.320
  150SOL    HW2 1892   1.172   0.397   1.249
  151SOL     OW 1893   0.052   1.602   1.324
  151SOL    HW1 1894   0.093   1.688   1.315
  151SOL    HW2 1895   0.112   1.554   1.382
  152SOL     OW 1896   0.340   1.111   0.495
  152SOL    HW1 1897   0.335   1.186   0.436
  152SOL    HW2 1898   0.355   1.036   0.438
  153SOL     OW 1899   0.548   0.519   0.848
  153SOL    HW1 1900   0.554   0.580   0.773
  153SOL    HW2 1901   0.608   0.556   0.913
  154SOL     OW 1902   1.238   1.341   0.406
  154SOL    HW1 1903   1.293   1.415   0.434
  154SOL    HW2 1904   1.151   1.363   0.437
  155SOL     OW 1905   1.278   1.469   1.160
  155SOL    HW1 1906   1.339   1.471   1.234
  155SOL    HW2 1907   1.199   1.430   1.196
  156SOL     OW 1908   1.591   0.605   0.453
  156SOL    HW1 1909   1.510   0.650   0.477
  156SOL    HW2 1910   1.659   0.672   0.461
  157SOL     OW 1911   0.349   1.535   1.316
  157SOL    HW1 1912   0.325   1.490   1.234
  157SOL    HW2 1913   0.444   1.545   1.310
  158SOL     OW 1914   0.417   0.704   1.605
  158SOL    HW1 1915   0.459   0.757   1.538
  158SOL    HW2 1916   0.487   0.647   1.638
  159SOL     OW 1917   1.604   0.782   1.690
  159SOL    HW1 1918   1.520   0.827   1.682
  159SOL    HW2 1919   1.659   0.822   1.623
  160SOL     OW 1920   1.045   0.073   1.749
  160SOL    HW1 1921   1.058   0.167   1.741
  160SOL    HW2 1922   0.951   0.060   1.739
  161SOL     OW 1923   0.505   0.032   1.735
  161SOL    HW1 1924   0.489  -0.022   1.657
  161SOL    HW2 1925   0.442   0.104   1.728
  162SOL     OW 1926   0.634   0.876   1.050
  162SOL    HW1 1927   0.628   0.966   1.017
  162SOL    HW2 1928   0.555   0.866   1.105
  163SOL     OW 1929   1.193   0.521   0.259
  163SOL    HW1 1930   1.202   0.451   0.325
  163SOL    HW2 1931   1.150   0.593   0.306
  164SOL     OW 1932   0.293   0.201   1.246
  164SOL    HW1 1933   0.273   0.263   1.317
  164SOL    HW2 1934   0.253   0.119   1.275
  165SOL     OW 1935   0.035   1.301   1.278
  165SOL    HW1 1936   0.061   1.236   1.344
  165SOL    HW2 1937   0.045   1.385   1.323
  166SOL     OW 1938   0.713   0.617   1.042
  166SOL    HW1 1939   0.789   0.609   0.986
  166SOL    HW2 1940   0.692   0.711   1.042
  167SOL     OW 1941   1.743   0.955   1.863
  167SOL    HW1 1942   1.691   0.895   1.808
  167SOL    HW2 1943   1.686   0.974   1.938
  168SOL     OW 1944   0.359   0.039   0.661
  168SOL    HW1 1945   0.333   0.130   0.654
  168SOL    HW2 1946   0.359   0.021   0.755
  169SOL     OW 1947   1.054   0.742   0.974
  169SOL    HW1 1948   1.018   0.755   1.062
  169SOL    HW2 1949   1.009   0.664   0.941
  170SOL     OW 1950   1.011   1.577   1.719
  170SOL    HW1 1951   0.927   1.581   1.673
  170SOL    HW2 1952   1.044   1.489   1.702
  171SOL     OW 1953   1.847   1.504   1.598
  171SOL    HW1 1954   1.876   1.525   1.509
  171SOL    HW2 1955   1.925   1.512   1.651
  172SOL     OW 1956   0.373   0.925   1.789
  172SOL    HW1 1957   0.412   1.009   1.815
  172SOL    HW2 1958   0.446   0.875   1.754
  173SOL     OW 1959   1.485   0.235   0.118
  173SOL    HW1 1960   1.540   0.175   0.169
  173SOL    HW2 1961   1.546   0.298   0.081
  174SOL     OW 1962   1.288   0.813   0.055
  174SOL    HW1 1963   1.342   0.737   0.030
  174SOL    HW2 1964   1.315   0.882  -0.006
  175SOL     OW 1965   1.082   1.341   0.866
  175SOL    HW1 1966   1.085   1.271   0.801
  175SOL    HW2 1967   1.139   1.409   0.830
  176SOL     OW 1968   0.311   0.780   0.935
  176SOL    HW1 1969   0.306   0.875   0.930
  176SOL    HW2 1970   0.362   0.762   1.014
  177SOL     OW 1971   0.352   0.487   1.041
  177SOL    HW1 1972   0.314   0.407   1.005
  177SOL    HW2 1973   0.403   0.524   0.969
  178SOL     OW 1974   1.187   0.361   1.784
  178SOL    HW1 1975   1.111   0.419   1.790
  178SOL    HW2 1976   1.243   0.402   1.719
  179SOL     OW 1977   1.203   0.215   1.483
  179SOL    HW1 1978   1.143   0.269   1.535
  179SOL    HW2 1979   1.222   0.268   1.405
  180SOL     OW 1980   7.995   1.328   0.217
  180SOL    HW1 1981   7.905   1.329   0.248
  180SOL    HW2 1982   7.991   1.285   0.132
  181SOL     OW 1983   0.082   1.778   0.920
  181SOL    HW1 1984   0.090   1.684   0.937
  181SOL    HW2 1985   0.171   1.807   0.903
  182SOL     OW 1986   0.489   1.574   0.898
  182SOL    HW1 1987   0.558   1.632   0.930
  182SOL    HW2 1988   0.534   1.509   0.845
  183SOL     OW 1989   0.986   0.788   1.224
  183SOL    HW1 1990   1.026   0.752   1.303
  183SOL    HW2 1991   0.904   0.826   1.255
  184SOL     OW 1992   0.083   0.524   1.121
  184SOL    HW1 1993   0.176   0.530   1.101
  184SOL    HW2 1994   0.078   0.534   1.216
  185SOL     OW 1995   0.182   0.534   1.658
  185SOL    HW1 1996   0.276   0.543   1.642
  185SOL    HW2 1997   0.141   0.550   1.573
  186SOL     OW 1998   1.380   0.930   1.651
  186SOL    HW1 1999   1.404   1.023   1.652
  186SOL    HW2 2000   1.369   0.909   1.558
  187SOL     OW 2001   0.814   0.582   0.381
  187SOL    HW1 2002   0.816   0.499   0.333
  187SOL    HW2 2003   0.759   0.639   0.328
  188SOL     OW 2004   1.643   0.608   1.156
  188SOL    HW1 2005   1.631   0.559   1.237
  188SOL    HW2 2006   1.729   0.580   1.124
  189SOL     OW 2007   0.277   1.528   1.723
  189SOL    HW1 2008   0.247   1.606   1.770
  189SOL    HW2 2009   0.276   1.458   1.788
  190SOL     OW 2010   0.718   0.445   1.252
  190SOL    HW1 2011   0.661   0.371   1.232
  190SOL    HW2 2012   0.705   0.505   1.178
  191SOL     OW 2013   0.992   1.681   1.417
  191SOL    HW1 2014   0.922   1.616   1.424
  191SOL    HW2 2015   0.950   1.763   1.445
  192SOL     OW 2016   0.462   0.498   0.183
  192SOL    HW1 2017   0.533   0.562   0.178
  192SOL    HW2 2018   0.390   0.540   0.136
  193SOL     OW 2019   0.136   1.118   1.460
  193SOL    HW1 2020   0.153   1.089   1.550
  193SOL    HW2 2021   0.150   1.039   1.407
  194SOL     OW 2022   1.327   1.003   1.162
  194SOL    HW1 2023   1.408   1.053   1.154
  194SOL    HW2 2024   1.257   1.068   1.154
  195SOL     OW 2025   1.314   0.812   0.328
  195SOL    HW1 2026   1.227   0.805   0.366
  195SOL    HW2 2027   1.299   0.812   0.233
  196SOL     OW 2028   1.795   1.726   1.169
  196SOL    HW1 2029   1.846   1.754   1.093
  196SOL    HW2 2030   1.758   1.641   1.142
  197SOL     OW 2031   1.257   1.749   1.115
  197SOL    HW1 2032   1.340   1.759   1.069
  197SOL    HW2 2033   1.252   1.656   1.136
  198SOL     OW 2034   0.011   1.302   1.007
  198SOL    HW1 2035   0.027   1.300   1.102
  198SOL    HW2 2036   0.072   1.237   0.972
  199SOL     OW 2037   0.684   1.723   1.789
  199SOL    HW1 2038   0.626   1.781   1.739
  199SOL    HW2 2039   0.709   1.655   1.728
  200SOL     OW 2040   0.927   0.141   0.048
  200SOL    HW1 2041   1.011   0.154   0.091
  200SOL    HW2 2042   0.873   0.095   0.113
  201SOL     OW 2043   1.664   0.145   0.513
  201SOL    HW1 2044   1.754   0.124   0.488
  201SOL    HW2 2045   1.645   0.086   0.586
  202SOL     OW 2046   1.378   1.564   0.493
  202SOL    HW1 2047   1.444   1.592   0.429
  202SOL    HW2 2048   1.336   1.645   0.521
  203SOL     OW 2049   0.179   1.753   1.840
  203SOL    HW1 2050   0.110   1.705   1.886
  203SOL    HW2 2051   0.221   1.805   1.908
  204SOL     OW 2052   1.295   0.911   0.684
  204SOL    HW1 2053   1.373   0.857   0.671
  204SOL    HW2 2054   1.311   0.988   0.630
  205SOL     OW 2055   0.799   1.271   1.405
  205SOL    HW1 2056   0.791   1.339   1.473
  205SOL    HW2 2057   0.721   1.284   1.350
  206SOL     OW 2058   0.645   1.608   0.185
  206SOL    HW1 2059   0.705   1.615   0.111
  206SOL    HW2 2060   0.597   1.527   0.170
  207SOL     OW 2061   1.620   1.745   1.385
  207SOL    HW1 2062   1.691   1.729   1.324
  207SOL    HW2 2063   1.546   1.773   1.330
  208SOL     OW 2064   1.841   0.188   0.980
  208SOL    HW1 2065   1.851   0.093   0.967
  208SOL    HW2 2066   1.757   0.208   0.940
  209SOL     OW 2067   0.264   0.295   0.701
  209SOL    HW1 2068   0.183   0.342   0.681
  209SOL    HW2 2069   0.268   0.294   0.796
  210SOL     OW 2070   1.191   1.610   0.070
  210SOL    HW1 2071   1.198   1.517   0.091
  210SOL    HW2 2072   1.172   1.612  -0.024
  211SOL     OW 2073   0.824   1.005   1.355
  211SOL    HW1 2074   0.827   1.024   1.261
  211SOL    HW2 2075   0.820   1.091   1.396
  212SOL     OW 2076   0.948   0.946   0.316
  212SOL    HW1 2077   0.992   0.960   0.231
  212SOL    HW2 2078   0.962   0.854   0.335
  213SOL     OW 2079   1.476   1.602   0.037
  213SOL    HW1 2080   1.385   1.624   0.020
  213SOL    HW2 2081   1.524   1.633  -0.040
  214SOL     OW 2082   0.367   1.290   1.493
  214SOL    HW1 2083   0.377   1.378   1.455
  214SOL    HW2 2084   0.278   1.264   1.470
  215SOL     OW 2085   1.585   1.262   1.287
  215SOL    HW1 2086   1.656   1.254   1.352
  215SOL    HW2 2087   1.536   1.340   1.315
  216SOL     OW 2088   1.067   1.117   0.718
  216SOL    HW1 2089   0.994   1.072   0.760
  216SOL    HW2 2090   1.088   1.063   0.642
  217SOL     OW 2091   0.594   1.441   0.484
  217SOL    HW1 2092   0.647   1.408   0.411
  217SOL    HW2 2093   0.566   1.528   0.455
  218SOL     OW 2094   1.693   0.432   1.371
  218SOL    HW1 2095   1.785   0.454   1.386
  218SOL    HW2 2096   1.686   0.340   1.398
  219SOL     OW 2097   0.269   1.317   0.303
  219SOL    HW1 2098   0.178   1.312   0.271
  219SOL    HW2 2099   0.264   1.370   0.382
  220SOL     OW 2100   0.098   1.010   1.746
  220SOL    HW1 2101   0.038   1.083   1.736
  220SOL    HW2 2102   0.169   1.044   1.802
  221SOL     OW 2103   0.676   0.230   1.506
  221SOL    HW1 2104   0.747   0.176   1.472
  221SOL    HW2 2105   0.702   0.251   1.596
  222SOL     OW 2106   0.105   0.378  12.506
  222SOL    HW1 2107   0.031   0.392  12.565
  222SOL    HW2 2108   0.079   0.419  12.423
  223SOL     OW 2109   1.415   0.854   1.385
  223SOL    HW1 2110   1.367   0.913   1.327
  223SOL    HW2 2111   1.506   0.862   1.359
  224SOL     OW 2112   0.095   0.192   0.286
  224SOL    HW1 2113   0.158   0.264   0.284
  224SOL    HW2 2114   0.109   0.151   0.371
  225SOL     OW 2115   1.186   1.337   0.130
  225SOL    HW1 2116   1.092   1.327   0.117
  225SOL    HW2 2117   1.198   1.327   0.224
  226SOL     OW 2118   0.619   0.824   1.436
  226SOL    HW1 2119   0.667   0.906   1.424
  226SOL    HW2 2120   0.688   0.758   1.445
  227SOL     OW 2121   1.498   1.793   0.992
  227SOL    HW1 2122   1.522   1.859   0.926
  227SOL    HW2 2123   1.575   1.737   0.999
  228SOL     OW 2124   0.693   0.565   1.701
  228SOL    HW1 2125   0.741   0.628   1.755
  228SOL    HW2 2126   0.714   0.480   1.740
  229SOL     OW 2127   1.485   1.183   1.624
  229SOL    HW1 2128   1.473   1.196   1.718
  229SOL    HW2 2129   1.576   1.210   1.607
  230SOL     OW 2130   0.391   1.728   1.561
  230SOL    HW1 2131   0.300   1.753   1.545
  230SOL    HW2 2132   0.385   1.639   1.596
  231SOL     OW 2133   1.656   0.882   1.252
  231SOL    HW1 2134   1.666   0.798   1.208
  231SOL    HW2 2135   1.650   0.946   1.181
  232SOL     OW 2136   1.217   0.322   0.444
  232SOL    HW1 2137   1.281   0.251   0.438
  232SOL    HW2 2138   1.238   0.365   0.528
  233SOL     OW 2139   0.586   0.724   0.665
  233SOL    HW1 2140   0.624   0.812   0.657
  233SOL    HW2 2141   0.515   0.723   0.600
  234SOL     OW 2142   1.737   0.398   1.656
  234SOL    HW1 2143   1.710   0.428   1.570
  234SOL    HW2 2144   1.682   0.322   1.674
  235SOL     OW 2145   1.740   0.934   1.513
  235SOL    HW1 2146   1.737   1.028   1.531
  235SOL    HW2 2147   1.726   0.926   1.419
  236SOL     OW 2148   0.914   1.361   0.049
  236SOL    HW1 2149   0.858   1.344   0.125
  236SOL    HW2 2150   0.895   1.452   0.025
  237SOL     OW 2151   0.655   1.795   0.944
  237SOL    HW1 2152   0.652   1.883   0.907
  237SOL    HW2 2153   0.748   1.771   0.942
  238SOL     OW 2154   0.873   0.984   0.861
  238SOL    HW1 2155   0.897   0.904   0.907
  238SOL    HW2 2156   0.832   1.039   0.928
  239SOL     OW 2157   1.077   0.983   0.075
  239SOL    HW1 2158   1.114   1.060   0.032
  239SOL    HW2 2159   1.149   0.921   0.078
  240SOL     OW 2160   1.842   1.558   0.859
  240SOL    HW1 2161   1.864   1.570   0.767
  240SOL    HW2 2162   1.865   1.466   0.877
  241SOL     OW 2163   0.210   1.287   1.863
  241SOL    HW1 2164   0.115   1.287   1.851
  241SOL    HW2 2165   0.223   1.298   1.957
  242SOL     OW 2166   0.121   1.239   0.644
  242SOL    HW1 2167   0.053   1.197   0.697
  242SOL    HW2 2168   0.190   1.174   0.637
  243SOL     OW 2169   0.433   0.434   0.522
  243SOL    HW1 2170   0.469   0.365   0.465
  243SOL    HW2 2171   0.383   0.386   0.588
  244SOL     OW 2172   1.677   1.490   1.121
  244SOL    HW1 2173   1.610   1.466   1.057
  244SOL    HW2 2174   1.694   1.409   1.168
  245SOL     OW 2175   0.358   0.560   1.300
  245SOL    HW1 2176   0.403   0.498   1.358
  245SOL    HW2 2177   0.371   0.523   1.212
  246SOL     OW 2178   1.432   0.217   1.123
  246SOL    HW1 2179   1.496   0.178   1.182
  246SOL    HW2 2180   1.373   0.265   1.180
  247SOL     OW 2181   0.992   0.035   1.173
  247SOL    HW1 2182   0.915   0.033   1.116
  247SOL    HW2 2183   1.056   0.089   1.127
  248SOL     OW 2184   0.790   1.334   0.299
  248SOL    HW1 2185   0.756   1.247   0.322
  248SOL    HW2 2186   0.859   1.350   0.363
  249SOL     OW 2187   0.618   1.562   1.249
  249SOL    HW1 2188   0.620   1.633   1.312
  249SOL    HW2 2189   0.709   1.550   1.223
  250SOL     OW 2190   1.325  -0.002   0.134
  250SOL    HW1 2191   1.408   0.044   0.119
  250SOL    HW2 2192   1.260   0.067   0.145
  251SOL     OW 2193   1.296   0.459   0.672
  251SOL    HW1 2194   1.243   0.539   0.670
  251SOL    HW2 2195   1.282   0.423   0.759
  252SOL     OW 2196   1.603   0.236   0.870
  252SOL    HW1 2197   1.530   0.219   0.929
  252SOL    HW2 2198   1.578   0.316   0.823
  253SOL     OW 2199   0.052   1.021   0.294
  253SOL    HW1 2200   0.143   1.030   0.268
  253SOL    HW2 2201   0.046   1.063   0.380
  254SOL     OW 2202   0.893   1.655   0.317
  254SOL    HW1 2203   0.804   1.631   0.288
  254SOL    HW2 2204   0.883   1.676   0.410
  255SOL     OW 2205   0.197   0.687   1.929
  255SOL    HW1 2206   0.132   0.708   1.996
  255SOL    HW2 2207   0.242   0.609   1.963
  256SOL     OW 2208   0.231   0.279   2.846
  256SOL    HW1 2209   0.247   0.237   2.931
  256SOL    HW2 2210   0.138   0.262   2.828
  257SOL     OW 2211   7.996   0.399   2.482
  257SOL    HW1 2212   7.911   0.392   2.524
  257SOL    HW2 2213   7.990   0.340   2.407
  258SOL     OW 2214   0.575   1.298   3.059
  258SOL    HW1 2215   0.486   1.294   3.023
  258SOL    HW2 2216   0.585   1.389   3.087
  259SOL     OW 2217   1.576   1.517   2.572
  259SOL    HW1 2218   1.529   1.484   2.649
  259SOL    HW2 2219   1.510   1.520   2.503
  260SOL     OW 2220   1.117   0.703   2.550
  260SOL    HW1 2221   1.173   0.781   2.540
  260SOL    HW2 2222   1.073   0.716   2.634
  261SOL     OW 2223   1.808   0.592   2.080
  261SOL    HW1 2224   1.760   0.593   1.998
  261SOL    HW2 2225   1.755   0.537   2.138
  262SOL     OW 2226   0.747   1.138   2.917
  262SOL    HW1 2227   0.682   1.175   2.976
  262SOL    HW2 2228   0.784   1.213   2.871
  263SOL     OW 2229   0.896   0.787   3.717
  263SOL    HW1 2230   0.823   0.845   3.739
  263SOL    HW2 2231   0.913   0.804   3.624
  264SOL     OW 2232   0.685   0.991   2.510
  264SOL    HW1 2233   0.752   0.989   2.578
  264SOL    HW2 2234   0.617   1.050   2.544
  265SOL     OW 2235   0.717   1.153   3.684
  265SOL    HW1 2236   0.760   1.232   3.714
  265SOL    HW2 2237   0.635   1.183   3.645
  266SOL     OW 2238   0.335   1.414   2.932
  266SOL    HW1 2239   0.267   1.364   2.887
  266SOL    HW2 2240   0.376   1.467   2.864
  267SOL     OW 2241   1.463   1.496   3.235
  267SOL    HW1 2242   1.511   1.579   3.240
  267SOL    HW2 2243   1.388   1.509   3.294
  268SOL     OW 2244   0.463   0.393   3.327
  268SOL    HW1 2245   0.533   0.329   3.343
  268SOL    HW2 2246   0.384   0.350   3.360
  269SOL     OW 2247   0.233   1.702   2.348
  269SOL    HW1 2248   0.245   1.785   2.393
  269SOL    HW2 2249   0.298   1.703   2.278
  270SOL     OW 2250   1.136   1.338   3.557
  270SOL    HW1 2251   1.170   1.334   3.647
  270SOL    HW2 2252   1.083   1.259   3.548
  271SOL     OW 2253   0.284   1.433   2.378
  271SOL    HW1 2254   0.266   1.525   2.394
  271SOL    HW2 2255   0.232   1.386   2.443
  272SOL     OW 2256   0.283   1.080   2.762
  272SOL    HW1 2257   0.274   0.992   2.797
  272SOL    HW2 2258   0.211   1.129   2.801
  273SOL     OW 2259   0.614   1.801   3.282
  273SOL    HW1 2260   0.538   1.774   3.333
  273SOL    HW2 2261   0.634   1.889   3.314
  274SOL     OW 2262   0.583   0.994   2.012
  274SOL    HW1 2263   0.629   1.036   1.940
  274SOL    HW2 2264   0.626   1.027   2.091
  275SOL     OW 2265   1.612   0.143   3.325
  275SOL    HW1 2266   1.642   0.228   3.290
  275SOL    HW2 2267   1.576   0.164   3.411
  276SOL     OW 2268   0.144   0.627   2.412
  276SOL    HW1 2269   0.091   0.551   2.435
  276SOL    HW2 2270   0.120   0.693   2.478
  277SOL     OW 2271   1.834   1.755   2.197
  277SOL    HW1 2272   1.904   1.728   2.257
  277SOL    HW2 2273   1.857   1.844   2.172
  278SOL     OW 2274   0.016   1.589   1.988
  278SOL    HW1 2275   0.007   1.494   1.988
  278SOL    HW2 2276  -0.010   1.615   2.076
  279SOL     OW 2277   1.693   0.916   2.501
  279SOL    HW1 2278   1.774   0.871   2.477
  279SOL    HW2 2279   1.673   0.972   2.426
  280SOL     OW 2280   1.658   1.098   2.289
  280SOL    HW1 2281   1.743   1.098   2.247
  280SOL    HW2 2282   1.664   1.166   2.356
  281SOL     OW 2283   0.140   0.761   3.443
  281SOL    HW1 2284   0.235   0.760   3.442
  281SOL    HW2 2285   0.116   0.844   3.484
  282SOL     OW 2286   0.615   1.394   2.601
  282SOL    HW1 2287   0.572   1.309   2.608
  282SOL    HW2 2288   0.602   1.420   2.510
  283SOL     OW 2289   1.280   1.236   3.280
  283SOL    HW1 2290   1.307   1.167   3.219
  283SOL    HW2 2291   1.338   1.227   3.355
  284SOL     OW 2292   0.828   0.050   2.409
  284SOL    HW1 2293   0.880   0.124   2.376
  284SOL    HW2 2294   0.745   0.090   2.437
  285SOL     OW 2295   0.187   0.951   3.136
  285SOL    HW1 2296   0.272   0.913   3.118
  285SOL    HW2 2297   0.125   0.879   3.125
  286SOL     OW 2298   1.541   0.978   2.068
  286SOL    HW1 2299   1.469   0.924   2.101
  286SOL    HW2 2300   1.578   1.019   2.146
  287SOL     OW 2301   1.209   1.801   3.483
  287SOL    HW1 2302   1.192   1.848   3.402
  287SOL    HW2 2303   1.209   1.709   3.457
  288SOL     OW 2304   0.338   0.265   3.657
  288SOL    HW1 2305   0.375   0.318   3.729
  288SOL    HW2 2306   0.245   0.260   3.678
  289SOL     OW 2307   1.442   1.427   2.789
  289SOL    HW1 2308   1.388   1.438   2.867
  289SOL    HW2 2309   1.437   1.334   2.769
  290SOL     OW 2310   1.655   1.755   2.466
  290SOL    HW1 2311   1.633   1.756   2.373
  290SOL    HW2 2312   1.637   1.665   2.494
  291SOL     OW 2313   0.594   0.717   2.128
  291SOL    HW1 2314   0.605   0.805   2.092
  291SOL    HW2 2315   0.535   0.730   2.203
  292SOL     OW 2316   1.312   0.286   2.780
  292SOL    HW1 2317   1.222   0.318   2.777
  292SOL    HW2 2318   1.326   0.263   2.872
  293SOL     OW 2319   1.570   1.690   2.176
  293SOL    HW1 2320   1.664   1.704   2.168
  293SOL    HW2 2321   1.541   1.669   2.087
  294SOL     OW 2322   0.781   0.633   3.307
  294SOL    HW1 2323   0.764   0.604   3.397
  294SOL    HW2 2324   0.756   0.558   3.253
  295SOL     OW 2325   1.412   0.498   3.539
  295SOL    HW1 2326   1.413   0.538   3.625
  295SOL    HW2 2327   1.465   0.419   3.548
  296SOL     OW 2328   0.947   0.880   3.454
  296SOL    HW1 2329   0.998   0.809   3.414
  296SOL    HW2 2330   0.899   0.919   3.381
  297SOL     OW 2331   0.996   0.397   3.074
  297SOL    HW1 2332   0.909   0.419   3.107
  297SOL    HW2 2333   0.986   0.397   2.978
  298SOL     OW 2334   1.057   0.694   2.280
  298SOL    HW1 2335   1.076   0.696   2.373
  298SOL    HW2 2336   0.971   0.654   2.273
  299SOL     OW 2337   0.088   0.793   2.638
  299SOL    HW1 2338   0.173   0.803   2.683
  299SOL    HW2 2339   0.057   0.883   2.628
  300SOL     OW 2340   0.141   1.800   3.424
  300SOL    HW1 2341   0.147   1.775   3.516
  300SOL    HW2 2342   0.063   1.856   3.420
  301SOL     OW 2343   0.890   0.351   2.069
  301SOL    HW1 2344   0.922   0.407   1.998
  301SOL    HW2 2345   0.848   0.277   2.025
  302SOL     OW 2346   1.702   0.575   3.696
  302SOL    HW1 2347   1.670   0.650   3.646
  302SOL    HW2 2348   1.726   0.510   3.629
  303SOL     OW 2349   1.405   1.130   2.431
  303SOL    HW1 2350   1.474   1.122   2.365
  303SOL    HW2 2351   1.349   1.201   2.398
  304SOL     OW 2352   0.555   0.248   2.759
  304SOL    HW1 2353   0.513   0.242   2.844
  304SOL    HW2 2354   0.557   0.342   2.740
  305SOL     OW 2355   0.985   1.445   2.328
  305SOL    HW1 2356   0.967   1.521   2.273
  305SOL    HW2 2357   0.965   1.473   2.417
  306SOL     OW 2358   0.363   1.840   2.734
  306SOL    HW1 2359   0.397   1.751   2.741
  306SOL    HW2 2360   0.440   1.896   2.741
  307SOL     OW 2361   1.791   1.031   2.738
  307SOL    HW1 2362   1.743   1.007   2.659
  307SOL    HW2 2363   1.723   1.036   2.806
  308SOL     OW 2364   1.227   1.534   3.378
  308SOL    HW1 2365   1.212   1.461   3.438
  308SOL    HW2 2366   1.160   1.523   3.310
  309SOL     OW 2367   0.324   0.959   2.112
  309SOL    HW1 2368   0.409   0.980   2.075
  309SOL    HW2 2369   0.300   0.875   2.073
  310SOL     OW 2370   1.479   0.775   2.601
  310SOL    HW1 2371   1.506   0.683   2.605
  310SOL    HW2 2372   1.559   0.822   2.577
  311SOL     OW 2373   0.475   1.259   3.594
  311SOL    HW1 2374   0.443   1.267   3.504
  311SOL    HW2 2375   0.395   1.248   3.646
  312SOL     OW 2376   1.127   1.782   2.097
  312SOL    HW1 2377   1.049   1.745   2.138
  312SOL    HW2 2378   1.151   1.719   2.029
  313SOL     OW 2379   0.198   0.313   3.365
  313SOL    HW1 2380   0.114   0.356   3.350
  313SOL    HW2 2381   0.179   0.246   3.431
  314SOL     OW 2382   1.629   1.389   1.950
  314SOL    HW1 2383   1.576   1.468   1.941
  314SOL    HW2 2384   1.568   1.317   1.929
  315SOL     OW 2385   0.454   1.742   2.180
  315SOL    HW1 2386   0.504   1.794   2.244
  315SOL    HW2 2387   0.520   1.698   2.127
  316SOL     OW 2388   1.422   0.116   2.275
  316SOL    HW1 2389   1.435   0.033   2.229
  316SOL    HW2 2390   1.509   0.140   2.306
  317SOL     OW 2391   0.258   1.794   3.066
  317SOL    HW1 2392   0.299   1.723   3.115
  317SOL    HW2 2393   0.193   1.751   3.011
  318SOL     OW 2394   0.942   1.700   2.754
  318SOL    HW1 2395   1.026   1.656   2.767
  318SOL    HW2 2396   0.899   1.651   2.684
  319SOL     OW 2397   0.411   0.694   2.337
  319SOL    HW1 2398   0.428   0.601   2.352
  319SOL    HW2 2399   0.318   0.705   2.359
  320SOL     OW 2400   1.522   0.231   3.580
  320SOL    HW1 2401   1.535   0.247   3.673
  320SOL    HW2 2402   1.456   0.161   3.577
  321SOL     OW 2403   0.624   0.146   1.958
  321SOL    HW1 2404   0.679   0.089   2.013
  321SOL    HW2 2405   0.579   0.085   1.899
  322SOL     OW 2406   0.783   0.301   3.646
  322SOL    HW1 2407   0.794   0.211   3.617
  322SOL    HW2 2408   0.709   0.299   3.707
  323SOL     OW 2409   0.876   1.530   3.059
  323SOL    HW1 2410   0.858   1.491   2.973
  323SOL    HW2 2411   0.942   1.473   3.098
  324SOL     OW 2412   1.339   0.601   3.296
  324SOL    HW1 2413   1.378   0.574   3.379
  324SOL    HW2 2414   1.374   0.688   3.280
  325SOL     OW 2415   0.818   1.389   2.813
  325SOL    HW1 2416   0.902   1.377   2.770
  325SOL    HW2 2417   0.755   1.398   2.742
  326SOL     OW 2418   0.922   0.516   2.752
  326SOL    HW1 2419   0.885   0.507   2.664
  326SOL    HW2 2420   0.964   0.432   2.769
  327SOL     OW 2421   0.494   0.013   2.286
  327SOL    HW1 2422   0.467   0.031   2.376
  327SOL    HW2 2423   0.518   0.099   2.251
  328SOL     OW 2424   1.459   1.181   1.894
  328SOL    HW1 2425   1.474   1.110   1.956
  328SOL    HW2 2426   1.376   1.220   1.922
  329SOL     OW 2427   0.305   0.056   2.047
  329SOL    HW1 2428   0.339   0.140   2.080
  329SOL    HW2 2429   0.345  -0.010   2.104
  330SOL     OW 2430   0.956   0.270   2.323
  330SOL    HW1 2431   0.929   0.299   2.236
  330SOL    HW2 2432   1.052   0.276   2.321
  331SOL     OW 2433   1.079   0.678   3.326
  331SOL    HW1 2434   1.022   0.600   3.331
  331SOL    HW2 2435   1.167   0.642   3.316
  332SOL     OW 2436   1.204   1.581   2.668
  332SOL    HW1 2437   1.227   1.645   2.601
  332SOL    HW2 2438   1.288   1.543   2.694
  333SOL     OW 2439   0.476   1.154   2.588
  333SOL    HW1 2440   0.414   1.131   2.656
  333SOL    HW2 2441   0.429   1.138   2.506
  334SOL     OW 2442   1.266   1.803   2.492
  334SOL    HW1 2443   1.308   1.863   2.429
  334SOL    HW2 2444   1.189   1.850   2.523
  335SOL     OW 2445   1.008   0.540   1.897
  335SOL    HW1 2446   0.959   0.615   1.864
  335SOL    HW2 2447   1.064   0.576   1.965
  336SOL     OW 2448   0.107   0.576   3.237
  336SOL    HW1 2449   0.201   0.572   3.219
  336SOL    HW2 2450   0.097   0.643   3.304
  337SOL     OW 2451   0.559   0.220   3.061
  337SOL    HW1 2452   0.593   0.196   3.147
  337SOL    HW2 2453   0.464   0.214   3.071
  338SOL     OW 2454   0.833   0.447   2.498
  338SOL    HW1 2455   0.809   0.515   2.434
  338SOL    HW2 2456   0.884   0.384   2.447
  339SOL     OW 2457   0.971   8.017   2.652
  339SOL    HW1 2458   0.926   8.039   2.570
  339SOL    HW2 2459   0.980   7.922   2.650
  340SOL     OW 2460   1.435   1.162   2.716
  340SOL    HW1 2461   1.367   1.095   2.729
  340SOL    HW2 2462   1.451   1.161   2.621
  341SOL     OW 2463   1.438   0.599   2.880
  341SOL    HW1 2464   1.466   0.551   2.801
  341SOL    HW2 2465   1.516   0.600   2.936
  342SOL     OW 2466   1.843   0.811   2.247
  342SOL    HW1 2467   1.899   0.763   2.307
  342SOL    HW2 2468   1.821   0.748   2.178
  343SOL     OW 2469   0.488   1.427   2.020
  343SOL    HW1 2470   0.407   1.390   2.054
  343SOL    HW2 2471   0.513   1.370   1.947
  344SOL     OW 2472   1.692   1.272   2.488
  344SOL    HW1 2473   1.785   1.271   2.511
  344SOL    HW2 2474   1.661   1.357   2.518
  345SOL     OW 2475   1.406   0.560   1.948
  345SOL    HW1 2476   1.371   0.594   2.030
  345SOL    HW2 2477   1.501   0.573   1.956
  346SOL     OW 2478   0.502   0.266   2.163
  346SOL    HW1 2479   0.555   0.226   2.093
  346SOL    HW2 2480   0.485   0.355   2.133
  347SOL     OW 2481   1.756   1.227   3.456
  347SOL    HW1 2482   1.842   1.206   3.419
  347SOL    HW2 2483   1.767   1.215   3.550
  348SOL     OW 2484   1.046   1.361   3.202
  348SOL    HW1 2485   0.970   1.325   3.247
  348SOL    HW2 2486   1.121   1.313   3.238
  349SOL     OW 2487   1.671   1.642   3.507
  349SOL    HW1 2488   1.632   1.665   3.423
  349SOL    HW2 2489   1.655   1.719   3.562
  350SOL     OW 2490   1.139   1.224   2.963
  350SOL    HW1 2491   1.067   1.248   3.021
  350SOL    HW2 2492   1.111   1.252   2.876
  351SOL     OW 2493   1.611   1.087   2.936
  351SOL    HW1 2494   1.597   1.146   3.011
  351SOL    HW2 2495   1.539   1.107   2.876
  352SOL     OW 2496   0.930   0.126   3.265
  352SOL    HW1 2497   0.933   0.092   3.176
  352SOL    HW2 2498   1.021   0.126   3.295
  353SOL     OW 2499   0.982   1.110   3.594
  353SOL    HW1 2500   0.890   1.128   3.616
  353SOL    HW2 2501   0.979   1.031   3.540
  354SOL     OW 2502   0.714   1.062   2.242
  354SOL    HW1 2503   0.699   1.040   2.334
  354SOL    HW2 2504   0.786   1.005   2.215
  355SOL     OW 2505   0.430   0.825   3.110
  355SOL    HW1 2506   0.490   0.843   3.183
  355SOL    HW2 2507   0.402   0.735   3.124
  356SOL     OW 2508   1.263   0.387   3.142
  356SOL    HW1 2509   1.297   0.469   3.179
  356SOL    HW2 2510   1.174   0.409   3.113
  357SOL     OW 2511   0.059   1.588   3.216
  357SOL    HW1 2512   0.051   1.655   3.284
  357SOL    HW2 2513   0.153   1.570   3.212
  358SOL     OW 2514   0.334   1.111   2.353
  358SOL    HW1 2515   0.339   1.192   2.302
  358SOL    HW2 2516   0.340   1.041   2.288
  359SOL     OW 2517   0.563   0.516   2.714
  359SOL    HW1 2518   0.570   0.577   2.641
  359SOL    HW2 2519   0.620   0.553   2.782
  360SOL     OW 2520   1.266   1.337   2.337
  360SOL    HW1 2521   1.306   1.423   2.326
  360SOL    HW2 2522   1.186   1.341   2.285
  361SOL     OW 2523   1.294   1.454   3.015
  361SOL    HW1 2524   1.345   1.449   3.096
  361SOL    HW2 2525   1.239   1.376   3.016
  362SOL     OW 2526   1.582   0.638   2.306
  362SOL    HW1 2527   1.575   0.605   2.395
  362SOL    HW2 2528   1.609   0.729   2.316
  363SOL     OW 2529   0.337   1.544   3.170
  363SOL    HW1 2530   0.325   1.491   3.091
  363SOL    HW2 2531   0.432   1.548   3.182
  364SOL     OW 2532   0.415   0.739   3.466
  364SOL    HW1 2533   0.479   0.785   3.412
  364SOL    HW2 2534   0.454   0.654   3.483
  365SOL     OW 2535   1.615   0.787   3.553
  365SOL    HW1 2536   1.527   0.825   3.545
  365SOL    HW2 2537   1.665   0.826   3.481
  366SOL     OW 2538   1.049   0.072   3.585
  366SOL    HW1 2539   1.072   0.162   3.608
  366SOL    HW2 2540   0.954   0.074   3.575
  367SOL     OW 2541   0.502   0.050   3.576
  367SOL    HW1 2542   0.471  -0.013   3.511
  367SOL    HW2 2543   0.427   0.108   3.590
  368SOL     OW 2544   0.587   0.875   2.892
  368SOL    HW1 2545   0.618   0.966   2.893
  368SOL    HW2 2546   0.530   0.869   2.969
  369SOL     OW 2547   1.339   0.857   2.887
  369SOL    HW1 2548   1.274   0.849   2.817
  369SOL    HW2 2549   1.381   0.771   2.890
  370SOL     OW 2550   1.196   0.509   2.133
  370SOL    HW1 2551   1.203   0.445   2.205
  370SOL    HW2 2552   1.160   0.587   2.175
  371SOL     OW 2553   0.287   0.209   3.115
  371SOL    HW1 2554   0.259   0.263   3.188
  371SOL    HW2 2555   0.245   0.124   3.130
  372SOL     OW 2556   0.071   1.315   3.131
  372SOL    HW1 2557   0.083   1.254   3.204
  372SOL    HW2 2558   0.049   1.399   3.173
  373SOL     OW 2559   0.712   0.630   2.910
  373SOL    HW1 2560   0.793   0.627   2.859
  373SOL    HW2 2561   0.681   0.720   2.900
  374SOL     OW 2562   1.736   0.978   3.717
  374SOL    HW1 2563   1.699   0.903   3.670
  374SOL    HW2 2564   1.681   0.988   3.795
  375SOL     OW 2565   0.368   0.073   2.527
  375SOL    HW1 2566   0.357   0.164   2.554
  375SOL    HW2 2567   0.282   0.048   2.493
  376SOL     OW 2568   1.619   0.394   2.204
  376SOL    HW1 2569   1.638   0.330   2.272
  376SOL    HW2 2570   1.597   0.474   2.252
  377SOL     OW 2571   1.017   0.763   2.817
  377SOL    HW1 2572   1.016   0.775   2.912
  377SOL    HW2 2573   0.994   0.670   2.804
  378SOL     OW 2574   0.989   1.573   3.582
  378SOL    HW1 2575   0.966   1.612   3.498
  378SOL    HW2 2576   1.023   1.486   3.559
  379SOL     OW 2577   0.370   0.945   3.662
  379SOL    HW1 2578   0.449   0.945   3.717
  379SOL    HW2 2579   0.378   0.866   3.610
  380SOL     OW 2580   1.515   0.271   1.993
  380SOL    HW1 2581   1.543   0.182   2.015
  380SOL    HW2 2582   1.556   0.326   2.060
  381SOL     OW 2583   1.273   0.820   1.874
  381SOL    HW1 2584   1.330   0.743   1.883
  381SOL    HW2 2585   1.306   0.866   1.797
  382SOL     OW 2586   1.066   1.337   2.719
  382SOL    HW1 2587   1.070   1.264   2.657
  382SOL    HW2 2588   1.113   1.408   2.676
  383SOL     OW 2589   0.319   0.796   2.794
  383SOL    HW1 2590   0.411   0.823   2.795
  383SOL    HW2 2591   0.318   0.713   2.841
  384SOL     OW 2592   0.348   0.516   2.880
  384SOL    HW1 2593   0.306   0.432   2.862
  384SOL    HW2 2594   0.419   0.522   2.816
  385SOL     OW 2595   1.174   0.353   3.549
  385SOL    HW1 2596   1.095   0.389   3.508
  385SOL    HW2 2597   1.240   0.422   3.538
  386SOL     OW 2598   1.193   0.197   3.319
  386SOL    HW1 2599   1.185   0.240   3.404
  386SOL    HW2 2600   1.217   0.267   3.259
  387SOL     OW 2601   7.979   1.298   2.041
  387SOL    HW1 2602   7.898   1.328   2.082
  387SOL    HW2 2603   7.984   1.205   2.063
  388SOL     OW 2604   0.093   1.793   2.832
  388SOL    HW1 2605   0.003   1.773   2.806
  388SOL    HW2 2606   0.147   1.756   2.762
  389SOL     OW 2607   0.484   1.583   2.761
  389SOL    HW1 2608   0.556   1.640   2.791
  389SOL    HW2 2609   0.527   1.518   2.706
  390SOL     OW 2610   0.968   0.776   3.088
  390SOL    HW1 2611   1.032   0.762   3.158
  390SOL    HW2 2612   0.884   0.749   3.126
  391SOL     OW 2613   0.084   0.575   2.964
  391SOL    HW1 2614   0.174   0.546   2.952
  391SOL    HW2 2615   0.069   0.569   3.059
  392SOL     OW 2616   0.185   0.529   3.589
  392SOL    HW1 2617   0.238   0.480   3.526
  392SOL    HW2 2618   0.157   0.607   3.542
  393SOL     OW 2619   1.380   0.926   3.517
  393SOL    HW1 2620   1.396   1.020   3.514
  393SOL    HW2 2621   1.377   0.900   3.425
  394SOL     OW 2622   0.816   0.573   2.237
  394SOL    HW1 2623   0.821   0.498   2.178
  394SOL    HW2 2624   0.744   0.626   2.203
  395SOL     OW 2625   1.657   0.608   3.047
  395SOL    HW1 2626   1.645   0.545   3.118
  395SOL    HW2 2627   1.743   0.586   3.010
  396SOL     OW 2628   0.335   1.553   3.622
  396SOL    HW1 2629   0.277   1.617   3.664
  396SOL    HW2 2630   0.276   1.484   3.592
  397SOL     OW 2631   0.727   0.448   3.112
  397SOL    HW1 2632   0.658   0.383   3.101
  397SOL    HW2 2633   0.710   0.513   3.043
  398SOL     OW 2634   0.924   1.682   3.333
  398SOL    HW1 2635   0.899   1.636   3.252
  398SOL    HW2 2636   0.910   1.774   3.314
  399SOL     OW 2637   0.457   0.500   2.025
  399SOL    HW1 2638   0.511   0.575   2.049
  399SOL    HW2 2639   0.377   0.510   2.077
  400SOL     OW 2640   0.158   1.139   3.328
  400SOL    HW1 2641   0.136   1.088   3.406
  400SOL    HW2 2642   0.168   1.073   3.259
  401SOL     OW 2643   1.311   1.043   3.079
  401SOL    HW1 2644   1.327   0.976   3.013
  401SOL    HW2 2645   1.250   1.104   3.038
  402SOL     OW 2646   1.319   0.836   2.152
  402SOL    HW1 2647   1.250   0.834   2.220
  402SOL    HW2 2648   1.272   0.854   2.071
  403SOL     OW 2649   1.716   1.749   2.928
  403SOL    HW1 2650   1.810   1.763   2.923
  403SOL    HW2 2651   1.706   1.656   2.948
  404SOL     OW 2652   1.220   1.723   3.002
  404SOL    HW1 2653   1.309   1.753   2.983
  404SOL    HW2 2654   1.227   1.628   3.005
  405SOL     OW 2655   0.082   1.219   2.882
  405SOL    HW1 2656   0.081   1.250   2.972
  405SOL    HW2 2657  -0.008   1.231   2.851
  406SOL     OW 2658   0.683   1.677   3.606
  406SOL    HW1 2659   0.615   1.744   3.595
  406SOL    HW2 2660   0.745   1.694   3.534
  407SOL     OW 2661   1.686   0.145   2.338
  407SOL    HW1 2662   1.771   0.144   2.294
  407SOL    HW2 2663   1.703   0.110   2.425
  408SOL     OW 2664   1.404   1.583   2.368
  408SOL    HW1 2665   1.451   1.612   2.289
  408SOL    HW2 2666   1.342   1.654   2.386
  409SOL     OW 2667   0.154   1.754   3.699
  409SOL    HW1 2668   0.107   1.690   3.752
  409SOL    HW2 2669   0.117   1.838   3.725
  410SOL     OW 2670   1.270   0.926   2.539
  410SOL    HW1 2671   1.343   0.869   2.563
  410SOL    HW2 2672   1.311   0.998   2.491
  411SOL     OW 2673   0.792   1.280   3.284
  411SOL    HW1 2674   0.765   1.322   3.366
  411SOL    HW2 2675   0.717   1.292   3.226
  412SOL     OW 2676   0.668   1.634   2.042
  412SOL    HW1 2677   0.683   1.660   1.952
  412SOL    HW2 2678   0.621   1.550   2.036
  413SOL     OW 2679   1.621   1.730   3.249
  413SOL    HW1 2680   1.650   1.736   3.158
  413SOL    HW2 2681   1.601   1.821   3.274
  414SOL     OW 2682   1.843   0.155   2.802
  414SOL    HW1 2683   1.827   0.070   2.844
  414SOL    HW2 2684   1.757   0.184   2.774
  415SOL     OW 2685   0.260   0.327   2.576
  415SOL    HW1 2686   0.174   0.361   2.552
  415SOL    HW2 2687   0.255   0.312   2.670
  416SOL     OW 2688   1.214   1.618   1.897
  416SOL    HW1 2689   1.213   1.528   1.929
  416SOL    HW2 2690   1.145   1.622   1.831
  417SOL     OW 2691   0.826   1.011   3.243
  417SOL    HW1 2692   0.856   1.006   3.152
  417SOL    HW2 2693   0.816   1.105   3.260
  418SOL     OW 2694   0.907   0.898   2.155
  418SOL    HW1 2695   0.960   0.934   2.084
  418SOL    HW2 2696   0.966   0.838   2.201
  419SOL     OW 2697   1.490   1.644   1.910
  419SOL    HW1 2698   1.397   1.627   1.896
  419SOL    HW2 2699   1.527   1.649   1.822
  420SOL     OW 2700   0.375   1.305   3.347
  420SOL    HW1 2701   0.342   1.386   3.307
  420SOL    HW2 2702   0.303   1.243   3.337
  421SOL     OW 2703   1.589   1.265   3.145
  421SOL    HW1 2704   1.674   1.268   3.189
  421SOL    HW2 2705   1.539   1.337   3.182
  422SOL     OW 2706   1.062   1.107   2.582
  422SOL    HW1 2707   0.988   1.057   2.615
  422SOL    HW2 2708   1.125   1.040   2.555
  423SOL     OW 2709   1.024   0.268   2.806
  423SOL    HW1 2710   1.015   0.212   2.728
  423SOL    HW2 2711   1.032   0.207   2.879
  424SOL     OW 2712   0.610   1.484   2.344
  424SOL    HW1 2713   0.665   1.436   2.282
  424SOL    HW2 2714   0.529   1.501   2.297
  425SOL     OW 2715   1.723   0.401   3.252
  425SOL    HW1 2716   1.794   0.465   3.262
  425SOL    HW2 2717   1.756   0.341   3.185
  426SOL     OW 2718   0.242   1.337   2.131
  426SOL    HW1 2719   0.147   1.342   2.125
  426SOL    HW2 2720   0.263   1.377   2.216
  427SOL     OW 2721   0.112   1.004   3.567
  427SOL    HW1 2722   0.063   1.077   3.604
  427SOL    HW2 2723   0.192   1.000   3.619
  428SOL     OW 2724   0.674   0.207   3.337
  428SOL    HW1 2725   0.759   0.170   3.315
  428SOL    HW2 2726   0.654   0.173   3.424
  429SOL     OW 2727   0.078   0.349   1.852
  429SOL    HW1 2728   0.026   0.392   1.920
  429SOL    HW2 2729   0.103   0.421   1.793
  430SOL     OW 2730   1.424   0.862   3.255
  430SOL    HW1 2731   1.372   0.921   3.201
  430SOL    HW2 2732   1.511   0.862   3.214
  431SOL     OW 2733   0.124   0.258   2.209
  431SOL    HW1 2734   0.057   0.222   2.150
  431SOL    HW2 2735   0.132   0.192   2.279
  432SOL     OW 2736   0.616   0.843   3.307
  432SOL    HW1 2737   0.673   0.918   3.294
  432SOL    HW2 2738   0.675   0.768   3.308
  433SOL     OW 2739   0.720   0.551   3.563
  433SOL    HW1 2740   0.670   0.585   3.637
  433SOL    HW2 2741   0.749   0.464   3.591
  434SOL     OW 2742   1.465   1.192   3.490
  434SOL    HW1 2743   1.455   1.204   3.585
  434SOL    HW2 2744   1.556   1.217   3.473
  435SOL     OW 2745   0.402   1.732   3.430
  435SOL    HW1 2746   0.312   1.755   3.407
  435SOL    HW2 2747   0.393   1.655   3.486
  436SOL     OW 2748   1.664   0.878   3.117
  436SOL    HW1 2749   1.663   0.790   3.078
  436SOL    HW2 2750   1.649   0.937   3.044
  437SOL     OW 2751   1.227   0.302   2.300
  437SOL    HW1 2752   1.295   0.234   2.302
  437SOL    HW2 2753   1.235   0.346   2.384
  438SOL     OW 2754   0.596   0.727   2.540
  438SOL    HW1 2755   0.634   0.815   2.533
  438SOL    HW2 2756   0.531   0.723   2.470
  439SOL     OW 2757   1.750   0.368   3.527
  439SOL    HW1 2758   1.751   0.382   3.432
  439SOL    HW2 2759   1.670   0.318   3.542
  440SOL     OW 2760   1.755   0.937   3.368
  440SOL    HW1 2761   1.729   1.028   3.381
  440SOL    HW2 2762   1.730   0.918   3.277
  441SOL     OW 2763   0.814   1.365   1.908
  441SOL    HW1 2764   0.821   1.367   2.003
  441SOL    HW2 2765   0.880   1.427   1.878
  442SOL     OW 2766   0.669   1.784   2.801
  442SOL    HW1 2767   0.660   1.877   2.780
  442SOL    HW2 2768   0.763   1.767   2.791
  443SOL     OW 2769   0.864   0.973   2.718
  443SOL    HW1 2770   0.914   0.899   2.754
  443SOL    HW2 2771   0.827   1.016   2.795
  444SOL     OW 2772   1.056   0.975   1.946
  444SOL    HW1 2773   1.071   1.068   1.929
  444SOL    HW2 2774   1.132   0.931   1.908
  445SOL     OW 2775   1.841   1.548   2.715
  445SOL    HW1 2776   1.781   1.501   2.657
  445SOL    HW2 2777   1.885   1.479   2.765
  446SOL     OW 2778   0.224   1.277   3.718
  446SOL    HW1 2779   0.148   1.294   3.663
  446SOL    HW2 2780   0.189   1.273   3.807
  447SOL     OW 2781   0.138   1.256   2.527
  447SOL    HW1 2782   0.064   1.211   2.567
  447SOL    HW2 2783   0.196   1.186   2.498
  448SOL     OW 2784   0.689   1.410   3.504
  448SOL    HW1 2785   0.609   1.364   3.530
  448SOL    HW2 2786   0.677   1.498   3.540
  449SOL     OW 2787   1.818   0.226   3.080
  449SOL    HW1 2788   1.759   0.151   3.073
  449SOL    HW2 2789   1.842   0.246   2.989
  450SOL     OW 2790   0.439   0.432   2.389
  450SOL    HW1 2791   0.465   0.355   2.339
  450SOL    HW2 2792   0.380   0.399   2.457
  451SOL     OW 2793   1.685   1.491   2.981
  451SOL    HW1 2794   1.614   1.454   2.928
  451SOL    HW2 2795   1.723   1.415   3.025
  452SOL     OW 2796   0.365   0.568   3.152
  452SOL    HW1 2797   0.406   0.506   3.211
  452SOL    HW2 2798   0.375   0.530   3.065
  453SOL     OW 2799   0.830   1.584   2.537
  453SOL    HW1 2800   0.809   1.646   2.467
  453SOL    HW2 2801   0.757   1.521   2.535
  454SOL     OW 2802   1.365   0.161   3.029
  454SOL    HW1 2803   1.459   0.148   3.039
  454SOL    HW2 2804   1.347   0.245   3.071
  455SOL     OW 2805   1.021   0.033   2.951
  455SOL    HW1 2806   0.925   0.032   2.958
  455SOL    HW2 2807   1.038  -0.003   2.864
  456SOL     OW 2808   0.777   1.329   2.188
  456SOL    HW1 2809   0.758   1.236   2.203
  456SOL    HW2 2810   0.861   1.344   2.232
  457SOL     OW 2811   0.619   1.559   3.150
  457SOL    HW1 2812   0.621   1.643   3.196
  457SOL    HW2 2813   0.707   1.550   3.113
  458SOL     OW 2814   1.346   8.020   1.955
  458SOL    HW1 2815   1.430   7.994   1.993
  458SOL    HW2 2816   1.281   7.973   2.008
  459SOL     OW 2817   1.231   0.442   2.528
  459SOL    HW1 2818   1.201   0.532   2.541
  459SOL    HW2 2819   1.310   0.436   2.582
  460SOL     OW 2820   1.588   0.226   2.733
  460SOL    HW1 2821   1.494   0.224   2.748
  460SOL    HW2 2822   1.603   0.307   2.683
  461SOL     OW 2823   0.044   1.034   2.139
  461SOL    HW1 2824   0.139   1.032   2.148
  461SOL    HW2 2825   0.013   1.057   2.227
  462SOL     OW 2826   0.892   1.674   2.204
  462SOL    HW1 2827   0.816   1.654   2.149
  462SOL    HW2 2828   0.862   1.745   2.261
  463SOL     OW 2829   0.247   0.698   3.828
  463SOL    HW1 2830   0.173   0.683   3.887
  463SOL    HW2 2831   0.241   0.628   3.763
  464SOL     OW 2832   0.241   0.277   4.708
  464SOL    HW1 2833   0.256   0.237   4.793
  464SOL    HW2 2834   0.148   0.262   4.691
  465SOL     OW 2835   7.991   0.380   4.327
  465SOL    HW1 2836   7.916   0.403   4.382
  465SOL    HW2 2837   7.958   0.313   4.268
  466SOL     OW 2838   0.558   1.307   4.883
  466SOL    HW1 2839   0.498   1.259   4.939
  466SOL    HW2 2840   0.578   1.387   4.932
  467SOL     OW 2841   1.578   1.559   4.446
  467SOL    HW1 2842   1.541   1.532   4.530
  467SOL    HW2 2843   1.544   1.496   4.383
  468SOL     OW 2844   1.135   0.693   4.423
  468SOL    HW1 2845   1.181   0.775   4.408
  468SOL    HW2 2846   1.087   0.707   4.505
  469SOL     OW 2847   1.800   0.590   3.943
  469SOL    HW1 2848   1.763   0.590   3.855
  469SOL    HW2 2849   1.750   0.524   3.991
  470SOL     OW 2850   0.738   1.152   4.734
  470SOL    HW1 2851   0.674   1.183   4.799
  470SOL    HW2 2852   0.780   1.231   4.703
  471SOL     OW 2853   0.691   0.998   4.368
  471SOL    HW1 2854   0.761   0.987   4.432
  471SOL    HW2 2855   0.620   1.040   4.416
  472SOL     OW 2856   0.712   1.157   5.548
  472SOL    HW1 2857   0.764   1.234   5.574
  472SOL    HW2 2858   0.632   1.194   5.513
  473SOL     OW 2859   0.263   1.473   4.743
  473SOL    HW1 2860   0.221   1.388   4.729
  473SOL    HW2 2861   0.347   1.466   4.698
  474SOL     OW 2862   1.454   1.507   5.087
  474SOL    HW1 2863   1.504   1.588   5.101
  474SOL    HW2 2864   1.381   1.513   5.149
  475SOL     OW 2865   0.464   0.389   5.181
  475SOL    HW1 2866   0.537   0.331   5.201
  475SOL    HW2 2867   0.387   0.343   5.214
  476SOL     OW 2868   1.603   0.461   4.458
  476SOL    HW1 2869   1.528   0.475   4.400
  476SOL    HW2 2870   1.593   0.526   4.527
  477SOL     OW 2871   0.215   1.695   4.207
  477SOL    HW1 2872   0.223   1.779   4.251
  477SOL    HW2 2873   0.287   1.694   4.144
  478SOL     OW 2874   1.134   1.342   5.413
  478SOL    HW1 2875   1.170   1.333   5.502
  478SOL    HW2 2876   1.077   1.266   5.403
  479SOL     OW 2877   0.296   1.447   4.283
  479SOL    HW1 2878   0.261   1.535   4.278
  479SOL    HW2 2879   0.227   1.395   4.323
  480SOL     OW 2880   0.290   1.092   4.652
  480SOL    HW1 2881   0.272   1.001   4.677
  480SOL    HW2 2882   0.213   1.140   4.683
  481SOL     OW 2883   0.618   1.785   5.154
  481SOL    HW1 2884   0.527   1.778   5.183
  481SOL    HW2 2885   0.670   1.767   5.233
  482SOL     OW 2886   0.587   0.982   3.858
  482SOL    HW1 2887   0.631   1.037   3.793
  482SOL    HW2 2888   0.616   1.017   3.942
  483SOL     OW 2889   1.644   0.127   5.201
  483SOL    HW1 2890   1.638   0.217   5.168
  483SOL    HW2 2891   1.612   0.132   5.291
  484SOL     OW 2892   0.152   0.644   4.293
  484SOL    HW1 2893   0.098   0.565   4.301
  484SOL    HW2 2894   0.117   0.704   4.359
  485SOL     OW 2895   0.026   1.582   3.860
  485SOL    HW1 2896   0.018   1.487   3.853
  485SOL    HW2 2897   0.001   1.601   3.951
  486SOL     OW 2898   1.684   0.901   4.346
  486SOL    HW1 2899   1.778   0.882   4.339
  486SOL    HW2 2900   1.668   0.967   4.280
  487SOL     OW 2901   1.672   1.101   4.145
  487SOL    HW1 2902   1.761   1.100   4.110
  487SOL    HW2 2903   1.670   1.178   4.202
  488SOL     OW 2904   0.118   0.777   5.278
  488SOL    HW1 2905   0.185   0.724   5.321
  488SOL    HW2 2906   0.123   0.862   5.322
  489SOL     OW 2907   1.288   1.246   5.140
  489SOL    HW1 2908   1.310   1.172   5.084
  489SOL    HW2 2909   1.341   1.233   5.219
  490SOL     OW 2910   0.839   0.018   4.271
  490SOL    HW1 2911   0.884   0.097   4.242
  490SOL    HW2 2912   0.755   0.048   4.305
  491SOL     OW 2913   0.180   0.946   4.972
  491SOL    HW1 2914   0.270   0.915   4.967
  491SOL    HW2 2915   0.128   0.867   4.984
  492SOL     OW 2916   1.540   1.001   3.926
  492SOL    HW1 2917   1.479   0.934   3.958
  492SOL    HW2 2918   1.579   1.038   4.006
  493SOL     OW 2919   1.216   1.825   5.353
  493SOL    HW1 2920   1.195   1.872   5.273
  493SOL    HW2 2921   1.215   1.733   5.328
  494SOL     OW 2922   0.352   0.273   5.538
  494SOL    HW1 2923   0.392   0.344   5.589
  494SOL    HW2 2924   0.258   0.286   5.549
  495SOL     OW 2925   1.477   1.462   4.678
  495SOL    HW1 2926   1.409   1.456   4.746
  495SOL    HW2 2927   1.481   1.374   4.640
  496SOL     OW 2928   1.723   1.693   4.256
  496SOL    HW1 2929   1.663   1.680   4.183
  496SOL    HW2 2930   1.679   1.652   4.330
  497SOL     OW 2931   0.588   0.728   3.997
  497SOL    HW1 2932   0.572   0.812   3.953
  497SOL    HW2 2933   0.520   0.724   4.064
  498SOL     OW 2934   1.295   0.367   4.654
  498SOL    HW1 2935   1.203   0.340   4.655
  498SOL    HW2 2936   1.337   0.312   4.720
  499SOL     OW 2937   1.582   1.700   4.006
  499SOL    HW1 2938   1.588   1.794   3.987
  499SOL    HW2 2939   1.545   1.662   3.927
  500SOL     OW 2940   0.778   0.641   5.155
  500SOL    HW1 2941   0.768   0.615   5.247
  500SOL    HW2 2942   0.759   0.562   5.105
  501SOL     OW 2943   1.414   0.494   5.407
  501SOL    HW1 2944   1.400   0.536   5.493
  501SOL    HW2 2945   1.505   0.467   5.408
  502SOL     OW 2946   0.982   0.910   5.258
  502SOL    HW1 2947   1.038   0.836   5.233
  502SOL    HW2 2948   0.926   0.875   5.328
  503SOL     OW 2949   1.012   0.410   4.936
  503SOL    HW1 2950   0.958   0.430   5.012
  503SOL    HW2 2951   0.950   0.391   4.866
  504SOL     OW 2952   1.039   0.699   4.164
  504SOL    HW1 2953   1.075   0.697   4.253
  504SOL    HW2 2954   0.958   0.650   4.169
  505SOL     OW 2955   0.094   0.808   4.514
  505SOL    HW1 2956   0.180   0.809   4.556
  505SOL    HW2 2957   0.039   0.862   4.570
  506SOL     OW 2958   0.132   1.860   5.295
  506SOL    HW1 2959   0.118   1.843   5.388
  506SOL    HW2 2960   0.056   1.820   5.252
  507SOL     OW 2961   0.897   0.312   3.933
  507SOL    HW1 2962   0.973   0.314   3.876
  507SOL    HW2 2963   0.829   0.269   3.880
  508SOL     OW 2964   1.681   0.565   5.558
  508SOL    HW1 2965   1.662   0.646   5.510
  508SOL    HW2 2966   1.734   0.514   5.496
  509SOL     OW 2967   1.355   1.114   4.206
  509SOL    HW1 2968   1.421   1.146   4.268
  509SOL    HW2 2969   1.317   1.193   4.169
  510SOL     OW 2970   0.561   0.246   4.612
  510SOL    HW1 2971   0.506   0.235   4.690
  510SOL    HW2 2972   0.559   0.340   4.595
  511SOL     OW 2973   0.997   1.435   4.188
  511SOL    HW1 2974   0.963   1.516   4.150
  511SOL    HW2 2975   0.983   1.445   4.282
  512SOL     OW 2976   0.369   1.818   4.590
  512SOL    HW1 2977   0.419   1.737   4.592
  512SOL    HW2 2978   0.433   1.887   4.608
  513SOL     OW 2979   1.797   1.038   4.595
  513SOL    HW1 2980   1.729   1.047   4.529
  513SOL    HW2 2981   1.750   1.045   4.679
  514SOL     OW 2982   1.228   1.547   5.243
  514SOL    HW1 2983   1.213   1.468   5.294
  514SOL    HW2 2984   1.145   1.563   5.198
  515SOL     OW 2985   0.313   0.929   3.973
  515SOL    HW1 2986   0.369   0.967   3.906
  515SOL    HW2 2987   0.287   0.844   3.937
  516SOL     OW 2988   1.475   0.753   4.443
  516SOL    HW1 2989   1.480   0.717   4.532
  516SOL    HW2 2990   1.552   0.810   4.435
  517SOL     OW 2991   0.473   1.278   5.462
  517SOL    HW1 2992   0.457   1.266   5.369
  517SOL    HW2 2993   0.389   1.258   5.503
  518SOL     OW 2994   1.100   1.768   3.955
  518SOL    HW1 2995   1.027   1.727   4.000
  518SOL    HW2 2996   1.129   1.703   3.890
  519SOL     OW 2997   0.204   0.307   5.229
  519SOL    HW1 2998   0.135   0.370   5.207
  519SOL    HW2 2999   0.164   0.251   5.296
  520SOL     OW 3000   1.631   1.378   3.791
  520SOL    HW1 3001   1.582   1.460   3.790
  520SOL    HW2 3002   1.564   1.310   3.785
  521SOL     OW 3003   0.478   1.695   4.072
  521SOL    HW1 3004   0.506   1.776   4.114
  521SOL    HW2 3005   0.537   1.684   3.997
  522SOL     OW 3006   1.419   0.134   4.134
  522SOL    HW1 3007   1.430   0.090   4.049
  522SOL    HW2 3008   1.509   0.142   4.168
  523SOL     OW 3009   0.945   1.703   4.614
  523SOL    HW1 3010   1.026   1.659   4.639
  523SOL    HW2 3011   0.900   1.640   4.557
  524SOL     OW 3012   0.411   0.688   4.206
  524SOL    HW1 3013   0.427   0.594   4.217
  524SOL    HW2 3014   0.316   0.697   4.220
  525SOL     OW 3015   1.563   0.208   5.463
  525SOL    HW1 3016   1.569   0.239   5.554
  525SOL    HW2 3017   1.470   0.204   5.445
  526SOL     OW 3018   0.626   0.144   3.807
  526SOL    HW1 3019   0.662   0.063   3.845
  526SOL    HW2 3020   0.556   0.115   3.749
  527SOL     OW 3021   0.750   0.277   5.492
  527SOL    HW1 3022   0.778   0.186   5.492
  527SOL    HW2 3023   0.680   0.281   5.557
  528SOL     OW 3024   0.886   1.530   4.920
  528SOL    HW1 3025   0.871   1.491   4.834
  528SOL    HW2 3026   0.948   1.470   4.962
  529SOL     OW 3027   1.349   0.585   5.155
  529SOL    HW1 3028   1.378   0.563   5.243
  529SOL    HW2 3029   1.374   0.677   5.143
  530SOL     OW 3030   0.828   1.415   4.655
  530SOL    HW1 3031   0.915   1.383   4.631
  530SOL    HW2 3032   0.794   1.454   4.575
  531SOL     OW 3033   0.934   0.511   4.619
  531SOL    HW1 3034   0.910   0.506   4.527
  531SOL    HW2 3035   0.972   0.425   4.638
  532SOL     OW 3036   0.461   0.013   4.159
  532SOL    HW1 3037   0.450   0.023   4.254
  532SOL    HW2 3038   0.515   0.088   4.134
  533SOL     OW 3039   1.429   1.197   3.765
  533SOL    HW1 3040   1.460   1.125   3.819
  533SOL    HW2 3041   1.342   1.218   3.800
  534SOL     OW 3042   0.333   0.058   3.918
  534SOL    HW1 3043   0.325   0.153   3.925
  534SOL    HW2 3044   0.373   0.031   4.001
  535SOL     OW 3045   0.955   0.251   4.192
  535SOL    HW1 3046   0.927   0.274   4.104
  535SOL    HW2 3047   1.048   0.272   4.194
  536SOL     OW 3048   1.085   0.666   5.177
  536SOL    HW1 3049   1.022   0.599   5.204
  536SOL    HW2 3050   1.169   0.621   5.176
  537SOL     OW 3051   1.216   1.572   4.527
  537SOL    HW1 3052   1.243   1.636   4.461
  537SOL    HW2 3053   1.293   1.563   4.584
  538SOL     OW 3054   0.459   1.126   4.451
  538SOL    HW1 3055   0.413   1.122   4.535
  538SOL    HW2 3056   0.410   1.066   4.394
  539SOL     OW 3057   1.265   1.785   4.337
  539SOL    HW1 3058   1.313   1.852   4.289
  539SOL    HW2 3059   1.192   1.832   4.378
  540SOL     OW 3060   0.100   0.559   5.111
  540SOL    HW1 3061   0.192   0.561   5.086
  540SOL    HW2 3062   0.091   0.631   5.174
  541SOL     OW 3063   0.564   0.215   4.933
  541SOL    HW1 3064   0.592   0.196   5.023
  541SOL    HW2 3065   0.468   0.209   4.937
  542SOL     OW 3066   0.866   0.470   4.355
  542SOL    HW1 3067   0.775   0.490   4.334
  542SOL    HW2 3068   0.884   0.388   4.310
  543SOL     OW 3069   1.015   0.025   4.489
  543SOL    HW1 3070   0.956   0.025   4.414
  543SOL    HW2 3071   0.983  -0.046   4.545
  544SOL     OW 3072   1.469   0.603   4.680
  544SOL    HW1 3073   1.407   0.531   4.689
  544SOL    HW2 3074   1.523   0.598   4.759
  545SOL     OW 3075   1.856   0.809   4.095
  545SOL    HW1 3076   1.905   0.763   4.162
  545SOL    HW2 3077   1.830   0.741   4.033
  546SOL     OW 3078   0.485   1.426   3.869
  546SOL    HW1 3079   0.413   1.391   3.922
  546SOL    HW2 3080   0.453   1.420   3.779
  547SOL     OW 3081   1.698   1.301   4.325
  547SOL    HW1 3082   1.785   1.281   4.358
  547SOL    HW2 3083   1.639   1.271   4.394
  548SOL     OW 3084   1.393   0.577   3.799
  548SOL    HW1 3085   1.325   0.557   3.863
  548SOL    HW2 3086   1.475   0.571   3.848
  549SOL     OW 3087   0.595   0.238   4.054
  549SOL    HW1 3088   0.599   0.222   3.960
  549SOL    HW2 3089   0.519   0.296   4.065
  550SOL     OW 3090   1.743   1.242   5.276
  550SOL    HW1 3091   1.827   1.198   5.283
  550SOL    HW2 3092   1.760   1.332   5.306
  551SOL     OW 3093   1.046   1.351   5.053
  551SOL    HW1 3094   0.974   1.320   5.108
  551SOL    HW2 3095   1.125   1.318   5.097
  552SOL     OW 3096   1.612   1.633   5.401
  552SOL    HW1 3097   1.592   1.664   5.313
  552SOL    HW2 3098   1.691   1.579   5.391
  553SOL     OW 3099   1.146   1.217   4.830
  553SOL    HW1 3100   1.082   1.247   4.895
  553SOL    HW2 3101   1.108   1.242   4.746
  554SOL     OW 3102   1.639   1.099   4.812
  554SOL    HW1 3103   1.625   1.167   4.878
  554SOL    HW2 3104   1.578   1.121   4.741
  555SOL     OW 3105   0.937   0.127   5.130
  555SOL    HW1 3106   0.948   0.117   5.035
  555SOL    HW2 3107   1.027   0.125   5.165
  556SOL     OW 3108   0.968   1.128   5.423
  556SOL    HW1 3109   0.883   1.110   5.463
  556SOL    HW2 3110   0.983   1.054   5.364
  557SOL     OW 3111   0.719   1.061   4.096
  557SOL    HW1 3112   0.704   1.037   4.188
  557SOL    HW2 3113   0.786   1.001   4.065
  558SOL     OW 3114   0.424   0.825   4.973
  558SOL    HW1 3115   0.487   0.842   5.044
  558SOL    HW2 3116   0.395   0.735   4.988
  559SOL     OW 3117   1.274   0.379   4.993
  559SOL    HW1 3118   1.301   0.458   5.040
  559SOL    HW2 3119   1.184   0.397   4.965
  560SOL     OW 3120   0.050   1.644   5.081
  560SOL    HW1 3121  -0.045   1.639   5.077
  560SOL    HW2 3122   0.075   1.586   5.153
  561SOL     OW 3123   0.370   1.131   4.172
  561SOL    HW1 3124   0.322   1.185   4.110
  561SOL    HW2 3125   0.364   1.042   4.136
  562SOL     OW 3126   0.561   0.516   4.572
  562SOL    HW1 3127   0.571   0.579   4.500
  562SOL    HW2 3128   0.618   0.549   4.641
  563SOL     OW 3129   1.245   1.352   4.102
  563SOL    HW1 3130   1.302   1.422   4.135
  563SOL    HW2 3131   1.160   1.371   4.140
  564SOL     OW 3132   1.288   1.461   4.871
  564SOL    HW1 3133   1.337   1.464   4.953
  564SOL    HW2 3134   1.240   1.379   4.874
  565SOL     OW 3135   1.570   0.633   4.204
  565SOL    HW1 3136   1.520   0.666   4.279
  565SOL    HW2 3137   1.616   0.710   4.171
  566SOL     OW 3138   0.358   1.523   5.027
  566SOL    HW1 3139   0.348   1.428   5.019
  566SOL    HW2 3140   0.452   1.537   5.036
  567SOL     OW 3141   0.424   0.762   5.329
  567SOL    HW1 3142   0.492   0.798   5.272
  567SOL    HW2 3143   0.454   0.673   5.350
  568SOL     OW 3144   1.615   0.783   5.414
  568SOL    HW1 3145   1.528   0.822   5.411
  568SOL    HW2 3146   1.664   0.829   5.345
  569SOL     OW 3147   1.046   0.070   5.464
  569SOL    HW1 3148   1.060   0.164   5.451
  569SOL    HW2 3149   0.952   0.058   5.456
  570SOL     OW 3150   0.507   0.041   5.444
  570SOL    HW1 3151   0.477  -0.023   5.380
  570SOL    HW2 3152   0.434   0.102   5.454
  571SOL     OW 3153   0.587   0.875   4.758
  571SOL    HW1 3154   0.630   0.960   4.766
  571SOL    HW2 3155   0.534   0.867   4.837
  572SOL     OW 3156   1.363   0.852   4.765
  572SOL    HW1 3157   1.305   0.878   4.693
  572SOL    HW2 3158   1.393   0.764   4.742
  573SOL     OW 3159   1.174   0.540   3.972
  573SOL    HW1 3160   1.181   0.447   3.992
  573SOL    HW2 3161   1.178   0.583   4.058
  574SOL     OW 3162   0.290   0.208   4.974
  574SOL    HW1 3163   0.262   0.247   5.057
  574SOL    HW2 3164   0.244   0.124   4.971
  575SOL     OW 3165   0.082   1.324   5.007
  575SOL    HW1 3166   0.107   1.243   5.052
  575SOL    HW2 3167   0.049   1.381   5.075
  576SOL     OW 3168   0.711   0.624   4.767
  576SOL    HW1 3169   0.797   0.621   4.725
  576SOL    HW2 3170   0.685   0.716   4.762
  577SOL     OW 3171   1.736   0.972   5.582
  577SOL    HW1 3172   1.700   0.899   5.533
  577SOL    HW2 3173   1.676   0.983   5.656
  578SOL     OW 3174   0.379   0.055   4.428
  578SOL    HW1 3175   0.344   0.144   4.430
  578SOL    HW2 3176   0.305  -0.000   4.456
  579SOL     OW 3177   1.629   0.402   4.072
  579SOL    HW1 3178   1.637   0.330   4.135
  579SOL    HW2 3179   1.598   0.476   4.124
  580SOL     OW 3180   1.018   0.761   4.684
  580SOL    HW1 3181   1.013   0.777   4.779
  580SOL    HW2 3182   0.997   0.668   4.675
  581SOL     OW 3183   0.999   1.574   5.456
  581SOL    HW1 3184   0.951   1.612   5.383
  581SOL    HW2 3185   1.033   1.491   5.423
  582SOL     OW 3186   1.845   1.498   5.323
  582SOL    HW1 3187   1.868   1.536   5.238
  582SOL    HW2 3188   1.924   1.507   5.376
  583SOL     OW 3189   0.364   0.950   5.517
  583SOL    HW1 3190   0.436   0.947   5.579
  583SOL    HW2 3191   0.385   0.883   5.452
  584SOL     OW 3192   1.555   0.265   3.842
  584SOL    HW1 3193   1.542   0.178   3.880
  584SOL    HW2 3194   1.582   0.319   3.916
  585SOL     OW 3195   1.263   0.816   3.742
  585SOL    HW1 3196   1.315   0.736   3.757
  585SOL    HW2 3197   1.300   0.852   3.661
  586SOL     OW 3198   1.068   1.330   4.578
  586SOL    HW1 3199   1.078   1.257   4.518
  586SOL    HW2 3200   1.135   1.393   4.551
  587SOL     OW 3201   0.322   0.804   4.666
  587SOL    HW1 3202   0.414   0.827   4.678
  587SOL    HW2 3203   0.314   0.716   4.702
  588SOL     OW 3204   0.345   0.523   4.737
  588SOL    HW1 3205   0.304   0.437   4.722
  588SOL    HW2 3206   0.417   0.527   4.674
  589SOL     OW 3207   1.167   0.361   5.434
  589SOL    HW1 3208   1.104   0.417   5.481
  589SOL    HW2 3209   1.241   0.420   5.415
  590SOL     OW 3210   1.192   0.214   5.200
  590SOL    HW1 3211   1.174   0.269   5.277
  590SOL    HW2 3212   1.212   0.276   5.130
  591SOL     OW 3213   8.000   1.313   3.932
  591SOL    HW1 3214   7.909   1.326   3.957
  591SOL    HW2 3215   8.018   1.221   3.953
  592SOL     OW 3216   0.134   1.758   4.720
  592SOL    HW1 3217   0.082   1.720   4.650
  592SOL    HW2 3218   0.211   1.795   4.676
  593SOL     OW 3219   0.527   1.541   4.638
  593SOL    HW1 3220   0.581   1.619   4.643
  593SOL    HW2 3221   0.572   1.477   4.694
  594SOL     OW 3222   0.961   0.779   4.956
  594SOL    HW1 3223   1.028   0.759   5.021
  594SOL    HW2 3224   0.879   0.746   4.994
  595SOL     OW 3225   0.078   0.566   4.837
  595SOL    HW1 3226   0.171   0.545   4.827
  595SOL    HW2 3227   0.063   0.562   4.932
  596SOL     OW 3228   0.213   0.546   5.420
  596SOL    HW1 3229   0.267   0.483   5.371
  596SOL    HW2 3230   0.150   0.491   5.467
  597SOL     OW 3231   1.384   0.926   5.382
  597SOL    HW1 3232   1.398   1.021   5.376
  597SOL    HW2 3233   1.374   0.897   5.291
  598SOL     OW 3234   0.820   0.582   4.018
  598SOL    HW1 3235   0.798   0.489   4.009
  598SOL    HW2 3236   0.735   0.626   4.019
  599SOL     OW 3237   1.641   0.598   4.893
  599SOL    HW1 3238   1.630   0.551   4.976
  599SOL    HW2 3239   1.729   0.576   4.864
  600SOL     OW 3240   0.289   1.538   5.436
  600SOL    HW1 3241   0.259   1.609   5.492
  600SOL    HW2 3242   0.283   1.459   5.491
  601SOL     OW 3243   0.723   0.446   4.973
  601SOL    HW1 3244   0.657   0.378   4.961
  601SOL    HW2 3245   0.708   0.508   4.901
  602SOL     OW 3246   0.964   1.671   5.172
  602SOL    HW1 3247   0.927   1.630   5.094
  602SOL    HW2 3248   0.930   1.761   5.170
  603SOL     OW 3249   0.547   0.513   3.828
  603SOL    HW1 3250   0.556   0.593   3.880
  603SOL    HW2 3251   0.471   0.468   3.865
  604SOL     OW 3252   0.163   1.126   5.181
  604SOL    HW1 3253   0.140   1.086   5.265
  604SOL    HW2 3254   0.166   1.052   5.120
  605SOL     OW 3255   1.325   1.047   4.949
  605SOL    HW1 3256   1.348   0.981   4.884
  605SOL    HW2 3257   1.263   1.104   4.905
  606SOL     OW 3258   1.339   0.838   4.021
  606SOL    HW1 3259   1.299   0.886   4.094
  606SOL    HW2 3260   1.283   0.856   3.946
  607SOL     OW 3261   1.230   1.732   4.825
  607SOL    HW1 3262   1.311   1.760   4.783
  607SOL    HW2 3263   1.244   1.640   4.848
  608SOL     OW 3264   0.084   1.252   4.740
  608SOL    HW1 3265   0.069   1.273   4.833
  608SOL    HW2 3266   0.000   1.217   4.710
  609SOL     OW 3267   1.685   0.164   4.222
  609SOL    HW1 3268   1.771   0.141   4.188
  609SOL    HW2 3269   1.676   0.111   4.302
  610SOL     OW 3270   1.385   1.573   4.189
  610SOL    HW1 3271   1.447   1.620   4.134
  610SOL    HW2 3272   1.344   1.640   4.243
  611SOL     OW 3273   0.174   1.742   5.575
  611SOL    HW1 3274   0.100   1.686   5.599
  611SOL    HW2 3275   0.199   1.786   5.656
  612SOL     OW 3276   1.267   0.920   4.372
  612SOL    HW1 3277   1.346   0.874   4.400
  612SOL    HW2 3278   1.300   0.992   4.317
  613SOL     OW 3279   0.808   1.284   5.167
  613SOL    HW1 3280   0.785   1.332   5.246
  613SOL    HW2 3281   0.725   1.270   5.122
  614SOL     OW 3282   0.670   1.624   3.878
  614SOL    HW1 3283   0.683   1.641   3.785
  614SOL    HW2 3284   0.612   1.548   3.880
  615SOL     OW 3285   1.613   1.731   5.137
  615SOL    HW1 3286   1.699   1.733   5.095
  615SOL    HW2 3287   1.589   1.823   5.148
  616SOL     OW 3288   1.852   0.146   4.658
  616SOL    HW1 3289   1.829   0.064   4.700
  616SOL    HW2 3290   1.768   0.184   4.632
  617SOL     OW 3291   0.241   0.298   4.428
  617SOL    HW1 3292   0.159   0.342   4.402
  617SOL    HW2 3293   0.240   0.301   4.524
  618SOL     OW 3294   1.202   1.597   3.761
  618SOL    HW1 3295   1.192   1.506   3.789
  618SOL    HW2 3296   1.135   1.609   3.694
  619SOL     OW 3297   0.800   1.026   5.051
  619SOL    HW1 3298   0.877   0.970   5.043
  619SOL    HW2 3299   0.828   1.098   5.109
  620SOL     OW 3300   0.927   0.904   4.006
  620SOL    HW1 3301   0.988   0.959   3.956
  620SOL    HW2 3302   0.976   0.879   4.085
  621SOL     OW 3303   1.476   1.616   3.758
  621SOL    HW1 3304   1.381   1.611   3.762
  621SOL    HW2 3305   1.497   1.603   3.665
  622SOL     OW 3306   0.379   1.291   5.193
  622SOL    HW1 3307   0.335   1.374   5.213
  622SOL    HW2 3308   0.308   1.226   5.192
  623SOL     OW 3309   1.624   1.303   5.014
  623SOL    HW1 3310   1.657   1.268   5.096
  623SOL    HW2 3311   1.551   1.359   5.040
  624SOL     OW 3312   1.060   1.107   4.423
  624SOL    HW1 3313   0.993   1.056   4.468
  624SOL    HW2 3314   1.132   1.045   4.409
  625SOL     OW 3315   1.041   0.254   4.655
  625SOL    HW1 3316   1.031   0.190   4.585
  625SOL    HW2 3317   1.037   0.202   4.736
  626SOL     OW 3318   0.602   1.478   4.209
  626SOL    HW1 3319   0.658   1.442   4.140
  626SOL    HW2 3320   0.550   1.545   4.165
  627SOL     OW 3321   1.735   0.407   5.116
  627SOL    HW1 3322   1.801   0.477   5.115
  627SOL    HW2 3323   1.768   0.342   5.053
  628SOL     OW 3324   0.264   1.343   4.026
  628SOL    HW1 3325   0.172   1.338   4.001
  628SOL    HW2 3326   0.265   1.395   4.106
  629SOL     OW 3327   0.112   1.005   5.424
  629SOL    HW1 3328   0.042   1.002   5.489
  629SOL    HW2 3329   0.193   0.996   5.475
  630SOL     OW 3330   0.679   0.215   5.214
  630SOL    HW1 3331   0.756   0.164   5.190
  630SOL    HW2 3332   0.687   0.229   5.309
  631SOL     OW 3333   0.060   0.320   3.715
  631SOL    HW1 3334   0.005   0.356   3.784
  631SOL    HW2 3335   0.096   0.397   3.670
  632SOL     OW 3336   1.421   0.851   5.119
  632SOL    HW1 3337   1.370   0.914   5.068
  632SOL    HW2 3338   1.509   0.856   5.082
  633SOL     OW 3339   0.034   0.205   4.025
  633SOL    HW1 3340   0.102   0.269   4.006
  633SOL    HW2 3341   0.069   0.155   4.099
  634SOL     OW 3342   1.173   1.334   3.837
  634SOL    HW1 3343   1.081   1.310   3.838
  634SOL    HW2 3344   1.200   1.333   3.929
  635SOL     OW 3345   0.618   0.853   5.156
  635SOL    HW1 3346   0.674   0.925   5.128
  635SOL    HW2 3347   0.676   0.777   5.162
  636SOL     OW 3348   1.466   1.801   4.698
  636SOL    HW1 3349   1.494   1.865   4.633
  636SOL    HW2 3350   1.542   1.744   4.710
  637SOL     OW 3351   0.741   0.567   5.413
  637SOL    HW1 3352   0.776   0.637   5.467
  637SOL    HW2 3353   0.749   0.488   5.467
  638SOL     OW 3354   1.470   1.192   5.352
  638SOL    HW1 3355   1.457   1.204   5.446
  638SOL    HW2 3356   1.563   1.210   5.338
  639SOL     OW 3357   0.377   1.753   5.268
  639SOL    HW1 3358   0.285   1.781   5.265
  639SOL    HW2 3359   0.374   1.670   5.317
  640SOL     OW 3360   1.662   0.876   4.978
  640SOL    HW1 3361   1.653   0.795   4.929
  640SOL    HW2 3362   1.653   0.945   4.913
  641SOL     OW 3363   1.220   0.322   4.175
  641SOL    HW1 3364   1.286   0.254   4.164
  641SOL    HW2 3365   1.249   0.372   4.252
  642SOL     OW 3366   0.608   0.720   4.391
  642SOL    HW1 3367   0.643   0.809   4.384
  642SOL    HW2 3368   0.537   0.717   4.328
  643SOL     OW 3369   1.772   0.372   5.386
  643SOL    HW1 3370   1.761   0.385   5.291
  643SOL    HW2 3371   1.706   0.306   5.408
  644SOL     OW 3372   1.739   0.943   5.233
  644SOL    HW1 3373   1.722   1.037   5.239
  644SOL    HW2 3374   1.722   0.922   5.141
  645SOL     OW 3375   0.877   1.368   3.781
  645SOL    HW1 3376   0.826   1.389   3.859
  645SOL    HW2 3377   0.875   1.447   3.727
  646SOL     OW 3378   0.666   1.778   4.646
  646SOL    HW1 3379   0.645   1.871   4.639
  646SOL    HW2 3380   0.761   1.775   4.650
  647SOL     OW 3381   0.874   0.970   4.570
  647SOL    HW1 3382   0.921   0.899   4.614
  647SOL    HW2 3383   0.833   1.019   4.642
  648SOL     OW 3384   1.099   1.012   3.826
  648SOL    HW1 3385   1.059   1.056   3.752
  648SOL    HW2 3386   1.157   0.947   3.788
  649SOL     OW 3387   1.855   1.531   4.569
  649SOL    HW1 3388   1.770   1.523   4.525
  649SOL    HW2 3389   1.870   1.445   4.608
  650SOL     OW 3390   0.216   1.304   5.569
  650SOL    HW1 3391   0.129   1.281   5.537
  650SOL    HW2 3392   0.210   1.291   5.664
  651SOL     OW 3393   0.136   1.253   4.364
  651SOL    HW1 3394   0.055   1.237   4.412
  651SOL    HW2 3395   0.158   1.169   4.324
  652SOL     OW 3396   0.685   1.438   5.357
  652SOL    HW1 3397   0.610   1.398   5.402
  652SOL    HW2 3398   0.687   1.527   5.391
  653SOL     OW 3399   1.821   0.222   4.942
  653SOL    HW1 3400   1.753   0.156   4.939
  653SOL    HW2 3401   1.834   0.248   4.850
  654SOL     OW 3402   0.435   0.415   4.257
  654SOL    HW1 3403   0.387   0.403   4.175
  654SOL    HW2 3404   0.374   0.388   4.325
  655SOL     OW 3405   1.700   1.523   4.847
  655SOL    HW1 3406   1.631   1.510   4.782
  655SOL    HW2 3407   1.694   1.448   4.906
  656SOL     OW 3408   0.353   0.566   5.011
  656SOL    HW1 3409   0.401   0.506   5.068
  656SOL    HW2 3410   0.369   0.533   4.923
  657SOL     OW 3411   0.804   1.578   4.397
  657SOL    HW1 3412   0.818   1.664   4.357
  657SOL    HW2 3413   0.728   1.542   4.350
  658SOL     OW 3414   1.434   0.220   4.840
  658SOL    HW1 3415   1.489   0.164   4.895
  658SOL    HW2 3416   1.379   0.269   4.901
  659SOL     OW 3417   0.997   0.069   4.855
  659SOL    HW1 3418   0.907   0.064   4.825
  659SOL    HW2 3419   1.017  -0.019   4.888
  660SOL     OW 3420   0.773   1.333   4.052
  660SOL    HW1 3421   0.753   1.240   4.056
  660SOL    HW2 3422   0.858   1.341   4.095
  661SOL     OW 3423   0.627   1.554   5.002
  661SOL    HW1 3424   0.626   1.636   5.052
  661SOL    HW2 3425   0.719   1.543   4.977
  662SOL     OW 3426   1.379   8.020   3.857
  662SOL    HW1 3427   1.411   7.930   3.870
  662SOL    HW2 3428   1.288   8.017   3.886
  663SOL     OW 3429   1.300   0.465   4.396
  663SOL    HW1 3430   1.247   0.544   4.402
  663SOL    HW2 3431   1.299   0.428   4.485
  664SOL     OW 3432   1.605   0.229   4.602
  664SOL    HW1 3433   1.532   0.234   4.664
  664SOL    HW2 3434   1.595   0.307   4.547
  665SOL     OW 3435   0.076   1.072   4.015
  665SOL    HW1 3436   0.147   1.008   4.005
  665SOL    HW2 3437   0.010   1.026   4.066
  666SOL     OW 3438   0.877   1.656   4.071
  666SOL    HW1 3439   0.806   1.643   4.009
  666SOL    HW2 3440   0.848   1.728   4.127
  667SOL     OW 3441   0.246   0.634   5.685
  667SOL    HW1 3442   0.163   0.669   5.719
  667SOL    HW2 3443   0.230   0.624   5.591
  668SOL     OW 3444   0.221   0.260   6.593
  668SOL    HW1 3445   0.223   0.261   6.688
  668SOL    HW2 3446   0.254   0.173   6.569
  669SOL     OW 3447   7.998   0.350   6.190
  669SOL    HW1 3448   7.913   0.395   6.186
  669SOL    HW2 3449   8.022   0.337   6.098
  670SOL     OW 3450   0.581   1.301   6.779
  670SOL    HW1 3451   0.496   1.293   6.735
  670SOL    HW2 3452   0.586   1.392   6.806
  671SOL     OW 3453   1.571   1.520   6.284
  671SOL    HW1 3454   1.540   1.454   6.346
  671SOL    HW2 3455   1.524   1.500   6.203
  672SOL     OW 3456   1.138   0.704   6.279
  672SOL    HW1 3457   1.185   0.786   6.268
  672SOL    HW2 3458   1.089   0.714   6.361
  673SOL     OW 3459   1.714   0.621   5.826
  673SOL    HW1 3460   1.719   0.617   5.730
  673SOL    HW2 3461   1.757   0.541   5.856
  674SOL     OW 3462   0.794   1.160   6.663
  674SOL    HW1 3463   0.712   1.179   6.709
  674SOL    HW2 3464   0.808   1.236   6.607
  675SOL     OW 3465   0.864   0.734   7.376
  675SOL    HW1 3466   0.833   0.792   7.445
  675SOL    HW2 3467   0.888   0.793   7.304
  676SOL     OW 3468   0.695   1.006   6.231
  676SOL    HW1 3469   0.753   0.994   6.306
  676SOL    HW2 3470   0.621   1.056   6.266
  677SOL     OW 3471   0.717   1.151   7.406
  677SOL    HW1 3472   0.764   1.227   7.439
  677SOL    HW2 3473   0.639   1.187   7.364
  678SOL     OW 3474   0.340   1.413   6.658
  678SOL    HW1 3475   0.246   1.409   6.639
  678SOL    HW2 3476   0.377   1.462   6.585
  679SOL     OW 3477   1.457   1.495   6.945
  679SOL    HW1 3478   1.513   1.572   6.954
  679SOL    HW2 3479   1.389   1.507   7.012
  680SOL     OW 3480   0.484   0.387   7.122
  680SOL    HW1 3481   0.556   0.324   7.114
  680SOL    HW2 3482   0.416   0.352   7.064
  681SOL     OW 3483   1.581   0.471   6.326
  681SOL    HW1 3484   1.500   0.481   6.278
  681SOL    HW2 3485   1.643   0.529   6.282
  682SOL     OW 3486   0.216   1.704   6.046
  682SOL    HW1 3487   0.237   1.780   6.100
  682SOL    HW2 3488   0.287   1.699   5.982
  683SOL     OW 3489   1.137   1.342   7.285
  683SOL    HW1 3490   1.172   1.336   7.375
  683SOL    HW2 3491   1.085   1.263   7.275
  684SOL     OW 3492   0.308   1.448   6.115
  684SOL    HW1 3493   0.264   1.533   6.122
  684SOL    HW2 3494   0.252   1.388   6.164
  685SOL     OW 3495   0.286   1.099   6.501
  685SOL    HW1 3496   0.275   1.005   6.518
  685SOL    HW2 3497   0.202   1.137   6.527
  686SOL     OW 3498   0.609   1.805   7.000
  686SOL    HW1 3499   0.532   1.776   7.049
  686SOL    HW2 3500   0.628   1.893   7.035
  687SOL     OW 3501   0.572   0.981   5.727
  687SOL    HW1 3502   0.631   1.009   5.657
  687SOL    HW2 3503   0.612   1.014   5.807
  688SOL     OW 3504   1.574   0.158   7.030
  688SOL    HW1 3505   1.648   0.193   6.980
  688SOL    HW2 3506   1.580   0.200   7.115
  689SOL     OW 3507   0.093   0.639   6.181
  689SOL    HW1 3508   0.109   0.565   6.121
  689SOL    HW2 3509   0.164   0.701   6.162
  690SOL     OW 3510   1.840   1.760   5.919
  690SOL    HW1 3511   1.915   1.736   5.973
  690SOL    HW2 3512   1.863   1.846   5.882
  691SOL     OW 3513   8.007   1.585   5.720
  691SOL    HW1 3514   8.006   1.489   5.712
  691SOL    HW2 3515   7.983   1.601   5.811
  692SOL     OW 3516   1.691   0.910   6.230
  692SOL    HW1 3517   1.768   0.856   6.212
  692SOL    HW2 3518   1.671   0.952   6.147
  693SOL     OW 3519   1.652   1.101   6.017
  693SOL    HW1 3520   1.738   1.098   5.976
  693SOL    HW2 3521   1.663   1.162   6.091
  694SOL     OW 3522   0.141   0.768   7.167
  694SOL    HW1 3523   0.236   0.776   7.158
  694SOL    HW2 3524   0.113   0.851   7.206
  695SOL     OW 3525   0.622   1.394   6.325
  695SOL    HW1 3526   0.578   1.309   6.335
  695SOL    HW2 3527   0.602   1.421   6.236
  696SOL     OW 3528   1.276   1.240   7.015
  696SOL    HW1 3529   1.310   1.178   6.951
  696SOL    HW2 3530   1.340   1.239   7.086
  697SOL     OW 3531   0.843   0.035   6.152
  697SOL    HW1 3532   0.878   0.115   6.113
  697SOL    HW2 3533   0.750   0.035   6.129
  698SOL     OW 3534   0.190   0.942   6.880
  698SOL    HW1 3535   0.273   0.903   6.854
  698SOL    HW2 3536   0.134   0.932   6.804
  699SOL     OW 3537   1.537   0.998   5.787
  699SOL    HW1 3538   1.467   0.939   5.815
  699SOL    HW2 3539   1.577   1.028   5.868
  700SOL     OW 3540   1.195   1.816   7.210
  700SOL    HW1 3541   1.195   1.867   7.129
  700SOL    HW2 3542   1.205   1.725   7.181
  701SOL     OW 3543   0.325   0.232   7.381
  701SOL    HW1 3544   0.384   0.305   7.364
  701SOL    HW2 3545   0.254   0.270   7.432
  702SOL     OW 3546   1.376   1.433   6.471
  702SOL    HW1 3547   1.348   1.444   6.562
  702SOL    HW2 3548   1.395   1.340   6.462
  703SOL     OW 3549   1.622   1.777   6.156
  703SOL    HW1 3550   1.617   1.736   6.070
  703SOL    HW2 3551   1.641   1.705   6.216
  704SOL     OW 3552   0.592   0.721   5.875
  704SOL    HW1 3553   0.600   0.797   5.816
  704SOL    HW2 3554   0.526   0.747   5.939
  705SOL     OW 3555   1.294   0.372   6.519
  705SOL    HW1 3556   1.204   0.339   6.527
  705SOL    HW2 3557   1.345   0.318   6.580
  706SOL     OW 3558   1.575   1.676   5.901
  706SOL    HW1 3559   1.669   1.694   5.890
  706SOL    HW2 3560   1.543   1.661   5.812
  707SOL     OW 3561   0.733   0.615   7.064
  707SOL    HW1 3562   0.670   0.557   7.108
  707SOL    HW2 3563   0.758   0.568   6.985
  708SOL     OW 3564   1.403   0.472   7.272
  708SOL    HW1 3565   1.430   0.522   7.349
  708SOL    HW2 3566   1.469   0.402   7.265
  709SOL     OW 3567   0.956   0.881   7.160
  709SOL    HW1 3568   1.000   0.807   7.120
  709SOL    HW2 3569   0.908   0.923   7.089
  710SOL     OW 3570   1.008   0.416   6.805
  710SOL    HW1 3571   0.916   0.424   6.831
  710SOL    HW2 3572   1.004   0.381   6.716
  711SOL     OW 3573   1.061   0.696   6.009
  711SOL    HW1 3574   1.077   0.688   6.103
  711SOL    HW2 3575   0.975   0.655   5.996
  712SOL     OW 3576   0.044   0.867   6.412
  712SOL    HW1 3577   0.128   0.834   6.379
  712SOL    HW2 3578   0.020   0.937   6.352
  713SOL     OW 3579   0.137   1.846   7.152
  713SOL    HW1 3580   0.127   1.817   7.243
  713SOL    HW2 3581   0.076   1.791   7.103
  714SOL     OW 3582   0.886   0.358   5.796
  714SOL    HW1 3583   0.930   0.407   5.727
  714SOL    HW2 3584   0.851   0.280   5.752
  715SOL     OW 3585   1.671   0.532   7.346
  715SOL    HW1 3586   1.648   0.624   7.336
  715SOL    HW2 3587   1.765   0.528   7.329
  716SOL     OW 3588   1.391   1.147   6.128
  716SOL    HW1 3589   1.465   1.122   6.072
  716SOL    HW2 3590   1.332   1.194   6.069
  717SOL     OW 3591   0.558   0.207   6.525
  717SOL    HW1 3592   0.531   0.282   6.577
  717SOL    HW2 3593   0.579   0.244   6.439
  718SOL     OW 3594   1.043   1.485   6.079
  718SOL    HW1 3595   0.992   1.540   6.020
  718SOL    HW2 3596   0.980   1.458   6.146
  719SOL     OW 3597   0.355   1.816   6.449
  719SOL    HW1 3598   0.391   1.728   6.456
  719SOL    HW2 3599   0.427   1.874   6.475
  720SOL     OW 3600   1.814   1.030   6.451
  720SOL    HW1 3601   1.752   1.007   6.382
  720SOL    HW2 3602   1.761   1.074   6.517
  721SOL     OW 3603   1.225   1.540   7.101
  721SOL    HW1 3604   1.216   1.473   7.169
  721SOL    HW2 3605   1.157   1.519   7.037
  722SOL     OW 3606   0.307   0.982   5.830
  722SOL    HW1 3607   0.386   0.979   5.777
  722SOL    HW2 3608   0.316   0.909   5.892
  723SOL     OW 3609   1.468   0.775   6.332
  723SOL    HW1 3610   1.479   0.709   6.400
  723SOL    HW2 3611   1.558   0.803   6.312
  724SOL     OW 3612   0.467   1.265   7.324
  724SOL    HW1 3613   0.443   1.275   7.232
  724SOL    HW2 3614   0.384   1.255   7.370
  725SOL     OW 3615   1.133   1.762   5.835
  725SOL    HW1 3616   1.048   1.733   5.868
  725SOL    HW2 3617   1.151   1.704   5.762
  726SOL     OW 3618   0.124   0.317   7.164
  726SOL    HW1 3619   0.163   0.306   7.077
  726SOL    HW2 3620   0.169   0.252   7.218
  727SOL     OW 3621   1.616   1.386   5.689
  727SOL    HW1 3622   1.576   1.467   5.658
  727SOL    HW2 3623   1.553   1.317   5.666
  728SOL     OW 3624   0.465   1.745   5.903
  728SOL    HW1 3625   0.518   1.768   5.980
  728SOL    HW2 3626   0.522   1.688   5.851
  729SOL     OW 3627   1.402   0.127   6.003
  729SOL    HW1 3628   1.396   0.089   5.916
  729SOL    HW2 3629   1.493   0.156   6.011
  730SOL     OW 3630   0.257   1.785   6.807
  730SOL    HW1 3631   0.299   1.709   6.847
  730SOL    HW2 3632   0.229   1.754   6.721
  731SOL     OW 3633   0.929   1.696   6.479
  731SOL    HW1 3634   0.941   1.625   6.543
  731SOL    HW2 3635   0.896   1.651   6.401
  732SOL     OW 3636   1.562   0.236   7.309
  732SOL    HW1 3637   1.555   0.270   7.398
  732SOL    HW2 3638   1.598   0.149   7.319
  733SOL     OW 3639   0.594   0.139   5.686
  733SOL    HW1 3640   0.666   0.086   5.721
  733SOL    HW2 3641   0.566   0.092   5.608
  734SOL     OW 3642   0.790   0.305   7.390
  734SOL    HW1 3643   0.819   0.225   7.347
  734SOL    HW2 3644   0.716   0.278   7.445
  735SOL     OW 3645   0.885   1.532   6.768
  735SOL    HW1 3646   0.859   1.479   6.692
  735SOL    HW2 3647   0.945   1.476   6.817
  736SOL     OW 3648   1.339   0.594   7.039
  736SOL    HW1 3649   1.362   0.548   7.120
  736SOL    HW2 3650   1.420   0.640   7.014
  737SOL     OW 3651   0.829   1.401   6.527
  737SOL    HW1 3652   0.909   1.382   6.478
  737SOL    HW2 3653   0.759   1.396   6.462
  738SOL     OW 3654   0.927   0.521   6.478
  738SOL    HW1 3655   0.901   0.513   6.386
  738SOL    HW2 3656   0.961   0.435   6.501
  739SOL     OW 3657   0.590   0.041   6.023
  739SOL    HW1 3658   0.517  -0.012   6.055
  739SOL    HW2 3659   0.551   0.126   6.005
  740SOL     OW 3660   1.426   1.192   5.625
  740SOL    HW1 3661   1.464   1.119   5.674
  740SOL    HW2 3662   1.332   1.185   5.640
  741SOL     OW 3663   0.281   0.073   5.804
  741SOL    HW1 3664   0.345   0.127   5.756
  741SOL    HW2 3665   0.335   0.015   5.858
  742SOL     OW 3666   0.950   0.264   6.048
  742SOL    HW1 3667   0.920   0.295   5.963
  742SOL    HW2 3668   1.044   0.281   6.048
  743SOL     OW 3669   1.070   0.663   7.040
  743SOL    HW1 3670   1.027   0.577   7.040
  743SOL    HW2 3671   1.164   0.643   7.040
  744SOL     OW 3672   0.480   1.160   6.323
  744SOL    HW1 3673   0.415   1.143   6.391
  744SOL    HW2 3674   0.434   1.147   6.240
  745SOL     OW 3675   1.267   1.820   6.242
  745SOL    HW1 3676   1.298   1.868   6.165
  745SOL    HW2 3677   1.181   1.857   6.260
  746SOL     OW 3678   1.034   0.517   5.619
  746SOL    HW1 3679   0.994   0.601   5.598
  746SOL    HW2 3680   1.095   0.536   5.690
  747SOL     OW 3681   0.084   0.588   6.973
  747SOL    HW1 3682   0.173   0.563   6.948
  747SOL    HW2 3683   0.096   0.661   7.034
  748SOL     OW 3684   0.565   0.249   6.811
  748SOL    HW1 3685   0.595   0.160   6.829
  748SOL    HW2 3686   0.472   0.249   6.835
  749SOL     OW 3687   0.866   0.473   6.220
  749SOL    HW1 3688   0.828   0.524   6.148
  749SOL    HW2 3689   0.882   0.387   6.182
  750SOL     OW 3690   0.979   0.028   6.386
  750SOL    HW1 3691   0.929   0.046   6.306
  750SOL    HW2 3692   1.000  -0.065   6.382
  751SOL     OW 3693   1.436   1.168   6.428
  751SOL    HW1 3694   1.375   1.094   6.429
  751SOL    HW2 3695   1.474   1.166   6.341
  752SOL     OW 3696   1.445   0.616   6.568
  752SOL    HW1 3697   1.408   0.530   6.548
  752SOL    HW2 3698   1.515   0.598   6.631
  753SOL     OW 3699   1.835   0.818   5.978
  753SOL    HW1 3700   1.897   0.763   6.025
  753SOL    HW2 3701   1.800   0.761   5.909
  754SOL     OW 3702   0.491   1.423   5.728
  754SOL    HW1 3703   0.412   1.395   5.774
  754SOL    HW2 3704   0.494   1.369   5.650
  755SOL     OW 3705   1.689   1.265   6.232
  755SOL    HW1 3706   1.781   1.243   6.246
  755SOL    HW2 3707   1.687   1.361   6.236
  756SOL     OW 3708   1.396   0.583   5.662
  756SOL    HW1 3709   1.336   0.557   5.732
  756SOL    HW2 3710   1.483   0.582   5.703
  757SOL     OW 3711   0.502   0.278   5.897
  757SOL    HW1 3712   0.542   0.228   5.826
  757SOL    HW2 3713   0.485   0.364   5.859
  758SOL     OW 3714   1.750   1.226   7.181
  758SOL    HW1 3715   1.839   1.192   7.186
  758SOL    HW2 3716   1.760   1.321   7.176
  759SOL     OW 3717   1.047   1.371   6.934
  759SOL    HW1 3718   0.968   1.333   6.972
  759SOL    HW2 3719   1.118   1.320   6.972
  760SOL     OW 3720   1.594   1.637   7.245
  760SOL    HW1 3721   1.584   1.673   7.157
  760SOL    HW2 3722   1.669   1.577   7.237
  761SOL     OW 3723   1.139   1.222   6.699
  761SOL    HW1 3724   1.065   1.235   6.758
  761SOL    HW2 3725   1.099   1.212   6.613
  762SOL     OW 3726   1.608   1.096   6.646
  762SOL    HW1 3727   1.616   1.174   6.701
  762SOL    HW2 3728   1.547   1.121   6.577
  763SOL     OW 3729   0.914   0.122   6.960
  763SOL    HW1 3730   0.944   0.090   6.875
  763SOL    HW2 3731   0.995   0.147   7.006
  764SOL     OW 3732   0.986   1.111   7.303
  764SOL    HW1 3733   0.896   1.131   7.332
  764SOL    HW2 3734   0.977   1.033   7.249
  765SOL     OW 3735   0.711   1.063   5.957
  765SOL    HW1 3736   0.699   1.038   6.049
  765SOL    HW2 3737   0.788   1.015   5.928
  766SOL     OW 3738   0.428   0.815   6.835
  766SOL    HW1 3739   0.492   0.834   6.904
  766SOL    HW2 3740   0.402   0.724   6.851
  767SOL     OW 3741   1.265   0.370   6.883
  767SOL    HW1 3742   1.297   0.453   6.920
  767SOL    HW2 3743   1.178   0.390   6.850
  768SOL     OW 3744   0.038   1.650   6.959
  768SOL    HW1 3745   0.105   1.666   6.893
  768SOL    HW2 3746   0.068   1.572   7.006
  769SOL     OW 3747   0.336   1.109   6.094
  769SOL    HW1 3748   0.342   1.127   6.001
  769SOL    HW2 3749   0.339   1.013   6.101
  770SOL     OW 3750   0.542   0.535   6.468
  770SOL    HW1 3751   0.552   0.577   6.382
  770SOL    HW2 3752   0.620   0.560   6.516
  771SOL     OW 3753   1.251   1.339   5.979
  771SOL    HW1 3754   1.314   1.406   6.004
  771SOL    HW2 3755   1.167   1.371   6.011
  772SOL     OW 3756   1.292   1.462   6.728
  772SOL    HW1 3757   1.343   1.466   6.808
  772SOL    HW2 3758   1.234   1.387   6.739
  773SOL     OW 3759   1.569   0.626   6.072
  773SOL    HW1 3760   1.506   0.695   6.091
  773SOL    HW2 3761   1.616   0.657   5.994
  774SOL     OW 3762   0.351   1.539   6.897
  774SOL    HW1 3763   0.335   1.488   6.817
  774SOL    HW2 3764   0.446   1.546   6.902
  775SOL     OW 3765   0.415   0.740   7.184
  775SOL    HW1 3766   0.481   0.786   7.133
  775SOL    HW2 3767   0.432   0.647   7.168
  776SOL     OW 3768   1.595   0.791   7.261
  776SOL    HW1 3769   1.506   0.827   7.254
  776SOL    HW2 3770   1.645   0.837   7.193
  777SOL     OW 3771   1.045   0.096   7.353
  777SOL    HW1 3772   1.114   0.155   7.383
  777SOL    HW2 3773   1.031   0.120   7.261
  778SOL     OW 3774   0.485   0.009   7.362
  778SOL    HW1 3775   0.473  -0.048   7.285
  778SOL    HW2 3776   0.419   0.077   7.352
  779SOL     OW 3777   0.613   0.881   6.638
  779SOL    HW1 3778   0.578   0.947   6.577
  779SOL    HW2 3779   0.540   0.862   6.697
  780SOL     OW 3780   1.327   0.854   6.623
  780SOL    HW1 3781   1.250   0.842   6.569
  780SOL    HW2 3782   1.379   0.775   6.609
  781SOL     OW 3783   1.206   0.524   5.848
  781SOL    HW1 3784   1.211   0.448   5.906
  781SOL    HW2 3785   1.161   0.591   5.900
  782SOL     OW 3786  -0.031   1.300   6.900
  782SOL    HW1 3787   0.044   1.256   6.941
  782SOL    HW2 3788   0.005   1.333   6.817
  783SOL     OW 3789   0.740   0.639   6.648
  783SOL    HW1 3790   0.803   0.622   6.579
  783SOL    HW2 3791   0.706   0.726   6.630
  784SOL     OW 3792   1.729   0.958   7.444
  784SOL    HW1 3793   1.689   0.883   7.400
  784SOL    HW2 3794   1.674   0.973   7.521
  785SOL     OW 3795   0.394   0.087   6.259
  785SOL    HW1 3796   0.342   0.167   6.267
  785SOL    HW2 3797   0.330   0.016   6.269
  786SOL     OW 3798   1.618   0.372   5.975
  786SOL    HW1 3799   1.689   0.354   6.036
  786SOL    HW2 3800   1.581   0.454   6.005
  787SOL     OW 3801   1.032   0.764   6.540
  787SOL    HW1 3802   1.025   0.776   6.635
  787SOL    HW2 3803   1.003   0.674   6.525
  788SOL     OW 3804   0.988   1.574   7.310
  788SOL    HW1 3805   0.966   1.613   7.225
  788SOL    HW2 3806   1.022   1.487   7.287
  789SOL     OW 3807   1.821   1.494   7.185
  789SOL    HW1 3808   1.855   1.526   7.102
  789SOL    HW2 3809   1.893   1.507   7.247
  790SOL     OW 3810   0.355   0.924   7.388
  790SOL    HW1 3811   0.435   0.945   7.435
  790SOL    HW2 3812   0.381   0.858   7.324
  791SOL     OW 3813   1.570   0.233   5.750
  791SOL    HW1 3814   1.479   0.248   5.723
  791SOL    HW2 3815   1.584   0.295   5.822
  792SOL     OW 3816   1.303   0.839   5.631
  792SOL    HW1 3817   1.329   0.747   5.629
  792SOL    HW2 3818   1.320   0.871   5.542
  793SOL     OW 3819   1.070   1.340   6.418
  793SOL    HW1 3820   1.053   1.259   6.370
  793SOL    HW2 3821   1.161   1.361   6.398
  794SOL     OW 3822   0.321   0.812   6.514
  794SOL    HW1 3823   0.390   0.800   6.448
  794SOL    HW2 3824   0.314   0.727   6.557
  795SOL     OW 3825   0.309   0.521   6.595
  795SOL    HW1 3826   0.282   0.430   6.584
  795SOL    HW2 3827   0.390   0.529   6.545
  796SOL     OW 3828   1.140   0.434   7.276
  796SOL    HW1 3829   1.131   0.422   7.370
  796SOL    HW2 3830   1.233   0.452   7.262
  797SOL     OW 3831   1.129   0.231   7.087
  797SOL    HW1 3832   1.158   0.292   7.155
  797SOL    HW2 3833   1.190   0.243   7.015
  798SOL     OW 3834   7.988   1.315   5.800
  798SOL    HW1 3835   7.894   1.326   5.817
  798SOL    HW2 3836   8.003   1.221   5.814
  799SOL     OW 3837   0.093   1.768   6.535
  799SOL    HW1 3838   0.080   1.673   6.546
  799SOL    HW2 3839   0.177   1.776   6.492
  800SOL     OW 3840   0.489   1.581   6.484
  800SOL    HW1 3841   0.561   1.636   6.514
  800SOL    HW2 3842   0.530   1.515   6.428
  801SOL     OW 3843   0.973   0.784   6.806
  801SOL    HW1 3844   1.017   0.748   6.883
  801SOL    HW2 3845   0.889   0.738   6.803
  802SOL     OW 3846   0.045   0.549   6.708
  802SOL    HW1 3847   0.132   0.525   6.677
  802SOL    HW2 3848   0.054   0.560   6.802
  803SOL     OW 3849   0.171   0.540   7.310
  803SOL    HW1 3850   0.163   0.469   7.246
  803SOL    HW2 3851   0.162   0.620   7.259
  804SOL     OW 3852   1.365   0.944   7.221
  804SOL    HW1 3853   1.406   1.031   7.222
  804SOL    HW2 3854   1.276   0.960   7.192
  805SOL     OW 3855   0.817   0.579   5.962
  805SOL    HW1 3856   0.824   0.505   5.901
  805SOL    HW2 3857   0.741   0.629   5.932
  806SOL     OW 3858   1.640   0.602   6.759
  806SOL    HW1 3859   1.638   0.540   6.832
  806SOL    HW2 3860   1.725   0.586   6.717
  807SOL     OW 3861   0.295   1.543   7.315
  807SOL    HW1 3862   0.249   1.612   7.363
  807SOL    HW2 3863   0.289   1.466   7.371
  808SOL     OW 3864   0.739   0.454   6.845
  808SOL    HW1 3865   0.676   0.383   6.833
  808SOL    HW2 3866   0.724   0.512   6.771
  809SOL     OW 3867   0.915   1.685   7.064
  809SOL    HW1 3868   0.893   1.637   6.984
  809SOL    HW2 3869   0.901   1.777   7.042
  810SOL     OW 3870   0.469   0.505   5.755
  810SOL    HW1 3871   0.526   0.572   5.792
  810SOL    HW2 3872   0.390   0.551   5.729
  811SOL     OW 3873   0.153   1.142   7.053
  811SOL    HW1 3874   0.130   1.094   7.132
  811SOL    HW2 3875   0.169   1.074   6.988
  812SOL     OW 3876   1.328   1.051   6.806
  812SOL    HW1 3877   1.326   0.977   6.746
  812SOL    HW2 3878   1.261   1.110   6.771
  813SOL     OW 3879   1.315   0.855   5.903
  813SOL    HW1 3880   1.234   0.826   5.946
  813SOL    HW2 3881   1.296   0.850   5.810
  814SOL     OW 3882   1.789   1.746   6.754
  814SOL    HW1 3883   1.851   1.765   6.684
  814SOL    HW2 3884   1.746   1.665   6.726
  815SOL     OW 3885   1.238   1.734   6.679
  815SOL    HW1 3886   1.327   1.754   6.647
  815SOL    HW2 3887   1.243   1.642   6.705
  816SOL     OW 3888   0.681   1.670   7.317
  816SOL    HW1 3889   0.624   1.747   7.319
  816SOL    HW2 3890   0.752   1.696   7.258
  817SOL     OW 3891   1.684   0.071   6.051
  817SOL    HW1 3892   1.775   0.094   6.072
  817SOL    HW2 3893   1.644   0.052   6.136
  818SOL     OW 3894   1.386   1.575   6.080
  818SOL    HW1 3895   1.448   1.601   6.012
  818SOL    HW2 3896   1.301   1.609   6.050
  819SOL     OW 3897   0.152   1.750   7.422
  819SOL    HW1 3898   0.096   1.702   7.483
  819SOL    HW2 3899   0.206   1.806   7.477
  820SOL     OW 3900   1.274   0.946   6.272
  820SOL    HW1 3901   1.345   0.884   6.291
  820SOL    HW2 3902   1.312   1.007   6.209
  821SOL     OW 3903   0.791   1.284   6.998
  821SOL    HW1 3904   0.761   1.325   7.079
  821SOL    HW2 3905   0.717   1.291   6.939
  822SOL     OW 3906   0.673   1.620   5.758
  822SOL    HW1 3907   0.684   1.652   5.668
  822SOL    HW2 3908   0.614   1.545   5.750
  823SOL     OW 3909   1.604   1.732   6.976
  823SOL    HW1 3910   1.672   1.733   6.908
  823SOL    HW2 3911   1.591   1.825   6.997
  824SOL     OW 3912   1.839   0.174   6.563
  824SOL    HW1 3913   1.851   0.079   6.565
  824SOL    HW2 3914   1.764   0.188   6.505
  825SOL     OW 3915   0.248   0.318   6.306
  825SOL    HW1 3916   0.162   0.331   6.265
  825SOL    HW2 3917   0.229   0.313   6.400
  826SOL     OW 3918   1.207   1.597   5.631
  826SOL    HW1 3919   1.197   1.506   5.658
  826SOL    HW2 3920   1.142   1.610   5.563
  827SOL     OW 3921   0.825   1.014   6.961
  827SOL    HW1 3922   0.845   1.003   6.868
  827SOL    HW2 3923   0.817   1.108   6.973
  828SOL     OW 3924   0.925   0.918   5.874
  828SOL    HW1 3925   0.921   0.893   5.781
  828SOL    HW2 3926   0.971   0.845   5.916
  829SOL     OW 3927   1.478   1.653   5.640
  829SOL    HW1 3928   1.388   1.627   5.621
  829SOL    HW2 3929   1.522   1.651   5.554
  830SOL     OW 3930   0.367   1.313   7.079
  830SOL    HW1 3931   0.350   1.390   7.024
  830SOL    HW2 3932   0.293   1.255   7.061
  831SOL     OW 3933   1.587   1.252   6.881
  831SOL    HW1 3934   1.680   1.272   6.898
  831SOL    HW2 3935   1.541   1.330   6.910
  832SOL     OW 3936   1.049   1.104   6.303
  832SOL    HW1 3937   0.975   1.051   6.334
  832SOL    HW2 3938   1.116   1.041   6.277
  833SOL     OW 3939   1.032   0.267   6.546
  833SOL    HW1 3940   1.009   0.215   6.469
  833SOL    HW2 3941   1.036   0.204   6.618
  834SOL     OW 3942   0.601   1.497   6.072
  834SOL    HW1 3943   0.653   1.444   6.011
  834SOL    HW2 3944   0.510   1.475   6.050
  835SOL     OW 3945   1.720   0.429   6.955
  835SOL    HW1 3946   1.797   0.486   6.963
  835SOL    HW2 3947   1.750   0.355   6.903
  836SOL     OW 3948   0.258   1.352   5.860
  836SOL    HW1 3949   0.163   1.344   5.855
  836SOL    HW2 3950   0.276   1.375   5.951
  837SOL     OW 3951   0.101   1.003   7.302
  837SOL    HW1 3952   0.071   1.090   7.330
  837SOL    HW2 3953   0.185   0.991   7.345
  838SOL     OW 3954   0.689   0.198   7.093
  838SOL    HW1 3955   0.748   0.167   7.025
  838SOL    HW2 3956   0.695   0.132   7.162
  839SOL     OW 3957   0.072   0.203   5.953
  839SOL    HW1 3958   0.024   0.257   5.889
  839SOL    HW2 3959   0.145   0.166   5.903
  840SOL     OW 3960   1.170   1.338   5.706
  840SOL    HW1 3961   1.114   1.262   5.688
  840SOL    HW2 3962   1.202   1.323   5.795
  841SOL     OW 3963   0.613   0.852   7.032
  841SOL    HW1 3964   0.675   0.922   7.012
  841SOL    HW2 3965   0.667   0.773   7.041
  842SOL     OW 3966   1.489   1.760   6.525
  842SOL    HW1 3967   1.525   1.847   6.505
  842SOL    HW2 3968   1.559   1.716   6.573
  843SOL     OW 3969   1.476   1.195   7.213
  843SOL    HW1 3970   1.460   1.211   7.307
  843SOL    HW2 3971   1.570   1.209   7.202
  844SOL     OW 3972   0.392   1.741   7.147
  844SOL    HW1 3973   0.304   1.775   7.129
  844SOL    HW2 3974   0.376   1.657   7.190
  845SOL     OW 3975   1.687   0.870   6.796
  845SOL    HW1 3976   1.680   0.776   6.777
  845SOL    HW2 3977   1.696   0.911   6.710
  846SOL     OW 3978   1.218   0.324   6.041
  846SOL    HW1 3979   1.280   0.252   6.034
  846SOL    HW2 3980   1.247   0.373   6.118
  847SOL     OW 3981   0.574   0.747   6.283
  847SOL    HW1 3982   0.633   0.814   6.249
  847SOL    HW2 3983   0.503   0.742   6.219
  848SOL     OW 3984   1.805   0.330   7.192
  848SOL    HW1 3985   1.764   0.371   7.115
  848SOL    HW2 3986   1.733   0.320   7.255
  849SOL     OW 3987   1.691   0.974   7.071
  849SOL    HW1 3988   1.720   1.050   7.121
  849SOL    HW2 3989   1.769   0.944   7.025
  850SOL     OW 3990   0.850   1.386   5.635
  850SOL    HW1 3991   0.799   1.435   5.699
  850SOL    HW2 3992   0.885   1.453   5.576
  851SOL     OW 3993   0.670   1.785   6.536
  851SOL    HW1 3994   0.650   1.874   6.506
  851SOL    HW2 3995   0.760   1.770   6.510
  852SOL     OW 3996   0.860   0.971   6.453
  852SOL    HW1 3997   0.911   0.895   6.481
  852SOL    HW2 3998   0.828   1.010   6.534
  853SOL     OW 3999   1.137   1.061   5.653
  853SOL    HW1 4000   1.056   1.045   5.604
  853SOL    HW2 4001   1.180   0.976   5.656
  854SOL     OW 4002   1.848   1.575   6.413
  854SOL    HW1 4003   1.774   1.537   6.365
  854SOL    HW2 4004   1.880   1.504   6.469
  855SOL     OW 4005   0.221   1.301   7.441
  855SOL    HW1 4006   0.127   1.286   7.426
  855SOL    HW2 4007   0.229   1.305   7.537
  856SOL     OW 4008   0.135   1.261   6.213
  856SOL    HW1 4009   0.065   1.211   6.254
  856SOL    HW2 4010   0.196   1.195   6.179
  857SOL     OW 4011   0.684   1.409   7.217
  857SOL    HW1 4012   0.603   1.369   7.249
  857SOL    HW2 4013   0.682   1.498   7.252
  858SOL     OW 4014   1.820   0.213   6.836
  858SOL    HW1 4015   1.879   0.143   6.864
  858SOL    HW2 4016   1.825   0.213   6.740
  859SOL     OW 4017   0.469   0.420   6.155
  859SOL    HW1 4018   0.454   0.398   6.063
  859SOL    HW2 4019   0.384   0.405   6.197
  860SOL     OW 4020   1.664   1.520   6.670
  860SOL    HW1 4021   1.596   1.455   6.686
  860SOL    HW2 4022   1.744   1.469   6.656
  861SOL     OW 4023   0.341   0.557   6.864
  861SOL    HW1 4024   0.341   0.466   6.891
  861SOL    HW2 4025   0.340   0.555   6.769
  862SOL     OW 4026   0.819   1.581   6.262
  862SOL    HW1 4027   0.794   1.619   6.177
  862SOL    HW2 4028   0.753   1.514   6.278
  863SOL     OW 4029   1.434   0.230   6.704
  863SOL    HW1 4030   1.494   0.165   6.742
  863SOL    HW2 4031   1.388   0.266   6.780
  864SOL     OW 4032   1.018   0.049   6.713
  864SOL    HW1 4033   0.929   0.047   6.679
  864SOL    HW2 4034   1.067  -0.007   6.652
  865SOL     OW 4035   0.769   1.331   5.929
  865SOL    HW1 4036   0.732   1.243   5.935
  865SOL    HW2 4037   0.852   1.319   5.883
  866SOL     OW 4038   0.627   1.562   6.870
  866SOL    HW1 4039   0.626   1.647   6.915
  866SOL    HW2 4040   0.714   1.558   6.830
  867SOL     OW 4041   1.332   7.983   5.763
  867SOL    HW1 4042   1.373   7.898   5.747
  867SOL    HW2 4043   1.251   7.962   5.808
  868SOL     OW 4044   1.294   0.468   6.260
  868SOL    HW1 4045   1.240   0.548   6.265
  868SOL    HW2 4046   1.294   0.435   6.350
  869SOL     OW 4047   1.606   0.216   6.427
  869SOL    HW1 4048   1.536   0.196   6.488
  869SOL    HW2 4049   1.589   0.307   6.400
  870SOL     OW 4050   0.054   1.061   5.866
  870SOL    HW1 4051   0.144   1.037   5.845
  870SOL    HW2 4052   0.037   1.020   5.951
  871SOL     OW 4053   0.888   1.667   5.935
  871SOL    HW1 4054   0.817   1.643   5.877
  871SOL    HW2 4055   0.854   1.740   5.986
  872SOL     OW 4056   0.238   0.636   7.563
  872SOL    HW1 4057   0.157   0.676   7.596
  872SOL    HW2 4058   0.220   0.617   7.471
  873SOL     OW 4059   0.195   0.272   8.464
  873SOL    HW1 4060   0.232   0.258   8.551
  873SOL    HW2 4061   0.251   0.222   8.405
  874SOL     OW 4062   7.999   0.377   8.071
  874SOL    HW1 4063   7.906   0.378   8.094
  874SOL    HW2 4064   8.011   0.295   8.023
  875SOL     OW 4065   0.582   1.299   8.649
  875SOL    HW1 4066   0.498   1.288   8.605
  875SOL    HW2 4067   0.589   1.392   8.667
  876SOL     OW 4068   1.574   1.522   8.162
  876SOL    HW1 4069   1.530   1.492   8.241
  876SOL    HW2 4070   1.505   1.523   8.096
  877SOL     OW 4071   1.084   0.758   8.117
  877SOL    HW1 4072   1.151   0.823   8.135
  877SOL    HW2 4073   1.064   0.720   8.202
  878SOL     OW 4074   0.769   1.143   8.510
  878SOL    HW1 4075   0.698   1.170   8.569
  878SOL    HW2 4076   0.793   1.223   8.463
  879SOL     OW 4077   0.860   0.767   9.258
  879SOL    HW1 4078   0.846   0.844   9.312
  879SOL    HW2 4079   0.892   0.801   9.175
  880SOL     OW 4080   0.689   0.997   8.090
  880SOL    HW1 4081   0.754   0.988   8.160
  880SOL    HW2 4082   0.622   1.054   8.128
  881SOL     OW 4083   0.719   1.155   9.270
  881SOL    HW1 4084   0.771   1.233   9.290
  881SOL    HW2 4085   0.643   1.189   9.223
  882SOL     OW 4086   0.330   1.418   8.521
  882SOL    HW1 4087   0.258   1.372   8.479
  882SOL    HW2 4088   0.373   1.466   8.451
  883SOL     OW 4089   1.458   1.499   8.815
  883SOL    HW1 4090   1.511   1.578   8.823
  883SOL    HW2 4091   1.385   1.513   8.876
  884SOL     OW 4092   0.429   0.379   9.001
  884SOL    HW1 4093   0.524   0.386   9.000
  884SOL    HW2 4094   0.407   0.332   8.920
  885SOL     OW 4095   1.647   0.466   8.183
  885SOL    HW1 4096   1.552   0.453   8.172
  885SOL    HW2 4097   1.660   0.559   8.166
  886SOL     OW 4098   0.228   1.689   7.949
  886SOL    HW1 4099   0.202   1.778   7.972
  886SOL    HW2 4100   0.308   1.699   7.898
  887SOL     OW 4101   1.143   1.341   9.139
  887SOL    HW1 4102   1.176   1.331   9.228
  887SOL    HW2 4103   1.093   1.261   9.123
  888SOL     OW 4104   0.251   1.418   7.963
  888SOL    HW1 4105   0.251   1.512   7.980
  888SOL    HW2 4106   0.207   1.380   8.039
  889SOL     OW 4107   0.280   1.096   8.338
  889SOL    HW1 4108   0.284   1.014   8.386
  889SOL    HW2 4109   0.216   1.149   8.386
  890SOL     OW 4110   0.614   1.802   8.879
  890SOL    HW1 4111   0.531   1.782   8.923
  890SOL    HW2 4112   0.638   1.889   8.912
  891SOL     OW 4113   0.576   0.995   7.591
  891SOL    HW1 4114   0.627   1.038   7.522
  891SOL    HW2 4115   0.616   1.024   7.673
  892SOL     OW 4116   1.681   0.113   8.942
  892SOL    HW1 4117   1.613   0.092   8.879
  892SOL    HW2 4118   1.633   0.147   9.018
  893SOL     OW 4119   0.124   0.627   7.997
  893SOL    HW1 4120   0.088   0.549   8.037
  893SOL    HW2 4121   0.115   0.695   8.063
  894SOL     OW 4122   1.849   1.752   7.781
  894SOL    HW1 4123   1.909   1.729   7.852
  894SOL    HW2 4124   1.871   1.843   7.760
  895SOL     OW 4125   0.011   1.590   7.593
  895SOL    HW1 4126  -0.002   1.498   7.568
  895SOL    HW2 4127   0.005   1.590   7.688
  896SOL     OW 4128   1.726   0.946   8.090
  896SOL    HW1 4129   1.765   0.877   8.036
  896SOL    HW2 4130   1.665   0.990   8.032
  897SOL     OW 4131   1.649   1.115   7.867
  897SOL    HW1 4132   1.737   1.100   7.832
  897SOL    HW2 4133   1.662   1.181   7.936
  898SOL     OW 4134   0.148   0.758   9.030
  898SOL    HW1 4135   0.242   0.771   9.015
  898SOL    HW2 4136   0.118   0.842   9.065
  899SOL     OW 4137   0.613   1.394   8.185
  899SOL    HW1 4138   0.571   1.307   8.189
  899SOL    HW2 4139   0.603   1.421   8.094
  900SOL     OW 4140   1.281   1.223   8.875
  900SOL    HW1 4141   1.310   1.160   8.809
  900SOL    HW2 4142   1.350   1.224   8.940
  901SOL     OW 4143   0.825   0.052   8.037
  901SOL    HW1 4144   0.871   0.124   7.993
  901SOL    HW2 4145   0.735   0.057   8.005
  902SOL     OW 4146   0.176   0.946   8.749
  902SOL    HW1 4147   0.259   0.899   8.743
  902SOL    HW2 4148   0.129   0.923   8.669
  903SOL     OW 4149   1.522   1.005   7.648
  903SOL    HW1 4150   1.460   0.940   7.681
  903SOL    HW2 4151   1.567   1.037   7.726
  904SOL     OW 4152   1.200   1.813   9.075
  904SOL    HW1 4153   1.193   1.873   9.001
  904SOL    HW2 4154   1.206   1.726   9.035
  905SOL     OW 4155   0.307   0.225   9.200
  905SOL    HW1 4156   0.358   0.295   9.159
  905SOL    HW2 4157   0.246   0.271   9.258
  906SOL     OW 4158   1.472   1.414   8.393
  906SOL    HW1 4159   1.404   1.433   8.458
  906SOL    HW2 4160   1.454   1.325   8.364
  907SOL     OW 4161   1.648   1.763   8.018
  907SOL    HW1 4162   1.629   1.725   7.933
  907SOL    HW2 4163   1.633   1.692   8.080
  908SOL     OW 4164   0.601   0.724   7.722
  908SOL    HW1 4165   0.608   0.811   7.685
  908SOL    HW2 4166   0.537   0.733   7.793
  909SOL     OW 4167   1.216   0.351   8.457
  909SOL    HW1 4168   1.225   0.392   8.371
  909SOL    HW2 4169   1.288   0.287   8.460
  910SOL     OW 4170   1.576   1.689   7.758
  910SOL    HW1 4171   1.670   1.705   7.746
  910SOL    HW2 4172   1.544   1.668   7.670
  911SOL     OW 4173   0.798   0.590   8.928
  911SOL    HW1 4174   0.750   0.583   9.011
  911SOL    HW2 4175   0.742   0.546   8.864
  912SOL     OW 4176   1.386   0.465   9.111
  912SOL    HW1 4177   1.398   0.518   9.190
  912SOL    HW2 4178   1.459   0.404   9.113
  913SOL     OW 4179   0.960   0.884   9.029
  913SOL    HW1 4180   1.005   0.810   8.987
  913SOL    HW2 4181   0.910   0.925   8.958
  914SOL     OW 4182   0.966   0.436   8.686
  914SOL    HW1 4183   0.905   0.503   8.655
  914SOL    HW2 4184   0.997   0.392   8.606
  915SOL     OW 4185   1.057   0.706   7.856
  915SOL    HW1 4186   1.069   0.721   7.949
  915SOL    HW2 4187   0.976   0.657   7.849
  916SOL     OW 4188   0.097   0.811   8.208
  916SOL    HW1 4189   0.178   0.829   8.257
  916SOL    HW2 4190   0.046   0.891   8.218
  917SOL     OW 4191   0.125   1.849   9.026
  917SOL    HW1 4192   0.133   1.808   9.112
  917SOL    HW2 4193   0.042   1.817   8.992
  918SOL     OW 4194   0.895   0.344   7.667
  918SOL    HW1 4195   0.951   0.394   7.607
  918SOL    HW2 4196   0.865   0.269   7.615
  919SOL     OW 4197   1.695   0.584   9.292
  919SOL    HW1 4198   1.675   0.666   9.247
  919SOL    HW2 4199   1.719   0.523   9.222
  920SOL     OW 4200   1.391   1.148   7.990
  920SOL    HW1 4201   1.465   1.133   7.931
  920SOL    HW2 4202   1.332   1.204   7.940
  921SOL     OW 4203   0.460   0.270   8.380
  921SOL    HW1 4204   0.527   0.262   8.448
  921SOL    HW2 4205   0.509   0.270   8.298
  922SOL     OW 4206   0.996   1.447   7.916
  922SOL    HW1 4207   0.969   1.521   7.860
  922SOL    HW2 4208   0.967   1.472   8.003
  923SOL     OW 4209   0.364   1.823   8.309
  923SOL    HW1 4210   0.406   1.737   8.315
  923SOL    HW2 4211   0.434   1.885   8.326
  924SOL     OW 4212   1.804   1.083   8.313
  924SOL    HW1 4213   1.770   1.040   8.235
  924SOL    HW2 4214   1.734   1.074   8.378
  925SOL     OW 4215   1.226   1.542   8.961
  925SOL    HW1 4216   1.216   1.469   9.023
  925SOL    HW2 4217   1.161   1.525   8.893
  926SOL     OW 4218   0.313   0.953   7.694
  926SOL    HW1 4219   0.395   0.984   7.654
  926SOL    HW2 4220   0.305   0.863   7.664
  927SOL     OW 4221   1.453   0.752   8.190
  927SOL    HW1 4222   1.410   0.666   8.189
  927SOL    HW2 4223   1.522   0.745   8.124
  928SOL     OW 4224   0.462   1.262   9.192
  928SOL    HW1 4225   0.441   1.270   9.099
  928SOL    HW2 4226   0.377   1.252   9.234
  929SOL     OW 4227   1.131   1.778   7.673
  929SOL    HW1 4228   1.052   1.746   7.716
  929SOL    HW2 4229   1.151   1.712   7.607
  930SOL     OW 4230   0.150   0.265   8.944
  930SOL    HW1 4231   0.160   0.357   8.920
  930SOL    HW2 4232   0.194   0.257   9.029
  931SOL     OW 4233   1.628   1.389   7.550
  931SOL    HW1 4234   1.584   1.472   7.531
  931SOL    HW2 4235   1.564   1.322   7.525
  932SOL     OW 4236   0.475   1.704   7.818
  932SOL    HW1 4237   0.517   1.780   7.858
  932SOL    HW2 4238   0.470   1.726   7.724
  933SOL     OW 4239   1.417   0.130   7.864
  933SOL    HW1 4240   1.415   0.094   7.775
  933SOL    HW2 4241   1.471   0.209   7.856
  934SOL     OW 4242   0.245   1.784   8.681
  934SOL    HW1 4243   0.301   1.708   8.698
  934SOL    HW2 4244   0.215   1.771   8.591
  935SOL     OW 4245   0.928   1.694   8.359
  935SOL    HW1 4246   1.023   1.686   8.350
  935SOL    HW2 4247   0.892   1.653   8.281
  936SOL     OW 4248   0.399   0.705   7.914
  936SOL    HW1 4249   0.420   0.613   7.930
  936SOL    HW2 4250   0.306   0.713   7.935
  937SOL     OW 4251   1.539   0.214   9.158
  937SOL    HW1 4252   1.542   0.239   9.251
  937SOL    HW2 4253   1.449   0.186   9.143
  938SOL     OW 4254   0.619   0.155   7.545
  938SOL    HW1 4255   0.674   0.098   7.599
  938SOL    HW2 4256   0.574   0.095   7.485
  939SOL     OW 4257   0.765   0.321   9.262
  939SOL    HW1 4258   0.812   0.286   9.186
  939SOL    HW2 4259   0.703   0.252   9.285
  940SOL     OW 4260   0.872   1.522   8.651
  940SOL    HW1 4261   0.862   1.495   8.560
  940SOL    HW2 4262   0.947   1.472   8.683
  941SOL     OW 4263   1.405   0.633   8.883
  941SOL    HW1 4264   1.384   0.554   8.933
  941SOL    HW2 4265   1.458   0.686   8.942
  942SOL     OW 4266   0.819   1.387   8.394
  942SOL    HW1 4267   0.905   1.381   8.353
  942SOL    HW2 4268   0.758   1.398   8.321
  943SOL     OW 4269   0.938   0.515   8.330
  943SOL    HW1 4270   0.888   0.505   8.249
  943SOL    HW2 4271   0.954   0.425   8.360
  944SOL     OW 4272   0.573   0.078   7.936
  944SOL    HW1 4273   0.513   0.004   7.934
  944SOL    HW2 4274   0.540   0.138   7.869
  945SOL     OW 4275   1.428   1.207   7.486
  945SOL    HW1 4276   1.458   1.132   7.537
  945SOL    HW2 4277   1.343   1.230   7.523
  946SOL     OW 4278   0.300   0.066   7.656
  946SOL    HW1 4279   0.348   0.083   7.575
  946SOL    HW2 4280   0.331  -0.021   7.685
  947SOL     OW 4281   0.955   0.260   7.918
  947SOL    HW1 4282   0.932   0.286   7.829
  947SOL    HW2 4283   1.049   0.276   7.924
  948SOL     OW 4284   1.058   0.664   8.904
  948SOL    HW1 4285   0.970   0.627   8.910
  948SOL    HW2 4286   1.116   0.589   8.910
  949SOL     OW 4287   1.218   1.575   8.237
  949SOL    HW1 4288   1.227   1.643   8.170
  949SOL    HW2 4289   1.278   1.601   8.306
  950SOL     OW 4290   0.478   1.155   8.168
  950SOL    HW1 4291   0.416   1.134   8.237
  950SOL    HW2 4292   0.430   1.136   8.087
  951SOL     OW 4293   1.263   1.795   8.059
  951SOL    HW1 4294   1.309   1.857   8.002
  951SOL    HW2 4295   1.186   1.843   8.090
  952SOL     OW 4296   1.034   0.538   7.511
  952SOL    HW1 4297   1.025   0.633   7.503
  952SOL    HW2 4298   1.103   0.526   7.576
  953SOL     OW 4299   0.121   0.551   8.850
  953SOL    HW1 4300   0.209   0.547   8.814
  953SOL    HW2 4301   0.117   0.635   8.895
  954SOL     OW 4302   0.588   0.205   8.637
  954SOL    HW1 4303   0.622   0.137   8.695
  954SOL    HW2 4304   0.495   0.210   8.657
  955SOL     OW 4305   0.813   0.429   8.084
  955SOL    HW1 4306   0.799   0.503   8.025
  955SOL    HW2 4307   0.871   0.370   8.037
  956SOL     OW 4308   0.996   8.007   8.239
  956SOL    HW1 4309   0.936   8.025   8.167
  956SOL    HW2 4310   1.008   7.912   8.237
  957SOL     OW 4311   1.437   1.158   8.296
  957SOL    HW1 4312   1.366   1.094   8.298
  957SOL    HW2 4313   1.458   1.168   8.203
  958SOL     OW 4314   1.432   0.590   8.472
  958SOL    HW1 4315   1.393   0.551   8.394
  958SOL    HW2 4316   1.513   0.542   8.486
  959SOL     OW 4317   1.859   0.828   7.860
  959SOL    HW1 4318   1.919   0.770   7.905
  959SOL    HW2 4319   1.814   0.772   7.797
  960SOL     OW 4320   0.493   1.426   7.585
  960SOL    HW1 4321   0.418   1.398   7.637
  960SOL    HW2 4322   0.490   1.371   7.507
  961SOL     OW 4323   1.694   1.284   8.071
  961SOL    HW1 4324   1.779   1.279   8.115
  961SOL    HW2 4325   1.656   1.365   8.103
  962SOL     OW 4326   1.418   0.590   7.532
  962SOL    HW1 4327   1.367   0.555   7.605
  962SOL    HW2 4328   1.509   0.587   7.563
  963SOL     OW 4329   0.505   0.279   7.756
  963SOL    HW1 4330   0.549   0.231   7.685
  963SOL    HW2 4331   0.486   0.365   7.719
  964SOL     OW 4332   1.751   1.233   9.049
  964SOL    HW1 4333   1.819   1.185   9.096
  964SOL    HW2 4334   1.784   1.323   9.047
  965SOL     OW 4335   1.058   1.371   8.800
  965SOL    HW1 4336   0.978   1.332   8.835
  965SOL    HW2 4337   1.129   1.314   8.829
  966SOL     OW 4338   1.617   1.632   9.115
  966SOL    HW1 4339   1.599   1.664   9.027
  966SOL    HW2 4340   1.695   1.577   9.105
  967SOL     OW 4341   1.140   1.224   8.550
  967SOL    HW1 4342   1.056   1.223   8.596
  967SOL    HW2 4343   1.118   1.255   8.462
  968SOL     OW 4344   1.614   1.096   8.512
  968SOL    HW1 4345   1.601   1.159   8.583
  968SOL    HW2 4346   1.543   1.114   8.451
  969SOL     OW 4347   0.911   0.120   8.834
  969SOL    HW1 4348   0.940   0.122   8.743
  969SOL    HW2 4349   0.991   0.109   8.886
  970SOL     OW 4350   0.992   1.108   9.174
  970SOL    HW1 4351   0.901   1.131   9.191
  970SOL    HW2 4352   0.987   1.032   9.115
  971SOL     OW 4353   0.709   1.061   7.822
  971SOL    HW1 4354   0.698   1.042   7.915
  971SOL    HW2 4355   0.783   1.008   7.794
  972SOL     OW 4356   0.397   0.801   8.744
  972SOL    HW1 4357   0.488   0.828   8.753
  972SOL    HW2 4358   0.401   0.707   8.724
  973SOL     OW 4359   1.309   0.394   8.716
  973SOL    HW1 4360   1.299   0.478   8.760
  973SOL    HW2 4361   1.241   0.393   8.649
  974SOL     OW 4362   0.052   1.597   8.769
  974SOL    HW1 4363   0.113   1.665   8.739
  974SOL    HW2 4364   0.095   1.560   8.846
  975SOL     OW 4365   0.328   1.106   7.940
  975SOL    HW1 4366   0.335   1.187   7.890
  975SOL    HW2 4367   0.336   1.037   7.874
  976SOL     OW 4368   0.565   0.586   8.343
  976SOL    HW1 4369   0.584   0.631   8.261
  976SOL    HW2 4370   0.633   0.616   8.404
  977SOL     OW 4371   1.245   1.353   7.840
  977SOL    HW1 4372   1.301   1.422   7.876
  977SOL    HW2 4373   1.157   1.373   7.874
  978SOL     OW 4374   1.292   1.461   8.592
  978SOL    HW1 4375   1.342   1.458   8.674
  978SOL    HW2 4376   1.233   1.386   8.597
  979SOL     OW 4377   1.597   0.680   7.966
  979SOL    HW1 4378   1.509   0.674   7.930
  979SOL    HW2 4379   1.655   0.660   7.892
  980SOL     OW 4380   0.351   1.530   8.763
  980SOL    HW1 4381   0.335   1.485   8.680
  980SOL    HW2 4382   0.445   1.544   8.765
  981SOL     OW 4383   0.432   0.739   9.065
  981SOL    HW1 4384   0.482   0.785   8.998
  981SOL    HW2 4385   0.491   0.670   9.095
  982SOL     OW 4386   1.561   0.756   9.077
  982SOL    HW1 4387   1.497   0.821   9.107
  982SOL    HW2 4388   1.632   0.809   9.040
  983SOL     OW 4389   0.971   0.107   9.221
  983SOL    HW1 4390   1.002   0.181   9.274
  983SOL    HW2 4391   1.029   0.108   9.144
  984SOL     OW 4392   0.430  -0.012   9.230
  984SOL    HW1 4393   0.486  -0.032   9.155
  984SOL    HW2 4394   0.397   0.077   9.212
  985SOL     OW 4395   0.540   0.917   8.461
  985SOL    HW1 4396   0.607   0.981   8.437
  985SOL    HW2 4397   0.589   0.849   8.509
  986SOL     OW 4398   1.325   0.846   8.479
  986SOL    HW1 4399   1.235   0.844   8.446
  986SOL    HW2 4400   1.372   0.786   8.422
  987SOL     OW 4401   1.207   0.518   7.718
  987SOL    HW1 4402   1.219   0.443   7.777
  987SOL    HW2 4403   1.165   0.585   7.773
  988SOL     OW 4404   0.316   0.191   8.697
  988SOL    HW1 4405   0.249   0.188   8.765
  988SOL    HW2 4406   0.313   0.104   8.657
  989SOL     OW 4407   0.023   1.305   8.725
  989SOL    HW1 4408   0.056   1.251   8.797
  989SOL    HW2 4409   0.042   1.395   8.752
  990SOL     OW 4410   1.726   0.888   9.338
  990SOL    HW1 4411   1.790   0.939   9.287
  990SOL    HW2 4412   1.660   0.953   9.364
  991SOL     OW 4413   0.279   0.078   8.135
  991SOL    HW1 4414   0.314   0.166   8.148
  991SOL    HW2 4415   0.354   0.020   8.145
  992SOL     OW 4416   1.575   0.357   7.843
  992SOL    HW1 4417   1.644   0.312   7.892
  992SOL    HW2 4418   1.613   0.441   7.818
  993SOL     OW 4419   1.038   0.762   8.405
  993SOL    HW1 4420   1.021   0.777   8.498
  993SOL    HW2 4421   1.001   0.675   8.388
  994SOL     OW 4422   0.992   1.568   9.173
  994SOL    HW1 4423   0.962   1.609   9.092
  994SOL    HW2 4424   1.033   1.486   9.146
  995SOL     OW 4425   1.853   1.499   9.046
  995SOL    HW1 4426   1.873   1.525   8.956
  995SOL    HW2 4427   1.934   1.512   9.094
  996SOL     OW 4428   0.359   0.929   9.258
  996SOL    HW1 4429   0.443   0.955   9.295
  996SOL    HW2 4430   0.381   0.863   9.193
  997SOL     OW 4431   1.541   0.271   7.577
  997SOL    HW1 4432   1.577   0.188   7.606
  997SOL    HW2 4433   1.557   0.331   7.650
  998SOL     OW 4434   1.287   0.821   7.467
  998SOL    HW1 4435   1.334   0.739   7.485
  998SOL    HW2 4436   1.328   0.856   7.389
  999SOL     OW 4437   1.075   1.341   8.309
  999SOL    HW1 4438   1.073   1.271   8.244
  999SOL    HW2 4439   1.126   1.411   8.267
 1000SOL     OW 4440   0.295   0.813   8.404
 1000SOL    HW1 4441   0.382   0.851   8.418
 1000SOL    HW2 4442   0.307   0.719   8.419
 1001SOL     OW 4443   0.336   0.522   8.456
 1001SOL    HW1 4444   0.333   0.427   8.443
 1001SOL    HW2 4445   0.418   0.549   8.416
 1002SOL     OW 4446   1.134   0.406   9.215
 1002SOL    HW1 4447   1.067   0.395   9.148
 1002SOL    HW2 4448   1.215   0.419   9.167
 1003SOL     OW 4449   7.984   1.300   7.643
 1003SOL    HW1 4450   7.895   1.324   7.670
 1003SOL    HW2 4451   7.990   1.206   7.662
 1004SOL     OW 4452   0.128   1.789   8.431
 1004SOL    HW1 4453   0.068   1.736   8.379
 1004SOL    HW2 4454   0.208   1.794   8.378
 1005SOL     OW 4455   0.486   1.575   8.350
 1005SOL    HW1 4456   0.556   1.634   8.379
 1005SOL    HW2 4457   0.529   1.512   8.293
 1006SOL     OW 4458   0.989   0.803   8.670
 1006SOL    HW1 4459   1.017   0.757   8.750
 1006SOL    HW2 4460   0.899   0.773   8.656
 1007SOL     OW 4461   0.059   0.525   8.585
 1007SOL    HW1 4462   0.133   0.479   8.547
 1007SOL    HW2 4463   0.086   0.544   8.675
 1008SOL     OW 4464   0.212   0.516   9.133
 1008SOL    HW1 4465   0.291   0.492   9.085
 1008SOL    HW2 4466   0.182   0.597   9.091
 1009SOL     OW 4467   1.362   0.950   9.111
 1009SOL    HW1 4468   1.407   1.033   9.096
 1009SOL    HW2 4469   1.290   0.948   9.049
 1010SOL     OW 4470   0.822   0.572   7.820
 1010SOL    HW1 4471   0.826   0.493   7.766
 1010SOL    HW2 4472   0.747   0.620   7.786
 1011SOL     OW 4473   1.643   0.601   8.659
 1011SOL    HW1 4474   1.645   0.538   8.731
 1011SOL    HW2 4475   1.725   0.586   8.612
 1012SOL     OW 4476   0.284   1.536   9.170
 1012SOL    HW1 4477   0.246   1.603   9.227
 1012SOL    HW2 4478   0.278   1.455   9.222
 1013SOL     OW 4479   0.616   0.456   8.760
 1013SOL    HW1 4480   0.636   0.375   8.713
 1013SOL    HW2 4481   0.646   0.526   8.701
 1014SOL     OW 4482   0.909   1.659   8.929
 1014SOL    HW1 4483   0.891   1.615   8.846
 1014SOL    HW2 4484   0.917   1.752   8.904
 1015SOL     OW 4485   0.472   0.508   7.616
 1015SOL    HW1 4486   0.530   0.577   7.648
 1015SOL    HW2 4487   0.393   0.555   7.590
 1016SOL     OW 4488   0.146   1.144   8.922
 1016SOL    HW1 4489   0.126   1.094   9.001
 1016SOL    HW2 4490   0.160   1.077   8.854
 1017SOL     OW 4491   1.319   1.050   8.662
 1017SOL    HW1 4492   1.329   0.983   8.595
 1017SOL    HW2 4493   1.255   1.111   8.626
 1018SOL     OW 4494   1.310   0.850   7.752
 1018SOL    HW1 4495   1.236   0.817   7.803
 1018SOL    HW2 4496   1.283   0.837   7.661
 1019SOL     OW 4497   1.780   1.738   8.606
 1019SOL    HW1 4498   1.843   1.759   8.537
 1019SOL    HW2 4499   1.751   1.649   8.586
 1020SOL     OW 4500   1.245   1.733   8.561
 1020SOL    HW1 4501   1.329   1.755   8.521
 1020SOL    HW2 4502   1.249   1.639   8.578
 1021SOL     OW 4503   0.095   1.264   8.464
 1021SOL    HW1 4504   0.065   1.271   8.555
 1021SOL    HW2 4505   0.029   1.208   8.422
 1022SOL     OW 4506   0.687   1.669   9.177
 1022SOL    HW1 4507   0.622   1.740   9.175
 1022SOL    HW2 4508   0.747   1.690   9.105
 1023SOL     OW 4509   1.756   0.165   7.945
 1023SOL    HW1 4510   1.809   0.160   7.865
 1023SOL    HW2 4511   1.686   0.102   7.930
 1024SOL     OW 4512   1.398   1.569   7.945
 1024SOL    HW1 4513   1.448   1.606   7.871
 1024SOL    HW2 4514   1.341   1.641   7.972
 1025SOL     OW 4515   0.173   1.749   9.310
 1025SOL    HW1 4516   0.107   1.699   9.359
 1025SOL    HW2 4517   0.243   1.764   9.373
 1026SOL     OW 4518   1.279   0.953   8.148
 1026SOL    HW1 4519   1.345   0.885   8.162
 1026SOL    HW2 4520   1.318   1.010   8.082
 1027SOL     OW 4521   0.800   1.284   8.863
 1027SOL    HW1 4522   0.768   1.325   8.944
 1027SOL    HW2 4523   0.730   1.300   8.799
 1028SOL     OW 4524   0.692   1.616   7.589
 1028SOL    HW1 4525   0.692   1.633   7.495
 1028SOL    HW2 4526   0.624   1.549   7.601
 1029SOL     OW 4527   1.619   1.725   8.844
 1029SOL    HW1 4528   1.673   1.728   8.765
 1029SOL    HW2 4529   1.604   1.817   8.866
 1030SOL     OW 4530   1.865   0.148   8.402
 1030SOL    HW1 4531   1.892   0.109   8.319
 1030SOL    HW2 4532   1.777   0.181   8.386
 1031SOL     OW 4533   0.266   0.353   8.162
 1031SOL    HW1 4534   0.175   0.377   8.148
 1031SOL    HW2 4535   0.285   0.380   8.252
 1032SOL     OW 4536   1.209   1.595   7.482
 1032SOL    HW1 4537   1.196   1.505   7.513
 1032SOL    HW2 4538   1.139   1.608   7.418
 1033SOL     OW 4539   0.828   1.014   8.831
 1033SOL    HW1 4540   0.849   0.995   8.739
 1033SOL    HW2 4541   0.820   1.109   8.835
 1034SOL     OW 4542   0.908   0.908   7.731
 1034SOL    HW1 4543   0.968   0.940   7.663
 1034SOL    HW2 4544   0.960   0.844   7.780
 1035SOL     OW 4545   1.482   1.641   7.497
 1035SOL    HW1 4546   1.390   1.622   7.483
 1035SOL    HW2 4547   1.520   1.644   7.409
 1036SOL     OW 4548   0.367   1.310   8.946
 1036SOL    HW1 4549   0.358   1.382   8.884
 1036SOL    HW2 4550   0.292   1.253   8.927
 1037SOL     OW 4551   1.598   1.281   8.715
 1037SOL    HW1 4552   1.675   1.275   8.772
 1037SOL    HW2 4553   1.542   1.347   8.758
 1038SOL     OW 4554   1.054   1.115   8.163
 1038SOL    HW1 4555   0.982   1.062   8.197
 1038SOL    HW2 4556   1.125   1.052   8.148
 1039SOL     OW 4557   0.949   0.243   8.390
 1039SOL    HW1 4558   0.981   0.193   8.315
 1039SOL    HW2 4559   0.994   0.203   8.465
 1040SOL     OW 4560   0.614   1.487   7.931
 1040SOL    HW1 4561   0.656   1.440   7.859
 1040SOL    HW2 4562   0.560   1.553   7.888
 1041SOL     OW 4563   1.735   0.415   8.841
 1041SOL    HW1 4564   1.812   0.472   8.836
 1041SOL    HW2 4565   1.758   0.339   8.788
 1042SOL     OW 4566   0.250   1.338   7.710
 1042SOL    HW1 4567   0.155   1.339   7.700
 1042SOL    HW2 4568   0.265   1.373   7.798
 1043SOL     OW 4569   0.102   0.995   9.164
 1043SOL    HW1 4570   0.063   1.077   9.195
 1043SOL    HW2 4571   0.185   0.988   9.211
 1044SOL     OW 4572   0.673   0.193   8.963
 1044SOL    HW1 4573   0.749   0.179   8.906
 1044SOL    HW2 4574   0.678   0.123   9.028
 1045SOL     OW 4575   0.108   0.358   7.501
 1045SOL    HW1 4576   0.027   0.390   7.541
 1045SOL    HW2 4577   0.130   0.424   7.435
 1046SOL     OW 4578   1.174   1.332   7.568
 1046SOL    HW1 4579   1.081   1.310   7.568
 1046SOL    HW2 4580   1.199   1.332   7.661
 1047SOL     OW 4581   0.632   0.836   8.905
 1047SOL    HW1 4582   0.685   0.914   8.887
 1047SOL    HW2 4583   0.677   0.765   8.859
 1048SOL     OW 4584   1.485   1.788   8.444
 1048SOL    HW1 4585   1.503   1.836   8.363
 1048SOL    HW2 4586   1.571   1.754   8.470
 1049SOL     OW 4587   0.673   0.570   9.179
 1049SOL    HW1 4588   0.736   0.636   9.211
 1049SOL    HW2 4589   0.710   0.487   9.208
 1050SOL     OW 4590   1.480   1.194   9.074
 1050SOL    HW1 4591   1.467   1.219   9.166
 1050SOL    HW2 4592   1.573   1.210   9.057
 1051SOL     OW 4593   0.382   1.735   9.008
 1051SOL    HW1 4594   0.298   1.771   8.980
 1051SOL    HW2 4595   0.361   1.647   9.039
 1052SOL     OW 4596   1.625   0.884   8.689
 1052SOL    HW1 4597   1.689   0.821   8.657
 1052SOL    HW2 4598   1.630   0.957   8.627
 1053SOL     OW 4599   1.224   0.324   7.922
 1053SOL    HW1 4600   1.285   0.252   7.910
 1053SOL    HW2 4601   1.254   0.369   8.001
 1054SOL     OW 4602   0.593   0.737   8.117
 1054SOL    HW1 4603   0.634   0.823   8.104
 1054SOL    HW2 4604   0.527   0.731   8.048
 1055SOL     OW 4605   1.753   0.382   9.109
 1055SOL    HW1 4606   1.744   0.399   9.015
 1055SOL    HW2 4607   1.687   0.315   9.128
 1056SOL     OW 4608   1.725   0.932   8.952
 1056SOL    HW1 4609   1.747   1.024   8.967
 1056SOL    HW2 4610   1.696   0.928   8.861
 1057SOL     OW 4611   0.873   1.362   7.501
 1057SOL    HW1 4612   0.832   1.375   7.586
 1057SOL    HW2 4613   0.874   1.449   7.461
 1058SOL     OW 4614   0.664   1.777   8.393
 1058SOL    HW1 4615   0.658   1.868   8.366
 1058SOL    HW2 4616   0.758   1.757   8.389
 1059SOL     OW 4617   0.863   0.972   8.306
 1059SOL    HW1 4618   0.909   0.894   8.335
 1059SOL    HW2 4619   0.838   1.018   8.386
 1060SOL     OW 4620   1.074   0.979   7.531
 1060SOL    HW1 4621   1.054   1.033   7.455
 1060SOL    HW2 4622   1.150   0.928   7.505
 1061SOL     OW 4623   1.846   1.541   8.277
 1061SOL    HW1 4624   1.757   1.535   8.240
 1061SOL    HW2 4625   1.846   1.480   8.351
 1062SOL     OW 4626   0.213   1.301   9.301
 1062SOL    HW1 4627   0.121   1.282   9.282
 1062SOL    HW2 4628   0.219   1.301   9.396
 1063SOL     OW 4629   0.099   1.233   8.107
 1063SOL    HW1 4630   0.041   1.189   8.169
 1063SOL    HW2 4631   0.174   1.174   8.098
 1064SOL     OW 4632   0.689   1.403   9.088
 1064SOL    HW1 4633   0.600   1.373   9.108
 1064SOL    HW2 4634   0.690   1.495   9.115
 1065SOL     OW 4635   1.828   0.217   8.684
 1065SOL    HW1 4636   1.764   0.145   8.688
 1065SOL    HW2 4637   1.852   0.221   8.592
 1066SOL     OW 4638   0.435   0.448   7.965
 1066SOL    HW1 4639   0.465   0.375   7.911
 1066SOL    HW2 4640   0.392   0.407   8.040
 1067SOL     OW 4641   1.698   1.489   8.535
 1067SOL    HW1 4642   1.618   1.465   8.487
 1067SOL    HW2 4643   1.709   1.418   8.599
 1068SOL     OW 4644   0.356   0.524   8.728
 1068SOL    HW1 4645   0.445   0.498   8.752
 1068SOL    HW2 4646   0.356   0.525   8.632
 1069SOL     OW 4647   0.837   1.587   8.119
 1069SOL    HW1 4648   0.826   1.665   8.064
 1069SOL    HW2 4649   0.757   1.536   8.105
 1070SOL     OW 4650   1.429   0.196   8.576
 1070SOL    HW1 4651   1.490   0.155   8.637
 1070SOL    HW2 4652   1.388   0.266   8.626
 1071SOL     OW 4653   1.041   0.076   8.587
 1071SOL    HW1 4654   1.004  -0.012   8.592
 1071SOL    HW2 4655   1.135   0.062   8.578
 1072SOL     OW 4656   0.781   1.327   7.766
 1072SOL    HW1 4657   0.753   1.237   7.783
 1072SOL    HW2 4658   0.857   1.340   7.823
 1073SOL     OW 4659   0.620   1.565   8.739
 1073SOL    HW1 4660   0.624   1.648   8.786
 1073SOL    HW2 4661   0.708   1.553   8.702
 1074SOL     OW 4662   1.352   8.007   7.606
 1074SOL    HW1 4663   1.415   7.935   7.601
 1074SOL    HW2 4664   1.273   7.967   7.644
 1075SOL     OW 4665   1.621   0.238   8.339
 1075SOL    HW1 4666   1.530   0.245   8.369
 1075SOL    HW2 4667   1.631   0.311   8.277
 1076SOL     OW 4668   0.050   1.033   7.731
 1076SOL    HW1 4669   0.141   1.021   7.705
 1076SOL    HW2 4670   0.053   1.044   7.826
 1077SOL     OW 4671   0.899   1.659   7.769
 1077SOL    HW1 4672   0.825   1.642   7.710
 1077SOL    HW2 4673   0.864   1.720   7.834
 1078SOL     OW 4674   0.264   0.636   9.384
 1078SOL    HW1 4675   0.186   0.673   9.425
 1078SOL    HW2 4676   0.237   0.617   9.294
 1079SOL     OW 4677   0.224   0.291  10.310
 1079SOL    HW1 4678   0.250   0.229  10.378
 1079SOL    HW2 4679   0.135   0.265  10.287
 1080SOL     OW 4680   8.005   0.385   9.929
 1080SOL    HW1 4681   7.911   0.383   9.945
 1080SOL    HW2 4682   8.017   0.332   9.850
 1081SOL     OW 4683   0.561   1.294  10.494
 1081SOL    HW1 4684   0.484   1.309  10.439
 1081SOL    HW2 4685   0.587   1.381  10.523
 1082SOL     OW 4686   1.573   1.519  10.017
 1082SOL    HW1 4687   1.523   1.498  10.095
 1082SOL    HW2 4688   1.508   1.527   9.948
 1083SOL     OW 4689   1.144   0.694  10.006
 1083SOL    HW1 4690   1.179   0.781   9.987
 1083SOL    HW2 4691   1.090   0.706  10.084
 1084SOL     OW 4692   1.749   0.608   9.559
 1084SOL    HW1 4693   1.734   0.616   9.465
 1084SOL    HW2 4694   1.726   0.517   9.579
 1085SOL     OW 4695   0.769   1.155  10.365
 1085SOL    HW1 4696   0.699   1.187  10.422
 1085SOL    HW2 4697   0.793   1.231  10.311
 1086SOL     OW 4698   0.887   0.766  11.136
 1086SOL    HW1 4699   0.901   0.834  11.201
 1086SOL    HW2 4700   0.906   0.807  11.052
 1087SOL     OW 4701   0.697   1.002   9.955
 1087SOL    HW1 4702   0.760   1.003  10.027
 1087SOL    HW2 4703   0.622   1.051   9.989
 1088SOL     OW 4704   0.701   1.154  11.135
 1088SOL    HW1 4705   0.742   1.235  11.166
 1088SOL    HW2 4706   0.617   1.182  11.098
 1089SOL     OW 4707   0.333   1.414  10.368
 1089SOL    HW1 4708   0.293   1.362  10.299
 1089SOL    HW2 4709   0.391   1.475  10.322
 1090SOL     OW 4710   1.461   1.510  10.667
 1090SOL    HW1 4711   1.519   1.585  10.679
 1090SOL    HW2 4712   1.397   1.517  10.738
 1091SOL     OW 4713   0.416   0.393  10.830
 1091SOL    HW1 4714   0.505   0.360  10.839
 1091SOL    HW2 4715   0.362   0.315  10.819
 1092SOL     OW 4716   0.201   1.733   9.761
 1092SOL    HW1 4717   0.233   1.798   9.824
 1092SOL    HW2 4718   0.279   1.709   9.711
 1093SOL     OW 4719   1.123   1.346  10.984
 1093SOL    HW1 4720   1.153   1.335  11.074
 1093SOL    HW2 4721   1.067   1.271  10.967
 1094SOL     OW 4722   0.250   1.435   9.826
 1094SOL    HW1 4723   0.315   1.499   9.857
 1094SOL    HW2 4724   0.223   1.389   9.906
 1095SOL     OW 4725   0.278   1.075  10.226
 1095SOL    HW1 4726   0.280   0.980  10.240
 1095SOL    HW2 4727   0.197   1.103  10.269
 1096SOL     OW 4728   0.588   1.788  10.703
 1096SOL    HW1 4729   0.523   1.780  10.772
 1096SOL    HW2 4730   0.649   1.855  10.735
 1097SOL     OW 4731   0.597   0.977   9.442
 1097SOL    HW1 4732   0.641   1.030   9.376
 1097SOL    HW2 4733   0.629   1.011   9.525
 1098SOL     OW 4734   1.668   0.105  10.810
 1098SOL    HW1 4735   1.628   0.158  10.740
 1098SOL    HW2 4736   1.617   0.125  10.888
 1099SOL     OW 4737   0.114   0.635   9.839
 1099SOL    HW1 4738   0.085   0.553   9.878
 1099SOL    HW2 4739   0.100   0.701   9.907
 1100SOL     OW 4740   1.844   1.750   9.648
 1100SOL    HW1 4741   1.918   1.726   9.703
 1100SOL    HW2 4742   1.862   1.841   9.624
 1101SOL     OW 4743   0.015   1.595   9.468
 1101SOL    HW1 4744   0.009   1.501   9.451
 1101SOL    HW2 4745  -0.004   1.604   9.562
 1102SOL     OW 4746   1.692   0.926   9.957
 1102SOL    HW1 4747   1.767   0.874   9.930
 1102SOL    HW2 4748   1.669   0.977   9.879
 1103SOL     OW 4749   1.643   1.101   9.747
 1103SOL    HW1 4750   1.726   1.103   9.699
 1103SOL    HW2 4751   1.653   1.168   9.815
 1104SOL     OW 4752   0.153   0.767  10.887
 1104SOL    HW1 4753   0.248   0.762  10.887
 1104SOL    HW2 4754   0.133   0.852  10.927
 1105SOL     OW 4755   0.624   1.343  10.068
 1105SOL    HW1 4756   0.565   1.269  10.053
 1105SOL    HW2 4757   0.595   1.410  10.006
 1106SOL     OW 4758   1.293   1.235  10.723
 1106SOL    HW1 4759   1.333   1.171  10.665
 1106SOL    HW2 4760   1.347   1.231  10.803
 1107SOL     OW 4761   0.835   0.043   9.887
 1107SOL    HW1 4762   0.871   0.120   9.842
 1107SOL    HW2 4763   0.745   0.038   9.858
 1108SOL     OW 4764   0.197   0.983  10.619
 1108SOL    HW1 4765   0.271   0.924  10.606
 1108SOL    HW2 4766   0.163   0.999  10.531
 1109SOL     OW 4767   1.511   1.022   9.513
 1109SOL    HW1 4768   1.451   0.951   9.537
 1109SOL    HW2 4769   1.560   1.040   9.593
 1110SOL     OW 4770   1.161   1.815  10.930
 1110SOL    HW1 4771   1.178   1.883  10.865
 1110SOL    HW2 4772   1.200   1.735  10.893
 1111SOL     OW 4773   0.299   0.251  11.100
 1111SOL    HW1 4774   0.365   0.306  11.141
 1111SOL    HW2 4775   0.218   0.270  11.147
 1112SOL     OW 4776   1.415   1.432  10.225
 1112SOL    HW1 4777   1.377   1.440  10.313
 1112SOL    HW2 4778   1.424   1.337  10.212
 1113SOL     OW 4779   1.648   1.765   9.889
 1113SOL    HW1 4780   1.636   1.731   9.800
 1113SOL    HW2 4781   1.639   1.688   9.945
 1114SOL     OW 4782   0.582   0.718   9.572
 1114SOL    HW1 4783   0.602   0.794   9.518
 1114SOL    HW2 4784   0.534   0.753   9.647
 1115SOL     OW 4785   1.282   0.360  10.246
 1115SOL    HW1 4786   1.192   0.329  10.253
 1115SOL    HW2 4787   1.331   0.307  10.309
 1116SOL     OW 4788   1.577   1.674   9.625
 1116SOL    HW1 4789   1.670   1.694   9.615
 1116SOL    HW2 4790   1.545   1.661   9.535
 1117SOL     OW 4791   0.785   0.636  10.788
 1117SOL    HW1 4792   0.760   0.592  10.869
 1117SOL    HW2 4793   0.768   0.571  10.719
 1118SOL     OW 4794   1.415   0.487  10.999
 1118SOL    HW1 4795   1.405   0.528  11.085
 1118SOL    HW2 4796   1.509   0.481  10.986
 1119SOL     OW 4797   0.953   0.883  10.896
 1119SOL    HW1 4798   1.009   0.818  10.852
 1119SOL    HW2 4799   0.899   0.920  10.825
 1120SOL     OW 4800   0.999   0.405  10.542
 1120SOL    HW1 4801   0.911   0.434  10.568
 1120SOL    HW2 4802   0.985   0.362  10.457
 1121SOL     OW 4803   1.059   0.694   9.732
 1121SOL    HW1 4804   1.075   0.680   9.826
 1121SOL    HW2 4805   0.975   0.653   9.715
 1122SOL     OW 4806   0.085   0.835  10.050
 1122SOL    HW1 4807   0.163   0.829  10.103
 1122SOL    HW2 4808   0.075   0.929  10.031
 1123SOL     OW 4809   0.140   1.812  10.875
 1123SOL    HW1 4810   0.134   1.806  10.970
 1123SOL    HW2 4811   0.050   1.808  10.844
 1124SOL     OW 4812   0.873   0.364   9.525
 1124SOL    HW1 4813   0.924   0.432   9.480
 1124SOL    HW2 4814   0.839   0.309   9.455
 1125SOL     OW 4815   1.702   0.568  11.143
 1125SOL    HW1 4816   1.669   0.644  11.095
 1125SOL    HW2 4817   1.734   0.508  11.075
 1126SOL     OW 4818   1.379   1.143   9.845
 1126SOL    HW1 4819   1.461   1.124   9.801
 1126SOL    HW2 4820   1.334   1.204   9.787
 1127SOL     OW 4821   0.513   0.181  10.248
 1127SOL    HW1 4822   0.533   0.224  10.331
 1127SOL    HW2 4823   0.549   0.239  10.181
 1128SOL     OW 4824   0.991   1.459   9.815
 1128SOL    HW1 4825   0.965   1.503   9.734
 1128SOL    HW2 4826   0.937   1.500   9.883
 1129SOL     OW 4827   0.363   1.826  10.174
 1129SOL    HW1 4828   0.418   1.747  10.170
 1129SOL    HW2 4829   0.425   1.897  10.191
 1130SOL     OW 4830   1.805   1.053  10.185
 1130SOL    HW1 4831   1.752   1.028  10.109
 1130SOL    HW2 4832   1.743   1.059  10.257
 1131SOL     OW 4833   1.225   1.549  10.818
 1131SOL    HW1 4834   1.217   1.478  10.881
 1131SOL    HW2 4835   1.152   1.535  10.757
 1132SOL     OW 4836   0.355   0.930   9.587
 1132SOL    HW1 4837   0.420   0.948   9.520
 1132SOL    HW2 4838   0.271   0.943   9.543
 1133SOL     OW 4839   1.486   0.786  10.057
 1133SOL    HW1 4840   1.478   0.803  10.151
 1133SOL    HW2 4841   1.561   0.838  10.030
 1134SOL     OW 4842   0.459   1.256  11.056
 1134SOL    HW1 4843   0.435   1.260  10.963
 1134SOL    HW2 4844   0.375   1.255  11.102
 1135SOL     OW 4845   1.128   1.765   9.555
 1135SOL    HW1 4846   1.041   1.734   9.583
 1135SOL    HW2 4847   1.150   1.711   9.480
 1136SOL     OW 4848   0.146   0.257  10.861
 1136SOL    HW1 4849   0.147   0.352  10.862
 1136SOL    HW2 4850   0.187   0.231  10.943
 1137SOL     OW 4851   1.630   1.394   9.417
 1137SOL    HW1 4852   1.592   1.479   9.391
 1137SOL    HW2 4853   1.567   1.329   9.387
 1138SOL     OW 4854   0.461   1.727   9.633
 1138SOL    HW1 4855   0.490   1.691   9.717
 1138SOL    HW2 4856   0.530   1.703   9.571
 1139SOL     OW 4857   1.415   0.152   9.711
 1139SOL    HW1 4858   1.394   0.100   9.633
 1139SOL    HW2 4859   1.506   0.130   9.730
 1140SOL     OW 4860   0.223   1.807  10.522
 1140SOL    HW1 4861   0.290   1.743  10.544
 1140SOL    HW2 4862   0.204   1.792  10.429
 1141SOL     OW 4863   0.945   1.712  10.219
 1141SOL    HW1 4864   1.026   1.666  10.241
 1141SOL    HW2 4865   0.908   1.663  10.146
 1142SOL     OW 4866   0.417   0.687   9.808
 1142SOL    HW1 4867   0.431   0.594   9.826
 1142SOL    HW2 4868   0.322   0.697   9.806
 1143SOL     OW 4869   1.544   0.202  11.044
 1143SOL    HW1 4870   1.550   0.232  11.135
 1143SOL    HW2 4871   1.451   0.209  11.022
 1144SOL     OW 4872   0.599   0.141   9.404
 1144SOL    HW1 4873   0.670   0.099   9.452
 1144SOL    HW2 4874   0.575   0.078   9.336
 1145SOL     OW 4875   0.746   0.289  11.143
 1145SOL    HW1 4876   0.797   0.285  11.062
 1145SOL    HW2 4877   0.703   0.374  11.140
 1146SOL     OW 4878   0.877   1.511  10.503
 1146SOL    HW1 4879   0.866   1.476  10.415
 1146SOL    HW2 4880   0.947   1.458  10.542
 1147SOL     OW 4881   1.344   0.599  10.748
 1147SOL    HW1 4882   1.382   0.574  10.832
 1147SOL    HW2 4883   1.376   0.688  10.733
 1148SOL     OW 4884   0.829   1.395  10.230
 1148SOL    HW1 4885   0.870   1.460  10.174
 1148SOL    HW2 4886   0.748   1.371  10.185
 1149SOL     OW 4887   0.931   0.519  10.202
 1149SOL    HW1 4888   0.906   0.512  10.109
 1149SOL    HW2 4889   0.958   0.431  10.226
 1150SOL     OW 4890   0.589   0.040   9.744
 1150SOL    HW1 4891   0.528  -0.025   9.779
 1150SOL    HW2 4892   0.535   0.117   9.728
 1151SOL     OW 4893   1.430   1.221   9.346
 1151SOL    HW1 4894   1.453   1.144   9.397
 1151SOL    HW2 4895   1.338   1.238   9.368
 1152SOL     OW 4896   0.281   0.050   9.493
 1152SOL    HW1 4897   0.342   0.062   9.420
 1152SOL    HW2 4898   0.294  -0.041   9.520
 1153SOL     OW 4899   0.942   0.264   9.772
 1153SOL    HW1 4900   0.917   0.287   9.682
 1153SOL    HW2 4901   1.037   0.274   9.773
 1154SOL     OW 4902   1.083   0.688  10.753
 1154SOL    HW1 4903   1.026   0.616  10.782
 1154SOL    HW2 4904   1.172   0.651  10.758
 1155SOL     OW 4905   1.203   1.536  10.069
 1155SOL    HW1 4906   1.221   1.620  10.027
 1155SOL    HW2 4907   1.273   1.526  10.134
 1156SOL     OW 4908   0.464   1.128  10.032
 1156SOL    HW1 4909   0.396   1.115  10.098
 1156SOL    HW2 4910   0.419   1.122   9.948
 1157SOL     OW 4911   1.255   1.787   9.934
 1157SOL    HW1 4912   1.303   1.849   9.879
 1157SOL    HW2 4913   1.182   1.838   9.969
 1158SOL     OW 4914   0.995   0.566   9.397
 1158SOL    HW1 4915   0.955   0.638   9.348
 1158SOL    HW2 4916   1.055   0.525   9.335
 1159SOL     OW 4917   0.087   0.577  10.699
 1159SOL    HW1 4918   0.176   0.557  10.669
 1159SOL    HW2 4919   0.099   0.637  10.773
 1160SOL     OW 4920   0.876   0.478   9.941
 1160SOL    HW1 4921   0.837   0.529   9.870
 1160SOL    HW2 4922   0.890   0.391   9.903
 1161SOL     OW 4923   0.999   0.028  10.101
 1161SOL    HW1 4924   0.944   0.045  10.025
 1161SOL    HW2 4925   0.989  -0.066  10.116
 1162SOL     OW 4926   1.430   1.166  10.155
 1162SOL    HW1 4927   1.369   1.092  10.146
 1162SOL    HW2 4928   1.475   1.170  10.071
 1163SOL     OW 4929   1.474   0.570  10.255
 1163SOL    HW1 4930   1.410   0.501  10.274
 1163SOL    HW2 4931   1.529   0.574  10.333
 1164SOL     OW 4932   1.854   0.819   9.699
 1164SOL    HW1 4933   1.906   0.760   9.754
 1164SOL    HW2 4934   1.812   0.762   9.635
 1165SOL     OW 4935   0.504   1.404   9.442
 1165SOL    HW1 4936   0.424   1.382   9.491
 1165SOL    HW2 4937   0.494   1.356   9.360
 1166SOL     OW 4938   1.661   1.262   9.962
 1166SOL    HW1 4939   1.756   1.258   9.976
 1166SOL    HW2 4940   1.639   1.354   9.978
 1167SOL     OW 4941   1.399   0.580   9.368
 1167SOL    HW1 4942   1.351   0.549   9.444
 1167SOL    HW2 4943   1.490   0.555   9.384
 1168SOL     OW 4944   0.542   0.348   9.572
 1168SOL    HW1 4945   0.547   0.274   9.511
 1168SOL    HW2 4946   0.626   0.345   9.618
 1169SOL     OW 4947   1.733   1.258  10.860
 1169SOL    HW1 4948   1.812   1.207  10.841
 1169SOL    HW2 4949   1.766   1.339  10.898
 1170SOL     OW 4950   1.062   1.346  10.637
 1170SOL    HW1 4951   0.986   1.318  10.687
 1170SOL    HW2 4952   1.137   1.310  10.684
 1171SOL     OW 4953   1.600   1.626  10.963
 1171SOL    HW1 4954   1.602   1.668  10.876
 1171SOL    HW2 4955   1.682   1.578  10.968
 1172SOL     OW 4956   1.107   1.186  10.419
 1172SOL    HW1 4957   1.079   1.239  10.494
 1172SOL    HW2 4958   1.026   1.169  10.371
 1173SOL     OW 4959   1.624   1.097  10.388
 1173SOL    HW1 4960   1.622   1.154  10.465
 1173SOL    HW2 4961   1.542   1.114  10.342
 1174SOL     OW 4962   0.956   0.095  10.741
 1174SOL    HW1 4963   0.940   0.067  10.651
 1174SOL    HW2 4964   1.042   0.137  10.739
 1175SOL     OW 4965   0.937   1.146  10.973
 1175SOL    HW1 4966   0.873   1.139  11.044
 1175SOL    HW2 4967   0.966   1.056  10.957
 1176SOL     OW 4968   0.707   1.056   9.680
 1176SOL    HW1 4969   0.695   1.040   9.774
 1176SOL    HW2 4970   0.789   1.011   9.659
 1177SOL     OW 4971   0.411   0.820  10.576
 1177SOL    HW1 4972   0.486   0.828  10.635
 1177SOL    HW2 4973   0.387   0.728  10.579
 1178SOL     OW 4974   1.267   0.388  10.590
 1178SOL    HW1 4975   1.296   0.467  10.636
 1178SOL    HW2 4976   1.176   0.406  10.567
 1179SOL     OW 4977   0.066   1.592  10.623
 1179SOL    HW1 4978   0.080   1.679  10.587
 1179SOL    HW2 4979   0.151   1.567  10.660
 1180SOL     OW 4980   0.328   1.113   9.797
 1180SOL    HW1 4981   0.327   1.186   9.735
 1180SOL    HW2 4982   0.334   1.035   9.742
 1181SOL     OW 4983   0.544   0.550  10.176
 1181SOL    HW1 4984   0.565   0.608  10.103
 1181SOL    HW2 4985   0.621   0.554  10.233
 1182SOL     OW 4986   1.238   1.355   9.738
 1182SOL    HW1 4987   1.303   1.426   9.738
 1182SOL    HW2 4988   1.156   1.398   9.714
 1183SOL     OW 4989   1.290   1.456  10.466
 1183SOL    HW1 4990   1.352   1.467  10.538
 1183SOL    HW2 4991   1.229   1.390  10.497
 1184SOL     OW 4992   1.583   0.640   9.807
 1184SOL    HW1 4993   1.528   0.708   9.766
 1184SOL    HW2 4994   1.644   0.614   9.738
 1185SOL     OW 4995   0.341   1.527  10.619
 1185SOL    HW1 4996   0.329   1.486  10.533
 1185SOL    HW2 4997   0.436   1.543  10.625
 1186SOL     OW 4998   0.426   0.730  10.917
 1186SOL    HW1 4999   0.487   0.778  10.861
 1186SOL    HW2 5000   0.473   0.650  10.941
 1187SOL     OW 5001   1.591   0.744  10.964
 1187SOL    HW1 5002   1.517   0.802  10.978
 1187SOL    HW2 5003   1.657   0.799  10.920
 1188SOL     OW 5004   1.035   0.062  11.025
 1188SOL    HW1 5005   1.094   0.125  11.067
 1188SOL    HW2 5006   1.023   0.096  10.936
 1189SOL     OW 5007   0.464   0.027  11.076
 1189SOL    HW1 5008   0.455  -0.024  10.995
 1189SOL    HW2 5009   0.386   0.083  11.078
 1190SOL     OW 5010   0.586   0.877  10.350
 1190SOL    HW1 5011   0.609   0.969  10.343
 1190SOL    HW2 5012   0.524   0.873  10.423
 1191SOL     OW 5013   1.343   0.846  10.310
 1191SOL    HW1 5014   1.253   0.831  10.283
 1191SOL    HW2 5015   1.375   0.760  10.338
 1192SOL     OW 5016   1.255   0.524   9.601
 1192SOL    HW1 5017   1.230   0.441   9.640
 1192SOL    HW2 5018   1.180   0.582   9.615
 1193SOL     OW 5019   0.303   0.134  10.564
 1193SOL    HW1 5020   0.390   0.173  10.575
 1193SOL    HW2 5021   0.313   0.072  10.492
 1194SOL     OW 5022   0.060   1.307  10.606
 1194SOL    HW1 5023   0.041   1.323  10.699
 1194SOL    HW2 5024   0.071   1.395  10.569
 1195SOL     OW 5025   0.733   0.639  10.363
 1195SOL    HW1 5026   0.800   0.624  10.297
 1195SOL    HW2 5027   0.695   0.724  10.340
 1196SOL     OW 5028   1.728   0.927  11.187
 1196SOL    HW1 5029   1.680   0.963  11.111
 1196SOL    HW2 5030   1.670   0.945  11.261
 1197SOL     OW 5031   0.405   0.092   9.966
 1197SOL    HW1 5032   0.337   0.158   9.981
 1197SOL    HW2 5033   0.360   0.022   9.919
 1198SOL     OW 5034   1.628   0.383   9.668
 1198SOL    HW1 5035   1.656   0.308   9.720
 1198SOL    HW2 5036   1.536   0.396   9.691
 1199SOL     OW 5037   1.038   0.761  10.268
 1199SOL    HW1 5038   1.022   0.778  10.360
 1199SOL    HW2 5039   1.006   0.673  10.253
 1200SOL     OW 5040   0.971   1.567  11.018
 1200SOL    HW1 5041   0.972   1.612  10.933
 1200SOL    HW2 5042   1.022   1.487  11.002
 1201SOL     OW 5043   1.847   1.503  10.922
 1201SOL    HW1 5044   1.874   1.533  10.835
 1201SOL    HW2 5045   1.925   1.515  10.976
 1202SOL     OW 5046   0.367   0.944  11.095
 1202SOL    HW1 5047   0.434   0.962  11.160
 1202SOL    HW2 5048   0.395   0.864  11.052
 1203SOL     OW 5049   1.576   0.292   9.412
 1203SOL    HW1 5050   1.480   0.288   9.422
 1203SOL    HW2 5051   1.608   0.311   9.500
 1204SOL     OW 5052   1.300   0.835   9.354
 1204SOL    HW1 5053   1.332   0.745   9.349
 1204SOL    HW2 5054   1.327   0.875   9.271
 1205SOL     OW 5055   0.306   0.805  10.246
 1205SOL    HW1 5056   0.400   0.816  10.233
 1205SOL    HW2 5057   0.296   0.715  10.280
 1206SOL     OW 5058   0.327   0.533  10.325
 1206SOL    HW1 5059   0.298   0.443  10.313
 1206SOL    HW2 5060   0.404   0.541  10.269
 1207SOL     OW 5061   1.149   0.428  10.963
 1207SOL    HW1 5062   1.106   0.463  11.041
 1207SOL    HW2 5063   1.241   0.454  10.972
 1208SOL     OW 5064   1.191   0.222  10.790
 1208SOL    HW1 5065   1.182   0.286  10.860
 1208SOL    HW2 5066   1.216   0.274  10.713
 1209SOL     OW 5067   7.984   1.317   9.510
 1209SOL    HW1 5068   7.893   1.336   9.532
 1209SOL    HW2 5069   7.993   1.223   9.526
 1210SOL     OW 5070   0.115   1.758  10.261
 1210SOL    HW1 5071   0.111   1.687  10.196
 1210SOL    HW2 5072   0.188   1.813  10.232
 1211SOL     OW 5073   0.499   1.575  10.232
 1211SOL    HW1 5074   0.564   1.641  10.255
 1211SOL    HW2 5075   0.517   1.554  10.140
 1212SOL     OW 5076   0.968   0.794  10.528
 1212SOL    HW1 5077   1.023   0.768  10.603
 1212SOL    HW2 5078   0.883   0.752  10.545
 1213SOL     OW 5079   0.065   0.543  10.428
 1213SOL    HW1 5080   0.158   0.530  10.407
 1213SOL    HW2 5081   0.062   0.549  10.523
 1214SOL     OW 5082   0.191   0.506  10.976
 1214SOL    HW1 5083   0.279   0.487  10.944
 1214SOL    HW2 5084   0.188   0.602  10.983
 1215SOL     OW 5085   1.389   0.932  10.965
 1215SOL    HW1 5086   1.410   1.025  10.967
 1215SOL    HW2 5087   1.384   0.910  10.873
 1216SOL     OW 5088   0.810   0.581   9.688
 1216SOL    HW1 5089   0.829   0.509   9.627
 1216SOL    HW2 5090   0.740   0.631   9.645
 1217SOL     OW 5091   1.636   0.596  10.475
 1217SOL    HW1 5092   1.625   0.550  10.558
 1217SOL    HW2 5093   1.725   0.576  10.447
 1218SOL     OW 5094   0.265   1.523  11.010
 1218SOL    HW1 5095   0.237   1.604  11.052
 1218SOL    HW2 5096   0.277   1.461  11.082
 1219SOL     OW 5097   0.738   0.480  10.580
 1219SOL    HW1 5098   0.687   0.400  10.568
 1219SOL    HW2 5099   0.723   0.531  10.501
 1220SOL     OW 5100   0.917   1.672  10.765
 1220SOL    HW1 5101   0.899   1.639  10.677
 1220SOL    HW2 5102   0.920   1.768  10.754
 1221SOL     OW 5103   1.321   1.040  10.511
 1221SOL    HW1 5104   1.340   0.979  10.440
 1221SOL    HW2 5105   1.248   1.092  10.479
 1222SOL     OW 5106   1.312   0.845   9.630
 1222SOL    HW1 5107   1.236   0.803   9.669
 1222SOL    HW2 5108   1.299   0.838   9.535
 1223SOL     OW 5109   1.737   1.742  10.416
 1223SOL    HW1 5110   1.829   1.753  10.390
 1223SOL    HW2 5111   1.723   1.648  10.415
 1224SOL     OW 5112   1.229   1.722  10.420
 1224SOL    HW1 5113   1.294   1.762  10.478
 1224SOL    HW2 5114   1.244   1.628  10.429
 1225SOL     OW 5115   0.053   1.155  10.368
 1225SOL    HW1 5116   0.055   1.207  10.449
 1225SOL    HW2 5117   0.011   1.212  10.304
 1226SOL     OW 5118   0.709   1.704  11.004
 1226SOL    HW1 5119   0.760   1.732  11.080
 1226SOL    HW2 5120   0.774   1.670  10.943
 1227SOL     OW 5121   1.685   0.157   9.810
 1227SOL    HW1 5122   1.720   0.120   9.729
 1227SOL    HW2 5123   1.712   0.095   9.878
 1228SOL     OW 5124   1.395   1.572   9.804
 1228SOL    HW1 5125   1.453   1.603   9.735
 1228SOL    HW2 5126   1.343   1.649   9.829
 1229SOL     OW 5127   0.183   1.744  11.146
 1229SOL    HW1 5128   0.116   1.697  11.196
 1229SOL    HW2 5129   0.227   1.798  11.210
 1230SOL     OW 5130   1.271   0.937   9.983
 1230SOL    HW1 5131   1.345   0.878   9.999
 1230SOL    HW2 5132   1.305   1.000   9.919
 1231SOL     OW 5133   0.815   1.278  10.734
 1231SOL    HW1 5134   0.819   1.274  10.829
 1231SOL    HW2 5135   0.744   1.339  10.715
 1232SOL     OW 5136   0.677   1.614   9.457
 1232SOL    HW1 5137   0.686   1.635   9.364
 1232SOL    HW2 5138   0.621   1.537   9.459
 1233SOL     OW 5139   1.610   1.739  10.693
 1233SOL    HW1 5140   1.680   1.742  10.628
 1233SOL    HW2 5141   1.600   1.830  10.721
 1234SOL     OW 5142   1.829   0.182  10.260
 1234SOL    HW1 5143   1.834   0.100  10.212
 1234SOL    HW2 5144   1.753   0.227  10.222
 1235SOL     OW 5145   0.265   0.332  10.028
 1235SOL    HW1 5146   0.172   0.335  10.003
 1235SOL    HW2 5147   0.263   0.314  10.122
 1236SOL     OW 5148   1.209   1.602   9.349
 1236SOL    HW1 5149   1.197   1.509   9.368
 1236SOL    HW2 5150   1.148   1.620   9.278
 1237SOL     OW 5151   0.820   1.007  10.685
 1237SOL    HW1 5152   0.872   0.993  10.605
 1237SOL    HW2 5153   0.822   1.102  10.698
 1238SOL     OW 5154   0.929   0.919   9.618
 1238SOL    HW1 5155   0.981   0.949   9.544
 1238SOL    HW2 5156   0.977   0.843   9.651
 1239SOL     OW 5157   1.488   1.639   9.359
 1239SOL    HW1 5158   1.396   1.624   9.341
 1239SOL    HW2 5159   1.529   1.643   9.273
 1240SOL     OW 5160   0.380   1.284  10.786
 1240SOL    HW1 5161   0.464   1.287  10.741
 1240SOL    HW2 5162   0.345   1.373  10.777
 1241SOL     OW 5163   1.594   1.273  10.601
 1241SOL    HW1 5164   1.652   1.253  10.675
 1241SOL    HW2 5165   1.542   1.348  10.631
 1242SOL     OW 5166   1.073   1.128  10.024
 1242SOL    HW1 5167   0.996   1.089  10.065
 1242SOL    HW2 5168   1.130   1.054  10.005
 1243SOL     OW 5169   1.030   0.256  10.269
 1243SOL    HW1 5170   1.011   0.202  10.192
 1243SOL    HW2 5171   1.028   0.194  10.343
 1244SOL     OW 5172   1.724   0.414  10.691
 1244SOL    HW1 5173   1.794   0.479  10.697
 1244SOL    HW2 5174   1.758   0.347  10.631
 1245SOL     OW 5175   0.255   1.339   9.575
 1245SOL    HW1 5176   0.161   1.329   9.566
 1245SOL    HW2 5177   0.266   1.383   9.659
 1246SOL     OW 5178   0.131   1.026  10.988
 1246SOL    HW1 5179   0.065   1.060  11.049
 1246SOL    HW2 5180   0.206   1.003  11.043
 1247SOL     OW 5181   0.639   0.221  10.845
 1247SOL    HW1 5182   0.630   0.212  10.750
 1247SOL    HW2 5183   0.675   0.137  10.874
 1248SOL     OW 5184   0.107   0.363   9.334
 1248SOL    HW1 5185   0.039   0.403   9.388
 1248SOL    HW2 5186   0.125   0.428   9.266
 1249SOL     OW 5187   1.416   0.862  10.700
 1249SOL    HW1 5188   1.369   0.925  10.645
 1249SOL    HW2 5189   1.506   0.865  10.670
 1250SOL     OW 5190   0.097   0.264   9.662
 1250SOL    HW1 5191   0.063   0.238   9.576
 1250SOL    HW2 5192   0.134   0.184   9.699
 1251SOL     OW 5193   1.165   1.328   9.420
 1251SOL    HW1 5194   1.073   1.322   9.396
 1251SOL    HW2 5195   1.171   1.290   9.507
 1252SOL     OW 5196   0.617   0.839  10.751
 1252SOL    HW1 5197   0.673   0.914  10.732
 1252SOL    HW2 5198   0.678   0.767  10.766
 1253SOL     OW 5199   0.728   0.554  11.047
 1253SOL    HW1 5200   0.772   0.628  11.090
 1253SOL    HW2 5201   0.799   0.496  11.021
 1254SOL     OW 5202   1.471   1.195  10.937
 1254SOL    HW1 5203   1.462   1.213  11.031
 1254SOL    HW2 5204   1.562   1.218  10.917
 1255SOL     OW 5205   0.407   1.779  10.912
 1255SOL    HW1 5206   0.316   1.792  10.884
 1255SOL    HW2 5207   0.411   1.687  10.938
 1256SOL     OW 5208   1.656   0.874  10.571
 1256SOL    HW1 5209   1.665   0.794  10.520
 1256SOL    HW2 5210   1.665   0.945  10.506
 1257SOL     OW 5211   1.209   0.312   9.780
 1257SOL    HW1 5212   1.277   0.249   9.755
 1257SOL    HW2 5213   1.247   0.360   9.854
 1258SOL     OW 5214   0.600   0.747   9.998
 1258SOL    HW1 5215   0.642   0.830   9.976
 1258SOL    HW2 5216   0.538   0.732   9.926
 1259SOL     OW 5217   1.746   0.372  10.960
 1259SOL    HW1 5218   1.738   0.384  10.866
 1259SOL    HW2 5219   1.682   0.304  10.981
 1260SOL     OW 5220   1.757   0.915  10.827
 1260SOL    HW1 5221   1.821   0.986  10.821
 1260SOL    HW2 5222   1.724   0.906  10.738
 1261SOL     OW 5223   0.898   1.361   9.351
 1261SOL    HW1 5224   0.854   1.376   9.435
 1261SOL    HW2 5225   0.890   1.444   9.304
 1262SOL     OW 5226   0.666   1.785  10.263
 1262SOL    HW1 5227   0.640   1.872  10.234
 1262SOL    HW2 5228   0.761   1.783  10.249
 1263SOL     OW 5229   0.882   0.988  10.169
 1263SOL    HW1 5230   0.925   0.909  10.201
 1263SOL    HW2 5231   0.839   1.025  10.246
 1264SOL     OW 5232   1.080   0.993   9.407
 1264SOL    HW1 5233   1.056   1.038   9.327
 1264SOL    HW2 5234   1.154   0.937   9.382
 1265SOL     OW 5235   1.844   1.551  10.148
 1265SOL    HW1 5236   1.765   1.536  10.096
 1265SOL    HW2 5237   1.833   1.494  10.225
 1266SOL     OW 5238   0.214   1.293  11.178
 1266SOL    HW1 5239   0.119   1.282  11.173
 1266SOL    HW2 5240   0.232   1.308  11.271
 1267SOL     OW 5241   0.140   1.244   9.995
 1267SOL    HW1 5242   0.062   1.192  10.014
 1267SOL    HW2 5243   0.186   1.194   9.927
 1268SOL     OW 5244   0.637   1.422  10.914
 1268SOL    HW1 5245   0.595   1.374  10.986
 1268SOL    HW2 5246   0.661   1.506  10.952
 1269SOL     OW 5247   1.824   0.218  10.536
 1269SOL    HW1 5248   1.755   0.151  10.535
 1269SOL    HW2 5249   1.844   0.233  10.444
 1270SOL     OW 5250   0.454   0.420   9.852
 1270SOL    HW1 5251   0.422   0.388   9.767
 1270SOL    HW2 5252   0.389   0.390   9.915
 1271SOL     OW 5253   1.709   1.471  10.401
 1271SOL    HW1 5254   1.626   1.425  10.413
 1271SOL    HW2 5255   1.770   1.426  10.458
 1272SOL     OW 5256   0.342   0.551  10.605
 1272SOL    HW1 5257   0.388   0.490  10.662
 1272SOL    HW2 5258   0.365   0.523  10.516
 1273SOL     OW 5259   0.843   1.601   9.994
 1273SOL    HW1 5260   0.853   1.683   9.945
 1273SOL    HW2 5261   0.751   1.577   9.981
 1274SOL     OW 5262   1.437   0.237  10.433
 1274SOL    HW1 5263   1.486   0.172  10.484
 1274SOL    HW2 5264   1.384   0.283  10.498
 1275SOL     OW 5265   1.027   0.037  10.449
 1275SOL    HW1 5266   0.936   0.042  10.419
 1275SOL    HW2 5267   1.071  -0.016  10.382
 1276SOL     OW 5268   0.803   1.331   9.607
 1276SOL    HW1 5269   0.735   1.266   9.592
 1276SOL    HW2 5270   0.823   1.323   9.700
 1277SOL     OW 5271   0.621   1.544  10.592
 1277SOL    HW1 5272   0.615   1.632  10.629
 1277SOL    HW2 5273   0.710   1.539  10.557
 1278SOL     OW 5274   1.338   7.987   9.494
 1278SOL    HW1 5275   1.400   7.926   9.455
 1278SOL    HW2 5276   1.287   7.934   9.555
 1279SOL     OW 5277   1.303   0.469   9.996
 1279SOL    HW1 5278   1.238   0.538   9.990
 1279SOL    HW2 5279   1.284   0.425  10.079
 1280SOL     OW 5280   1.581   0.270  10.165
 1280SOL    HW1 5281   1.536   0.254  10.248
 1280SOL    HW2 5282   1.542   0.208  10.103
 1281SOL     OW 5283   0.882   1.649   9.641
 1281SOL    HW1 5284   0.819   1.626   9.573
 1281SOL    HW2 5285   0.830   1.697   9.706
 1282SOL     OW 5286   0.225   0.675  11.232
 1282SOL    HW1 5287   0.188   0.635  11.310
 1282SOL    HW2 5288   0.300   0.620  11.209
 1283SOL     OW 5289   7.990   0.401  11.767
 1283SOL    HW1 5290   7.910   0.390  11.817
 1283SOL    HW2 5291   8.003   0.316  11.724
 1284SOL     OW 5292   0.552   1.256  12.341
 1284SOL    HW1 5293   0.473   1.297  12.306
 1284SOL    HW2 5294   0.588   1.321  12.401
 1285SOL     OW 5295   1.568   1.523  11.874
 1285SOL    HW1 5296   1.518   1.505  11.953
 1285SOL    HW2 5297   1.503   1.525  11.804
 1286SOL     OW 5298   1.116   0.703  11.863
 1286SOL    HW1 5299   1.171   0.782  11.857
 1286SOL    HW2 5300   1.071   0.713  11.947
 1287SOL     OW 5301   1.789   0.579  11.398
 1287SOL    HW1 5302   1.758   0.584  11.308
 1287SOL    HW2 5303   1.727   0.520  11.442
 1288SOL     OW 5304   0.755   1.135  12.209
 1288SOL    HW1 5305   0.681   1.160  12.264
 1288SOL    HW2 5306   0.785   1.216  12.169
 1289SOL     OW 5307   0.684   0.992  11.821
 1289SOL    HW1 5308   0.754   0.986  11.886
 1289SOL    HW2 5309   0.619   1.049  11.860
 1290SOL     OW 5310   0.340   1.406  12.244
 1290SOL    HW1 5311   0.260   1.368  12.206
 1290SOL    HW2 5312   0.375   1.462  12.175
 1291SOL     OW 5313   1.618   0.482  11.906
 1291SOL    HW1 5314   1.533   0.502  11.867
 1291SOL    HW2 5315   1.654   0.567  11.931
 1292SOL     OW 5316   0.227   1.736  11.621
 1292SOL    HW1 5317   0.251   1.813  11.673
 1292SOL    HW2 5318   0.305   1.717  11.569
 1293SOL     OW 5319   0.202   1.460  11.722
 1293SOL    HW1 5320   0.295   1.464  11.743
 1293SOL    HW2 5321   0.174   1.375  11.754
 1294SOL     OW 5322   0.260   1.082  12.044
 1294SOL    HW1 5323   0.269   1.001  12.094
 1294SOL    HW2 5324   0.207   1.139  12.099
 1295SOL     OW 5325   0.562   0.999  11.319
 1295SOL    HW1 5326   0.620   1.036  11.252
 1295SOL    HW2 5327   0.605   1.020  11.402
 1296SOL     OW 5328   0.123   0.639  11.712
 1296SOL    HW1 5329   0.082   0.555  11.736
 1296SOL    HW2 5330   0.114   0.692  11.791
 1297SOL     OW 5331   1.841   1.753  11.498
 1297SOL    HW1 5332   1.912   1.726  11.557
 1297SOL    HW2 5333   1.857   1.846  11.482
 1298SOL     OW 5334   0.019   1.592  11.304
 1298SOL    HW1 5335   0.005   1.500  11.325
 1298SOL    HW2 5336   0.012   1.638  11.388
 1299SOL     OW 5337   1.643   1.131  11.585
 1299SOL    HW1 5338   1.734   1.115  11.561
 1299SOL    HW2 5339   1.648   1.169  11.673
 1300SOL     OW 5340   0.148   0.734   0.272
 1300SOL    HW1 5341   0.161   0.701   0.361
 1300SOL    HW2 5342   0.181   0.823   0.274
 1301SOL     OW 5343   0.612   1.395  11.893
 1301SOL    HW1 5344   0.574   1.309  11.913
 1301SOL    HW2 5345   0.590   1.411  11.802
 1302SOL     OW 5346   0.849   0.018  11.717
 1302SOL    HW1 5347   0.876   0.103  11.682
 1302SOL    HW2 5348   0.754   0.016  11.704
 1303SOL     OW 5349   0.199   0.950  12.365
 1303SOL    HW1 5350   0.281   0.910  12.394
 1303SOL    HW2 5351   0.186   1.024  12.424
 1304SOL     OW 5352   1.530   0.994  11.377
 1304SOL    HW1 5353   1.468   0.934  11.418
 1304SOL    HW2 5354   1.568   1.042  11.451
 1305SOL     OW 5355   1.404   1.434  12.077
 1305SOL    HW1 5356   1.387   1.443  12.170
 1305SOL    HW2 5357   1.425   1.341  12.065
 1306SOL     OW 5358   1.639   1.767  11.746
 1306SOL    HW1 5359   1.631   1.723  11.661
 1306SOL    HW2 5360   1.631   1.696  11.810
 1307SOL     OW 5361   0.592   0.709  11.441
 1307SOL    HW1 5362   0.618   0.796  11.410
 1307SOL    HW2 5363   0.534   0.727  11.516
 1308SOL     OW 5364   1.296   0.363  12.114
 1308SOL    HW1 5365   1.206   0.329  12.110
 1308SOL    HW2 5366   1.341   0.302  12.173
 1309SOL     OW 5367   1.578   1.675  11.480
 1309SOL    HW1 5368   1.670   1.699  11.475
 1309SOL    HW2 5369   1.553   1.657  11.389
 1310SOL     OW 5370   1.049   0.700  11.595
 1310SOL    HW1 5371   1.072   0.701  11.689
 1310SOL    HW2 5372   0.965   0.655  11.591
 1311SOL     OW 5373   0.101   0.778  11.949
 1311SOL    HW1 5374   0.188   0.787  11.988
 1311SOL    HW2 5375   0.045   0.836  12.000
 1312SOL     OW 5376   0.063   1.798   0.271
 1312SOL    HW1 5377   0.113   1.770   0.348
 1312SOL    HW2 5378  -0.028   1.779   0.293
 1313SOL     OW 5379   0.893   0.364  11.377
 1313SOL    HW1 5380   0.947   0.416  11.318
 1313SOL    HW2 5381   0.848   0.302  11.319
 1314SOL     OW 5382   1.369   1.123  11.696
 1314SOL    HW1 5383   1.455   1.136  11.656
 1314SOL    HW2 5384   1.319   1.201  11.671
 1315SOL     OW 5385   0.573   0.253  12.055
 1315SOL    HW1 5386   0.495   0.237  12.108
 1315SOL    HW2 5387   0.575   0.348  12.044
 1316SOL     OW 5388   0.959   1.450  11.665
 1316SOL    HW1 5389   0.966   1.523  11.603
 1316SOL    HW2 5390   1.045   1.409  11.664
 1317SOL     OW 5391   0.355   1.815  12.026
 1317SOL    HW1 5392   0.397   1.732  12.047
 1317SOL    HW2 5393   0.412   1.882  12.064
 1318SOL     OW 5394   1.807   1.065  12.031
 1318SOL    HW1 5395   1.769   1.000  11.972
 1318SOL    HW2 5396   1.747   1.067  12.106
 1319SOL     OW 5397   0.297   0.944  11.403
 1319SOL    HW1 5398   0.386   0.970  11.378
 1319SOL    HW2 5399   0.280   0.866  11.351
 1320SOL     OW 5400   1.433   0.713  11.907
 1320SOL    HW1 5401   1.438   0.678  11.996
 1320SOL    HW2 5402   1.516   0.759  11.894
 1321SOL     OW 5403   1.122   1.789  11.383
 1321SOL    HW1 5404   1.051   1.749  11.433
 1321SOL    HW2 5405   1.152   1.720  11.324
 1322SOL     OW 5406   1.634   1.382  11.258
 1322SOL    HW1 5407   1.590   1.467  11.248
 1322SOL    HW2 5408   1.565   1.318  11.243
 1323SOL     OW 5409   0.466   1.738  11.489
 1323SOL    HW1 5410   0.509   1.794  11.553
 1323SOL    HW2 5411   0.537   1.706  11.434
 1324SOL     OW 5412   1.414   0.128  11.589
 1324SOL    HW1 5413   1.411   0.081  11.506
 1324SOL    HW2 5414   1.494   0.181  11.584
 1325SOL     OW 5415   0.268   1.801  12.366
 1325SOL    HW1 5416   0.314   1.725  12.402
 1325SOL    HW2 5417   0.177   1.788  12.392
 1326SOL     OW 5418   0.950   1.695  12.063
 1326SOL    HW1 5419   1.035   1.650  12.056
 1326SOL    HW2 5420   0.895   1.653  11.997
 1327SOL     OW 5421   0.402   0.703  11.647
 1327SOL    HW1 5422   0.413   0.608  11.655
 1327SOL    HW2 5423   0.312   0.719  11.676
 1328SOL     OW 5424   0.810   1.374  12.101
 1328SOL    HW1 5425   0.901   1.373  12.071
 1328SOL    HW2 5426   0.759   1.388  12.022
 1329SOL     OW 5427   0.939   0.511  12.066
 1329SOL    HW1 5428   0.892   0.502  11.982
 1329SOL    HW2 5429   0.972   0.423  12.084
 1330SOL     OW 5430   0.582   0.025  11.619
 1330SOL    HW1 5431   0.504  -0.025  11.641
 1330SOL    HW2 5432   0.574   0.106  11.670
 1331SOL     OW 5433   1.433   1.199  11.211
 1331SOL    HW1 5434   1.457   1.127  11.270
 1331SOL    HW2 5435   1.347   1.227  11.242
 1332SOL     OW 5436   0.305   0.041  11.379
 1332SOL    HW1 5437   0.355   0.120  11.400
 1332SOL    HW2 5438   0.315  -0.015  11.457
 1333SOL     OW 5439   0.947   0.264  11.630
 1333SOL    HW1 5440   0.924   0.294  11.542
 1333SOL    HW2 5441   1.042   0.276  11.634
 1334SOL     OW 5442   1.195   1.583  11.972
 1334SOL    HW1 5443   1.227   1.636  11.900
 1334SOL    HW2 5444   1.274   1.544  12.010
 1335SOL     OW 5445   0.475   1.158  11.897
 1335SOL    HW1 5446   0.411   1.132  11.964
 1335SOL    HW2 5447   0.434   1.135  11.814
 1336SOL     OW 5448   1.277   1.795  11.779
 1336SOL    HW1 5449   1.317   1.856  11.717
 1336SOL    HW2 5450   1.275   1.842  11.862
 1337SOL     OW 5451   1.036   0.534  11.197
 1337SOL    HW1 5452   0.993   0.618  11.183
 1337SOL    HW2 5453   1.093   0.548  11.272
 1338SOL     OW 5454   0.550   0.231  12.355
 1338SOL    HW1 5455   0.556   0.137  12.342
 1338SOL    HW2 5456   0.474   0.243  12.412
 1339SOL     OW 5457   0.832   0.439  11.812
 1339SOL    HW1 5458   0.810   0.511  11.754
 1339SOL    HW2 5459   0.881   0.377  11.758
 1340SOL     OW 5460   0.970   0.039  11.960
 1340SOL    HW1 5461   0.928   0.036  11.874
 1340SOL    HW2 5462   0.989  -0.053  11.981
 1341SOL     OW 5463   1.465   1.167  12.023
 1341SOL    HW1 5464   1.405   1.102  11.988
 1341SOL    HW2 5465   1.528   1.182  11.952
 1342SOL     OW 5466   1.444   0.601  12.157
 1342SOL    HW1 5467   1.404   0.514  12.150
 1342SOL    HW2 5468   1.518   0.589  12.216
 1343SOL     OW 5469   1.884   0.808  11.513
 1343SOL    HW1 5470   1.903   0.781  11.603
 1343SOL    HW2 5471   1.847   0.731  11.472
 1344SOL     OW 5472   0.475   1.436  11.312
 1344SOL    HW1 5473   0.405   1.403  11.367
 1344SOL    HW2 5474   0.508   1.358  11.265
 1345SOL     OW 5475   1.654   1.262  11.828
 1345SOL    HW1 5476   1.749   1.254  11.838
 1345SOL    HW2 5477   1.636   1.355  11.840
 1346SOL     OW 5478   1.388   0.584  11.251
 1346SOL    HW1 5479   1.326   0.566  11.322
 1346SOL    HW2 5480   1.471   0.602  11.295
 1347SOL     OW 5481   0.533   0.251  11.387
 1347SOL    HW1 5482   0.581   0.255  11.470
 1347SOL    HW2 5483   0.499   0.339  11.375
 1348SOL     OW 5484   1.112   1.248  12.292
 1348SOL    HW1 5485   1.031   1.273  12.338
 1348SOL    HW2 5486   1.095   1.269  12.200
 1349SOL     OW 5487   1.630   1.113  12.243
 1349SOL    HW1 5488   1.644   1.201  12.276
 1349SOL    HW2 5489   1.559   1.121  12.180
 1350SOL     OW 5490   0.701   1.051  11.549
 1350SOL    HW1 5491   0.693   1.035  11.643
 1350SOL    HW2 5492   0.776   0.999  11.522
 1351SOL     OW 5493   0.431   0.799  12.441
 1351SOL    HW1 5494   0.507   0.793  12.498
 1351SOL    HW2 5495   0.371   0.730  12.471
 1352SOL     OW 5496   1.260   0.384  12.428
 1352SOL    HW1 5497   1.318   0.434  12.486
 1352SOL    HW2 5498   1.236   0.446  12.359
 1353SOL     OW 5499   0.361   1.100  11.655
 1353SOL    HW1 5500   0.389   1.165  11.590
 1353SOL    HW2 5501   0.348   1.019  11.605
 1354SOL     OW 5502   0.554   0.525  12.028
 1354SOL    HW1 5503   0.568   0.588  11.957
 1354SOL    HW2 5504   0.608   0.558  12.100
 1355SOL     OW 5505   1.222   1.353  11.607
 1355SOL    HW1 5506   1.283   1.426  11.615
 1355SOL    HW2 5507   1.209   1.342  11.513
 1356SOL     OW 5508   1.302   1.445  12.337
 1356SOL    HW1 5509   1.363   1.415  12.405
 1356SOL    HW2 5510   1.238   1.374  12.329
 1357SOL     OW 5511   1.574   0.635  11.622
 1357SOL    HW1 5512   1.534   0.672  11.701
 1357SOL    HW2 5513   1.634   0.703  11.591
 1358SOL     OW 5514   0.369   1.571  12.465
 1358SOL    HW1 5515   0.350   1.509  12.394
 1358SOL    HW2 5516   0.401   1.516  12.537
 1359SOL     OW 5517   0.572   0.882  12.219
 1359SOL    HW1 5518   0.618   0.964  12.234
 1359SOL    HW2 5519   0.526   0.865  12.302
 1360SOL     OW 5520   1.341   0.854  12.186
 1360SOL    HW1 5521   1.273   0.849  12.118
 1360SOL    HW2 5522   1.385   0.769  12.182
 1361SOL     OW 5523   1.189   0.525  11.432
 1361SOL    HW1 5524   1.200   0.450  11.491
 1361SOL    HW2 5525   1.157   0.595  11.487
 1362SOL     OW 5526   0.300   0.194  12.466
 1362SOL    HW1 5527   0.241   0.264  12.495
 1362SOL    HW2 5528   0.293   0.195  12.371
 1363SOL     OW 5529   0.706   0.641  12.216
 1363SOL    HW1 5530   0.792   0.654  12.176
 1363SOL    HW2 5531   0.668   0.729  12.221
 1364SOL     OW 5532   0.403   0.075  11.856
 1364SOL    HW1 5533   0.361   0.160  11.868
 1364SOL    HW2 5534   0.333   0.011  11.869
 1365SOL     OW 5535   1.606   0.381  11.542
 1365SOL    HW1 5536   1.661   0.348  11.612
 1365SOL    HW2 5537   1.578   0.467  11.571
 1366SOL     OW 5538   1.014   0.759  12.143
 1366SOL    HW1 5539   1.009   0.768  12.238
 1366SOL    HW2 5540   0.995   0.666  12.127
 1367SOL     OW 5541   1.542   0.253  11.307
 1367SOL    HW1 5542   1.563   0.167  11.345
 1367SOL    HW2 5543   1.559   0.315  11.378
 1368SOL     OW 5544   1.266   0.831  11.189
 1368SOL    HW1 5545   1.314   0.749  11.201
 1368SOL    HW2 5546   1.307   0.872  11.113
 1369SOL     OW 5547   1.068   1.335  12.031
 1369SOL    HW1 5548   1.074   1.264  11.967
 1369SOL    HW2 5549   1.119   1.406  11.992
 1370SOL     OW 5550   0.330   0.798  12.099
 1370SOL    HW1 5551   0.416   0.830  12.125
 1370SOL    HW2 5552   0.323   0.713  12.141
 1371SOL     OW 5553   0.317   0.520  12.170
 1371SOL    HW1 5554   0.300   0.427  12.181
 1371SOL    HW2 5555   0.400   0.524  12.120
 1372SOL     OW 5556   1.167   0.218   0.143
 1372SOL    HW1 5557   1.168   0.268   0.225
 1372SOL    HW2 5558   1.217   0.272   0.081
 1373SOL     OW 5559   7.972   1.319  11.379
 1373SOL    HW1 5560   7.881   1.331  11.404
 1373SOL    HW2 5561   7.994   1.230  11.404
 1374SOL     OW 5562   0.098   1.706  12.023
 1374SOL    HW1 5563   0.092   1.658  12.106
 1374SOL    HW2 5564   0.174   1.764  12.035
 1375SOL     OW 5565   0.489   1.576  12.072
 1375SOL    HW1 5566   0.555   1.635  12.106
 1375SOL    HW2 5567   0.538   1.512  12.020
 1376SOL     OW 5568   0.955   0.774  12.424
 1376SOL    HW1 5569   1.000   0.848  12.465
 1376SOL    HW2 5570   0.865   0.780  12.456
 1377SOL     OW 5571   0.078   0.562  12.302
 1377SOL    HW1 5572   0.171   0.563  12.278
 1377SOL    HW2 5573   0.064   0.645  12.347
 1378SOL     OW 5574   0.812   0.567  11.553
 1378SOL    HW1 5575   0.829   0.498  11.490
 1378SOL    HW2 5576   0.740   0.617  11.515
 1379SOL     OW 5577   1.652   0.570  12.328
 1379SOL    HW1 5578   1.642   0.511  12.403
 1379SOL    HW2 5579   1.747   0.579  12.318
 1380SOL     OW 5580   0.741   0.417  12.406
 1380SOL    HW1 5581   0.663   0.363  12.393
 1380SOL    HW2 5582   0.710   0.507  12.395
 1381SOL     OW 5583   0.880   1.645   0.035
 1381SOL    HW1 5584   0.900   1.729  -0.006
 1381SOL    HW2 5585   0.918   1.651   0.122
 1382SOL     OW 5586   0.441   0.504  11.332
 1382SOL    HW1 5587   0.502   0.573  11.360
 1382SOL    HW2 5588   0.366   0.513  11.390
 1383SOL     OW 5589   1.279   1.033  12.379
 1383SOL    HW1 5590   1.312   0.982  12.305
 1383SOL    HW2 5591   1.239   1.110  12.339
 1384SOL     OW 5592   1.324   0.832  11.465
 1384SOL    HW1 5593   1.256   0.845  11.531
 1384SOL    HW2 5594   1.280   0.844  11.381
 1385SOL     OW 5595   1.252   1.714  12.284
 1385SOL    HW1 5596   1.317   1.751  12.225
 1385SOL    HW2 5597   1.273   1.621  12.287
 1386SOL     OW 5598   0.094   1.271  12.161
 1386SOL    HW1 5599   0.058   1.263  12.249
 1386SOL    HW2 5600   0.019   1.257  12.103
 1387SOL     OW 5601   1.745   0.124  11.692
 1387SOL    HW1 5602   1.733   0.096  11.601
 1387SOL    HW2 5603   1.689   0.066  11.743
 1388SOL     OW 5604   1.390   1.571  11.656
 1388SOL    HW1 5605   1.451   1.604  11.590
 1388SOL    HW2 5606   1.346   1.649  11.689
 1389SOL     OW 5607   1.272   0.927  11.848
 1389SOL    HW1 5608   1.343   0.863  11.860
 1389SOL    HW2 5609   1.310   0.993  11.790
 1390SOL     OW 5610   0.665   1.626  11.331
 1390SOL    HW1 5611   0.733   1.590  11.275
 1390SOL    HW2 5612   0.595   1.561  11.329
 1391SOL     OW 5613   1.637   1.868   0.099
 1391SOL    HW1 5614   1.635   1.799   0.033
 1391SOL    HW2 5615   1.701   1.931   0.066
 1392SOL     OW 5616   1.853   0.179  12.119
 1392SOL    HW1 5617   1.850   0.087  12.146
 1392SOL    HW2 5618   1.766   0.196  12.083
 1393SOL     OW 5619   0.248   0.315  11.874
 1393SOL    HW1 5620   0.166   0.363  11.865
 1393SOL    HW2 5621   0.256   0.298  11.968
 1394SOL     OW 5622   1.208   1.598  11.205
 1394SOL    HW1 5623   1.193   1.510  11.238
 1394SOL    HW2 5624   1.142   1.610  11.137
 1395SOL     OW 5625   0.794   1.043  12.484
 1395SOL    HW1 5626   0.836   1.092  12.413
 1395SOL    HW2 5627   0.863   1.034  12.550
 1396SOL     OW 5628   0.899   0.896  11.456
 1396SOL    HW1 5629   0.956   0.937  11.390
 1396SOL    HW2 5630   0.958   0.839  11.506
 1397SOL     OW 5631   1.487   1.633  11.217
 1397SOL    HW1 5632   1.393   1.616  11.204
 1397SOL    HW2 5633   1.523   1.636  11.129
 1398SOL     OW 5634   1.060   1.109  11.881
 1398SOL    HW1 5635   0.991   1.056  11.921
 1398SOL    HW2 5636   1.129   1.046  11.861
 1399SOL     OW 5637   1.038   0.258  12.116
 1399SOL    HW1 5638   1.013   0.209  12.037
 1399SOL    HW2 5639   1.048   0.191  12.184
 1400SOL     OW 5640   0.554   1.452  11.632
 1400SOL    HW1 5641   0.622   1.407  11.583
 1400SOL    HW2 5642   0.550   1.540  11.594
 1401SOL     OW 5643   1.687   0.388   0.033
 1401SOL    HW1 5644   1.722   0.453   0.094
 1401SOL    HW2 5645   1.765   0.347  -0.005
 1402SOL     OW 5646   0.243   1.354  11.449
 1402SOL    HW1 5647   0.149   1.342  11.441
 1402SOL    HW2 5648   0.256   1.393  11.536
 1403SOL     OW 5649   0.043   0.355  11.157
 1403SOL    HW1 5650   0.003   0.409  11.225
 1403SOL    HW2 5651   0.088   0.418  11.100
 1404SOL     OW 5652   0.125   0.267  11.489
 1404SOL    HW1 5653   0.089   0.211  11.419
 1404SOL    HW2 5654   0.120   0.213  11.567
 1405SOL     OW 5655   1.450   1.805  12.111
 1405SOL    HW1 5656   1.494   1.875  12.063
 1405SOL    HW2 5657   1.517   1.768  12.168
 1406SOL     OW 5658   1.699   0.887  12.402
 1406SOL    HW1 5659   1.653   0.816  12.357
 1406SOL    HW2 5660   1.672   0.966  12.355
 1407SOL     OW 5661   1.217   0.319  11.623
 1407SOL    HW1 5662   1.281   0.249  11.617
 1407SOL    HW2 5663   1.241   0.367  11.702
 1408SOL     OW 5664   0.601   0.723  11.842
 1408SOL    HW1 5665   0.638   0.811  11.842
 1408SOL    HW2 5666   0.530   0.727  11.777
 1409SOL     OW 5667   1.784   0.856   0.160
 1409SOL    HW1 5668   1.812   0.942   0.191
 1409SOL    HW2 5669   1.744   0.873   0.075
 1410SOL     OW 5670   0.806   1.397  11.214
 1410SOL    HW1 5671   0.830   1.372  11.303
 1410SOL    HW2 5672   0.888   1.424  11.173
 1411SOL     OW 5673   0.661   1.791  12.118
 1411SOL    HW1 5674   0.645   1.878  12.082
 1411SOL    HW2 5675   0.753   1.774  12.101
 1412SOL     OW 5676   0.871   0.966  12.023
 1412SOL    HW1 5677   0.919   0.897  12.067
 1412SOL    HW2 5678   0.832   1.018  12.094
 1413SOL     OW 5679   1.050   0.992  11.253
 1413SOL    HW1 5680   1.077   1.084  11.261
 1413SOL    HW2 5681   1.128   0.947  11.222
 1414SOL     OW 5682   1.853   1.559  12.023
 1414SOL    HW1 5683   1.769   1.557  11.977
 1414SOL    HW2 5684   1.835   1.518  12.107
 1415SOL     OW 5685   0.124   1.222  11.815
 1415SOL    HW1 5686   0.041   1.202  11.858
 1415SOL    HW2 5687   0.188   1.165  11.856
 1416SOL     OW 5688   1.874   0.240  12.400
 1416SOL    HW1 5689   1.839   0.152  12.414
 1416SOL    HW2 5690   1.865   0.255  12.306
 1417SOL     OW 5691   0.415   0.434  11.682
 1417SOL    HW1 5692   0.491   0.378  11.694
 1417SOL    HW2 5693   0.352   0.403  11.747
 1418SOL     OW 5694   1.700   1.396  12.280
 1418SOL    HW1 5695   1.677   1.489  12.280
 1418SOL    HW2 5696   1.753   1.385  12.359
 1419SOL     OW 5697   0.812   1.584  11.861
 1419SOL    HW1 5698   0.867   1.543  11.794
 1419SOL    HW2 5699   0.737   1.526  11.869
 1420SOL     OW 5700   1.439   0.212  12.290
 1420SOL    HW1 5701   1.509   0.161  12.330
 1420SOL    HW2 5702   1.394   0.253  12.364
 1421SOL     OW 5703   1.055   0.077  12.308
 1421SOL    HW1 5704   0.990   0.051  12.373
 1421SOL    HW2 5705   1.116   0.004  12.304
 1422SOL     OW 5706   0.764   1.327  11.503
 1422SOL    HW1 5707   0.756   1.233  11.517
 1422SOL    HW2 5708   0.839   1.353  11.557
 1423SOL     OW 5709   1.377   7.994  11.340
 1423SOL    HW1 5710   1.420   7.910  11.328
 1423SOL    HW2 5711   1.286   7.972  11.360
 1424SOL     OW 5712   1.285   0.453  11.849
 1424SOL    HW1 5713   1.254   0.543  11.852
 1424SOL    HW2 5714   1.291   0.427  11.941
 1425SOL     OW 5715   1.606   0.231  12.030
 1425SOL    HW1 5716   1.532   0.224  12.091
 1425SOL    HW2 5717   1.597   0.319  11.992
 1426SOL     OW 5718   0.055   1.076  11.470
 1426SOL    HW1 5719   0.134   1.033  11.437
 1426SOL    HW2 5720   0.064   1.074  11.565
 1427SOL     OW 5721   0.899   1.667  11.498
 1427SOL    HW1 5722   0.817   1.644  11.453
 1427SOL    HW2 5723   0.875   1.738  11.557
 1428SOL     OW 5724   0.258   2.480   0.058
 1428SOL    HW1 5725   0.217   2.515   0.137
 1428SOL    HW2 5726   0.210   2.400   0.039
 1429SOL     OW 5727   0.222   2.135   0.994
 1429SOL    HW1 5728   0.280   2.106   1.065
 1429SOL    HW2 5729   0.135   2.104   1.020
 1430SOL     OW 5730   0.022   2.268   0.612
 1430SOL    HW1 5731  -0.020   2.271   0.699
 1430SOL    HW2 5732   0.001   2.181   0.578
 1431SOL     OW 5733   0.574   3.166   1.194
 1431SOL    HW1 5734   0.488   3.170   1.152
 1431SOL    HW2 5735   0.592   3.256   1.221
 1432SOL     OW 5736   1.570   3.378   0.719
 1432SOL    HW1 5737   1.539   3.362   0.808
 1432SOL    HW2 5738   1.491   3.376   0.665
 1433SOL     OW 5739   1.135   2.569   0.703
 1433SOL    HW1 5740   1.173   2.655   0.683
 1433SOL    HW2 5741   1.085   2.583   0.783
 1434SOL     OW 5742   1.707   2.460   0.255
 1434SOL    HW1 5743   1.706   2.527   0.187
 1434SOL    HW2 5744   1.733   2.380   0.210
 1435SOL     OW 5745   0.738   2.997   1.047
 1435SOL    HW1 5746   0.674   3.032   1.109
 1435SOL    HW2 5747   0.780   3.074   1.009
 1436SOL     OW 5748   0.789   2.677   1.801
 1436SOL    HW1 5749   0.841   2.626   1.863
 1436SOL    HW2 5750   0.851   2.702   1.733
 1437SOL     OW 5751   0.686   2.857   0.647
 1437SOL    HW1 5752   0.752   2.852   0.716
 1437SOL    HW2 5753   0.617   2.913   0.684
 1438SOL     OW 5754   0.715   3.017   1.808
 1438SOL    HW1 5755   0.751   3.098   1.843
 1438SOL    HW2 5756   0.628   3.041   1.775
 1439SOL     OW 5757   0.339   3.291   1.084
 1439SOL    HW1 5758   0.258   3.251   1.054
 1439SOL    HW2 5759   0.375   3.333   1.006
 1440SOL     OW 5760   1.462   3.364   1.365
 1440SOL    HW1 5761   1.520   3.440   1.371
 1440SOL    HW2 5762   1.397   3.378   1.433
 1441SOL     OW 5763   1.612   2.320   0.740
 1441SOL    HW1 5764   1.570   2.349   0.659
 1441SOL    HW2 5765   1.667   2.394   0.765
 1442SOL     OW 5766   0.225   3.573   0.490
 1442SOL    HW1 5767   0.246   3.651   0.542
 1442SOL    HW2 5768   0.300   3.562   0.432
 1443SOL     OW 5769   1.134   3.202   1.696
 1443SOL    HW1 5770   1.174   3.196   1.782
 1443SOL    HW2 5771   1.080   3.123   1.689
 1444SOL     OW 5772   0.292   3.304   0.537
 1444SOL    HW1 5773   0.270   3.390   0.572
 1444SOL    HW2 5774   0.238   3.243   0.588
 1445SOL     OW 5775   0.264   2.962   0.889
 1445SOL    HW1 5776   0.237   2.878   0.926
 1445SOL    HW2 5777   0.201   3.025   0.925
 1446SOL     OW 5778   0.594   3.665   1.420
 1446SOL    HW1 5779   0.525   3.642   1.481
 1446SOL    HW2 5780   0.626   3.750   1.450
 1447SOL     OW 5781   0.569   2.907   0.130
 1447SOL    HW1 5782   0.639   2.899   0.066
 1447SOL    HW2 5783   0.614   2.910   0.215
 1448SOL     OW 5784   0.143   2.510   0.540
 1448SOL    HW1 5785   0.107   2.424   0.561
 1448SOL    HW2 5786   0.121   2.565   0.615
 1449SOL     OW 5787   1.845   3.618   0.329
 1449SOL    HW1 5788   1.918   3.589   0.383
 1449SOL    HW2 5789   1.867   3.708   0.304
 1450SOL     OW 5790   0.050   3.413   0.104
 1450SOL    HW1 5791   0.036   3.342   0.167
 1450SOL    HW2 5792   0.075   3.488   0.158
 1451SOL     OW 5793   1.665   2.782   0.663
 1451SOL    HW1 5794   1.744   2.735   0.636
 1451SOL    HW2 5795   1.647   2.842   0.591
 1452SOL     OW 5796   1.639   2.973   0.460
 1452SOL    HW1 5797   1.715   2.973   0.402
 1452SOL    HW2 5798   1.661   3.037   0.528
 1453SOL     OW 5799   0.148   2.634   1.566
 1453SOL    HW1 5800   0.243   2.630   1.570
 1453SOL    HW2 5801   0.126   2.718   1.607
 1454SOL     OW 5802   0.624   3.253   0.736
 1454SOL    HW1 5803   0.577   3.170   0.747
 1454SOL    HW2 5804   0.609   3.278   0.645
 1455SOL     OW 5805   1.290   3.085   1.420
 1455SOL    HW1 5806   1.362   3.051   1.368
 1455SOL    HW2 5807   1.326   3.092   1.509
 1456SOL     OW 5808   0.800   1.939   0.420
 1456SOL    HW1 5809   0.864   2.002   0.454
 1456SOL    HW2 5810   0.806   1.864   0.478
 1457SOL     OW 5811   0.176   2.792   1.267
 1457SOL    HW1 5812   0.265   2.760   1.259
 1457SOL    HW2 5813   0.142   2.793   1.178
 1458SOL     OW 5814   1.472   2.885   0.221
 1458SOL    HW1 5815   1.409   2.828   0.266
 1458SOL    HW2 5816   1.557   2.847   0.240
 1459SOL     OW 5817   1.171   3.679   1.626
 1459SOL    HW1 5818   1.182   3.745   1.557
 1459SOL    HW2 5819   1.202   3.598   1.587
 1460SOL     OW 5820   0.369   2.183   1.825
 1460SOL    HW1 5821   0.402   2.240   1.893
 1460SOL    HW2 5822   0.275   2.177   1.842
 1461SOL     OW 5823   1.469   3.278   0.957
 1461SOL    HW1 5824   1.401   3.293   1.022
 1461SOL    HW2 5825   1.449   3.192   0.921
 1462SOL     OW 5826   1.635   3.628   0.581
 1462SOL    HW1 5827   1.644   3.581   0.498
 1462SOL    HW2 5828   1.630   3.559   0.648
 1463SOL     OW 5829   0.536   2.611   0.232
 1463SOL    HW1 5830   0.628   2.636   0.230
 1463SOL    HW2 5831   0.517   2.599   0.325
 1464SOL     OW 5832   1.272   2.237   0.936
 1464SOL    HW1 5833   1.183   2.202   0.944
 1464SOL    HW2 5834   1.327   2.177   0.986
 1465SOL     OW 5835   1.590   3.535   0.312
 1465SOL    HW1 5836   1.685   3.549   0.317
 1465SOL    HW2 5837   1.569   3.551   0.220
 1466SOL     OW 5838   0.785   2.473   1.444
 1466SOL    HW1 5839   0.765   2.452   1.535
 1466SOL    HW2 5840   0.736   2.408   1.393
 1467SOL     OW 5841   1.409   2.336   1.680
 1467SOL    HW1 5842   1.400   2.381   1.765
 1467SOL    HW2 5843   1.442   2.249   1.703
 1468SOL     OW 5844   0.957   2.750   1.583
 1468SOL    HW1 5845   1.012   2.679   1.549
 1468SOL    HW2 5846   0.910   2.783   1.506
 1469SOL     OW 5847   1.008   2.277   1.224
 1469SOL    HW1 5848   0.935   2.297   1.282
 1469SOL    HW2 5849   0.974   2.213   1.162
 1470SOL     OW 5850   1.077   2.564   0.422
 1470SOL    HW1 5851   1.060   2.557   0.516
 1470SOL    HW2 5852   0.998   2.604   0.386
 1471SOL     OW 5853   0.088   2.664   0.762
 1471SOL    HW1 5854   0.162   2.679   0.822
 1471SOL    HW2 5855   0.040   2.747   0.763
 1472SOL     OW 5856   0.126   3.708   1.593
 1472SOL    HW1 5857   0.127   3.665   1.678
 1472SOL    HW2 5858   0.064   3.658   1.541
 1473SOL     OW 5859   0.871   2.205   0.204
 1473SOL    HW1 5860   0.911   2.262   0.138
 1473SOL    HW2 5861   0.884   2.117   0.169
 1474SOL     OW 5862   1.723   2.430   1.814
 1474SOL    HW1 5863   1.661   2.495   1.782
 1474SOL    HW2 5864   1.808   2.460   1.784
 1475SOL     OW 5865   1.374   2.999   0.524
 1475SOL    HW1 5866   1.461   2.986   0.485
 1475SOL    HW2 5867   1.329   3.059   0.465
 1476SOL     OW 5868   0.558   2.060   0.889
 1476SOL    HW1 5869   0.568   2.071   0.983
 1476SOL    HW2 5870   0.555   2.150   0.854
 1477SOL     OW 5871   1.011   3.309   0.480
 1477SOL    HW1 5872   0.953   3.379   0.450
 1477SOL    HW2 5873   0.998   3.306   0.575
 1478SOL     OW 5874   0.356   3.680   0.865
 1478SOL    HW1 5875   0.402   3.597   0.875
 1478SOL    HW2 5876   0.421   3.746   0.891
 1479SOL     OW 5877   1.789   2.923   0.897
 1479SOL    HW1 5878   1.749   2.904   0.812
 1479SOL    HW2 5879   1.718   2.916   0.960
 1480SOL     OW 5880   1.227   3.401   1.515
 1480SOL    HW1 5881   1.214   3.331   1.580
 1480SOL    HW2 5882   1.151   3.395   1.458
 1481SOL     OW 5883   0.333   2.815   0.252
 1481SOL    HW1 5884   0.392   2.872   0.203
 1481SOL    HW2 5885   0.368   2.727   0.240
 1482SOL     OW 5886   1.462   2.661   0.800
 1482SOL    HW1 5887   1.485   2.568   0.808
 1482SOL    HW2 5888   1.538   2.702   0.760
 1483SOL     OW 5889   0.468   3.136   1.740
 1483SOL    HW1 5890   0.437   3.142   1.650
 1483SOL    HW2 5891   0.400   3.085   1.785
 1484SOL     OW 5892   0.231   2.163   1.505
 1484SOL    HW1 5893   0.165   2.222   1.470
 1484SOL    HW2 5894   0.181   2.092   1.545
 1485SOL     OW 5895   0.456   3.590   0.329
 1485SOL    HW1 5896   0.502   3.646   0.391
 1485SOL    HW2 5897   0.524   3.551   0.275
 1486SOL     OW 5898   0.256   3.661   1.211
 1486SOL    HW1 5899   0.295   3.583   1.251
 1486SOL    HW2 5900   0.225   3.632   1.126
 1487SOL     OW 5901   0.937   3.566   0.912
 1487SOL    HW1 5902   1.018   3.522   0.937
 1487SOL    HW2 5903   0.905   3.516   0.837
 1488SOL     OW 5904   0.415   2.537   0.475
 1488SOL    HW1 5905   0.434   2.444   0.474
 1488SOL    HW2 5906   0.323   2.543   0.502
 1489SOL     OW 5907   1.491   2.058   1.703
 1489SOL    HW1 5908   1.515   2.074   1.794
 1489SOL    HW2 5909   1.416   1.999   1.708
 1490SOL     OW 5910   0.624   1.999   0.148
 1490SOL    HW1 5911   0.717   1.975   0.147
 1490SOL    HW2 5912   0.580   1.927   0.104
 1491SOL     OW 5913   0.738   2.114   1.761
 1491SOL    HW1 5914   0.824   2.071   1.756
 1491SOL    HW2 5915   0.747   2.174   1.835
 1492SOL     OW 5916   0.879   3.380   1.196
 1492SOL    HW1 5917   0.858   3.342   1.110
 1492SOL    HW2 5918   0.949   3.323   1.230
 1493SOL     OW 5919   1.345   2.448   1.438
 1493SOL    HW1 5920   1.376   2.418   1.523
 1493SOL    HW2 5921   1.378   2.538   1.431
 1494SOL     OW 5922   0.823   3.244   0.953
 1494SOL    HW1 5923   0.909   3.238   0.912
 1494SOL    HW2 5924   0.762   3.254   0.879
 1495SOL     OW 5925   0.937   2.385   0.901
 1495SOL    HW1 5926   0.909   2.373   0.810
 1495SOL    HW2 5927   0.962   2.297   0.930
 1496SOL     OW 5928   0.511   1.987   0.469
 1496SOL    HW1 5929   0.438   1.964   0.526
 1496SOL    HW2 5930   0.588   1.983   0.526
 1497SOL     OW 5931   1.501   3.094   0.047
 1497SOL    HW1 5932   1.495   3.035   0.122
 1497SOL    HW2 5933   1.447   3.052  -0.020
 1498SOL     OW 5934   0.316   1.950   0.189
 1498SOL    HW1 5935   0.401   1.995   0.195
 1498SOL    HW2 5936   0.331   1.865   0.231
 1499SOL     OW 5937   0.973   2.148   0.463
 1499SOL    HW1 5938   0.957   2.171   0.371
 1499SOL    HW2 5939   1.069   2.144   0.470
 1500SOL     OW 5940   1.083   2.540   1.453
 1500SOL    HW1 5941   1.026   2.479   1.499
 1500SOL    HW2 5942   1.170   2.499   1.456
 1501SOL     OW 5943   1.235   3.428   0.785
 1501SOL    HW1 5944   1.237   3.500   0.722
 1501SOL    HW2 5945   1.287   3.460   0.859
 1502SOL     OW 5946   0.476   3.019   0.728
 1502SOL    HW1 5947   0.408   3.000   0.793
 1502SOL    HW2 5948   0.433   3.003   0.644
 1503SOL     OW 5949   1.262   3.645   0.593
 1503SOL    HW1 5950   1.317   3.719   0.567
 1503SOL    HW2 5951   1.186   3.684   0.634
 1504SOL     OW 5952   1.046   2.379   0.035
 1504SOL    HW1 5953   1.013   2.469   0.027
 1504SOL    HW2 5954   1.094   2.378   0.117
 1505SOL     OW 5955   0.133   2.417   1.393
 1505SOL    HW1 5956   0.221   2.420   1.357
 1505SOL    HW2 5957   0.124   2.498   1.443
 1506SOL     OW 5958   0.578   2.067   1.166
 1506SOL    HW1 5959   0.616   1.986   1.199
 1506SOL    HW2 5960   0.488   2.066   1.198
 1507SOL     OW 5961   0.863   2.334   0.643
 1507SOL    HW1 5962   0.800   2.374   0.583
 1507SOL    HW2 5963   0.902   2.263   0.593
 1508SOL     OW 5964   1.042   1.907   0.764
 1508SOL    HW1 5965   0.984   1.870   0.697
 1508SOL    HW2 5966   1.028   1.851   0.841
 1509SOL     OW 5967   1.455   3.031   0.836
 1509SOL    HW1 5968   1.381   2.999   0.783
 1509SOL    HW2 5969   1.524   3.048   0.772
 1510SOL     OW 5970   1.418   2.470   1.018
 1510SOL    HW1 5971   1.383   2.382   1.001
 1510SOL    HW2 5972   1.496   2.455   1.072
 1511SOL     OW 5973   1.824   2.690   0.433
 1511SOL    HW1 5974   1.875   2.619   0.473
 1511SOL    HW2 5975   1.783   2.650   0.356
 1512SOL     OW 5976   0.475   3.271   0.161
 1512SOL    HW1 5977   0.420   3.211   0.211
 1512SOL    HW2 5978   0.414   3.317   0.103
 1513SOL     OW 5979   1.682   3.123   0.679
 1513SOL    HW1 5980   1.778   3.116   0.682
 1513SOL    HW2 5981   1.665   3.218   0.682
 1514SOL     OW 5982   1.382   2.456   0.069
 1514SOL    HW1 5983   1.392   2.395   0.141
 1514SOL    HW2 5984   1.466   2.454   0.024
 1515SOL     OW 5985   1.746   3.105   1.572
 1515SOL    HW1 5986   1.832   3.072   1.547
 1515SOL    HW2 5987   1.762   3.197   1.595
 1516SOL     OW 5988   1.065   3.200   1.317
 1516SOL    HW1 5989   0.985   3.177   1.365
 1516SOL    HW2 5990   1.136   3.160   1.367
 1517SOL     OW 5991   1.605   3.490   1.655
 1517SOL    HW1 5992   1.599   3.527   1.567
 1517SOL    HW2 5993   1.687   3.441   1.655
 1518SOL     OW 5994   1.136   3.043   1.094
 1518SOL    HW1 5995   1.098   3.090   1.168
 1518SOL    HW2 5996   1.114   3.097   1.018
 1519SOL     OW 5997   1.573   2.947   1.075
 1519SOL    HW1 5998   1.583   3.016   1.141
 1519SOL    HW2 5999   1.535   2.992   0.999
 1520SOL     OW 6000   0.906   1.979   1.369
 1520SOL    HW1 6001   0.931   1.937   1.287
 1520SOL    HW2 6002   0.990   2.004   1.409
 1521SOL     OW 6003   0.976   2.978   1.723
 1521SOL    HW1 6004   0.885   2.987   1.751
 1521SOL    HW2 6005   0.978   2.898   1.671
 1522SOL     OW 6006   0.716   2.924   0.373
 1522SOL    HW1 6007   0.701   2.905   0.465
 1522SOL    HW2 6008   0.767   2.849   0.341
 1523SOL     OW 6009   0.429   2.682   1.251
 1523SOL    HW1 6010   0.493   2.697   1.321
 1523SOL    HW2 6011   0.404   2.590   1.260
 1524SOL     OW 6012   1.273   2.238   1.277
 1524SOL    HW1 6013   1.303   2.314   1.328
 1524SOL    HW2 6014   1.184   2.260   1.251
 1525SOL     OW 6015   0.081   3.485   1.395
 1525SOL    HW1 6016   0.038   3.525   1.320
 1525SOL    HW2 6017   0.133   3.414   1.359
 1526SOL     OW 6018   0.351   2.971   0.488
 1526SOL    HW1 6019   0.329   3.045   0.431
 1526SOL    HW2 6020   0.361   2.897   0.428
 1527SOL     OW 6021   0.554   2.380   0.849
 1527SOL    HW1 6022   0.568   2.446   0.781
 1527SOL    HW2 6023   0.616   2.404   0.919
 1528SOL     OW 6024   1.244   3.207   0.378
 1528SOL    HW1 6025   1.299   3.282   0.398
 1528SOL    HW2 6026   1.162   3.224   0.426
 1529SOL     OW 6027   1.290   3.322   1.161
 1529SOL    HW1 6028   1.354   3.334   1.230
 1529SOL    HW2 6029   1.218   3.274   1.202
 1530SOL     OW 6030   1.577   2.457   0.494
 1530SOL    HW1 6031   1.532   2.541   0.493
 1530SOL    HW2 6032   1.631   2.458   0.415
 1531SOL     OW 6033   0.361   3.408   1.322
 1531SOL    HW1 6034   0.340   3.362   1.240
 1531SOL    HW2 6035   0.456   3.416   1.321
 1532SOL     OW 6036   0.425   2.608   1.613
 1532SOL    HW1 6037   0.489   2.647   1.553
 1532SOL    HW2 6038   0.474   2.541   1.660
 1533SOL     OW 6039   1.614   2.648   1.699
 1533SOL    HW1 6040   1.527   2.686   1.694
 1533SOL    HW2 6041   1.663   2.691   1.629
 1534SOL     OW 6042   0.989   2.002   1.748
 1534SOL    HW1 6043   1.054   2.069   1.730
 1534SOL    HW2 6044   1.038   1.920   1.748
 1535SOL     OW 6045   0.472   1.920   1.727
 1535SOL    HW1 6046   0.445   1.849   1.667
 1535SOL    HW2 6047   0.406   1.919   1.796
 1536SOL     OW 6048   0.595   2.730   1.035
 1536SOL    HW1 6049   0.623   2.822   1.034
 1536SOL    HW2 6050   0.534   2.725   1.109
 1537SOL     OW 6051   1.167   2.356   0.275
 1537SOL    HW1 6052   1.206   2.296   0.338
 1537SOL    HW2 6053   1.141   2.432   0.328
 1538SOL     OW 6054   0.319   2.058   1.249
 1538SOL    HW1 6055   0.290   2.091   1.334
 1538SOL    HW2 6056   0.297   1.965   1.251
 1539SOL     OW 6057   0.007   3.197   1.321
 1539SOL    HW1 6058   0.060   3.128   1.361
 1539SOL    HW2 6059   0.021   3.186   1.227
 1540SOL     OW 6060   0.715   2.477   1.051
 1540SOL    HW1 6061   0.797   2.468   1.003
 1540SOL    HW2 6062   0.689   2.568   1.038
 1541SOL     OW 6063   1.745   2.824   1.877
 1541SOL    HW1 6064   1.705   2.763   1.816
 1541SOL    HW2 6065   1.678   2.838   1.944
 1542SOL     OW 6066   0.306   1.930   0.641
 1542SOL    HW1 6067   0.287   2.020   0.665
 1542SOL    HW2 6068   0.320   1.886   0.725
 1543SOL     OW 6069   1.534   2.166   0.427
 1543SOL    HW1 6070   1.615   2.133   0.465
 1543SOL    HW2 6071   1.543   2.262   0.431
 1544SOL     OW 6072   1.073   2.608   0.981
 1544SOL    HW1 6073   1.039   2.628   1.068
 1544SOL    HW2 6074   1.033   2.523   0.960
 1545SOL     OW 6075   0.979   3.427   1.726
 1545SOL    HW1 6076   0.967   3.472   1.642
 1545SOL    HW2 6077   1.020   3.344   1.703
 1546SOL     OW 6078   1.847   3.365   1.599
 1546SOL    HW1 6079   1.873   3.388   1.510
 1546SOL    HW2 6080   1.926   3.379   1.651
 1547SOL     OW 6081   0.375   2.830   1.789
 1547SOL    HW1 6082   0.439   2.826   1.860
 1547SOL    HW2 6083   0.389   2.749   1.740
 1548SOL     OW 6084   1.460   2.167   0.113
 1548SOL    HW1 6085   1.448   2.088   0.167
 1548SOL    HW2 6086   1.554   2.181   0.112
 1549SOL     OW 6087   1.256   2.689   0.028
 1549SOL    HW1 6088   1.293   2.601   0.036
 1549SOL    HW2 6089   1.329   2.745   0.002
 1550SOL     OW 6090   1.077   3.208   0.864
 1550SOL    HW1 6091   1.078   3.137   0.799
 1550SOL    HW2 6092   1.136   3.274   0.828
 1551SOL     OW 6093   0.310   2.663   0.932
 1551SOL    HW1 6094   0.402   2.689   0.934
 1551SOL    HW2 6095   0.311   2.573   0.966
 1552SOL     OW 6096   0.333   2.384   1.003
 1552SOL    HW1 6097   0.289   2.300   0.990
 1552SOL    HW2 6098   0.407   2.382   0.943
 1553SOL     OW 6099   1.157   2.216   1.664
 1553SOL    HW1 6100   1.091   2.266   1.711
 1553SOL    HW2 6101   1.237   2.268   1.673
 1554SOL     OW 6102   1.158   2.052   1.450
 1554SOL    HW1 6103   1.155   2.106   1.529
 1554SOL    HW2 6104   1.200   2.107   1.385
 1555SOL     OW 6105   7.996   3.161   0.213
 1555SOL    HW1 6106   7.904   3.178   0.234
 1555SOL    HW2 6107   8.009   3.069   0.236
 1556SOL     OW 6108   0.099   3.620   0.949
 1556SOL    HW1 6109   0.097   3.526   0.932
 1556SOL    HW2 6110   0.181   3.649   0.910
 1557SOL     OW 6111   0.489   3.440   0.895
 1557SOL    HW1 6112   0.559   3.501   0.920
 1557SOL    HW2 6113   0.533   3.373   0.843
 1558SOL     OW 6114   0.968   2.642   1.227
 1558SOL    HW1 6115   1.023   2.614   1.299
 1558SOL    HW2 6116   0.879   2.617   1.253
 1559SOL     OW 6117   0.061   2.397   1.118
 1559SOL    HW1 6118   0.156   2.392   1.123
 1559SOL    HW2 6119   0.032   2.403   1.209
 1560SOL     OW 6120   0.179   2.405   1.709
 1560SOL    HW1 6121   0.206   2.343   1.642
 1560SOL    HW2 6122   0.153   2.483   1.661
 1561SOL     OW 6123   1.386   2.791   1.653
 1561SOL    HW1 6124   1.407   2.885   1.651
 1561SOL    HW2 6125   1.378   2.766   1.561
 1562SOL     OW 6126   0.754   2.396   0.366
 1562SOL    HW1 6127   0.826   2.354   0.319
 1562SOL    HW2 6128   0.761   2.488   0.343
 1563SOL     OW 6129   1.647   2.461   1.174
 1563SOL    HW1 6130   1.638   2.403   1.249
 1563SOL    HW2 6131   1.736   2.446   1.142
 1564SOL     OW 6132   0.649   2.318   1.264
 1564SOL    HW1 6133   0.638   2.228   1.232
 1564SOL    HW2 6134   0.672   2.369   1.187
 1565SOL     OW 6135   0.922   3.538   1.473
 1565SOL    HW1 6136   0.897   3.502   1.388
 1565SOL    HW2 6137   0.920   3.633   1.460
 1566SOL     OW 6138   0.479   2.342   0.191
 1566SOL    HW1 6139   0.510   2.432   0.202
 1566SOL    HW2 6140   0.402   2.351   0.135
 1567SOL     OW 6141   0.157   2.998   1.448
 1567SOL    HW1 6142   0.138   2.955   1.532
 1567SOL    HW2 6143   0.164   2.926   1.385
 1568SOL     OW 6144   1.320   2.843   1.135
 1568SOL    HW1 6145   1.404   2.889   1.130
 1568SOL    HW2 6146   1.254   2.911   1.132
 1569SOL     OW 6147   1.285   2.706   0.312
 1569SOL    HW1 6148   1.218   2.661   0.362
 1569SOL    HW2 6149   1.269   2.680   0.221
 1570SOL     OW 6150   1.781   3.612   1.157
 1570SOL    HW1 6151   1.843   3.632   1.086
 1570SOL    HW2 6152   1.752   3.523   1.138
 1571SOL     OW 6153   1.234   3.583   1.081
 1571SOL    HW1 6154   1.318   3.616   1.050
 1571SOL    HW2 6155   1.254   3.496   1.115
 1572SOL     OW 6156   0.687   3.534   1.742
 1572SOL    HW1 6157   0.633   3.612   1.730
 1572SOL    HW2 6158   0.766   3.551   1.692
 1573SOL     OW 6159   0.902   1.940   0.132
 1573SOL    HW1 6160   0.991   1.966   0.111
 1573SOL    HW2 6161   0.909   1.896   0.217
 1574SOL     OW 6162   1.752   2.010   0.503
 1574SOL    HW1 6163   1.822   2.008   0.439
 1574SOL    HW2 6164   1.777   1.943   0.568
 1575SOL     OW 6165   1.349   3.455   0.422
 1575SOL    HW1 6166   1.437   3.476   0.391
 1575SOL    HW2 6167   1.333   3.517   0.493
 1576SOL     OW 6168   0.198   3.569   1.841
 1576SOL    HW1 6169   0.126   3.530   1.891
 1576SOL    HW2 6170   0.234   3.636   1.899
 1577SOL     OW 6171   1.267   2.808   0.680
 1577SOL    HW1 6172   1.344   2.758   0.707
 1577SOL    HW2 6173   1.300   2.868   0.612
 1578SOL     OW 6174   0.807   3.143   1.412
 1578SOL    HW1 6175   0.778   3.185   1.493
 1578SOL    HW2 6176   0.734   3.156   1.351
 1579SOL     OW 6177   0.665   3.461   0.183
 1579SOL    HW1 6178   0.734   3.427   0.126
 1579SOL    HW2 6179   0.599   3.391   0.183
 1580SOL     OW 6180   1.618   3.592   1.389
 1580SOL    HW1 6181   1.674   3.596   1.312
 1580SOL    HW2 6182   1.602   3.683   1.413
 1581SOL     OW 6183   1.827   2.042   0.989
 1581SOL    HW1 6184   1.862   1.956   0.963
 1581SOL    HW2 6185   1.745   2.050   0.939
 1582SOL     OW 6186   0.270   2.186   0.722
 1582SOL    HW1 6187   0.189   2.225   0.691
 1582SOL    HW2 6188   0.255   2.169   0.815
 1583SOL     OW 6189   1.235   3.451   0.087
 1583SOL    HW1 6190   1.201   3.362   0.078
 1583SOL    HW2 6191   1.208   3.495   0.006
 1584SOL     OW 6192   0.824   2.871   1.374
 1584SOL    HW1 6193   0.867   2.868   1.288
 1584SOL    HW2 6194   0.820   2.964   1.396
 1585SOL     OW 6195   1.499   3.415   0.029
 1585SOL    HW1 6196   1.412   3.433   0.065
 1585SOL    HW2 6197   1.538   3.501   0.015
 1586SOL     OW 6198   0.348   3.188   1.508
 1586SOL    HW1 6199   0.353   3.247   1.433
 1586SOL    HW2 6200   0.285   3.121   1.483
 1587SOL     OW 6201   1.582   3.130   1.276
 1587SOL    HW1 6202   1.672   3.132   1.310
 1587SOL    HW2 6203   1.541   3.208   1.312
 1588SOL     OW 6204   1.055   2.986   0.710
 1588SOL    HW1 6205   0.985   2.934   0.751
 1588SOL    HW2 6206   1.122   2.921   0.686
 1589SOL     OW 6207   1.024   2.110   0.961
 1589SOL    HW1 6208   1.023   2.063   0.878
 1589SOL    HW2 6209   1.020   2.041   1.027
 1590SOL     OW 6210   0.609   3.340   0.479
 1590SOL    HW1 6211   0.652   3.294   0.407
 1590SOL    HW2 6212   0.518   3.349   0.451
 1591SOL     OW 6213   1.717   2.249   1.371
 1591SOL    HW1 6214   1.791   2.308   1.381
 1591SOL    HW2 6215   1.748   2.181   1.311
 1592SOL     OW 6216   0.265   3.167   0.307
 1592SOL    HW1 6217   0.175   3.174   0.275
 1592SOL    HW2 6218   0.268   3.225   0.383
 1593SOL     OW 6219   0.116   2.871   1.693
 1593SOL    HW1 6220   0.059   2.931   1.740
 1593SOL    HW2 6221   0.196   2.866   1.746
 1594SOL     OW 6222   0.687   2.075   1.500
 1594SOL    HW1 6223   0.754   2.045   1.438
 1594SOL    HW2 6224   0.734   2.083   1.583
 1595SOL     OW 6225   0.115   2.254   0.006
 1595SOL    HW1 6226   0.048   2.257   0.074
 1595SOL    HW2 6227   0.069   2.224  -0.072
 1596SOL     OW 6228   1.413   2.717   1.388
 1596SOL    HW1 6229   1.360   2.756   1.318
 1596SOL    HW2 6230   1.503   2.724   1.357
 1597SOL     OW 6231   0.118   2.096   0.343
 1597SOL    HW1 6232   0.069   2.152   0.283
 1597SOL    HW2 6233   0.170   2.039   0.285
 1598SOL     OW 6234   1.132   3.203   0.124
 1598SOL    HW1 6235   1.124   3.112   0.095
 1598SOL    HW2 6236   1.178   3.197   0.208
 1599SOL     OW 6237   0.623   2.693   1.439
 1599SOL    HW1 6238   0.681   2.769   1.428
 1599SOL    HW2 6239   0.683   2.619   1.445
 1600SOL     OW 6240   1.483   3.640   0.972
 1600SOL    HW1 6241   1.503   3.723   0.928
 1600SOL    HW2 6242   1.561   3.622   1.024
 1601SOL     OW 6243   0.677   2.444   1.700
 1601SOL    HW1 6244   0.689   2.532   1.736
 1601SOL    HW2 6245   0.752   2.394   1.733
 1602SOL     OW 6246   1.474   3.055   1.633
 1602SOL    HW1 6247   1.465   3.069   1.727
 1602SOL    HW2 6248   1.565   3.076   1.614
 1603SOL     OW 6249   0.364   3.568   1.561
 1603SOL    HW1 6250   0.282   3.618   1.559
 1603SOL    HW2 6251   0.357   3.507   1.488
 1604SOL     OW 6252   1.652   2.738   1.257
 1604SOL    HW1 6253   1.666   2.652   1.217
 1604SOL    HW2 6254   1.651   2.798   1.183
 1605SOL     OW 6255   1.255   2.173   0.456
 1605SOL    HW1 6256   1.346   2.150   0.437
 1605SOL    HW2 6257   1.259   2.222   0.538
 1606SOL     OW 6258   0.595   2.591   0.676
 1606SOL    HW1 6259   0.629   2.680   0.665
 1606SOL    HW2 6260   0.532   2.581   0.604
 1607SOL     OW 6261   1.759   2.210   1.655
 1607SOL    HW1 6262   1.792   2.276   1.594
 1607SOL    HW2 6263   1.723   2.260   1.728
 1608SOL     OW 6264   1.741   2.799   1.516
 1608SOL    HW1 6265   1.741   2.894   1.527
 1608SOL    HW2 6266   1.728   2.786   1.422
 1609SOL     OW 6267   0.861   3.301   0.058
 1609SOL    HW1 6268   0.811   3.246   0.118
 1609SOL    HW2 6269   0.950   3.269   0.065
 1610SOL     OW 6270   0.664   3.645   0.928
 1610SOL    HW1 6271   0.650   3.739   0.916
 1610SOL    HW2 6272   0.759   3.636   0.936
 1611SOL     OW 6273   0.873   2.838   0.860
 1611SOL    HW1 6274   0.913   2.764   0.905
 1611SOL    HW2 6275   0.826   2.886   0.928
 1612SOL     OW 6276   1.117   2.943   0.057
 1612SOL    HW1 6277   1.148   2.904  -0.024
 1612SOL    HW2 6278   1.150   2.885   0.126
 1613SOL     OW 6279   1.867   3.405   0.847
 1613SOL    HW1 6280   1.781   3.390   0.807
 1613SOL    HW2 6281   1.884   3.325   0.897
 1614SOL     OW 6282   0.208   3.164   1.858
 1614SOL    HW1 6283   0.118   3.142   1.835
 1614SOL    HW2 6284   0.212   3.155   1.953
 1615SOL     OW 6285   0.127   3.116   0.641
 1615SOL    HW1 6286   0.059   3.096   0.705
 1615SOL    HW2 6287   0.185   3.039   0.641
 1616SOL     OW 6288   0.679   3.277   1.614
 1616SOL    HW1 6289   0.615   3.227   1.665
 1616SOL    HW2 6290   0.692   3.357   1.665
 1617SOL     OW 6291   1.785   2.013   1.259
 1617SOL    HW1 6292   1.824   1.926   1.265
 1617SOL    HW2 6293   1.793   2.037   1.167
 1618SOL     OW 6294   0.432   2.266   0.498
 1618SOL    HW1 6295   0.374   2.207   0.451
 1618SOL    HW2 6296   0.411   2.252   0.591
 1619SOL     OW 6297   1.689   3.365   1.106
 1619SOL    HW1 6298   1.616   3.331   1.056
 1619SOL    HW2 6299   1.726   3.288   1.150
 1620SOL     OW 6300   0.376   2.414   1.270
 1620SOL    HW1 6301   0.454   2.365   1.295
 1620SOL    HW2 6302   0.368   2.399   1.176
 1621SOL     OW 6303   0.835   3.436   0.688
 1621SOL    HW1 6304   0.804   3.502   0.625
 1621SOL    HW2 6305   0.762   3.375   0.697
 1622SOL     OW 6306   1.422   2.086   1.105
 1622SOL    HW1 6307   1.406   1.994   1.126
 1622SOL    HW2 6308   1.378   2.135   1.174
 1623SOL     OW 6309   1.016   1.889   1.128
 1623SOL    HW1 6310   0.963   1.822   1.084
 1623SOL    HW2 6311   1.100   1.846   1.143
 1624SOL     OW 6312   0.785   3.184   0.307
 1624SOL    HW1 6313   0.751   3.096   0.324
 1624SOL    HW2 6314   0.864   3.189   0.360
 1625SOL     OW 6315   0.628   3.427   1.286
 1625SOL    HW1 6316   0.628   3.512   1.330
 1625SOL    HW2 6317   0.717   3.416   1.254
 1626SOL     OW 6318   1.393   1.913   0.243
 1626SOL    HW1 6319   1.430   1.869   0.166
 1626SOL    HW2 6320   1.302   1.883   0.245
 1627SOL     OW 6321   1.271   2.328   0.676
 1627SOL    HW1 6322   1.220   2.408   0.683
 1627SOL    HW2 6323   1.277   2.295   0.766
 1628SOL     OW 6324   1.581   2.069   0.877
 1628SOL    HW1 6325   1.527   2.086   0.954
 1628SOL    HW2 6326   1.575   2.149   0.825
 1629SOL     OW 6327   0.056   2.914   0.296
 1629SOL    HW1 6328   0.151   2.902   0.297
 1629SOL    HW2 6329   0.031   2.914   0.388
 1630SOL     OW 6330   0.889   3.521   0.369
 1630SOL    HW1 6331   0.813   3.501   0.315
 1630SOL    HW2 6332   0.863   3.598   0.419
 1631SOL     OW 6333   0.243   2.568   1.944
 1631SOL    HW1 6334   0.220   2.510   2.017
 1631SOL    HW2 6335   0.229   2.515   1.866
 1632SOL     OW 6336   7.984   2.256   2.461
 1632SOL    HW1 6337   7.899   2.253   2.505
 1632SOL    HW2 6338   7.996   2.167   2.427
 1633SOL     OW 6339   0.566   3.164   3.044
 1633SOL    HW1 6340   0.479   3.173   3.005
 1633SOL    HW2 6341   0.589   3.252   3.072
 1634SOL     OW 6342   1.573   3.371   2.579
 1634SOL    HW1 6343   1.529   3.358   2.663
 1634SOL    HW2 6344   1.501   3.373   2.515
 1635SOL     OW 6345   1.138   2.555   2.554
 1635SOL    HW1 6346   1.184   2.637   2.538
 1635SOL    HW2 6347   1.091   2.568   2.636
 1636SOL     OW 6348   1.792   2.472   2.081
 1636SOL    HW1 6349   1.754   2.456   1.994
 1636SOL    HW2 6350   1.751   2.407   2.138
 1637SOL     OW 6351   0.752   2.997   2.927
 1637SOL    HW1 6352   0.681   3.044   2.973
 1637SOL    HW2 6353   0.801   3.066   2.882
 1638SOL     OW 6354   0.875   2.627   3.695
 1638SOL    HW1 6355   0.884   2.699   3.757
 1638SOL    HW2 6356   0.891   2.667   3.609
 1639SOL     OW 6357   0.684   2.854   2.503
 1639SOL    HW1 6358   0.757   2.843   2.563
 1639SOL    HW2 6359   0.624   2.913   2.548
 1640SOL     OW 6360   0.703   3.016   3.697
 1640SOL    HW1 6361   0.753   3.093   3.726
 1640SOL    HW2 6362   0.631   3.052   3.646
 1641SOL     OW 6363   0.326   3.283   2.929
 1641SOL    HW1 6364   0.270   3.226   2.876
 1641SOL    HW2 6365   0.378   3.332   2.865
 1642SOL     OW 6366   1.470   3.369   3.232
 1642SOL    HW1 6367   1.521   3.449   3.241
 1642SOL    HW2 6368   1.388   3.387   3.278
 1643SOL     OW 6369   0.453   2.245   3.331
 1643SOL    HW1 6370   0.531   2.191   3.344
 1643SOL    HW2 6371   0.380   2.190   3.359
 1644SOL     OW 6372   1.595   2.288   2.613
 1644SOL    HW1 6373   1.518   2.305   2.559
 1644SOL    HW2 6374   1.597   2.360   2.676
 1645SOL     OW 6375   0.230   3.560   2.340
 1645SOL    HW1 6376   0.228   3.643   2.386
 1645SOL    HW2 6377   0.302   3.569   2.277
 1646SOL     OW 6378   1.090   3.203   3.595
 1646SOL    HW1 6379   1.167   3.210   3.538
 1646SOL    HW2 6380   1.059   3.114   3.583
 1647SOL     OW 6381   0.293   3.295   2.375
 1647SOL    HW1 6382   0.267   3.387   2.389
 1647SOL    HW2 6383   0.240   3.246   2.438
 1648SOL     OW 6384   0.276   2.944   2.752
 1648SOL    HW1 6385   0.275   2.856   2.787
 1648SOL    HW2 6386   0.208   2.991   2.801
 1649SOL     OW 6387   0.601   3.685   3.242
 1649SOL    HW1 6388   0.539   3.659   3.311
 1649SOL    HW2 6389   0.687   3.670   3.281
 1650SOL     OW 6390   0.571   2.850   2.006
 1650SOL    HW1 6391   0.636   2.863   1.937
 1650SOL    HW2 6392   0.615   2.880   2.086
 1651SOL     OW 6393   1.575   1.986   3.316
 1651SOL    HW1 6394   1.637   2.054   3.290
 1651SOL    HW2 6395   1.544   2.013   3.403
 1652SOL     OW 6396   0.131   2.487   2.405
 1652SOL    HW1 6397   0.079   2.410   2.427
 1652SOL    HW2 6398   0.116   2.548   2.477
 1653SOL     OW 6399   1.845   3.617   2.191
 1653SOL    HW1 6400   1.917   3.592   2.248
 1653SOL    HW2 6401   1.860   3.710   2.173
 1654SOL     OW 6402   0.023   3.444   2.004
 1654SOL    HW1 6403   0.001   3.352   1.992
 1654SOL    HW2 6404   0.006   3.460   2.097
 1655SOL     OW 6405   1.690   2.773   2.503
 1655SOL    HW1 6406   1.781   2.744   2.512
 1655SOL    HW2 6407   1.689   2.824   2.422
 1656SOL     OW 6408   1.655   2.984   2.281
 1656SOL    HW1 6409   1.708   3.038   2.222
 1656SOL    HW2 6410   1.660   3.030   2.365
 1657SOL     OW 6411   0.153   2.620   3.454
 1657SOL    HW1 6412   0.249   2.623   3.451
 1657SOL    HW2 6413   0.127   2.706   3.486
 1658SOL     OW 6414   0.609   3.260   2.596
 1658SOL    HW1 6415   0.568   3.173   2.601
 1658SOL    HW2 6416   0.602   3.284   2.504
 1659SOL     OW 6417   1.282   3.053   3.312
 1659SOL    HW1 6418   1.323   3.023   3.231
 1659SOL    HW2 6419   1.355   3.074   3.370
 1660SOL     OW 6420   0.828   1.874   2.388
 1660SOL    HW1 6421   0.866   1.957   2.359
 1660SOL    HW2 6422   0.734   1.889   2.386
 1661SOL     OW 6423   0.179   2.794   3.119
 1661SOL    HW1 6424   0.273   2.776   3.126
 1661SOL    HW2 6425   0.146   2.726   3.060
 1662SOL     OW 6426   1.538   2.859   2.065
 1662SOL    HW1 6427   1.465   2.805   2.096
 1662SOL    HW2 6428   1.578   2.894   2.145
 1663SOL     OW 6429   1.145   3.697   3.476
 1663SOL    HW1 6430   1.181   3.760   3.414
 1663SOL    HW2 6431   1.170   3.611   3.440
 1664SOL     OW 6432   0.320   2.095   3.696
 1664SOL    HW1 6433   0.337   2.188   3.708
 1664SOL    HW2 6434   0.228   2.083   3.718
 1665SOL     OW 6435   1.508   3.259   2.850
 1665SOL    HW1 6436   1.432   3.293   2.898
 1665SOL    HW2 6437   1.475   3.182   2.804
 1666SOL     OW 6438   1.648   3.615   2.442
 1666SOL    HW1 6439   1.632   3.579   2.355
 1666SOL    HW2 6440   1.632   3.542   2.502
 1667SOL     OW 6441   0.591   2.564   2.126
 1667SOL    HW1 6442   0.606   2.650   2.087
 1667SOL    HW2 6443   0.531   2.581   2.198
 1668SOL     OW 6444   1.287   2.222   2.803
 1668SOL    HW1 6445   1.197   2.190   2.810
 1668SOL    HW2 6446   1.336   2.167   2.865
 1669SOL     OW 6447   1.582   3.532   2.174
 1669SOL    HW1 6448   1.673   3.561   2.168
 1669SOL    HW2 6449   1.554   3.521   2.083
 1670SOL     OW 6450   0.810   2.484   3.304
 1670SOL    HW1 6451   0.780   2.456   3.391
 1670SOL    HW2 6452   0.774   2.418   3.245
 1671SOL     OW 6453   1.399   2.332   3.514
 1671SOL    HW1 6454   1.473   2.378   3.554
 1671SOL    HW2 6455   1.423   2.239   3.520
 1672SOL     OW 6456   0.944   2.734   3.446
 1672SOL    HW1 6457   0.998   2.660   3.419
 1672SOL    HW2 6458   0.914   2.772   3.363
 1673SOL     OW 6459   0.997   2.258   3.091
 1673SOL    HW1 6460   0.908   2.282   3.117
 1673SOL    HW2 6461   0.989   2.233   2.999
 1674SOL     OW 6462   1.056   2.561   2.281
 1674SOL    HW1 6463   1.072   2.558   2.375
 1674SOL    HW2 6464   0.972   2.515   2.270
 1675SOL     OW 6465   0.102   2.651   2.631
 1675SOL    HW1 6466   0.183   2.662   2.681
 1675SOL    HW2 6467   0.050   2.729   2.651
 1676SOL     OW 6468   0.142   3.690   3.431
 1676SOL    HW1 6469   0.141   3.674   3.525
 1676SOL    HW2 6470   0.053   3.671   3.403
 1677SOL     OW 6471   0.897   2.209   2.062
 1677SOL    HW1 6472   0.919   2.274   1.996
 1677SOL    HW2 6473   0.928   2.126   2.024
 1678SOL     OW 6474   1.385   3.005   2.410
 1678SOL    HW1 6475   1.460   2.997   2.352
 1678SOL    HW2 6476   1.325   3.065   2.365
 1679SOL     OW 6477   0.545   2.048   2.764
 1679SOL    HW1 6478   0.560   2.076   2.854
 1679SOL    HW2 6479   0.552   2.129   2.712
 1680SOL     OW 6480   1.000   3.285   2.333
 1680SOL    HW1 6481   0.974   3.375   2.313
 1680SOL    HW2 6482   1.001   3.282   2.429
 1681SOL     OW 6483   0.360   3.686   2.729
 1681SOL    HW1 6484   0.406   3.602   2.738
 1681SOL    HW2 6485   0.427   3.752   2.747
 1682SOL     OW 6486   1.787   2.902   2.739
 1682SOL    HW1 6487   1.729   2.895   2.664
 1682SOL    HW2 6488   1.729   2.922   2.813
 1683SOL     OW 6489   0.305   2.798   2.096
 1683SOL    HW1 6490   0.394   2.822   2.070
 1683SOL    HW2 6491   0.284   2.721   2.044
 1684SOL     OW 6492   1.486   2.603   2.575
 1684SOL    HW1 6493   1.484   2.570   2.665
 1684SOL    HW2 6494   1.561   2.662   2.573
 1685SOL     OW 6495   0.464   3.128   3.604
 1685SOL    HW1 6496   0.441   3.133   3.511
 1685SOL    HW2 6497   0.380   3.122   3.649
 1686SOL     OW 6498   1.121   3.645   2.082
 1686SOL    HW1 6499   1.052   3.604   2.135
 1686SOL    HW2 6500   1.147   3.577   2.020
 1687SOL     OW 6501   0.179   2.147   3.356
 1687SOL    HW1 6502   0.093   2.186   3.337
 1687SOL    HW2 6503   0.159   2.070   3.409
 1688SOL     OW 6504   1.619   3.255   1.960
 1688SOL    HW1 6505   1.579   3.340   1.943
 1688SOL    HW2 6506   1.552   3.191   1.937
 1689SOL     OW 6507   0.456   3.611   2.176
 1689SOL    HW1 6508   0.503   3.659   2.244
 1689SOL    HW2 6509   0.525   3.569   2.123
 1690SOL     OW 6510   1.399   1.966   2.303
 1690SOL    HW1 6511   1.383   1.939   2.213
 1690SOL    HW2 6512   1.493   1.987   2.305
 1691SOL     OW 6513   0.246   3.643   3.094
 1691SOL    HW1 6514   0.299   3.577   3.137
 1691SOL    HW2 6515   0.241   3.616   3.002
 1692SOL     OW 6516   0.933   3.569   2.766
 1692SOL    HW1 6517   1.024   3.539   2.765
 1692SOL    HW2 6518   0.890   3.518   2.697
 1693SOL     OW 6519   0.406   2.557   2.339
 1693SOL    HW1 6520   0.425   2.464   2.352
 1693SOL    HW2 6521   0.312   2.565   2.355
 1694SOL     OW 6522   1.487   2.063   3.566
 1694SOL    HW1 6523   1.548   2.120   3.613
 1694SOL    HW2 6524   1.453   2.004   3.632
 1695SOL     OW 6525   0.623   1.955   1.980
 1695SOL    HW1 6526   0.685   1.882   1.991
 1695SOL    HW2 6527   0.607   1.959   1.886
 1696SOL     OW 6528   0.770   2.143   3.622
 1696SOL    HW1 6529   0.851   2.094   3.612
 1696SOL    HW2 6530   0.721   2.097   3.689
 1697SOL     OW 6531   0.862   3.377   3.060
 1697SOL    HW1 6532   0.849   3.349   2.969
 1697SOL    HW2 6533   0.936   3.325   3.091
 1698SOL     OW 6534   1.339   2.463   3.273
 1698SOL    HW1 6535   1.391   2.429   3.346
 1698SOL    HW2 6536   1.372   2.553   3.261
 1699SOL     OW 6537   0.805   3.259   2.811
 1699SOL    HW1 6538   0.890   3.243   2.771
 1699SOL    HW2 6539   0.742   3.254   2.739
 1700SOL     OW 6540   0.928   2.365   2.761
 1700SOL    HW1 6541   0.900   2.360   2.669
 1700SOL    HW2 6542   0.960   2.277   2.781
 1701SOL     OW 6543   0.562   1.926   2.357
 1701SOL    HW1 6544   0.481   1.926   2.407
 1701SOL    HW2 6545   0.553   2.000   2.297
 1702SOL     OW 6546   1.430   3.062   1.904
 1702SOL    HW1 6547   1.458   2.986   1.955
 1702SOL    HW2 6548   1.343   3.082   1.939
 1703SOL     OW 6549   0.300   1.911   2.029
 1703SOL    HW1 6550   0.351   1.991   2.038
 1703SOL    HW2 6551   0.348   1.845   2.079
 1704SOL     OW 6552   0.942   2.114   2.319
 1704SOL    HW1 6553   0.917   2.151   2.234
 1704SOL    HW2 6554   1.036   2.131   2.325
 1705SOL     OW 6555   1.091   2.496   3.393
 1705SOL    HW1 6556   1.012   2.468   3.347
 1705SOL    HW2 6557   1.161   2.486   3.328
 1706SOL     OW 6558   1.180   3.490   2.684
 1706SOL    HW1 6559   1.242   3.502   2.612
 1706SOL    HW2 6560   1.169   3.395   2.691
 1707SOL     OW 6561   0.473   3.021   2.585
 1707SOL    HW1 6562   0.411   2.995   2.653
 1707SOL    HW2 6563   0.430   2.997   2.503
 1708SOL     OW 6564   1.280   3.653   2.450
 1708SOL    HW1 6565   1.322   3.725   2.403
 1708SOL    HW2 6566   1.221   3.696   2.512
 1709SOL     OW 6567   0.105   2.481   3.231
 1709SOL    HW1 6568   0.193   2.453   3.209
 1709SOL    HW2 6569   0.114   2.530   3.313
 1710SOL     OW 6570   0.571   2.090   3.036
 1710SOL    HW1 6571   0.615   2.016   3.077
 1710SOL    HW2 6572   0.482   2.089   3.070
 1711SOL     OW 6573   0.861   2.315   2.500
 1711SOL    HW1 6574   0.825   2.376   2.435
 1711SOL    HW2 6575   0.887   2.238   2.450
 1712SOL     OW 6576   1.020   1.915   2.604
 1712SOL    HW1 6577   0.960   1.912   2.530
 1712SOL    HW2 6578   0.995   1.841   2.659
 1713SOL     OW 6579   1.428   3.031   2.720
 1713SOL    HW1 6580   1.333   3.018   2.730
 1713SOL    HW2 6581   1.442   3.028   2.625
 1714SOL     OW 6582   1.468   2.467   2.821
 1714SOL    HW1 6583   1.407   2.395   2.835
 1714SOL    HW2 6584   1.525   2.465   2.898
 1715SOL     OW 6585   1.893   2.700   2.244
 1715SOL    HW1 6586   1.919   2.631   2.304
 1715SOL    HW2 6587   1.850   2.654   2.172
 1716SOL     OW 6588   0.460   3.305   1.980
 1716SOL    HW1 6589   0.394   3.268   2.038
 1716SOL    HW2 6590   0.505   3.229   1.942
 1717SOL     OW 6591   1.685   3.121   2.507
 1717SOL    HW1 6592   1.777   3.119   2.531
 1717SOL    HW2 6593   1.654   3.207   2.535
 1718SOL     OW 6594   1.389   2.437   1.932
 1718SOL    HW1 6595   1.320   2.419   1.996
 1718SOL    HW2 6596   1.470   2.414   1.977
 1719SOL     OW 6597   0.517   2.117   2.170
 1719SOL    HW1 6598   0.566   2.065   2.106
 1719SOL    HW2 6599   0.502   2.201   2.125
 1720SOL     OW 6600   1.743   3.113   3.407
 1720SOL    HW1 6601   1.831   3.074   3.400
 1720SOL    HW2 6602   1.758   3.198   3.448
 1721SOL     OW 6603   1.042   3.200   3.164
 1721SOL    HW1 6604   0.980   3.160   3.225
 1721SOL    HW2 6605   1.101   3.252   3.218
 1722SOL     OW 6606   1.612   3.510   3.526
 1722SOL    HW1 6607   1.603   3.536   3.434
 1722SOL    HW2 6608   1.690   3.455   3.528
 1723SOL     OW 6609   1.115   3.023   2.966
 1723SOL    HW1 6610   1.083   3.085   3.032
 1723SOL    HW2 6611   1.101   3.068   2.883
 1724SOL     OW 6612   1.612   2.970   2.940
 1724SOL    HW1 6613   1.585   3.007   3.024
 1724SOL    HW2 6614   1.534   2.976   2.884
 1725SOL     OW 6615   0.921   1.963   3.256
 1725SOL    HW1 6616   0.940   1.943   3.164
 1725SOL    HW2 6617   0.999   2.009   3.286
 1726SOL     OW 6618   0.961   2.963   3.592
 1726SOL    HW1 6619   0.867   2.974   3.606
 1726SOL    HW2 6620   0.968   2.889   3.532
 1727SOL     OW 6621   0.713   2.924   2.234
 1727SOL    HW1 6622   0.703   2.903   2.327
 1727SOL    HW2 6623   0.787   2.871   2.205
 1728SOL     OW 6624   0.426   2.683   3.129
 1728SOL    HW1 6625   0.498   2.692   3.191
 1728SOL    HW2 6626   0.404   2.590   3.130
 1729SOL     OW 6627   1.263   2.234   3.142
 1729SOL    HW1 6628   1.296   2.317   3.177
 1729SOL    HW2 6629   1.173   2.253   3.117
 1730SOL     OW 6630   0.040   3.461   3.187
 1730SOL    HW1 6631   0.104   3.527   3.160
 1730SOL    HW2 6632   0.076   3.425   3.268
 1731SOL     OW 6633   0.330   2.962   2.354
 1731SOL    HW1 6634   0.346   3.032   2.290
 1731SOL    HW2 6635   0.339   2.881   2.304
 1732SOL     OW 6636   0.553   2.384   2.727
 1732SOL    HW1 6637   0.561   2.444   2.653
 1732SOL    HW2 6638   0.617   2.414   2.790
 1733SOL     OW 6639   1.251   3.211   2.248
 1733SOL    HW1 6640   1.304   3.281   2.285
 1733SOL    HW2 6641   1.164   3.224   2.283
 1734SOL     OW 6642   1.293   3.328   3.005
 1734SOL    HW1 6643   1.317   3.340   3.097
 1734SOL    HW2 6644   1.209   3.282   3.009
 1735SOL     OW 6645   1.576   2.478   2.341
 1735SOL    HW1 6646   1.531   2.508   2.420
 1735SOL    HW2 6647   1.587   2.557   2.289
 1736SOL     OW 6648   0.346   3.389   3.177
 1736SOL    HW1 6649   0.329   3.347   3.094
 1736SOL    HW2 6650   0.441   3.400   3.180
 1737SOL     OW 6651   0.428   2.605   3.465
 1737SOL    HW1 6652   0.496   2.643   3.410
 1737SOL    HW2 6653   0.461   2.517   3.485
 1738SOL     OW 6654   1.544   2.611   3.529
 1738SOL    HW1 6655   1.482   2.684   3.527
 1738SOL    HW2 6656   1.622   2.644   3.484
 1739SOL     OW 6657   0.997   1.993   3.585
 1739SOL    HW1 6658   1.042   2.027   3.508
 1739SOL    HW2 6659   1.040   1.911   3.604
 1740SOL     OW 6660   0.498   1.905   3.617
 1740SOL    HW1 6661   0.455   1.851   3.551
 1740SOL    HW2 6662   0.435   1.975   3.635
 1741SOL     OW 6663   0.573   2.739   2.892
 1741SOL    HW1 6664   0.631   2.815   2.882
 1741SOL    HW2 6665   0.534   2.750   2.979
 1742SOL     OW 6666   1.342   2.713   2.876
 1742SOL    HW1 6667   1.257   2.706   2.834
 1742SOL    HW2 6668   1.384   2.629   2.860
 1743SOL     OW 6669   1.233   2.388   2.148
 1743SOL    HW1 6670   1.222   2.310   2.203
 1743SOL    HW2 6671   1.171   2.451   2.184
 1744SOL     OW 6672   0.313   2.056   3.118
 1744SOL    HW1 6673   0.263   2.098   3.188
 1744SOL    HW2 6674   0.302   1.962   3.134
 1745SOL     OW 6675   0.019   3.172   3.133
 1745SOL    HW1 6676   0.056   3.114   3.200
 1745SOL    HW2 6677   0.045   3.260   3.160
 1746SOL     OW 6678   0.720   2.496   2.910
 1746SOL    HW1 6679   0.799   2.485   2.858
 1746SOL    HW2 6680   0.691   2.585   2.891
 1747SOL     OW 6681   1.750   2.808   3.703
 1747SOL    HW1 6682   1.670   2.755   3.692
 1747SOL    HW2 6683   1.732   2.863   3.779
 1748SOL     OW 6684   0.318   1.932   2.478
 1748SOL    HW1 6685   0.272   2.014   2.492
 1748SOL    HW2 6686   0.327   1.895   2.566
 1749SOL     OW 6687   1.625   2.243   2.211
 1749SOL    HW1 6688   1.655   2.180   2.277
 1749SOL    HW2 6689   1.596   2.319   2.261
 1750SOL     OW 6690   1.046   2.605   2.820
 1750SOL    HW1 6691   1.035   2.620   2.914
 1750SOL    HW2 6692   1.008   2.519   2.804
 1751SOL     OW 6693   0.948   3.431   3.563
 1751SOL    HW1 6694   0.979   3.464   3.479
 1751SOL    HW2 6695   0.993   3.347   3.574
 1752SOL     OW 6696   1.845   3.372   3.457
 1752SOL    HW1 6697   1.879   3.399   3.372
 1752SOL    HW2 6698   1.921   3.378   3.516
 1753SOL     OW 6699   0.367   2.789   3.661
 1753SOL    HW1 6700   0.444   2.808   3.713
 1753SOL    HW2 6701   0.396   2.725   3.596
 1754SOL     OW 6702   1.535   2.120   1.970
 1754SOL    HW1 6703   1.469   2.058   2.001
 1754SOL    HW2 6704   1.565   2.165   2.049
 1755SOL     OW 6705   1.283   2.696   1.891
 1755SOL    HW1 6706   1.309   2.604   1.894
 1755SOL    HW2 6707   1.316   2.728   1.807
 1756SOL     OW 6708   0.317   2.669   2.808
 1756SOL    HW1 6709   0.409   2.695   2.811
 1756SOL    HW2 6710   0.316   2.579   2.841
 1757SOL     OW 6711   0.322   2.353   2.857
 1757SOL    HW1 6712   0.268   2.323   2.784
 1757SOL    HW2 6713   0.410   2.362   2.819
 1758SOL     OW 6714   1.162   2.074   3.352
 1758SOL    HW1 6715   1.240   2.079   3.408
 1758SOL    HW2 6716   1.184   2.127   3.275
 1759SOL     OW 6717   7.980   3.169   2.065
 1759SOL    HW1 6718   7.890   3.182   2.094
 1759SOL    HW2 6719   7.997   3.076   2.080
 1760SOL     OW 6720   0.101   3.608   2.791
 1760SOL    HW1 6721   0.118   3.517   2.764
 1760SOL    HW2 6722   0.180   3.655   2.768
 1761SOL     OW 6723   0.487   3.440   2.767
 1761SOL    HW1 6724   0.558   3.496   2.797
 1761SOL    HW2 6725   0.529   3.378   2.707
 1762SOL     OW 6726   0.996   2.628   3.089
 1762SOL    HW1 6727   1.036   2.702   3.136
 1762SOL    HW2 6728   0.918   2.607   3.140
 1763SOL     OW 6729   0.078   2.419   2.972
 1763SOL    HW1 6730   0.170   2.393   2.963
 1763SOL    HW2 6731   0.067   2.435   3.066
 1764SOL     OW 6732   0.218   2.364   3.549
 1764SOL    HW1 6733   0.229   2.303   3.476
 1764SOL    HW2 6734   0.186   2.445   3.509
 1765SOL     OW 6735   1.367   2.817   3.510
 1765SOL    HW1 6736   1.396   2.907   3.519
 1765SOL    HW2 6737   1.367   2.801   3.416
 1766SOL     OW 6738   0.817   2.427   2.234
 1766SOL    HW1 6739   0.833   2.357   2.171
 1766SOL    HW2 6740   0.743   2.476   2.198
 1767SOL     OW 6741   1.647   2.464   3.027
 1767SOL    HW1 6742   1.640   2.411   3.106
 1767SOL    HW2 6743   1.737   2.449   2.996
 1768SOL     OW 6744   0.292   3.398   3.578
 1768SOL    HW1 6745   0.254   3.469   3.629
 1768SOL    HW2 6746   0.285   3.321   3.635
 1769SOL     OW 6747   0.723   2.313   3.112
 1769SOL    HW1 6748   0.667   2.240   3.087
 1769SOL    HW2 6749   0.713   2.376   3.040
 1770SOL     OW 6750   0.876   3.571   3.301
 1770SOL    HW1 6751   0.885   3.501   3.236
 1770SOL    HW2 6752   0.966   3.593   3.324
 1771SOL     OW 6753   0.455   2.342   2.029
 1771SOL    HW1 6754   0.513   2.417   2.045
 1771SOL    HW2 6755   0.373   2.366   2.071
 1772SOL     OW 6756   0.146   2.995   3.307
 1772SOL    HW1 6757   0.136   2.949   3.391
 1772SOL    HW2 6758   0.156   2.925   3.242
 1773SOL     OW 6759   1.338   2.906   3.066
 1773SOL    HW1 6760   1.350   2.839   2.998
 1773SOL    HW2 6761   1.259   2.953   3.039
 1774SOL     OW 6762   1.325   2.720   2.166
 1774SOL    HW1 6763   1.255   2.690   2.224
 1774SOL    HW2 6764   1.291   2.706   2.078
 1775SOL     OW 6765   1.745   3.594   2.973
 1775SOL    HW1 6766   1.815   3.658   2.956
 1775SOL    HW2 6767   1.763   3.522   2.913
 1776SOL     OW 6768   1.251   3.625   2.980
 1776SOL    HW1 6769   1.329   3.634   2.925
 1776SOL    HW2 6770   1.252   3.534   3.008
 1777SOL     OW 6771   0.084   3.086   2.883
 1777SOL    HW1 6772   0.060   3.117   2.970
 1777SOL    HW2 6773   0.001   3.077   2.837
 1778SOL     OW 6774   0.695   3.524   3.612
 1778SOL    HW1 6775   0.669   3.607   3.573
 1778SOL    HW2 6776   0.786   3.512   3.586
 1779SOL     OW 6777   1.733   2.024   2.366
 1779SOL    HW1 6778   1.802   2.013   2.300
 1779SOL    HW2 6779   1.720   1.937   2.402
 1780SOL     OW 6780   1.396   3.425   2.353
 1780SOL    HW1 6781   1.456   3.457   2.286
 1780SOL    HW2 6782   1.348   3.503   2.382
 1781SOL     OW 6783   0.173   3.603   3.706
 1781SOL    HW1 6784   0.107   3.560   3.760
 1781SOL    HW2 6785   0.221   3.659   3.767
 1782SOL     OW 6786   1.280   2.784   2.528
 1782SOL    HW1 6787   1.356   2.728   2.542
 1782SOL    HW2 6788   1.315   2.862   2.485
 1783SOL     OW 6789   0.799   3.123   3.294
 1783SOL    HW1 6790   0.773   3.168   3.374
 1783SOL    HW2 6791   0.741   3.158   3.227
 1784SOL     OW 6792   0.658   3.498   2.019
 1784SOL    HW1 6793   0.687   3.509   1.928
 1784SOL    HW2 6794   0.602   3.420   2.017
 1785SOL     OW 6795   1.627   3.597   3.245
 1785SOL    HW1 6796   1.669   3.602   3.159
 1785SOL    HW2 6797   1.605   3.687   3.267
 1786SOL     OW 6798   1.852   2.043   2.840
 1786SOL    HW1 6799   1.886   1.963   2.800
 1786SOL    HW2 6800   1.774   2.065   2.788
 1787SOL     OW 6801   0.237   2.185   2.575
 1787SOL    HW1 6802   0.178   2.234   2.518
 1787SOL    HW2 6803   0.180   2.147   2.641
 1788SOL     OW 6804   1.207   3.456   1.898
 1788SOL    HW1 6805   1.193   3.365   1.927
 1788SOL    HW2 6806   1.139   3.470   1.832
 1789SOL     OW 6807   0.842   2.865   3.219
 1789SOL    HW1 6808   0.854   2.880   3.125
 1789SOL    HW2 6809   0.832   2.953   3.256
 1790SOL     OW 6810   0.914   2.772   2.139
 1790SOL    HW1 6811   0.977   2.811   2.079
 1790SOL    HW2 6812   0.965   2.708   2.189
 1791SOL     OW 6813   1.485   3.499   1.907
 1791SOL    HW1 6814   1.392   3.485   1.892
 1791SOL    HW2 6815   1.523   3.503   1.819
 1792SOL     OW 6816   0.361   3.165   3.358
 1792SOL    HW1 6817   0.354   3.242   3.302
 1792SOL    HW2 6818   0.289   3.108   3.330
 1793SOL     OW 6819   1.600   3.144   3.162
 1793SOL    HW1 6820   1.652   3.122   3.240
 1793SOL    HW2 6821   1.542   3.215   3.191
 1794SOL     OW 6822   1.024   2.918   2.511
 1794SOL    HW1 6823   1.033   2.998   2.562
 1794SOL    HW2 6824   1.109   2.874   2.520
 1795SOL     OW 6825   1.029   2.102   2.825
 1795SOL    HW1 6826   1.026   2.055   2.741
 1795SOL    HW2 6827   1.017   2.034   2.891
 1796SOL     OW 6828   0.614   3.349   2.336
 1796SOL    HW1 6829   0.667   3.297   2.275
 1796SOL    HW2 6830   0.528   3.355   2.293
 1797SOL     OW 6831   1.709   2.270   3.229
 1797SOL    HW1 6832   1.787   2.325   3.240
 1797SOL    HW2 6833   1.739   2.196   3.175
 1798SOL     OW 6834   0.250   3.201   2.130
 1798SOL    HW1 6835   0.155   3.198   2.126
 1798SOL    HW2 6836   0.269   3.235   2.218
 1799SOL     OW 6837   0.124   2.869   3.560
 1799SOL    HW1 6838   0.073   2.922   3.621
 1799SOL    HW2 6839   0.208   2.856   3.604
 1800SOL     OW 6840   0.679   2.062   3.364
 1800SOL    HW1 6841   0.764   2.040   3.324
 1800SOL    HW2 6842   0.701   2.094   3.451
 1801SOL     OW 6843   0.099   2.214   1.878
 1801SOL    HW1 6844   0.029   2.244   1.936
 1801SOL    HW2 6845   0.115   2.288   1.819
 1802SOL     OW 6846   1.421   2.724   3.252
 1802SOL    HW1 6847   1.387   2.789   3.189
 1802SOL    HW2 6848   1.516   2.732   3.245
 1803SOL     OW 6849   0.139   2.130   2.177
 1803SOL    HW1 6850   0.072   2.099   2.116
 1803SOL    HW2 6851   0.184   2.051   2.206
 1804SOL     OW 6852   1.179   3.183   1.982
 1804SOL    HW1 6853   1.117   3.110   1.989
 1804SOL    HW2 6854   1.209   3.198   2.072
 1805SOL     OW 6855   0.634   2.695   3.302
 1805SOL    HW1 6856   0.688   2.771   3.281
 1805SOL    HW2 6857   0.695   2.621   3.306
 1806SOL     OW 6858   1.498   3.665   2.853
 1806SOL    HW1 6859   1.526   3.724   2.783
 1806SOL    HW2 6860   1.579   3.639   2.896
 1807SOL     OW 6861   0.726   2.421   3.554
 1807SOL    HW1 6862   0.764   2.478   3.621
 1807SOL    HW2 6863   0.736   2.333   3.590
 1808SOL     OW 6864   1.487   3.067   3.499
 1808SOL    HW1 6865   1.486   3.118   3.580
 1808SOL    HW2 6866   1.577   3.074   3.468
 1809SOL     OW 6867   0.401   3.604   3.422
 1809SOL    HW1 6868   0.313   3.635   3.406
 1809SOL    HW2 6869   0.390   3.517   3.460
 1810SOL     OW 6870   1.679   2.743   3.106
 1810SOL    HW1 6871   1.665   2.657   3.066
 1810SOL    HW2 6872   1.661   2.805   3.035
 1811SOL     OW 6873   1.212   2.174   2.331
 1811SOL    HW1 6874   1.275   2.103   2.322
 1811SOL    HW2 6875   1.245   2.225   2.406
 1812SOL     OW 6876   0.583   2.591   2.549
 1812SOL    HW1 6877   0.631   2.674   2.540
 1812SOL    HW2 6878   0.526   2.589   2.472
 1813SOL     OW 6879   1.787   2.150   3.472
 1813SOL    HW1 6880   1.756   2.210   3.404
 1813SOL    HW2 6881   1.760   2.190   3.554
 1814SOL     OW 6882   1.702   2.781   3.377
 1814SOL    HW1 6883   1.739   2.864   3.407
 1814SOL    HW2 6884   1.719   2.781   3.283
 1815SOL     OW 6885   0.812   3.250   1.901
 1815SOL    HW1 6886   0.820   3.250   1.996
 1815SOL    HW2 6887   0.870   3.320   1.871
 1816SOL     OW 6888   0.665   3.642   2.811
 1816SOL    HW1 6889   0.661   3.732   2.776
 1816SOL    HW2 6890   0.758   3.619   2.806
 1817SOL     OW 6891   0.832   2.798   2.739
 1817SOL    HW1 6892   0.920   2.761   2.746
 1817SOL    HW2 6893   0.831   2.871   2.802
 1818SOL     OW 6894   1.093   2.885   1.956
 1818SOL    HW1 6895   1.052   2.910   1.873
 1818SOL    HW2 6896   1.155   2.816   1.934
 1819SOL     OW 6897   1.797   3.389   2.797
 1819SOL    HW1 6898   1.756   3.404   2.711
 1819SOL    HW2 6899   1.877   3.341   2.776
 1820SOL     OW 6900   0.219   3.162   3.716
 1820SOL    HW1 6901   0.126   3.145   3.700
 1820SOL    HW2 6902   0.227   3.169   3.811
 1821SOL     OW 6903   0.133   3.124   2.513
 1821SOL    HW1 6904   0.057   3.082   2.554
 1821SOL    HW2 6905   0.193   3.051   2.494
 1822SOL     OW 6906   0.685   3.261   3.501
 1822SOL    HW1 6907   0.598   3.235   3.530
 1822SOL    HW2 6908   0.693   3.352   3.529
 1823SOL     OW 6909   1.794   2.044   3.104
 1823SOL    HW1 6910   1.865   1.989   3.136
 1823SOL    HW2 6911   1.812   2.055   3.011
 1824SOL     OW 6912   0.432   2.293   2.387
 1824SOL    HW1 6913   0.464   2.222   2.331
 1824SOL    HW2 6914   0.389   2.248   2.460
 1825SOL     OW 6915   0.355   2.415   3.142
 1825SOL    HW1 6916   0.398   2.358   3.206
 1825SOL    HW2 6917   0.369   2.371   3.058
 1826SOL     OW 6918   0.806   3.460   2.549
 1826SOL    HW1 6919   0.786   3.485   2.459
 1826SOL    HW2 6920   0.750   3.385   2.567
 1827SOL     OW 6921   1.442   2.083   2.992
 1827SOL    HW1 6922   1.507   2.048   3.053
 1827SOL    HW2 6923   1.381   2.131   3.047
 1828SOL     OW 6924   0.997   1.878   2.997
 1828SOL    HW1 6925   0.940   1.815   2.953
 1828SOL    HW2 6926   1.080   1.833   3.008
 1829SOL     OW 6927   0.783   3.192   2.181
 1829SOL    HW1 6928   0.762   3.100   2.195
 1829SOL    HW2 6929   0.863   3.206   2.232
 1830SOL     OW 6930   0.612   3.426   3.140
 1830SOL    HW1 6931   0.610   3.518   3.164
 1830SOL    HW2 6932   0.703   3.410   3.113
 1831SOL     OW 6933   1.361   1.909   2.034
 1831SOL    HW1 6934   1.396   1.834   1.985
 1831SOL    HW2 6935   1.271   1.885   2.053
 1832SOL     OW 6936   1.305   2.321   2.545
 1832SOL    HW1 6937   1.254   2.402   2.542
 1832SOL    HW2 6938   1.294   2.290   2.635
 1833SOL     OW 6939   1.590   2.032   2.737
 1833SOL    HW1 6940   1.536   2.051   2.814
 1833SOL    HW2 6941   1.583   2.110   2.683
 1834SOL     OW 6942   0.060   2.919   2.137
 1834SOL    HW1 6943   0.148   2.884   2.121
 1834SOL    HW2 6944   0.046   2.903   2.231
 1835SOL     OW 6945   0.894   3.523   2.210
 1835SOL    HW1 6946   0.816   3.507   2.157
 1835SOL    HW2 6947   0.871   3.599   2.264
 1836SOL     OW 6948   0.193   2.567   3.850
 1836SOL    HW1 6949   0.188   2.476   3.879
 1836SOL    HW2 6950   0.205   2.560   3.755
 1837SOL     OW 6951   0.235   2.136   4.697
 1837SOL    HW1 6952   0.257   2.106   4.785
 1837SOL    HW2 6953   0.150   2.095   4.679
 1838SOL     OW 6954   7.990   2.250   4.333
 1838SOL    HW1 6955   7.904   2.249   4.374
 1838SOL    HW2 6956   8.002   2.161   4.301
 1839SOL     OW 6957   0.511   3.112   4.889
 1839SOL    HW1 6958   0.441   3.156   4.841
 1839SOL    HW2 6959   0.561   3.183   4.929
 1840SOL     OW 6960   1.548   3.397   4.418
 1840SOL    HW1 6961   1.518   3.361   4.502
 1840SOL    HW2 6962   1.477   3.376   4.357
 1841SOL     OW 6963   1.116   2.570   4.414
 1841SOL    HW1 6964   1.174   2.646   4.415
 1841SOL    HW2 6965   1.035   2.600   4.455
 1842SOL     OW 6966   1.792   2.465   3.927
 1842SOL    HW1 6967   1.740   2.448   3.848
 1842SOL    HW2 6968   1.803   2.380   3.968
 1843SOL     OW 6969   0.754   3.000   4.833
 1843SOL    HW1 6970   0.667   3.032   4.857
 1843SOL    HW2 6971   0.786   3.062   4.768
 1844SOL     OW 6972   0.877   2.623   5.537
 1844SOL    HW1 6973   0.854   2.698   5.593
 1844SOL    HW2 6974   0.902   2.663   5.454
 1845SOL     OW 6975   0.678   2.885   4.344
 1845SOL    HW1 6976   0.740   2.841   4.402
 1845SOL    HW2 6977   0.618   2.931   4.404
 1846SOL     OW 6978   0.713   3.023   5.550
 1846SOL    HW1 6979   0.759   3.107   5.549
 1846SOL    HW2 6980   0.626   3.043   5.514
 1847SOL     OW 6981   0.314   3.288   4.774
 1847SOL    HW1 6982   0.262   3.235   4.714
 1847SOL    HW2 6983   0.372   3.339   4.718
 1848SOL     OW 6984   1.436   3.368   5.090
 1848SOL    HW1 6985   1.492   3.445   5.094
 1848SOL    HW2 6986   1.361   3.390   5.146
 1849SOL     OW 6987   0.475   2.247   5.208
 1849SOL    HW1 6988   0.523   2.164   5.215
 1849SOL    HW2 6989   0.384   2.223   5.227
 1850SOL     OW 6990   1.617   2.330   4.476
 1850SOL    HW1 6991   1.574   2.409   4.443
 1850SOL    HW2 6992   1.648   2.353   4.563
 1851SOL     OW 6993   0.235   3.562   4.206
 1851SOL    HW1 6994   0.225   3.649   4.246
 1851SOL    HW2 6995   0.307   3.573   4.144
 1852SOL     OW 6996   1.146   3.193   5.416
 1852SOL    HW1 6997   1.165   3.191   5.510
 1852SOL    HW2 6998   1.096   3.113   5.400
 1853SOL     OW 6999   0.281   3.291   4.234
 1853SOL    HW1 7000   0.266   3.382   4.262
 1853SOL    HW2 7001   0.233   3.238   4.297
 1854SOL     OW 7002   0.263   2.941   4.600
 1854SOL    HW1 7003   0.278   2.857   4.643
 1854SOL    HW2 7004   0.201   2.986   4.658
 1855SOL     OW 7005   0.662   3.641   5.234
 1855SOL    HW1 7006   0.575   3.623   5.199
 1855SOL    HW2 7007   0.669   3.737   5.234
 1856SOL     OW 7008   0.575   2.855   3.881
 1856SOL    HW1 7009   0.622   2.897   3.809
 1856SOL    HW2 7010   0.618   2.888   3.960
 1857SOL     OW 7011   1.591   1.999   5.181
 1857SOL    HW1 7012   1.639   2.071   5.139
 1857SOL    HW2 7013   1.557   2.037   5.262
 1858SOL     OW 7014   0.128   2.498   4.295
 1858SOL    HW1 7015   0.094   2.414   4.326
 1858SOL    HW2 7016   0.117   2.557   4.370
 1859SOL     OW 7017   1.834   3.613   4.066
 1859SOL    HW1 7018   1.909   3.581   4.117
 1859SOL    HW2 7019   1.854   3.705   4.048
 1860SOL     OW 7020   0.012   3.451   3.873
 1860SOL    HW1 7021  -0.005   3.358   3.863
 1860SOL    HW2 7022   0.004   3.467   3.968
 1861SOL     OW 7023   1.664   2.765   4.348
 1861SOL    HW1 7024   1.757   2.754   4.368
 1861SOL    HW2 7025   1.662   2.832   4.279
 1862SOL     OW 7026   1.648   2.981   4.163
 1862SOL    HW1 7027   1.729   2.972   4.113
 1862SOL    HW2 7028   1.667   3.046   4.230
 1863SOL     OW 7029   0.142   2.629   5.304
 1863SOL    HW1 7030   0.237   2.632   5.303
 1863SOL    HW2 7031   0.115   2.714   5.338
 1864SOL     OW 7032   0.611   3.264   4.435
 1864SOL    HW1 7033   0.568   3.181   4.453
 1864SOL    HW2 7034   0.601   3.277   4.341
 1865SOL     OW 7035   1.321   3.068   5.158
 1865SOL    HW1 7036   1.302   3.004   5.089
 1865SOL    HW2 7037   1.405   3.106   5.133
 1866SOL     OW 7038   0.814   1.860   4.252
 1866SOL    HW1 7039   0.852   1.942   4.221
 1866SOL    HW2 7040   0.719   1.876   4.251
 1867SOL     OW 7041   0.168   2.816   4.964
 1867SOL    HW1 7042   0.260   2.789   4.967
 1867SOL    HW2 7043   0.118   2.735   4.968
 1868SOL     OW 7044   1.525   2.854   3.926
 1868SOL    HW1 7045   1.500   2.780   3.982
 1868SOL    HW2 7046   1.581   2.909   3.981
 1869SOL     OW 7047   1.191   3.677   5.359
 1869SOL    HW1 7048   1.191   3.743   5.290
 1869SOL    HW2 7049   1.198   3.594   5.312
 1870SOL     OW 7050   0.339   2.159   5.597
 1870SOL    HW1 7051   0.364   2.203   5.516
 1870SOL    HW2 7052   0.244   2.173   5.603
 1871SOL     OW 7053   1.450   3.291   4.650
 1871SOL    HW1 7054   1.393   3.305   4.726
 1871SOL    HW2 7055   1.447   3.196   4.635
 1872SOL     OW 7056   1.635   3.631   4.303
 1872SOL    HW1 7057   1.654   3.593   4.218
 1872SOL    HW2 7058   1.611   3.557   4.358
 1873SOL     OW 7059   0.586   2.579   3.989
 1873SOL    HW1 7060   0.597   2.665   3.949
 1873SOL    HW2 7061   0.526   2.594   4.062
 1874SOL     OW 7062   1.269   2.225   4.664
 1874SOL    HW1 7063   1.183   2.187   4.679
 1874SOL    HW2 7064   1.329   2.174   4.719
 1875SOL     OW 7065   1.570   3.539   4.027
 1875SOL    HW1 7066   1.665   3.552   4.028
 1875SOL    HW2 7067   1.548   3.533   3.935
 1876SOL     OW 7068   1.390   2.340   5.394
 1876SOL    HW1 7069   1.398   2.381   5.480
 1876SOL    HW2 7070   1.438   2.258   5.402
 1877SOL     OW 7071   0.951   2.734   5.297
 1877SOL    HW1 7072   0.998   2.662   5.255
 1877SOL    HW2 7073   0.907   2.780   5.225
 1878SOL     OW 7074   0.993   2.265   4.948
 1878SOL    HW1 7075   0.903   2.299   4.955
 1878SOL    HW2 7076   0.995   2.222   4.862
 1879SOL     OW 7077   1.031   2.567   4.155
 1879SOL    HW1 7078   1.056   2.567   4.247
 1879SOL    HW2 7079   0.948   2.518   4.152
 1880SOL     OW 7080   0.102   2.662   4.507
 1880SOL    HW1 7081   0.187   2.669   4.551
 1880SOL    HW2 7082   0.044   2.720   4.557
 1881SOL     OW 7083   0.118   3.661   5.287
 1881SOL    HW1 7084   0.130   3.662   5.382
 1881SOL    HW2 7085   0.023   3.657   5.274
 1882SOL     OW 7086   0.887   2.219   3.920
 1882SOL    HW1 7087   0.951   2.265   3.866
 1882SOL    HW2 7088   0.851   2.152   3.862
 1883SOL     OW 7089   1.679   2.436   5.560
 1883SOL    HW1 7090   1.657   2.511   5.505
 1883SOL    HW2 7091   1.714   2.371   5.498
 1884SOL     OW 7092   1.382   2.979   4.235
 1884SOL    HW1 7093   1.472   2.985   4.204
 1884SOL    HW2 7094   1.339   3.058   4.201
 1885SOL     OW 7095   0.559   2.036   4.633
 1885SOL    HW1 7096   0.559   2.068   4.723
 1885SOL    HW2 7097   0.557   2.115   4.579
 1886SOL     OW 7098   0.981   3.287   4.193
 1886SOL    HW1 7099   0.957   3.370   4.152
 1886SOL    HW2 7100   0.974   3.304   4.287
 1887SOL     OW 7101   0.361   3.706   4.553
 1887SOL    HW1 7102   0.412   3.625   4.562
 1887SOL    HW2 7103   0.425   3.776   4.567
 1888SOL     OW 7104   1.773   2.886   4.606
 1888SOL    HW1 7105   1.757   2.953   4.539
 1888SOL    HW2 7106   1.719   2.913   4.680
 1889SOL     OW 7107   1.217   3.409   5.245
 1889SOL    HW1 7108   1.206   3.327   5.294
 1889SOL    HW2 7109   1.145   3.409   5.182
 1890SOL     OW 7110   0.301   2.807   3.959
 1890SOL    HW1 7111   0.389   2.824   3.926
 1890SOL    HW2 7112   0.275   2.725   3.918
 1891SOL     OW 7113   1.489   2.589   4.446
 1891SOL    HW1 7114   1.485   2.574   4.540
 1891SOL    HW2 7115   1.556   2.656   4.434
 1892SOL     OW 7116   0.455   3.110   5.487
 1892SOL    HW1 7117   0.439   3.119   5.393
 1892SOL    HW2 7118   0.368   3.108   5.526
 1893SOL     OW 7119   1.119   3.657   3.930
 1893SOL    HW1 7120   1.072   3.607   3.998
 1893SOL    HW2 7121   1.145   3.591   3.866
 1894SOL     OW 7122   0.222   2.139   5.237
 1894SOL    HW1 7123   0.134   2.177   5.233
 1894SOL    HW2 7124   0.207   2.048   5.263
 1895SOL     OW 7125   1.522   3.220   3.730
 1895SOL    HW1 7126   1.526   3.315   3.726
 1895SOL    HW2 7127   1.606   3.193   3.767
 1896SOL     OW 7128   0.463   3.611   4.049
 1896SOL    HW1 7129   0.505   3.667   4.115
 1896SOL    HW2 7130   0.535   3.580   3.994
 1897SOL     OW 7131   1.410   1.975   4.186
 1897SOL    HW1 7132   1.374   1.958   4.098
 1897SOL    HW2 7133   1.505   1.975   4.173
 1898SOL     OW 7134   0.285   3.643   4.972
 1898SOL    HW1 7135   0.322   3.613   5.056
 1898SOL    HW2 7136   0.334   3.594   4.906
 1899SOL     OW 7137   0.916   3.558   4.631
 1899SOL    HW1 7138   0.938   3.499   4.704
 1899SOL    HW2 7139   0.906   3.500   4.556
 1900SOL     OW 7140   0.399   2.573   4.193
 1900SOL    HW1 7141   0.426   2.483   4.213
 1900SOL    HW2 7142   0.315   2.582   4.238
 1901SOL     OW 7143   1.513   2.088   5.441
 1901SOL    HW1 7144   1.517   2.103   5.536
 1901SOL    HW2 7145   1.458   2.010   5.432
 1902SOL     OW 7146   0.663   1.976   3.820
 1902SOL    HW1 7147   0.703   1.893   3.848
 1902SOL    HW2 7148   0.600   1.951   3.753
 1903SOL     OW 7149   0.787   2.161   5.527
 1903SOL    HW1 7150   0.863   2.108   5.503
 1903SOL    HW2 7151   0.716   2.098   5.541
 1904SOL     OW 7152   0.933   3.416   4.868
 1904SOL    HW1 7153   0.843   3.397   4.894
 1904SOL    HW2 7154   0.986   3.369   4.933
 1905SOL     OW 7155   1.343   2.463   5.149
 1905SOL    HW1 7156   1.376   2.431   5.233
 1905SOL    HW2 7157   1.381   2.550   5.140
 1906SOL     OW 7158   0.803   3.200   4.650
 1906SOL    HW1 7159   0.895   3.211   4.624
 1906SOL    HW2 7160   0.754   3.229   4.573
 1907SOL     OW 7161   0.939   2.361   4.632
 1907SOL    HW1 7162   0.913   2.363   4.540
 1907SOL    HW2 7163   0.964   2.269   4.648
 1908SOL     OW 7164   0.551   1.921   4.207
 1908SOL    HW1 7165   0.469   1.923   4.257
 1908SOL    HW2 7166   0.548   2.000   4.152
 1909SOL     OW 7167   1.349   3.021   3.792
 1909SOL    HW1 7168   1.407   2.957   3.834
 1909SOL    HW2 7169   1.407   3.094   3.771
 1910SOL     OW 7170   0.336   1.928   3.954
 1910SOL    HW1 7171   0.345   1.955   3.862
 1910SOL    HW2 7172   0.347   1.833   3.951
 1911SOL     OW 7173   0.926   2.099   4.169
 1911SOL    HW1 7174   0.897   2.145   4.090
 1911SOL    HW2 7175   1.022   2.099   4.163
 1912SOL     OW 7176   1.076   2.507   5.188
 1912SOL    HW1 7177   1.060   2.420   5.225
 1912SOL    HW2 7178   1.169   2.507   5.166
 1913SOL     OW 7179   1.223   3.412   4.490
 1913SOL    HW1 7180   1.236   3.491   4.437
 1913SOL    HW2 7181   1.292   3.416   4.556
 1914SOL     OW 7182   0.464   3.033   4.445
 1914SOL    HW1 7183   0.403   3.002   4.513
 1914SOL    HW2 7184   0.426   3.002   4.363
 1915SOL     OW 7185   1.261   3.655   4.334
 1915SOL    HW1 7186   1.314   3.716   4.282
 1915SOL    HW2 7187   1.210   3.710   4.392
 1916SOL     OW 7188   1.049   2.417   3.754
 1916SOL    HW1 7189   0.984   2.487   3.756
 1916SOL    HW2 7190   1.087   2.418   3.843
 1917SOL     OW 7191   0.118   2.448   5.105
 1917SOL    HW1 7192   0.210   2.441   5.079
 1917SOL    HW2 7193   0.118   2.517   5.172
 1918SOL     OW 7194   0.555   2.090   4.910
 1918SOL    HW1 7195   0.596   2.016   4.954
 1918SOL    HW2 7196   0.462   2.082   4.928
 1919SOL     OW 7197   0.866   2.309   4.367
 1919SOL    HW1 7198   0.818   2.373   4.314
 1919SOL    HW2 7199   0.881   2.236   4.307
 1920SOL     OW 7200   1.029   1.912   4.460
 1920SOL    HW1 7201   0.958   1.912   4.396
 1920SOL    HW2 7202   1.007   1.842   4.521
 1921SOL     OW 7203   1.462   3.024   4.585
 1921SOL    HW1 7204   1.397   2.961   4.553
 1921SOL    HW2 7205   1.520   3.039   4.511
 1922SOL     OW 7206   1.469   2.477   4.702
 1922SOL    HW1 7207   1.416   2.397   4.710
 1922SOL    HW2 7208   1.528   2.473   4.778
 1923SOL     OW 7209   1.829   2.647   4.121
 1923SOL    HW1 7210   1.896   2.606   4.175
 1923SOL    HW2 7211   1.823   2.591   4.043
 1924SOL     OW 7212   0.505   3.265   3.894
 1924SOL    HW1 7213   0.416   3.247   3.925
 1924SOL    HW2 7214   0.512   3.215   3.812
 1925SOL     OW 7215   1.686   3.119   4.412
 1925SOL    HW1 7216   1.780   3.103   4.402
 1925SOL    HW2 7217   1.679   3.212   4.428
 1926SOL     OW 7218   1.392   2.452   3.782
 1926SOL    HW1 7219   1.391   2.478   3.874
 1926SOL    HW2 7220   1.474   2.403   3.772
 1927SOL     OW 7221   0.559   2.135   4.035
 1927SOL    HW1 7222   0.594   2.080   3.965
 1927SOL    HW2 7223   0.522   2.211   3.989
 1928SOL     OW 7224   1.785   3.133   5.349
 1928SOL    HW1 7225   1.845   3.071   5.309
 1928SOL    HW2 7226   1.827   3.218   5.340
 1929SOL     OW 7227   1.065   3.227   5.074
 1929SOL    HW1 7228   0.980   3.200   5.110
 1929SOL    HW2 7229   1.128   3.166   5.113
 1930SOL     OW 7230   1.599   3.420   5.377
 1930SOL    HW1 7231   1.575   3.477   5.304
 1930SOL    HW2 7232   1.695   3.417   5.375
 1931SOL     OW 7233   1.129   3.089   4.824
 1931SOL    HW1 7234   1.050   3.110   4.875
 1931SOL    HW2 7235   1.107   3.115   4.734
 1932SOL     OW 7236   1.605   2.958   4.817
 1932SOL    HW1 7237   1.596   3.027   4.883
 1932SOL    HW2 7238   1.544   2.982   4.748
 1933SOL     OW 7239   0.914   1.956   5.111
 1933SOL    HW1 7240   0.937   1.932   5.021
 1933SOL    HW2 7241   0.994   1.994   5.147
 1934SOL     OW 7242   0.984   2.963   5.447
 1934SOL    HW1 7243   0.892   2.985   5.461
 1934SOL    HW2 7244   0.982   2.890   5.385
 1935SOL     OW 7245   0.745   2.959   4.093
 1935SOL    HW1 7246   0.713   2.942   4.181
 1935SOL    HW2 7247   0.798   2.883   4.071
 1936SOL     OW 7248   0.405   2.695   5.001
 1936SOL    HW1 7249   0.487   2.707   5.050
 1936SOL    HW2 7250   0.393   2.601   4.998
 1937SOL     OW 7251   1.263   2.240   5.007
 1937SOL    HW1 7252   1.296   2.321   5.046
 1937SOL    HW2 7253   1.173   2.261   4.982
 1938SOL     OW 7254   0.069   3.433   5.041
 1938SOL    HW1 7255   0.059   3.525   5.064
 1938SOL    HW2 7256   0.164   3.419   5.037
 1939SOL     OW 7257   0.333   2.957   4.211
 1939SOL    HW1 7258   0.341   3.033   4.154
 1939SOL    HW2 7259   0.341   2.882   4.153
 1940SOL     OW 7260   0.559   2.381   4.589
 1940SOL    HW1 7261   0.569   2.435   4.511
 1940SOL    HW2 7262   0.624   2.415   4.651
 1941SOL     OW 7263   1.248   3.206   4.145
 1941SOL    HW1 7264   1.306   3.281   4.160
 1941SOL    HW2 7265   1.164   3.233   4.182
 1942SOL     OW 7266   1.287   3.327   4.862
 1942SOL    HW1 7267   1.337   3.330   4.944
 1942SOL    HW2 7268   1.226   3.254   4.874
 1943SOL     OW 7269   1.594   2.506   4.192
 1943SOL    HW1 7270   1.548   2.554   4.261
 1943SOL    HW2 7271   1.666   2.564   4.166
 1944SOL     OW 7272   0.334   3.351   5.036
 1944SOL    HW1 7273   0.328   3.326   4.944
 1944SOL    HW2 7274   0.426   3.373   5.049
 1945SOL     OW 7275   0.417   2.617   5.327
 1945SOL    HW1 7276   0.487   2.647   5.269
 1945SOL    HW2 7277   0.442   2.528   5.350
 1946SOL     OW 7278   1.609   2.654   5.411
 1946SOL    HW1 7279   1.523   2.695   5.399
 1946SOL    HW2 7280   1.664   2.692   5.342
 1947SOL     OW 7281   0.998   2.000   5.478
 1947SOL    HW1 7282   1.076   2.025   5.429
 1947SOL    HW2 7283   0.998   1.904   5.477
 1948SOL     OW 7284   0.517   1.971   5.414
 1948SOL    HW1 7285   0.571   1.893   5.424
 1948SOL    HW2 7286   0.434   1.938   5.379
 1949SOL     OW 7287   0.575   2.754   4.740
 1949SOL    HW1 7288   0.653   2.797   4.705
 1949SOL    HW2 7289   0.558   2.800   4.823
 1950SOL     OW 7290   1.326   2.706   4.760
 1950SOL    HW1 7291   1.237   2.674   4.747
 1950SOL    HW2 7292   1.381   2.631   4.737
 1951SOL     OW 7293   1.166   2.395   3.999
 1951SOL    HW1 7294   1.256   2.395   4.031
 1951SOL    HW2 7295   1.120   2.458   4.054
 1952SOL     OW 7296   0.282   2.078   4.971
 1952SOL    HW1 7297   0.278   2.105   5.063
 1952SOL    HW2 7298   0.193   2.051   4.950
 1953SOL     OW 7299   0.732   2.493   4.767
 1953SOL    HW1 7300   0.812   2.472   4.719
 1953SOL    HW2 7301   0.717   2.586   4.747
 1954SOL     OW 7302   1.746   2.805   5.598
 1954SOL    HW1 7303   1.704   2.751   5.532
 1954SOL    HW2 7304   1.674   2.833   5.655
 1955SOL     OW 7305   0.313   1.921   4.340
 1955SOL    HW1 7306   0.272   2.006   4.352
 1955SOL    HW2 7307   0.320   1.885   4.428
 1956SOL     OW 7308   1.538   2.246   4.164
 1956SOL    HW1 7309   1.594   2.209   4.096
 1956SOL    HW2 7310   1.560   2.340   4.165
 1957SOL     OW 7311   1.062   2.602   4.738
 1957SOL    HW1 7312   1.010   2.660   4.683
 1957SOL    HW2 7313   1.043   2.514   4.704
 1958SOL     OW 7314   0.985   3.418   5.445
 1958SOL    HW1 7315   0.958   3.471   5.370
 1958SOL    HW2 7316   1.033   3.344   5.406
 1959SOL     OW 7317   1.864   3.392   5.319
 1959SOL    HW1 7318   1.888   3.407   5.227
 1959SOL    HW2 7319   1.945   3.403   5.367
 1960SOL     OW 7320   0.351   2.798   5.533
 1960SOL    HW1 7321   0.434   2.815   5.578
 1960SOL    HW2 7322   0.372   2.733   5.467
 1961SOL     OW 7323   1.576   2.033   3.922
 1961SOL    HW1 7324   1.481   2.027   3.913
 1961SOL    HW2 7325   1.601   2.106   3.865
 1962SOL     OW 7326   1.264   2.683   3.715
 1962SOL    HW1 7327   1.339   2.633   3.747
 1962SOL    HW2 7328   1.301   2.744   3.652
 1963SOL     OW 7329   1.066   3.195   4.571
 1963SOL    HW1 7330   1.073   3.124   4.507
 1963SOL    HW2 7331   1.123   3.264   4.536
 1964SOL     OW 7332   0.320   2.670   4.674
 1964SOL    HW1 7333   0.411   2.698   4.687
 1964SOL    HW2 7334   0.318   2.580   4.704
 1965SOL     OW 7335   0.342   2.382   4.746
 1965SOL    HW1 7336   0.300   2.299   4.720
 1965SOL    HW2 7337   0.419   2.388   4.689
 1966SOL     OW 7338   1.121   2.276   5.374
 1966SOL    HW1 7339   1.081   2.299   5.457
 1966SOL    HW2 7340   1.213   2.301   5.384
 1967SOL     OW 7341   1.150   2.068   5.196
 1967SOL    HW1 7342   1.136   2.140   5.257
 1967SOL    HW2 7343   1.198   2.107   5.123
 1968SOL     OW 7344   7.987   3.164   3.903
 1968SOL    HW1 7345   7.951   3.144   3.817
 1968SOL    HW2 7346   8.001   3.079   3.943
 1969SOL     OW 7347   0.107   3.612   4.614
 1969SOL    HW1 7348   0.088   3.533   4.667
 1969SOL    HW2 7349   0.202   3.619   4.615
 1970SOL     OW 7350   0.477   3.443   4.612
 1970SOL    HW1 7351   0.545   3.501   4.648
 1970SOL    HW2 7352   0.526   3.380   4.560
 1971SOL     OW 7353   0.923   2.632   4.990
 1971SOL    HW1 7354   0.989   2.590   5.045
 1971SOL    HW2 7355   0.964   2.637   4.903
 1972SOL     OW 7356   0.073   2.415   4.834
 1972SOL    HW1 7357   0.169   2.404   4.833
 1972SOL    HW2 7358   0.051   2.417   4.927
 1973SOL     OW 7359   0.198   2.385   5.425
 1973SOL    HW1 7360   0.183   2.318   5.360
 1973SOL    HW2 7361   0.166   2.466   5.385
 1974SOL     OW 7362   1.371   2.800   5.378
 1974SOL    HW1 7363   1.350   2.893   5.371
 1974SOL    HW2 7364   1.377   2.770   5.287
 1975SOL     OW 7365   0.803   2.427   4.096
 1975SOL    HW1 7366   0.815   2.355   4.034
 1975SOL    HW2 7367   0.730   2.477   4.060
 1976SOL     OW 7368   1.643   2.469   4.915
 1976SOL    HW1 7369   1.626   2.425   4.998
 1976SOL    HW2 7370   1.700   2.408   4.868
 1977SOL     OW 7371   0.310   3.399   5.453
 1977SOL    HW1 7372   0.273   3.476   5.496
 1977SOL    HW2 7373   0.294   3.327   5.515
 1978SOL     OW 7374   0.705   2.322   4.975
 1978SOL    HW1 7375   0.657   2.249   4.936
 1978SOL    HW2 7376   0.709   2.388   4.905
 1979SOL     OW 7377   0.927   3.529   5.197
 1979SOL    HW1 7378   0.847   3.496   5.156
 1979SOL    HW2 7379   0.924   3.624   5.182
 1980SOL     OW 7380   0.456   2.350   3.901
 1980SOL    HW1 7381   0.508   2.429   3.919
 1980SOL    HW2 7382   0.372   2.367   3.943
 1981SOL     OW 7383   0.143   3.004   5.162
 1981SOL    HW1 7384   0.133   2.957   5.245
 1981SOL    HW2 7385   0.155   2.935   5.097
 1982SOL     OW 7386   1.293   2.903   4.942
 1982SOL    HW1 7387   1.316   2.838   4.875
 1982SOL    HW2 7388   1.237   2.965   4.897
 1983SOL     OW 7389   1.320   2.655   4.007
 1983SOL    HW1 7390   1.273   2.687   4.083
 1983SOL    HW2 7391   1.287   2.708   3.934
 1984SOL     OW 7392   1.672   3.567   4.905
 1984SOL    HW1 7393   1.749   3.602   4.861
 1984SOL    HW2 7394   1.671   3.474   4.883
 1985SOL     OW 7395   1.250   3.606   4.841
 1985SOL    HW1 7396   1.331   3.628   4.794
 1985SOL    HW2 7397   1.251   3.510   4.845
 1986SOL     OW 7398   0.067   3.085   4.728
 1986SOL    HW1 7399   0.020   3.068   4.810
 1986SOL    HW2 7400  -0.000   3.075   4.660
 1987SOL     OW 7401   0.673   3.539   5.481
 1987SOL    HW1 7402   0.598   3.597   5.496
 1987SOL    HW2 7403   0.704   3.562   5.394
 1988SOL     OW 7404   1.703   1.987   4.224
 1988SOL    HW1 7405   1.765   2.056   4.201
 1988SOL    HW2 7406   1.703   1.985   4.320
 1989SOL     OW 7407   1.376   3.437   4.194
 1989SOL    HW1 7408   1.447   3.469   4.137
 1989SOL    HW2 7409   1.341   3.515   4.235
 1990SOL     OW 7410   0.185   3.612   5.559
 1990SOL    HW1 7411   0.121   3.563   5.610
 1990SOL    HW2 7412   0.226   3.671   5.623
 1991SOL     OW 7413   1.285   2.786   4.391
 1991SOL    HW1 7414   1.359   2.726   4.405
 1991SOL    HW2 7415   1.321   2.854   4.334
 1992SOL     OW 7416   0.814   3.163   5.166
 1992SOL    HW1 7417   0.783   3.193   5.252
 1992SOL    HW2 7418   0.765   3.216   5.103
 1993SOL     OW 7419   0.662   3.489   3.881
 1993SOL    HW1 7420   0.673   3.506   3.787
 1993SOL    HW2 7421   0.610   3.409   3.885
 1994SOL     OW 7422   1.588   3.588   5.158
 1994SOL    HW1 7423   1.627   3.584   5.071
 1994SOL    HW2 7424   1.582   3.681   5.177
 1995SOL     OW 7425   1.778   1.935   4.673
 1995SOL    HW1 7426   1.872   1.920   4.665
 1995SOL    HW2 7427   1.770   2.026   4.700
 1996SOL     OW 7428   0.255   2.184   4.425
 1996SOL    HW1 7429   0.164   2.209   4.407
 1996SOL    HW2 7430   0.258   2.172   4.520
 1997SOL     OW 7431   1.202   3.461   3.755
 1997SOL    HW1 7432   1.188   3.372   3.788
 1997SOL    HW2 7433   1.157   3.463   3.670
 1998SOL     OW 7434   0.818   2.894   5.115
 1998SOL    HW1 7435   0.832   2.882   5.021
 1998SOL    HW2 7436   0.812   2.989   5.127
 1999SOL     OW 7437   0.912   2.771   4.017
 1999SOL    HW1 7438   0.975   2.794   3.949
 1999SOL    HW2 7439   0.956   2.703   4.069
 2000SOL     OW 7440   1.473   3.552   3.762
 2000SOL    HW1 7441   1.387   3.514   3.743
 2000SOL    HW2 7442   1.522   3.541   3.681
 2001SOL     OW 7443   0.382   3.144   5.231
 2001SOL    HW1 7444   0.390   3.215   5.167
 2001SOL    HW2 7445   0.313   3.088   5.196
 2002SOL     OW 7446   1.585   3.138   5.086
 2002SOL    HW1 7447   1.678   3.139   5.064
 2002SOL    HW2 7448   1.553   3.223   5.057
 2003SOL     OW 7449   1.055   2.960   4.420
 2003SOL    HW1 7450   0.988   2.902   4.457
 2003SOL    HW2 7451   1.131   2.903   4.407
 2004SOL     OW 7452   1.023   2.096   4.695
 2004SOL    HW1 7453   1.024   2.051   4.611
 2004SOL    HW2 7454   1.015   2.025   4.760
 2005SOL     OW 7455   0.588   3.336   4.168
 2005SOL    HW1 7456   0.573   3.295   4.083
 2005SOL    HW2 7457   0.524   3.406   4.173
 2006SOL     OW 7458   1.736   2.238   5.103
 2006SOL    HW1 7459   1.809   2.299   5.113
 2006SOL    HW2 7460   1.732   2.221   5.009
 2007SOL     OW 7461   0.250   3.209   3.985
 2007SOL    HW1 7462   0.154   3.207   3.979
 2007SOL    HW2 7463   0.268   3.240   4.074
 2008SOL     OW 7464   0.105   2.874   5.408
 2008SOL    HW1 7465   0.030   2.899   5.462
 2008SOL    HW2 7466   0.178   2.869   5.470
 2009SOL     OW 7467   0.700   2.085   5.225
 2009SOL    HW1 7468   0.769   2.031   5.185
 2009SOL    HW2 7469   0.661   2.027   5.291
 2010SOL     OW 7470   0.061   2.312   3.761
 2010SOL    HW1 7471   0.037   2.220   3.763
 2010SOL    HW2 7472   0.112   2.322   3.681
 2011SOL     OW 7473   1.419   2.728   5.121
 2011SOL    HW1 7474   1.365   2.783   5.063
 2011SOL    HW2 7475   1.506   2.732   5.082
 2012SOL     OW 7476   0.137   2.095   4.041
 2012SOL    HW1 7477   0.082   2.074   3.966
 2012SOL    HW2 7478   0.214   2.039   4.031
 2013SOL     OW 7479   1.152   3.201   3.890
 2013SOL    HW1 7480   1.202   3.143   3.832
 2013SOL    HW2 7481   1.206   3.209   3.968
 2014SOL     OW 7482   0.637   2.685   5.152
 2014SOL    HW1 7483   0.670   2.774   5.167
 2014SOL    HW2 7484   0.703   2.645   5.095
 2015SOL     OW 7485   1.484   3.673   4.721
 2015SOL    HW1 7486   1.522   3.722   4.647
 2015SOL    HW2 7487   1.559   3.634   4.765
 2016SOL     OW 7488   0.744   2.408   5.415
 2016SOL    HW1 7489   0.780   2.482   5.463
 2016SOL    HW2 7490   0.761   2.332   5.471
 2017SOL     OW 7491   0.378   3.598   5.257
 2017SOL    HW1 7492   0.288   3.628   5.262
 2017SOL    HW2 7493   0.379   3.516   5.307
 2018SOL     OW 7494   1.655   2.741   4.985
 2018SOL    HW1 7495   1.663   2.658   4.939
 2018SOL    HW2 7496   1.647   2.807   4.916
 2019SOL     OW 7497   0.611   2.568   4.399
 2019SOL    HW1 7498   0.684   2.620   4.432
 2019SOL    HW2 7499   0.567   2.626   4.337
 2020SOL     OW 7500   1.753   2.220   5.393
 2020SOL    HW1 7501   1.755   2.233   5.298
 2020SOL    HW2 7502   1.676   2.165   5.408
 2021SOL     OW 7503   1.759   2.787   5.231
 2021SOL    HW1 7504   1.813   2.866   5.225
 2021SOL    HW2 7505   1.727   2.773   5.142
 2022SOL     OW 7506   0.864   3.224   3.815
 2022SOL    HW1 7507   0.836   3.315   3.802
 2022SOL    HW2 7508   0.945   3.216   3.764
 2023SOL     OW 7509   0.654   3.649   4.655
 2023SOL    HW1 7510   0.658   3.733   4.699
 2023SOL    HW2 7511   0.746   3.620   4.651
 2024SOL     OW 7512   1.066   2.845   3.815
 2024SOL    HW1 7513   1.044   2.905   3.743
 2024SOL    HW2 7514   1.144   2.800   3.785
 2025SOL     OW 7515   1.815   3.365   4.554
 2025SOL    HW1 7516   1.791   3.449   4.515
 2025SOL    HW2 7517   1.884   3.386   4.617
 2026SOL     OW 7518   0.206   3.163   5.590
 2026SOL    HW1 7519   0.117   3.139   5.564
 2026SOL    HW2 7520   0.203   3.168   5.685
 2027SOL     OW 7521   0.128   3.114   4.366
 2027SOL    HW1 7522   0.051   3.079   4.412
 2027SOL    HW2 7523   0.193   3.044   4.372
 2028SOL     OW 7524   0.698   3.266   5.397
 2028SOL    HW1 7525   0.607   3.249   5.376
 2028SOL    HW2 7526   0.702   3.360   5.413
 2029SOL     OW 7527   1.833   1.943   4.970
 2029SOL    HW1 7528   1.894   2.001   5.016
 2029SOL    HW2 7529   1.790   2.000   4.906
 2030SOL     OW 7530   0.406   2.300   4.225
 2030SOL    HW1 7531   0.468   2.235   4.192
 2030SOL    HW2 7532   0.367   2.259   4.302
 2031SOL     OW 7533   1.673   3.310   4.826
 2031SOL    HW1 7534   1.618   3.313   4.748
 2031SOL    HW2 7535   1.757   3.275   4.794
 2032SOL     OW 7536   0.373   2.425   5.014
 2032SOL    HW1 7537   0.419   2.356   5.060
 2032SOL    HW2 7538   0.376   2.399   4.922
 2033SOL     OW 7539   0.831   3.433   4.398
 2033SOL    HW1 7540   0.806   3.488   4.324
 2033SOL    HW2 7541   0.753   3.378   4.414
 2034SOL     OW 7542   1.425   2.090   4.837
 2034SOL    HW1 7543   1.461   2.013   4.881
 2034SOL    HW2 7544   1.380   2.138   4.906
 2035SOL     OW 7545   1.001   1.874   4.861
 2035SOL    HW1 7546   0.945   1.803   4.829
 2035SOL    HW2 7547   1.089   1.836   4.861
 2036SOL     OW 7548   1.327   1.906   3.916
 2036SOL    HW1 7549   1.353   1.849   3.844
 2036SOL    HW2 7550   1.239   1.876   3.940
 2037SOL     OW 7551   1.265   2.326   4.413
 2037SOL    HW1 7552   1.217   2.409   4.403
 2037SOL    HW2 7553   1.259   2.306   4.506
 2038SOL     OW 7554   1.520   2.084   4.549
 2038SOL    HW1 7555   1.504   2.071   4.642
 2038SOL    HW2 7556   1.579   2.158   4.545
 2039SOL     OW 7557   0.063   2.930   4.022
 2039SOL    HW1 7558   0.144   2.897   3.982
 2039SOL    HW2 7559   0.065   2.898   4.112
 2040SOL     OW 7560   0.876   3.506   4.069
 2040SOL    HW1 7561   0.806   3.503   4.004
 2040SOL    HW2 7562   0.860   3.587   4.117
 2041SOL     OW 7563   0.261   2.512   5.685
 2041SOL    HW1 7564   0.177   2.528   5.728
 2041SOL    HW2 7565   0.238   2.471   5.601
 2042SOL     OW 7566   0.237   2.120   6.572
 2042SOL    HW1 7567   0.263   2.102   6.662
 2042SOL    HW2 7568   0.168   2.056   6.554
 2043SOL     OW 7569   8.021   2.247   6.226
 2043SOL    HW1 7570   7.931   2.279   6.235
 2043SOL    HW2 7571   8.012   2.159   6.190
 2044SOL     OW 7572   0.575   3.142   6.802
 2044SOL    HW1 7573   0.496   3.127   6.853
 2044SOL    HW2 7574   0.585   3.237   6.800
 2045SOL     OW 7575   1.569   3.367   6.293
 2045SOL    HW1 7576   1.522   3.369   6.376
 2045SOL    HW2 7577   1.503   3.387   6.227
 2046SOL     OW 7578   1.134   2.559   6.277
 2046SOL    HW1 7579   1.179   2.642   6.264
 2046SOL    HW2 7580   1.075   2.575   6.351
 2047SOL     OW 7581   1.766   2.447   5.815
 2047SOL    HW1 7582   1.730   2.455   5.727
 2047SOL    HW2 7583   1.837   2.383   5.807
 2048SOL     OW 7584   0.732   3.000   6.630
 2048SOL    HW1 7585   0.671   3.040   6.692
 2048SOL    HW2 7586   0.776   3.075   6.589
 2049SOL     OW 7587   0.881   2.628   7.412
 2049SOL    HW1 7588   0.892   2.699   7.475
 2049SOL    HW2 7589   0.894   2.669   7.327
 2050SOL     OW 7590   0.710   3.010   7.406
 2050SOL    HW1 7591   0.756   3.086   7.442
 2050SOL    HW2 7592   0.632   3.046   7.364
 2051SOL     OW 7593   1.465   3.366   6.954
 2051SOL    HW1 7594   1.522   3.443   6.959
 2051SOL    HW2 7595   1.401   3.379   7.025
 2052SOL     OW 7596   0.463   2.242   7.050
 2052SOL    HW1 7597   0.538   2.184   7.065
 2052SOL    HW2 7598   0.388   2.194   7.084
 2053SOL     OW 7599   1.567   2.286   6.324
 2053SOL    HW1 7600   1.476   2.308   6.303
 2053SOL    HW2 7601   1.593   2.349   6.391
 2054SOL     OW 7602   0.217   3.551   6.052
 2054SOL    HW1 7603   0.204   3.630   6.103
 2054SOL    HW2 7604   0.288   3.572   5.992
 2055SOL     OW 7605   1.133   3.217   7.286
 2055SOL    HW1 7606   1.179   3.225   7.370
 2055SOL    HW2 7607   1.089   3.132   7.291
 2056SOL     OW 7608   0.293   3.298   6.126
 2056SOL    HW1 7609   0.263   3.389   6.117
 2056SOL    HW2 7610   0.230   3.257   6.185
 2057SOL     OW 7611   0.300   2.951   6.515
 2057SOL    HW1 7612   0.263   2.865   6.536
 2057SOL    HW2 7613   0.229   3.013   6.536
 2058SOL     OW 7614   0.597   3.667   6.990
 2058SOL    HW1 7615   0.528   3.635   7.048
 2058SOL    HW2 7616   0.630   3.747   7.033
 2059SOL     OW 7617   0.583   2.835   5.708
 2059SOL    HW1 7618   0.630   2.892   5.648
 2059SOL    HW2 7619   0.612   2.861   5.795
 2060SOL     OW 7620   1.581   2.000   7.037
 2060SOL    HW1 7621   1.634   2.072   7.002
 2060SOL    HW2 7622   1.563   2.025   7.128
 2061SOL     OW 7623   0.140   2.498   6.158
 2061SOL    HW1 7624   0.091   2.417   6.173
 2061SOL    HW2 7625   0.088   2.565   6.201
 2062SOL     OW 7626   1.849   3.616   5.928
 2062SOL    HW1 7627   1.926   3.591   5.980
 2062SOL    HW2 7628   1.866   3.707   5.903
 2063SOL     OW 7629   0.028   3.455   5.715
 2063SOL    HW1 7630   0.014   3.365   5.743
 2063SOL    HW2 7631  -0.017   3.508   5.781
 2064SOL     OW 7632   1.674   2.797   6.230
 2064SOL    HW1 7633   1.760   2.768   6.260
 2064SOL    HW2 7634   1.688   2.824   6.139
 2065SOL     OW 7635   1.658   2.978   6.007
 2065SOL    HW1 7636   1.741   2.964   5.963
 2065SOL    HW2 7637   1.676   3.048   6.070
 2066SOL     OW 7638   0.155   2.610   7.191
 2066SOL    HW1 7639   0.251   2.614   7.189
 2066SOL    HW2 7640   0.129   2.695   7.228
 2067SOL     OW 7641   0.610   3.231   6.348
 2067SOL    HW1 7642   0.559   3.151   6.334
 2067SOL    HW2 7643   0.612   3.273   6.262
 2068SOL     OW 7644   1.290   3.085   6.998
 2068SOL    HW1 7645   1.354   3.049   6.936
 2068SOL    HW2 7646   1.336   3.089   7.081
 2069SOL     OW 7647   0.823   1.886   6.109
 2069SOL    HW1 7648   0.864   1.967   6.077
 2069SOL    HW2 7649   0.729   1.907   6.111
 2070SOL     OW 7650   0.197   2.796   6.861
 2070SOL    HW1 7651   0.279   2.755   6.833
 2070SOL    HW2 7652   0.143   2.799   6.781
 2071SOL     OW 7653   1.523   2.879   5.775
 2071SOL    HW1 7654   1.458   2.819   5.812
 2071SOL    HW2 7655   1.574   2.909   5.850
 2072SOL     OW 7656   1.157   3.666   7.170
 2072SOL    HW1 7657   1.230   3.719   7.139
 2072SOL    HW2 7658   1.189   3.576   7.165
 2073SOL     OW 7659   0.344   2.196   7.376
 2073SOL    HW1 7660   0.428   2.223   7.412
 2073SOL    HW2 7661   0.318   2.121   7.430
 2074SOL     OW 7662   1.440   3.272   6.543
 2074SOL    HW1 7663   1.408   3.303   6.628
 2074SOL    HW2 7664   1.361   3.248   6.494
 2075SOL     OW 7665   1.640   3.621   6.163
 2075SOL    HW1 7666   1.642   3.580   6.077
 2075SOL    HW2 7667   1.648   3.547   6.224
 2076SOL     OW 7668   0.598   2.591   5.862
 2076SOL    HW1 7669   0.603   2.662   5.797
 2076SOL    HW2 7670   0.527   2.617   5.920
 2077SOL     OW 7671   1.272   2.226   6.525
 2077SOL    HW1 7672   1.185   2.185   6.529
 2077SOL    HW2 7673   1.326   2.172   6.584
 2078SOL     OW 7674   1.582   3.534   5.893
 2078SOL    HW1 7675   1.675   3.558   5.887
 2078SOL    HW2 7676   1.555   3.523   5.802
 2079SOL     OW 7677   0.759   2.478   7.032
 2079SOL    HW1 7678   0.753   2.459   7.126
 2079SOL    HW2 7679   0.719   2.402   6.990
 2080SOL     OW 7680   1.394   2.334   7.256
 2080SOL    HW1 7681   1.403   2.381   7.339
 2080SOL    HW2 7682   1.446   2.254   7.267
 2081SOL     OW 7683   0.949   2.746   7.164
 2081SOL    HW1 7684   1.013   2.683   7.133
 2081SOL    HW2 7685   0.917   2.790   7.086
 2082SOL     OW 7686   0.986   2.300   6.800
 2082SOL    HW1 7687   0.901   2.270   6.833
 2082SOL    HW2 7688   1.005   2.240   6.728
 2083SOL     OW 7689   1.061   2.551   6.006
 2083SOL    HW1 7690   1.077   2.542   6.100
 2083SOL    HW2 7691   0.975   2.511   5.993
 2084SOL     OW 7692   0.066   2.683   6.366
 2084SOL    HW1 7693   0.148   2.691   6.414
 2084SOL    HW2 7694   0.043   2.774   6.344
 2085SOL     OW 7695   0.123   3.683   7.129
 2085SOL    HW1 7696   0.135   3.691   7.224
 2085SOL    HW2 7697   0.030   3.663   7.119
 2086SOL     OW 7698   0.892   2.230   5.789
 2086SOL    HW1 7699   0.945   2.284   5.731
 2086SOL    HW2 7700   0.850   2.167   5.730
 2087SOL     OW 7701   1.679   2.427   7.422
 2087SOL    HW1 7702   1.657   2.504   7.369
 2087SOL    HW2 7703   1.719   2.366   7.360
 2088SOL     OW 7704   1.399   3.005   6.117
 2088SOL    HW1 7705   1.467   2.997   6.050
 2088SOL    HW2 7706   1.336   3.067   6.080
 2089SOL     OW 7707   0.562   2.035   6.483
 2089SOL    HW1 7708   0.558   2.065   6.574
 2089SOL    HW2 7709   0.513   2.100   6.434
 2090SOL     OW 7710   1.002   3.316   6.050
 2090SOL    HW1 7711   0.979   3.390   5.994
 2090SOL    HW2 7712   0.959   3.335   6.134
 2091SOL     OW 7713   0.382   3.685   6.464
 2091SOL    HW1 7714   0.424   3.656   6.383
 2091SOL    HW2 7715   0.427   3.767   6.486
 2092SOL     OW 7716   1.785   2.891   6.488
 2092SOL    HW1 7717   1.803   2.958   6.422
 2092SOL    HW2 7718   1.718   2.930   6.544
 2093SOL     OW 7719   1.224   3.403   7.101
 2093SOL    HW1 7720   1.213   3.335   7.168
 2093SOL    HW2 7721   1.141   3.403   7.054
 2094SOL     OW 7722   0.320   2.790   5.845
 2094SOL    HW1 7723   0.381   2.822   5.779
 2094SOL    HW2 7724   0.281   2.712   5.805
 2095SOL     OW 7725   1.476   2.638   6.348
 2095SOL    HW1 7726   1.486   2.569   6.412
 2095SOL    HW2 7727   1.565   2.657   6.318
 2096SOL     OW 7728   0.462   3.117   7.309
 2096SOL    HW1 7729   0.443   3.111   7.216
 2096SOL    HW2 7730   0.377   3.107   7.352
 2097SOL     OW 7731   1.148   3.641   5.822
 2097SOL    HW1 7732   1.065   3.612   5.858
 2097SOL    HW2 7733   1.164   3.581   5.749
 2098SOL     OW 7734   0.203   2.118   7.077
 2098SOL    HW1 7735   0.169   2.185   7.137
 2098SOL    HW2 7736   0.176   2.035   7.117
 2099SOL     OW 7737   1.625   3.240   5.636
 2099SOL    HW1 7738   1.600   3.331   5.652
 2099SOL    HW2 7739   1.546   3.189   5.655
 2100SOL     OW 7740   0.456   3.622   5.906
 2100SOL    HW1 7741   0.489   3.643   5.993
 2100SOL    HW2 7742   0.530   3.581   5.862
 2101SOL     OW 7743   1.404   1.970   6.021
 2101SOL    HW1 7744   1.387   1.938   5.933
 2101SOL    HW2 7745   1.487   1.929   6.046
 2102SOL     OW 7746   0.243   3.649   6.820
 2102SOL    HW1 7747   0.298   3.572   6.835
 2102SOL    HW2 7748   0.233   3.653   6.725
 2103SOL     OW 7749   0.938   3.562   6.478
 2103SOL    HW1 7750   1.018   3.515   6.500
 2103SOL    HW2 7751   0.900   3.511   6.405
 2104SOL     OW 7752   0.406   2.540   6.097
 2104SOL    HW1 7753   0.406   2.466   6.036
 2104SOL    HW2 7754   0.315   2.548   6.126
 2105SOL     OW 7755   1.520   2.083   7.307
 2105SOL    HW1 7756   1.528   2.107   7.399
 2105SOL    HW2 7757   1.464   2.005   7.307
 2106SOL     OW 7758   0.607   1.980   5.683
 2106SOL    HW1 7759   0.665   1.905   5.698
 2106SOL    HW2 7760   0.574   1.969   5.594
 2107SOL     OW 7761   0.774   2.145   7.335
 2107SOL    HW1 7762   0.856   2.096   7.324
 2107SOL    HW2 7763   0.728   2.099   7.405
 2108SOL     OW 7764   0.870   3.374   6.773
 2108SOL    HW1 7765   0.857   3.336   6.686
 2108SOL    HW2 7766   0.944   3.325   6.809
 2109SOL     OW 7767   1.337   2.466   7.020
 2109SOL    HW1 7768   1.372   2.429   7.101
 2109SOL    HW2 7769   1.381   2.550   7.011
 2110SOL     OW 7770   0.826   3.238   6.529
 2110SOL    HW1 7771   0.910   3.238   6.483
 2110SOL    HW2 7772   0.761   3.253   6.460
 2111SOL     OW 7773   0.909   2.368   6.483
 2111SOL    HW1 7774   0.895   2.363   6.388
 2111SOL    HW2 7775   0.939   2.280   6.507
 2112SOL     OW 7776   0.559   1.968   6.095
 2112SOL    HW1 7777   0.479   1.931   6.132
 2112SOL    HW2 7778   0.541   2.062   6.090
 2113SOL     OW 7779   1.423   3.064   5.580
 2113SOL    HW1 7780   1.452   2.990   5.632
 2113SOL    HW2 7781   1.334   3.082   5.612
 2114SOL     OW 7782   0.318   1.923   5.767
 2114SOL    HW1 7783   0.348   1.913   5.677
 2114SOL    HW2 7784   0.363   1.854   5.816
 2115SOL     OW 7785   0.949   2.125   6.040
 2115SOL    HW1 7786   0.926   2.153   5.951
 2115SOL    HW2 7787   1.045   2.131   6.043
 2116SOL     OW 7788   1.071   2.516   7.034
 2116SOL    HW1 7789   1.050   2.456   7.105
 2116SOL    HW2 7790   1.166   2.510   7.026
 2117SOL     OW 7791   1.231   3.435   6.384
 2117SOL    HW1 7792   1.235   3.495   6.310
 2117SOL    HW2 7793   1.272   3.483   6.456
 2118SOL     OW 7794   0.476   2.985   6.311
 2118SOL    HW1 7795   0.403   2.988   6.373
 2118SOL    HW2 7796   0.434   2.988   6.225
 2119SOL     OW 7797   1.255   3.648   6.202
 2119SOL    HW1 7798   1.308   3.711   6.154
 2119SOL    HW2 7799   1.184   3.701   6.239
 2120SOL     OW 7800   1.027   2.402   5.618
 2120SOL    HW1 7801   0.980   2.482   5.591
 2120SOL    HW2 7802   1.103   2.435   5.666
 2121SOL     OW 7803   0.098   2.498   6.954
 2121SOL    HW1 7804   0.186   2.466   6.933
 2121SOL    HW2 7805   0.107   2.537   7.041
 2122SOL     OW 7806   0.562   2.080   6.759
 2122SOL    HW1 7807   0.600   1.999   6.792
 2122SOL    HW2 7808   0.471   2.078   6.789
 2123SOL     OW 7809   0.862   2.328   6.215
 2123SOL    HW1 7810   0.831   2.377   6.139
 2123SOL    HW2 7811   0.890   2.244   6.180
 2124SOL     OW 7812   1.009   1.911   6.329
 2124SOL    HW1 7813   0.949   1.902   6.255
 2124SOL    HW2 7814   0.989   1.837   6.386
 2125SOL     OW 7815   1.474   2.456   6.555
 2125SOL    HW1 7816   1.415   2.382   6.570
 2125SOL    HW2 7817   1.535   2.453   6.629
 2126SOL     OW 7818   1.823   2.678   5.963
 2126SOL    HW1 7819   1.879   2.633   6.027
 2126SOL    HW2 7820   1.805   2.612   5.896
 2127SOL     OW 7821   0.505   3.269   5.726
 2127SOL    HW1 7822   0.426   3.248   5.776
 2127SOL    HW2 7823   0.493   3.224   5.643
 2128SOL     OW 7824   1.681   3.119   6.260
 2128SOL    HW1 7825   1.777   3.114   6.260
 2128SOL    HW2 7826   1.662   3.212   6.266
 2129SOL     OW 7827   1.395   2.441   5.649
 2129SOL    HW1 7828   1.347   2.409   5.725
 2129SOL    HW2 7829   1.486   2.415   5.665
 2130SOL     OW 7830   1.740   3.098   7.168
 2130SOL    HW1 7831   1.823   3.073   7.129
 2130SOL    HW2 7832   1.765   3.149   7.246
 2131SOL     OW 7833   1.063   3.200   6.902
 2131SOL    HW1 7834   0.987   3.181   6.957
 2131SOL    HW2 7835   1.137   3.162   6.950
 2132SOL     OW 7836   1.615   3.512   7.244
 2132SOL    HW1 7837   1.621   3.530   7.150
 2132SOL    HW2 7838   1.705   3.518   7.275
 2133SOL     OW 7839   1.111   3.041   6.680
 2133SOL    HW1 7840   1.086   3.097   6.753
 2133SOL    HW2 7841   1.101   3.097   6.603
 2134SOL     OW 7842   1.568   2.975   6.636
 2134SOL    HW1 7843   1.597   3.043   6.696
 2134SOL    HW2 7844   1.492   2.935   6.678
 2135SOL     OW 7845   0.916   1.965   6.971
 2135SOL    HW1 7846   0.943   1.938   6.883
 2135SOL    HW2 7847   0.997   1.997   7.012
 2136SOL     OW 7848   0.985   2.981   7.312
 2136SOL    HW1 7849   0.895   3.000   7.340
 2136SOL    HW2 7850   0.978   2.901   7.261
 2137SOL     OW 7851   0.695   2.893   5.951
 2137SOL    HW1 7852   0.710   2.985   5.975
 2137SOL    HW2 7853   0.783   2.857   5.940
 2138SOL     OW 7854   0.444   2.668   6.816
 2138SOL    HW1 7855   0.495   2.691   6.893
 2138SOL    HW2 7856   0.405   2.583   6.836
 2139SOL     OW 7857   1.265   2.252   6.864
 2139SOL    HW1 7858   1.301   2.325   6.915
 2139SOL    HW2 7859   1.173   2.277   6.849
 2140SOL     OW 7860   0.043   3.454   6.910
 2140SOL    HW1 7861   0.093   3.533   6.888
 2140SOL    HW2 7862   0.083   3.422   6.990
 2141SOL     OW 7863   0.359   2.971   6.064
 2141SOL    HW1 7864   0.347   3.048   6.009
 2141SOL    HW2 7865   0.350   2.897   6.005
 2142SOL     OW 7866   0.570   2.420   6.457
 2142SOL    HW1 7867   0.553   2.455   6.370
 2142SOL    HW2 7868   0.652   2.372   6.448
 2143SOL     OW 7869   1.248   3.209   5.990
 2143SOL    HW1 7870   1.303   3.284   6.012
 2143SOL    HW2 7871   1.159   3.235   6.015
 2144SOL     OW 7872   1.280   3.335   6.762
 2144SOL    HW1 7873   1.347   3.343   6.830
 2144SOL    HW2 7874   1.207   3.290   6.805
 2145SOL     OW 7875   1.599   2.449   6.043
 2145SOL    HW1 7876   1.542   2.523   6.059
 2145SOL    HW2 7877   1.650   2.474   5.966
 2146SOL     OW 7878   0.349   3.381   6.825
 2146SOL    HW1 7879   0.334   3.316   6.895
 2146SOL    HW2 7880   0.442   3.402   6.831
 2147SOL     OW 7881   0.427   2.594   7.201
 2147SOL    HW1 7882   0.484   2.643   7.142
 2147SOL    HW2 7883   0.473   2.512   7.218
 2148SOL     OW 7884   1.599   2.642   7.281
 2148SOL    HW1 7885   1.514   2.686   7.276
 2148SOL    HW2 7886   1.652   2.684   7.212
 2149SOL     OW 7887   1.001   1.999   7.315
 2149SOL    HW1 7888   1.070   2.065   7.307
 2149SOL    HW2 7889   1.046   1.916   7.303
 2150SOL     OW 7890   0.506   1.893   7.342
 2150SOL    HW1 7891   0.461   1.851   7.269
 2150SOL    HW2 7892   0.437   1.916   7.404
 2151SOL     OW 7893   0.584   2.758   6.601
 2151SOL    HW1 7894   0.623   2.840   6.630
 2151SOL    HW2 7895   0.531   2.729   6.675
 2152SOL     OW 7896   1.297   2.675   6.590
 2152SOL    HW1 7897   1.318   2.708   6.502
 2152SOL    HW2 7898   1.363   2.608   6.606
 2153SOL     OW 7899   1.225   2.384   5.857
 2153SOL    HW1 7900   1.220   2.303   5.907
 2153SOL    HW2 7901   1.170   2.446   5.906
 2154SOL     OW 7902   0.302   2.052   6.831
 2154SOL    HW1 7903   0.266   2.081   6.915
 2154SOL    HW2 7904   0.289   1.957   6.831
 2155SOL     OW 7905   0.062   3.163   6.857
 2155SOL    HW1 7906   0.082   3.101   6.927
 2155SOL    HW2 7907   0.045   3.246   6.903
 2156SOL     OW 7908   0.775   2.538   6.672
 2156SOL    HW1 7909   0.807   2.488   6.597
 2156SOL    HW2 7910   0.704   2.593   6.636
 2157SOL     OW 7911   1.741   2.818   7.451
 2157SOL    HW1 7912   1.691   2.755   7.400
 2157SOL    HW2 7913   1.682   2.844   7.521
 2158SOL     OW 7914   0.310   1.913   6.198
 2158SOL    HW1 7915   0.242   1.980   6.204
 2158SOL    HW2 7916   0.317   1.877   6.286
 2159SOL     OW 7917   1.030   2.623   6.534
 2159SOL    HW1 7918   1.118   2.634   6.570
 2159SOL    HW2 7919   1.013   2.529   6.539
 2160SOL     OW 7920   0.940   3.418   7.296
 2160SOL    HW1 7921   0.939   3.446   7.204
 2160SOL    HW2 7922   1.010   3.352   7.300
 2161SOL     OW 7923   0.368   2.804   7.385
 2161SOL    HW1 7924   0.441   2.816   7.445
 2161SOL    HW2 7925   0.388   2.723   7.338
 2162SOL     OW 7926   1.497   2.123   5.710
 2162SOL    HW1 7927   1.445   2.043   5.722
 2162SOL    HW2 7928   1.512   2.155   5.799
 2163SOL     OW 7929   1.291   2.691   5.619
 2163SOL    HW1 7930   1.330   2.604   5.620
 2163SOL    HW2 7931   1.318   2.728   5.535
 2164SOL     OW 7932   1.088   3.204   6.448
 2164SOL    HW1 7933   1.085   3.136   6.380
 2164SOL    HW2 7934   1.135   3.277   6.407
 2165SOL     OW 7935   0.302   2.660   6.522
 2165SOL    HW1 7936   0.394   2.679   6.539
 2165SOL    HW2 7937   0.288   2.572   6.557
 2166SOL     OW 7938   0.338   2.377   6.604
 2166SOL    HW1 7939   0.302   2.292   6.576
 2166SOL    HW2 7940   0.415   2.389   6.549
 2167SOL     OW 7941   1.131   2.261   7.251
 2167SOL    HW1 7942   1.090   2.302   7.327
 2167SOL    HW2 7943   1.222   2.288   7.256
 2168SOL     OW 7944   1.157   2.069   7.050
 2168SOL    HW1 7945   1.144   2.132   7.121
 2168SOL    HW2 7946   1.214   2.115   6.988
 2169SOL     OW 7947   7.987   3.203   5.832
 2169SOL    HW1 7948   7.891   3.206   5.827
 2169SOL    HW2 7949   8.008   3.111   5.847
 2170SOL     OW 7950   0.165   3.561   6.537
 2170SOL    HW1 7951   0.095   3.591   6.478
 2170SOL    HW2 7952   0.242   3.608   6.507
 2171SOL     OW 7953   0.485   3.401   6.529
 2171SOL    HW1 7954   0.535   3.481   6.541
 2171SOL    HW2 7955   0.533   3.352   6.463
 2172SOL     OW 7956   0.046   2.400   6.710
 2172SOL    HW1 7957   0.123   2.343   6.700
 2172SOL    HW2 7958   0.053   2.436   6.798
 2173SOL     OW 7959   0.150   2.335   7.249
 2173SOL    HW1 7960   0.234   2.307   7.283
 2173SOL    HW2 7961   0.161   2.429   7.230
 2174SOL     OW 7962   1.375   2.794   7.237
 2174SOL    HW1 7963   1.398   2.887   7.241
 2174SOL    HW2 7964   1.381   2.771   7.144
 2175SOL     OW 7965   0.812   2.440   5.962
 2175SOL    HW1 7966   0.826   2.367   5.902
 2175SOL    HW2 7967   0.741   2.491   5.923
 2176SOL     OW 7968   1.651   2.452   6.761
 2176SOL    HW1 7969   1.647   2.399   6.841
 2176SOL    HW2 7970   1.741   2.440   6.729
 2177SOL     OW 7971   0.290   3.391   7.308
 2177SOL    HW1 7972   0.259   3.468   7.357
 2177SOL    HW2 7973   0.287   3.320   7.372
 2178SOL     OW 7974   0.711   2.299   6.832
 2178SOL    HW1 7975   0.659   2.219   6.826
 2178SOL    HW2 7976   0.672   2.357   6.766
 2179SOL     OW 7977   0.953   3.507   7.037
 2179SOL    HW1 7978   0.904   3.517   6.956
 2179SOL    HW2 7979   0.987   3.595   7.057
 2180SOL     OW 7980   0.488   2.355   5.775
 2180SOL    HW1 7981   0.543   2.432   5.793
 2180SOL    HW2 7982   0.401   2.392   5.756
 2181SOL     OW 7983   0.162   2.985   7.047
 2181SOL    HW1 7984   0.139   2.942   7.130
 2181SOL    HW2 7985   0.173   2.914   6.985
 2182SOL     OW 7986   1.329   2.889   6.762
 2182SOL    HW1 7987   1.308   2.812   6.710
 2182SOL    HW2 7988   1.256   2.950   6.746
 2183SOL     OW 7989   1.314   2.716   5.895
 2183SOL    HW1 7990   1.236   2.678   5.936
 2183SOL    HW2 7991   1.298   2.709   5.801
 2184SOL     OW 7992   1.733   3.603   6.708
 2184SOL    HW1 7993   1.820   3.632   6.679
 2184SOL    HW2 7994   1.734   3.508   6.693
 2185SOL     OW 7995   1.236   3.591   6.666
 2185SOL    HW1 7996   1.324   3.621   6.641
 2185SOL    HW2 7997   1.251   3.506   6.706
 2186SOL     OW 7998   0.118   3.175   6.597
 2186SOL    HW1 7999   0.091   3.162   6.688
 2186SOL    HW2 8000   0.044   3.143   6.545
 2187SOL     OW 8001   0.676   3.519   7.320
 2187SOL    HW1 8002   0.653   3.612   7.324
 2187SOL    HW2 8003   0.772   3.518   7.322
 2188SOL     OW 8004   1.717   2.021   6.068
 2188SOL    HW1 8005   1.789   2.006   6.007
 2188SOL    HW2 8006   1.700   1.936   6.107
 2189SOL     OW 8007   1.395   3.431   6.075
 2189SOL    HW1 8008   1.454   3.467   6.009
 2189SOL    HW2 8009   1.342   3.505   6.103
 2190SOL     OW 8010   0.178   3.613   7.412
 2190SOL    HW1 8011   0.111   3.570   7.465
 2190SOL    HW2 8012   0.226   3.668   7.474
 2191SOL     OW 8013   1.278   2.790   6.251
 2191SOL    HW1 8014   1.351   2.731   6.267
 2191SOL    HW2 8015   1.306   2.843   6.176
 2192SOL     OW 8016   0.811   3.129   7.010
 2192SOL    HW1 8017   0.784   3.170   7.093
 2192SOL    HW2 8018   0.747   3.160   6.946
 2193SOL     OW 8019   0.682   3.473   5.745
 2193SOL    HW1 8020   0.689   3.500   5.654
 2193SOL    HW2 8021   0.615   3.404   5.745
 2194SOL     OW 8022   1.615   3.594   6.967
 2194SOL    HW1 8023   1.668   3.599   6.888
 2194SOL    HW2 8024   1.599   3.685   6.992
 2195SOL     OW 8025   1.840   2.041   6.538
 2195SOL    HW1 8026   1.877   1.953   6.526
 2195SOL    HW2 8027   1.749   2.033   6.509
 2196SOL     OW 8028   0.281   2.199   6.309
 2196SOL    HW1 8029   0.195   2.227   6.276
 2196SOL    HW2 8030   0.263   2.167   6.398
 2197SOL     OW 8031   1.214   3.467   5.616
 2197SOL    HW1 8032   1.193   3.377   5.638
 2197SOL    HW2 8033   1.154   3.490   5.545
 2198SOL     OW 8034   0.846   2.867   6.936
 2198SOL    HW1 8035   0.859   2.886   6.843
 2198SOL    HW2 8036   0.838   2.953   6.977
 2199SOL     OW 8037   0.940   2.787   5.909
 2199SOL    HW1 8038   0.985   2.816   5.830
 2199SOL    HW2 8039   0.985   2.707   5.935
 2200SOL     OW 8040   1.489   3.492   5.630
 2200SOL    HW1 8041   1.394   3.486   5.619
 2200SOL    HW2 8042   1.523   3.488   5.541
 2201SOL     OW 8043   0.347   3.184   7.035
 2201SOL    HW1 8044   0.305   3.245   7.095
 2201SOL    HW2 8045   0.288   3.108   7.032
 2202SOL     OW 8046   1.589   3.137   6.862
 2202SOL    HW1 8047   1.671   3.129   6.912
 2202SOL    HW2 8048   1.545   3.213   6.900
 2203SOL     OW 8049   1.059   2.971   6.306
 2203SOL    HW1 8050   0.982   2.920   6.331
 2203SOL    HW2 8051   1.121   2.906   6.273
 2204SOL     OW 8052   1.020   2.104   6.547
 2204SOL    HW1 8053   1.013   2.057   6.464
 2204SOL    HW2 8054   1.014   2.035   6.614
 2205SOL     OW 8055   0.631   3.339   6.104
 2205SOL    HW1 8056   0.653   3.288   6.025
 2205SOL    HW2 8057   0.560   3.397   6.076
 2206SOL     OW 8058   1.734   2.253   6.970
 2206SOL    HW1 8059   1.808   2.313   6.974
 2206SOL    HW2 8060   1.762   2.184   6.909
 2207SOL     OW 8061   0.277   3.203   5.875
 2207SOL    HW1 8062   0.183   3.182   5.877
 2207SOL    HW2 8063   0.294   3.247   5.958
 2208SOL     OW 8064   0.113   2.861   7.290
 2208SOL    HW1 8065   0.059   2.925   7.336
 2208SOL    HW2 8066   0.194   2.856   7.340
 2209SOL     OW 8067   0.683   2.068   7.082
 2209SOL    HW1 8068   0.765   2.037   7.045
 2209SOL    HW2 8069   0.704   2.091   7.172
 2210SOL     OW 8070   0.075   2.208   5.612
 2210SOL    HW1 8071  -0.017   2.200   5.637
 2210SOL    HW2 8072   0.075   2.272   5.541
 2211SOL     OW 8073   1.423   2.727   6.974
 2211SOL    HW1 8074   1.384   2.791   6.914
 2211SOL    HW2 8075   1.516   2.730   6.954
 2212SOL     OW 8076   0.142   2.103   5.909
 2212SOL    HW1 8077   0.063   2.117   5.857
 2212SOL    HW2 8078   0.180   2.022   5.875
 2213SOL     OW 8079   1.171   3.196   5.696
 2213SOL    HW1 8080   1.075   3.198   5.697
 2213SOL    HW2 8081   1.195   3.190   5.789
 2214SOL     OW 8082   0.613   2.708   7.026
 2214SOL    HW1 8083   0.673   2.782   7.022
 2214SOL    HW2 8084   0.669   2.631   7.036
 2215SOL     OW 8085   1.491   3.648   6.574
 2215SOL    HW1 8086   1.516   3.715   6.511
 2215SOL    HW2 8087   1.573   3.627   6.620
 2216SOL     OW 8088   0.728   2.417   7.288
 2216SOL    HW1 8089   0.766   2.471   7.358
 2216SOL    HW2 8090   0.741   2.327   7.316
 2217SOL     OW 8091   1.466   3.054   7.211
 2217SOL    HW1 8092   1.456   3.070   7.304
 2217SOL    HW2 8093   1.558   3.071   7.193
 2218SOL     OW 8094   0.383   3.592   7.143
 2218SOL    HW1 8095   0.291   3.613   7.132
 2218SOL    HW2 8096   0.384   3.513   7.196
 2219SOL     OW 8097   1.665   2.730   6.828
 2219SOL    HW1 8098   1.670   2.639   6.800
 2219SOL    HW2 8099   1.704   2.780   6.756
 2220SOL     OW 8100   1.224   2.179   6.049
 2220SOL    HW1 8101   1.283   2.104   6.040
 2220SOL    HW2 8102   1.256   2.224   6.128
 2221SOL     OW 8103   0.617   2.638   6.228
 2221SOL    HW1 8104   0.684   2.621   6.162
 2221SOL    HW2 8105   0.535   2.612   6.187
 2222SOL     OW 8106   1.753   2.221   7.249
 2222SOL    HW1 8107   1.747   2.239   7.155
 2222SOL    HW2 8108   1.678   2.165   7.267
 2223SOL     OW 8109   1.715   2.793   7.095
 2223SOL    HW1 8110   1.757   2.876   7.118
 2223SOL    HW2 8111   1.723   2.787   7.000
 2224SOL     OW 8112   0.894   3.262   5.655
 2224SOL    HW1 8113   0.822   3.313   5.694
 2224SOL    HW2 8114   0.918   3.310   5.576
 2225SOL     OW 8115   0.665   3.631   6.560
 2225SOL    HW1 8116   0.629   3.706   6.511
 2225SOL    HW2 8117   0.752   3.617   6.521
 2226SOL     OW 8118   0.852   2.820   6.448
 2226SOL    HW1 8119   0.913   2.754   6.480
 2226SOL    HW2 8120   0.843   2.881   6.521
 2227SOL     OW 8121   1.071   2.843   5.680
 2227SOL    HW1 8122   1.046   2.895   5.603
 2227SOL    HW2 8123   1.146   2.792   5.651
 2228SOL     OW 8124   1.870   3.389   6.421
 2228SOL    HW1 8125   1.775   3.394   6.406
 2228SOL    HW2 8126   1.880   3.324   6.490
 2229SOL     OW 8127   0.218   3.152   7.434
 2229SOL    HW1 8128   0.125   3.143   7.415
 2229SOL    HW2 8129   0.223   3.157   7.529
 2230SOL     OW 8130   0.149   3.101   6.267
 2230SOL    HW1 8131   0.066   3.060   6.291
 2230SOL    HW2 8132   0.178   3.053   6.189
 2231SOL     OW 8133   0.673   3.264   7.205
 2231SOL    HW1 8134   0.598   3.228   7.251
 2231SOL    HW2 8135   0.681   3.354   7.238
 2232SOL     OW 8136   1.792   2.043   6.811
 2232SOL    HW1 8137   1.808   1.950   6.826
 2232SOL    HW2 8138   1.816   2.057   6.719
 2233SOL     OW 8139   0.435   2.212   6.078
 2233SOL    HW1 8140   0.374   2.263   6.026
 2233SOL    HW2 8141   0.393   2.204   6.164
 2234SOL     OW 8142   1.699   3.338   6.670
 2234SOL    HW1 8143   1.619   3.298   6.637
 2234SOL    HW2 8144   1.733   3.276   6.735
 2235SOL     OW 8145   0.350   2.421   6.879
 2235SOL    HW1 8146   0.391   2.356   6.936
 2235SOL    HW2 8147   0.353   2.382   6.792
 2236SOL     OW 8148   0.838   3.454   6.246
 2236SOL    HW1 8149   0.834   3.542   6.209
 2236SOL    HW2 8150   0.759   3.411   6.214
 2237SOL     OW 8151   1.431   2.096   6.710
 2237SOL    HW1 8152   1.477   2.032   6.765
 2237SOL    HW2 8153   1.378   2.147   6.771
 2238SOL     OW 8154   1.009   1.884   6.718
 2238SOL    HW1 8155   0.946   1.819   6.688
 2238SOL    HW2 8156   1.094   1.839   6.713
 2239SOL     OW 8157   0.761   3.166   5.923
 2239SOL    HW1 8158   0.747   3.144   5.831
 2239SOL    HW2 8159   0.851   3.199   5.927
 2240SOL     OW 8160   0.615   3.421   6.857
 2240SOL    HW1 8161   0.615   3.505   6.903
 2240SOL    HW2 8162   0.704   3.412   6.823
 2241SOL     OW 8163   1.362   1.893   5.759
 2241SOL    HW1 8164   1.401   1.821   5.708
 2241SOL    HW2 8165   1.272   1.864   5.776
 2242SOL     OW 8166   1.302   2.331   6.275
 2242SOL    HW1 8167   1.246   2.408   6.269
 2242SOL    HW2 8168   1.282   2.293   6.360
 2243SOL     OW 8169   1.572   2.039   6.477
 2243SOL    HW1 8170   1.523   2.066   6.555
 2243SOL    HW2 8171   1.563   2.112   6.416
 2244SOL     OW 8172   0.095   2.961   5.898
 2244SOL    HW1 8173   0.161   2.894   5.883
 2244SOL    HW2 8174   0.012   2.917   5.881
 2245SOL     OW 8175   0.900   3.531   5.913
 2245SOL    HW1 8176   0.824   3.515   5.858
 2245SOL    HW2 8177   0.871   3.595   5.977
 2246SOL     OW 8178   0.229   2.545   7.544
 2246SOL    HW1 8179   0.220   2.489   7.621
 2246SOL    HW2 8180   0.202   2.489   7.471
 2247SOL     OW 8181   0.217   2.113   8.432
 2247SOL    HW1 8182   0.250   2.095   8.520
 2247SOL    HW2 8183   0.187   2.027   8.400
 2248SOL     OW 8184   7.994   2.188   8.110
 2248SOL    HW1 8185   7.908   2.230   8.110
 2248SOL    HW2 8186   8.006   2.158   8.021
 2249SOL     OW 8187   0.551   3.162   8.638
 2249SOL    HW1 8188   0.472   3.181   8.588
 2249SOL    HW2 8189   0.583   3.248   8.666
 2250SOL     OW 8190   1.548   3.344   8.123
 2250SOL    HW1 8191   1.502   3.346   8.207
 2250SOL    HW2 8192   1.481   3.371   8.059
 2251SOL     OW 8193   1.109   2.554   8.108
 2251SOL    HW1 8194   1.161   2.634   8.093
 2251SOL    HW2 8195   1.070   2.567   8.194
 2252SOL     OW 8196   1.772   2.449   7.673
 2252SOL    HW1 8197   1.742   2.446   7.582
 2252SOL    HW2 8198   1.739   2.368   7.711
 2253SOL     OW 8199   0.702   2.989   8.493
 2253SOL    HW1 8200   0.654   3.039   8.559
 2253SOL    HW2 8201   0.753   3.055   8.446
 2254SOL     OW 8202   0.878   2.612   9.284
 2254SOL    HW1 8203   0.874   2.664   9.363
 2254SOL    HW2 8204   0.894   2.675   9.214
 2255SOL     OW 8205   0.691   2.863   8.092
 2255SOL    HW1 8206   0.752   2.852   8.166
 2255SOL    HW2 8207   0.622   2.920   8.126
 2256SOL     OW 8208   0.708   3.011   9.257
 2256SOL    HW1 8209   0.752   3.089   9.290
 2256SOL    HW2 8210   0.629   3.045   9.214
 2257SOL     OW 8211   0.332   3.278   8.513
 2257SOL    HW1 8212   0.259   3.236   8.468
 2257SOL    HW2 8213   0.374   3.332   8.446
 2258SOL     OW 8214   1.464   3.356   8.820
 2258SOL    HW1 8215   1.522   3.431   8.810
 2258SOL    HW2 8216   1.403   3.381   8.890
 2259SOL     OW 8217   0.384   2.302   8.972
 2259SOL    HW1 8218   0.466   2.258   8.994
 2259SOL    HW2 8219   0.327   2.231   8.942
 2260SOL     OW 8220   1.645   2.304   8.175
 2260SOL    HW1 8221   1.584   2.332   8.106
 2260SOL    HW2 8222   1.640   2.374   8.240
 2261SOL     OW 8223   0.240   3.559   7.928
 2261SOL    HW1 8224   0.239   3.644   7.972
 2261SOL    HW2 8225   0.312   3.565   7.865
 2262SOL     OW 8226   1.132   3.203   9.148
 2262SOL    HW1 8227   1.163   3.197   9.238
 2262SOL    HW2 8228   1.082   3.122   9.134
 2263SOL     OW 8229   0.250   3.287   7.956
 2263SOL    HW1 8230   0.254   3.382   7.970
 2263SOL    HW2 8231   0.222   3.251   8.040
 2264SOL     OW 8232   0.297   2.931   8.388
 2264SOL    HW1 8233   0.241   2.866   8.346
 2264SOL    HW2 8234   0.237   3.001   8.414
 2265SOL     OW 8235   0.603   3.662   8.870
 2265SOL    HW1 8236   0.524   3.652   8.922
 2265SOL    HW2 8237   0.634   3.750   8.891
 2266SOL     OW 8238   0.575   2.853   7.595
 2266SOL    HW1 8239   0.625   2.897   7.525
 2266SOL    HW2 8240   0.617   2.882   7.676
 2267SOL     OW 8241   1.597   1.988   8.911
 2267SOL    HW1 8242   1.623   2.063   8.858
 2267SOL    HW2 8243   1.568   2.026   8.994
 2268SOL     OW 8244   1.850   3.625   7.789
 2268SOL    HW1 8245   1.924   3.596   7.841
 2268SOL    HW2 8246   1.876   3.712   7.756
 2269SOL     OW 8247   0.020   3.453   7.578
 2269SOL    HW1 8248   0.004   3.359   7.577
 2269SOL    HW2 8249   0.008   3.478   7.670
 2270SOL     OW 8250   1.665   2.739   8.063
 2270SOL    HW1 8251   1.745   2.754   8.112
 2270SOL    HW2 8252   1.666   2.806   7.994
 2271SOL     OW 8253   1.655   2.968   7.888
 2271SOL    HW1 8254   1.740   2.968   7.845
 2271SOL    HW2 8255   1.666   3.022   7.966
 2272SOL     OW 8256   0.162   2.633   9.011
 2272SOL    HW1 8257   0.256   2.630   9.029
 2272SOL    HW2 8258   0.153   2.696   8.939
 2273SOL     OW 8259   0.600   3.250   8.188
 2273SOL    HW1 8260   0.560   3.164   8.188
 2273SOL    HW2 8261   0.594   3.279   8.097
 2274SOL     OW 8262   1.280   3.086   8.875
 2274SOL    HW1 8263   1.306   3.021   8.809
 2274SOL    HW2 8264   1.351   3.086   8.939
 2275SOL     OW 8265   0.819   1.828   7.967
 2275SOL    HW1 8266   0.877   1.883   8.019
 2275SOL    HW2 8267   0.735   1.875   7.967
 2276SOL     OW 8268   0.188   2.775   8.748
 2276SOL    HW1 8269   0.275   2.755   8.713
 2276SOL    HW2 8270   0.130   2.774   8.672
 2277SOL     OW 8271   1.530   2.866   7.655
 2277SOL    HW1 8272   1.490   2.787   7.691
 2277SOL    HW2 8273   1.575   2.905   7.730
 2278SOL     OW 8274   1.178   3.628   9.121
 2278SOL    HW1 8275   1.189   3.710   9.074
 2278SOL    HW2 8276   1.197   3.560   9.057
 2279SOL     OW 8277   0.321   2.124   9.275
 2279SOL    HW1 8278   0.407   2.135   9.236
 2279SOL    HW2 8279   0.286   2.213   9.283
 2280SOL     OW 8280   1.408   3.307   8.359
 2280SOL    HW1 8281   1.381   3.320   8.450
 2280SOL    HW2 8282   1.434   3.215   8.354
 2281SOL     OW 8283   1.647   3.602   8.033
 2281SOL    HW1 8284   1.634   3.566   7.945
 2281SOL    HW2 8285   1.653   3.524   8.089
 2282SOL     OW 8286   0.600   2.587   7.723
 2282SOL    HW1 8287   0.594   2.671   7.678
 2282SOL    HW2 8288   0.537   2.594   7.795
 2283SOL     OW 8289   1.281   2.225   8.384
 2283SOL    HW1 8290   1.194   2.187   8.380
 2283SOL    HW2 8291   1.329   2.169   8.446
 2284SOL     OW 8292   1.580   3.541   7.757
 2284SOL    HW1 8293   1.672   3.567   7.753
 2284SOL    HW2 8294   1.558   3.516   7.667
 2285SOL     OW 8295   0.787   2.480   8.893
 2285SOL    HW1 8296   0.766   2.450   8.981
 2285SOL    HW2 8297   0.749   2.414   8.835
 2286SOL     OW 8298   1.399   2.345   9.119
 2286SOL    HW1 8299   1.403   2.383   9.207
 2286SOL    HW2 8300   1.444   2.261   9.127
 2287SOL     OW 8301   0.947   2.744   9.039
 2287SOL    HW1 8302   0.999   2.673   9.002
 2287SOL    HW2 8303   0.899   2.780   8.964
 2288SOL     OW 8304   0.999   2.267   8.675
 2288SOL    HW1 8305   0.910   2.265   8.711
 2288SOL    HW2 8306   0.993   2.218   8.593
 2289SOL     OW 8307   0.100   2.764   8.267
 2289SOL    HW1 8308   0.106   2.698   8.198
 2289SOL    HW2 8309   0.039   2.829   8.232
 2290SOL     OW 8310   0.082   3.753   9.055
 2290SOL    HW1 8311   0.134   3.698   9.114
 2290SOL    HW2 8312   0.051   3.693   8.987
 2291SOL     OW 8313   0.865   2.220   7.635
 2291SOL    HW1 8314   0.920   2.244   7.560
 2291SOL    HW2 8315   0.811   2.147   7.603
 2292SOL     OW 8316   1.720   2.444   9.277
 2292SOL    HW1 8317   1.683   2.515   9.225
 2292SOL    HW2 8318   1.734   2.373   9.214
 2293SOL     OW 8319   1.371   2.983   7.956
 2293SOL    HW1 8320   1.462   2.993   7.931
 2293SOL    HW2 8321   1.327   3.060   7.920
 2294SOL     OW 8322   0.542   2.036   8.349
 2294SOL    HW1 8323   0.554   2.067   8.439
 2294SOL    HW2 8324   0.553   2.115   8.296
 2295SOL     OW 8325   0.993   3.297   7.919
 2295SOL    HW1 8326   0.956   3.372   7.873
 2295SOL    HW2 8327   0.986   3.320   8.012
 2296SOL     OW 8328   0.363   3.686   8.320
 2296SOL    HW1 8329   0.410   3.603   8.325
 2296SOL    HW2 8330   0.431   3.753   8.330
 2297SOL     OW 8331   1.775   2.874   8.310
 2297SOL    HW1 8332   1.780   2.952   8.255
 2297SOL    HW2 8333   1.746   2.906   8.395
 2298SOL     OW 8334   1.224   3.398   8.970
 2298SOL    HW1 8335   1.206   3.319   9.022
 2298SOL    HW2 8336   1.186   3.378   8.884
 2299SOL     OW 8337   0.304   2.810   7.686
 2299SOL    HW1 8338   0.391   2.838   7.656
 2299SOL    HW2 8339   0.283   2.734   7.632
 2300SOL     OW 8340   1.458   2.617   8.183
 2300SOL    HW1 8341   1.479   2.570   8.264
 2300SOL    HW2 8342   1.539   2.662   8.159
 2301SOL     OW 8343   0.460   3.132   9.194
 2301SOL    HW1 8344   0.435   3.133   9.101
 2301SOL    HW2 8345   0.381   3.106   9.241
 2302SOL     OW 8346   0.170   2.117   8.937
 2302SOL    HW1 8347   0.144   2.170   9.012
 2302SOL    HW2 8348   0.164   2.027   8.968
 2303SOL     OW 8349   1.626   3.231   7.514
 2303SOL    HW1 8350   1.591   3.320   7.510
 2303SOL    HW2 8351   1.549   3.175   7.500
 2304SOL     OW 8352   0.474   3.588   7.773
 2304SOL    HW1 8353   0.512   3.659   7.824
 2304SOL    HW2 8354   0.539   3.569   7.705
 2305SOL     OW 8355   1.411   1.960   7.879
 2305SOL    HW1 8356   1.388   1.940   7.788
 2305SOL    HW2 8357   1.494   1.913   7.893
 2306SOL     OW 8358   0.242   3.647   8.677
 2306SOL    HW1 8359   0.307   3.576   8.676
 2306SOL    HW2 8360   0.200   3.642   8.591
 2307SOL     OW 8361   0.947   3.551   8.340
 2307SOL    HW1 8362   1.035   3.514   8.338
 2307SOL    HW2 8363   0.902   3.511   8.265
 2308SOL     OW 8364   0.414   2.564   7.931
 2308SOL    HW1 8365   0.427   2.470   7.944
 2308SOL    HW2 8366   0.322   2.579   7.954
 2309SOL     OW 8367   1.514   2.090   9.166
 2309SOL    HW1 8368   1.522   2.106   9.260
 2309SOL    HW2 8369   1.448   2.021   9.159
 2310SOL     OW 8370   0.685   1.988   7.537
 2310SOL    HW1 8371   0.705   1.916   7.597
 2310SOL    HW2 8372   0.614   1.954   7.482
 2311SOL     OW 8373   0.795   2.143   9.251
 2311SOL    HW1 8374   0.869   2.086   9.228
 2311SOL    HW2 8375   0.730   2.127   9.182
 2312SOL     OW 8376   0.864   3.365   8.647
 2312SOL    HW1 8377   0.855   3.341   8.555
 2312SOL    HW2 8378   0.947   3.326   8.675
 2313SOL     OW 8379   1.335   2.453   8.875
 2313SOL    HW1 8380   1.369   2.423   8.960
 2313SOL    HW2 8381   1.373   2.540   8.864
 2314SOL     OW 8382   0.809   3.233   8.393
 2314SOL    HW1 8383   0.898   3.230   8.357
 2314SOL    HW2 8384   0.754   3.256   8.318
 2315SOL     OW 8385   0.929   2.361   8.356
 2315SOL    HW1 8386   0.902   2.353   8.264
 2315SOL    HW2 8387   0.958   2.274   8.380
 2316SOL     OW 8388   0.567   1.935   7.942
 2316SOL    HW1 8389   0.485   1.932   7.991
 2316SOL    HW2 8390   0.556   2.009   7.882
 2317SOL     OW 8391   1.418   3.056   7.481
 2317SOL    HW1 8392   1.448   2.988   7.541
 2317SOL    HW2 8393   1.333   3.083   7.517
 2318SOL     OW 8394   0.964   2.187   7.910
 2318SOL    HW1 8395   0.944   2.144   7.827
 2318SOL    HW2 8396   0.994   2.117   7.967
 2319SOL     OW 8397   1.079   2.544   8.909
 2319SOL    HW1 8398   1.017   2.471   8.910
 2319SOL    HW2 8399   1.165   2.503   8.897
 2320SOL     OW 8400   1.196   3.446   8.247
 2320SOL    HW1 8401   1.224   3.512   8.185
 2320SOL    HW2 8402   1.277   3.413   8.286
 2321SOL     OW 8403   0.472   3.002   8.184
 2321SOL    HW1 8404   0.403   2.994   8.250
 2321SOL    HW2 8405   0.426   2.993   8.100
 2322SOL     OW 8406   1.258   3.658   8.065
 2322SOL    HW1 8407   1.310   3.717   8.011
 2322SOL    HW2 8408   1.183   3.712   8.093
 2323SOL     OW 8409   1.036   2.401   7.473
 2323SOL    HW1 8410   0.986   2.481   7.457
 2323SOL    HW2 8411   1.078   2.415   7.558
 2324SOL     OW 8412   0.099   2.436   8.831
 2324SOL    HW1 8413   0.191   2.432   8.805
 2324SOL    HW2 8414   0.096   2.503   8.899
 2325SOL     OW 8415   0.559   2.094   8.624
 2325SOL    HW1 8416   0.611   2.028   8.670
 2325SOL    HW2 8417   0.469   2.079   8.653
 2326SOL     OW 8418   0.843   2.347   8.097
 2326SOL    HW1 8419   0.751   2.361   8.076
 2326SOL    HW2 8420   0.864   2.261   8.058
 2327SOL     OW 8421   1.471   3.039   8.313
 2327SOL    HW1 8422   1.404   2.986   8.269
 2327SOL    HW2 8423   1.539   3.051   8.246
 2328SOL     OW 8424   1.471   2.463   8.415
 2328SOL    HW1 8425   1.412   2.388   8.421
 2328SOL    HW2 8426   1.528   2.455   8.491
 2329SOL     OW 8427   1.840   2.675   7.806
 2329SOL    HW1 8428   1.896   2.638   7.874
 2329SOL    HW2 8429   1.819   2.600   7.750
 2330SOL     OW 8430   0.483   3.268   7.574
 2330SOL    HW1 8431   0.407   3.245   7.627
 2330SOL    HW2 8432   0.476   3.212   7.496
 2331SOL     OW 8433   1.680   3.103   8.128
 2331SOL    HW1 8434   1.776   3.108   8.126
 2331SOL    HW2 8435   1.652   3.195   8.128
 2332SOL     OW 8436   1.403   2.439   7.509
 2332SOL    HW1 8437   1.366   2.383   7.578
 2332SOL    HW2 8438   1.498   2.425   7.517
 2333SOL     OW 8439   0.500   2.132   7.769
 2333SOL    HW1 8440   0.451   2.071   7.714
 2333SOL    HW2 8441   0.515   2.208   7.713
 2334SOL     OW 8442   1.765   3.095   9.077
 2334SOL    HW1 8443   1.838   3.061   9.025
 2334SOL    HW2 8444   1.777   3.190   9.077
 2335SOL     OW 8445   1.059   3.209   8.780
 2335SOL    HW1 8446   0.982   3.180   8.828
 2335SOL    HW2 8447   1.132   3.164   8.821
 2336SOL     OW 8448   1.608   3.482   9.104
 2336SOL    HW1 8449   1.596   3.523   9.018
 2336SOL    HW2 8450   1.690   3.434   9.096
 2337SOL     OW 8451   1.119   3.060   8.551
 2337SOL    HW1 8452   1.076   3.116   8.615
 2337SOL    HW2 8453   1.104   3.104   8.467
 2338SOL     OW 8454   1.613   2.944   8.540
 2338SOL    HW1 8455   1.599   3.006   8.612
 2338SOL    HW2 8456   1.557   2.977   8.469
 2339SOL     OW 8457   0.954   1.912   8.839
 2339SOL    HW1 8458   0.967   1.905   8.744
 2339SOL    HW2 8459   1.024   1.971   8.868
 2340SOL     OW 8460   0.974   2.975   9.173
 2340SOL    HW1 8461   0.883   2.987   9.197
 2340SOL    HW2 8462   0.975   2.895   9.120
 2341SOL     OW 8463   0.720   2.915   7.822
 2341SOL    HW1 8464   0.705   2.900   7.915
 2341SOL    HW2 8465   0.795   2.861   7.800
 2342SOL     OW 8466   0.455   2.697   8.673
 2342SOL    HW1 8467   0.513   2.706   8.748
 2342SOL    HW2 8468   0.419   2.609   8.680
 2343SOL     OW 8469   1.267   2.234   8.728
 2343SOL    HW1 8470   1.297   2.314   8.770
 2343SOL    HW2 8471   1.177   2.252   8.702
 2344SOL     OW 8472   0.079   3.439   8.791
 2344SOL    HW1 8473   0.077   3.522   8.743
 2344SOL    HW2 8474   0.171   3.414   8.791
 2345SOL     OW 8475   0.331   2.973   7.947
 2345SOL    HW1 8476   0.339   3.049   7.889
 2345SOL    HW2 8477   0.324   2.899   7.888
 2346SOL     OW 8478   0.550   2.406   8.324
 2346SOL    HW1 8479   0.551   2.460   8.245
 2346SOL    HW2 8480   0.617   2.444   8.380
 2347SOL     OW 8481   1.243   3.209   7.845
 2347SOL    HW1 8482   1.297   3.285   7.867
 2347SOL    HW2 8483   1.155   3.232   7.873
 2348SOL     OW 8484   1.292   3.327   8.609
 2348SOL    HW1 8485   1.360   3.333   8.677
 2348SOL    HW2 8486   1.245   3.246   8.630
 2349SOL     OW 8487   1.584   2.480   7.934
 2349SOL    HW1 8488   1.537   2.541   7.990
 2349SOL    HW2 8489   1.650   2.533   7.890
 2350SOL     OW 8490   0.347   3.387   8.758
 2350SOL    HW1 8491   0.336   3.344   8.674
 2350SOL    HW2 8492   0.442   3.401   8.765
 2351SOL     OW 8493   0.428   2.612   9.063
 2351SOL    HW1 8494   0.493   2.651   9.005
 2351SOL    HW2 8495   0.463   2.524   9.082
 2352SOL     OW 8496   1.627   2.685   9.160
 2352SOL    HW1 8497   1.534   2.698   9.141
 2352SOL    HW2 8498   1.672   2.705   9.078
 2353SOL     OW 8499   1.018   1.991   9.209
 2353SOL    HW1 8500   1.068   2.064   9.174
 2353SOL    HW2 8501   1.061   1.913   9.175
 2354SOL     OW 8502   0.485   1.870   9.217
 2354SOL    HW1 8503   0.437   1.816   9.155
 2354SOL    HW2 8504   0.515   1.945   9.166
 2355SOL     OW 8505   1.341   2.704   8.483
 2355SOL    HW1 8506   1.286   2.713   8.405
 2355SOL    HW2 8507   1.394   2.626   8.467
 2356SOL     OW 8508   1.172   2.424   7.749
 2356SOL    HW1 8509   1.222   2.350   7.784
 2356SOL    HW2 8510   1.232   2.499   7.756
 2357SOL     OW 8511   0.289   2.052   8.691
 2357SOL    HW1 8512   0.255   2.080   8.776
 2357SOL    HW2 8513   0.282   1.957   8.692
 2358SOL     OW 8514   0.056   3.162   8.733
 2358SOL    HW1 8515   0.022   3.120   8.812
 2358SOL    HW2 8516   0.060   3.255   8.755
 2359SOL     OW 8517   0.745   2.514   8.485
 2359SOL    HW1 8518   0.807   2.458   8.438
 2359SOL    HW2 8519   0.799   2.584   8.521
 2360SOL     OW 8520   0.327   1.941   8.063
 2360SOL    HW1 8521   0.296   2.027   8.090
 2360SOL    HW2 8522   0.326   1.888   8.143
 2361SOL     OW 8523   1.619   2.241   7.805
 2361SOL    HW1 8524   1.619   2.174   7.874
 2361SOL    HW2 8525   1.593   2.321   7.850
 2362SOL     OW 8526   1.025   2.615   8.396
 2362SOL    HW1 8527   1.032   2.631   8.490
 2362SOL    HW2 8528   1.005   2.522   8.389
 2363SOL     OW 8529   0.963   3.414   9.175
 2363SOL    HW1 8530   0.955   3.467   9.096
 2363SOL    HW2 8531   1.022   3.343   9.151
 2364SOL     OW 8532   1.850   3.361   9.055
 2364SOL    HW1 8533   1.876   3.389   8.967
 2364SOL    HW2 8534   1.926   3.381   9.109
 2365SOL     OW 8535   0.343   2.824   9.228
 2365SOL    HW1 8536   0.411   2.838   9.294
 2365SOL    HW2 8537   0.373   2.749   9.177
 2366SOL     OW 8538   1.510   2.140   7.570
 2366SOL    HW1 8539   1.455   2.067   7.599
 2366SOL    HW2 8540   1.551   2.173   7.651
 2367SOL     OW 8541   1.291   2.691   7.478
 2367SOL    HW1 8542   1.332   2.605   7.479
 2367SOL    HW2 8543   1.321   2.731   7.396
 2368SOL     OW 8544   1.067   3.201   8.315
 2368SOL    HW1 8545   1.076   3.129   8.252
 2368SOL    HW2 8546   1.119   3.272   8.278
 2369SOL     OW 8547   0.365   2.644   8.377
 2369SOL    HW1 8548   0.340   2.641   8.284
 2369SOL    HW2 8549   0.338   2.558   8.411
 2370SOL     OW 8550   0.319   2.369   8.457
 2370SOL    HW1 8551   0.286   2.281   8.438
 2370SOL    HW2 8552   0.400   2.375   8.406
 2371SOL     OW 8553   1.139   2.240   9.127
 2371SOL    HW1 8554   1.089   2.290   9.192
 2371SOL    HW2 8555   1.223   2.286   9.121
 2372SOL     OW 8556   1.172   2.060   8.922
 2372SOL    HW1 8557   1.153   2.125   8.989
 2372SOL    HW2 8558   1.212   2.110   8.851
 2373SOL     OW 8559   7.974   3.180   7.643
 2373SOL    HW1 8560   7.883   3.194   7.671
 2373SOL    HW2 8561   7.995   3.092   7.672
 2374SOL     OW 8562   0.128   3.619   8.431
 2374SOL    HW1 8563   0.090   3.558   8.367
 2374SOL    HW2 8564   0.205   3.655   8.387
 2375SOL     OW 8565   0.492   3.440   8.356
 2375SOL    HW1 8566   0.564   3.498   8.381
 2375SOL    HW2 8567   0.532   3.378   8.294
 2376SOL     OW 8568   0.950   2.634   8.672
 2376SOL    HW1 8569   1.029   2.637   8.725
 2376SOL    HW2 8570   0.888   2.583   8.724
 2377SOL     OW 8571   0.059   2.369   8.572
 2377SOL    HW1 8572   0.148   2.379   8.538
 2377SOL    HW2 8573   0.065   2.398   8.663
 2378SOL     OW 8574   0.200   2.392   9.156
 2378SOL    HW1 8575   0.271   2.364   9.099
 2378SOL    HW2 8576   0.164   2.470   9.112
 2379SOL     OW 8577   1.379   2.793   9.105
 2379SOL    HW1 8578   1.397   2.887   9.096
 2379SOL    HW2 8579   1.373   2.761   9.015
 2380SOL     OW 8580   0.847   2.460   7.778
 2380SOL    HW1 8581   0.844   2.377   7.731
 2380SOL    HW2 8582   0.761   2.499   7.763
 2381SOL     OW 8583   1.644   2.450   8.626
 2381SOL    HW1 8584   1.638   2.393   8.702
 2381SOL    HW2 8585   1.732   2.437   8.592
 2382SOL     OW 8586   0.316   3.413   9.162
 2382SOL    HW1 8587   0.259   3.468   9.215
 2382SOL    HW2 8588   0.290   3.323   9.183
 2383SOL     OW 8589   0.687   2.329   8.694
 2383SOL    HW1 8590   0.642   2.247   8.672
 2383SOL    HW2 8591   0.687   2.379   8.612
 2384SOL     OW 8592   0.901   3.555   8.941
 2384SOL    HW1 8593   0.894   3.506   8.859
 2384SOL    HW2 8594   0.914   3.646   8.914
 2385SOL     OW 8595   0.477   2.360   7.621
 2385SOL    HW1 8596   0.528   2.438   7.644
 2385SOL    HW2 8597   0.390   2.377   7.656
 2386SOL     OW 8598   0.177   2.939   8.962
 2386SOL    HW1 8599   0.245   3.004   8.947
 2386SOL    HW2 8600   0.173   2.889   8.880
 2387SOL     OW 8601   1.300   2.895   8.672
 2387SOL    HW1 8602   1.328   2.832   8.606
 2387SOL    HW2 8603   1.238   2.951   8.627
 2388SOL     OW 8604   1.292   2.676   7.753
 2388SOL    HW1 8605   1.257   2.755   7.794
 2388SOL    HW2 8606   1.286   2.692   7.659
 2389SOL     OW 8607   1.797   3.600   8.622
 2389SOL    HW1 8608   1.852   3.622   8.547
 2389SOL    HW2 8609   1.752   3.520   8.596
 2390SOL     OW 8610   1.239   3.597   8.560
 2390SOL    HW1 8611   1.318   3.624   8.515
 2390SOL    HW2 8612   1.250   3.503   8.575
 2391SOL     OW 8613   0.102   3.112   8.470
 2391SOL    HW1 8614   0.083   3.123   8.563
 2391SOL    HW2 8615   0.016   3.104   8.429
 2392SOL     OW 8616   0.690   3.541   9.183
 2392SOL    HW1 8617   0.629   3.613   9.166
 2392SOL    HW2 8618   0.757   3.549   9.114
 2393SOL     OW 8619   1.764   2.014   7.989
 2393SOL    HW1 8620   1.814   2.009   7.907
 2393SOL    HW2 8621   1.727   1.927   8.000
 2394SOL     OW 8622   1.377   3.437   7.923
 2394SOL    HW1 8623   1.441   3.474   7.862
 2394SOL    HW2 8624   1.328   3.513   7.956
 2395SOL     OW 8625   0.153   3.593   9.281
 2395SOL    HW1 8626   0.094   3.544   9.338
 2395SOL    HW2 8627   0.197   3.655   9.339
 2396SOL     OW 8628   1.262   2.786   8.106
 2396SOL    HW1 8629   1.336   2.730   8.131
 2396SOL    HW2 8630   1.302   2.853   8.050
 2397SOL     OW 8631   0.807   3.142   8.873
 2397SOL    HW1 8632   0.771   3.180   8.954
 2397SOL    HW2 8633   0.756   3.182   8.803
 2398SOL     OW 8634   0.676   3.450   7.615
 2398SOL    HW1 8635   0.673   3.500   7.533
 2398SOL    HW2 8636   0.611   3.381   7.604
 2399SOL     OW 8637   1.622   3.584   8.844
 2399SOL    HW1 8638   1.677   3.587   8.766
 2399SOL    HW2 8639   1.609   3.676   8.868
 2400SOL     OW 8640   1.841   2.033   8.378
 2400SOL    HW1 8641   1.869   1.941   8.377
 2400SOL    HW2 8642   1.746   2.029   8.378
 2401SOL     OW 8643   0.267   2.190   8.163
 2401SOL    HW1 8644   0.178   2.212   8.138
 2401SOL    HW2 8645   0.262   2.170   8.257
 2402SOL     OW 8646   1.214   3.460   7.463
 2402SOL    HW1 8647   1.191   3.473   7.555
 2402SOL    HW2 8648   1.153   3.515   7.415
 2403SOL     OW 8649   0.824   2.871   8.827
 2403SOL    HW1 8650   0.874   2.861   8.746
 2403SOL    HW2 8651   0.821   2.966   8.842
 2404SOL     OW 8652   0.921   2.750   7.755
 2404SOL    HW1 8653   0.976   2.781   7.683
 2404SOL    HW2 8654   0.918   2.655   7.744
 2405SOL     OW 8655   1.488   3.481   7.490
 2405SOL    HW1 8656   1.396   3.465   7.472
 2405SOL    HW2 8657   1.528   3.494   7.404
 2406SOL     OW 8658   0.343   3.155   8.948
 2406SOL    HW1 8659   0.378   3.207   8.876
 2406SOL    HW2 8660   0.261   3.199   8.972
 2407SOL     OW 8661   1.594   3.115   8.758
 2407SOL    HW1 8662   1.686   3.141   8.757
 2407SOL    HW2 8663   1.547   3.197   8.773
 2408SOL     OW 8664   1.062   2.968   8.173
 2408SOL    HW1 8665   0.984   2.914   8.183
 2408SOL    HW2 8666   1.130   2.907   8.144
 2409SOL     OW 8667   1.016   2.109   8.428
 2409SOL    HW1 8668   1.015   2.075   8.339
 2409SOL    HW2 8669   1.012   2.031   8.484
 2410SOL     OW 8670   0.602   3.343   7.933
 2410SOL    HW1 8671   0.656   3.296   7.869
 2410SOL    HW2 8672   0.556   3.409   7.882
 2411SOL     OW 8673   1.744   2.252   8.834
 2411SOL    HW1 8674   1.817   2.313   8.828
 2411SOL    HW2 8675   1.765   2.183   8.771
 2412SOL     OW 8676   0.247   3.202   7.704
 2412SOL    HW1 8677   0.151   3.197   7.697
 2412SOL    HW2 8678   0.262   3.237   7.792
 2413SOL     OW 8679   0.038   2.267   7.493
 2413SOL    HW1 8680   0.047   2.174   7.512
 2413SOL    HW2 8681   0.079   2.278   7.407
 2414SOL     OW 8682   1.422   2.717   8.846
 2414SOL    HW1 8683   1.369   2.776   8.793
 2414SOL    HW2 8684   1.508   2.719   8.805
 2415SOL     OW 8685   0.107   2.099   7.806
 2415SOL    HW1 8686   0.048   2.088   7.732
 2415SOL    HW2 8687   0.189   2.058   7.777
 2416SOL     OW 8688   1.177   3.150   7.578
 2416SOL    HW1 8689   1.085   3.173   7.574
 2416SOL    HW2 8690   1.204   3.172   7.667
 2417SOL     OW 8691   0.623   2.697   8.889
 2417SOL    HW1 8692   0.683   2.771   8.876
 2417SOL    HW2 8693   0.679   2.621   8.896
 2418SOL     OW 8694   1.478   3.655   8.438
 2418SOL    HW1 8695   1.506   3.716   8.369
 2418SOL    HW2 8696   1.548   3.590   8.441
 2419SOL     OW 8697   0.717   2.424   9.152
 2419SOL    HW1 8698   0.766   2.484   9.209
 2419SOL    HW2 8699   0.733   2.338   9.189
 2420SOL     OW 8700   1.477   3.051   9.078
 2420SOL    HW1 8701   1.468   3.084   9.167
 2420SOL    HW2 8702   1.566   3.076   9.053
 2421SOL     OW 8703   0.373   3.624   9.009
 2421SOL    HW1 8704   0.317   3.616   8.932
 2421SOL    HW2 8705   0.363   3.541   9.055
 2422SOL     OW 8706   1.659   2.730   8.707
 2422SOL    HW1 8707   1.661   2.649   8.656
 2422SOL    HW2 8708   1.650   2.800   8.642
 2423SOL     OW 8709   1.283   2.220   7.887
 2423SOL    HW1 8710   1.305   2.127   7.887
 2423SOL    HW2 8711   1.294   2.247   7.977
 2424SOL     OW 8712   0.579   2.613   8.140
 2424SOL    HW1 8713   0.630   2.690   8.116
 2424SOL    HW2 8714   0.523   2.597   8.064
 2425SOL     OW 8715   1.748   2.230   9.109
 2425SOL    HW1 8716   1.745   2.241   9.013
 2425SOL    HW2 8717   1.676   2.171   9.128
 2426SOL     OW 8718   1.755   2.794   8.952
 2426SOL    HW1 8719   1.773   2.888   8.944
 2426SOL    HW2 8720   1.728   2.768   8.864
 2427SOL     OW 8721   0.854   3.225   7.495
 2427SOL    HW1 8722   0.818   3.258   7.577
 2427SOL    HW2 8723   0.870   3.303   7.442
 2428SOL     OW 8724   0.674   3.639   8.399
 2428SOL    HW1 8725   0.655   3.726   8.363
 2428SOL    HW2 8726   0.766   3.623   8.376
 2429SOL     OW 8727   0.850   2.817   8.310
 2429SOL    HW1 8728   0.912   2.750   8.337
 2429SOL    HW2 8729   0.834   2.869   8.389
 2430SOL     OW 8730   1.061   2.826   7.537
 2430SOL    HW1 8731   1.055   2.903   7.481
 2430SOL    HW2 8732   1.144   2.785   7.512
 2431SOL     OW 8733   0.206   3.115   9.312
 2431SOL    HW1 8734   0.119   3.154   9.301
 2431SOL    HW2 8735   0.229   3.132   9.403
 2432SOL     OW 8736   0.154   3.102   8.137
 2432SOL    HW1 8737   0.071   3.058   8.155
 2432SOL    HW2 8738   0.197   3.047   8.071
 2433SOL     OW 8739   0.669   3.275   9.070
 2433SOL    HW1 8740   0.596   3.238   9.119
 2433SOL    HW2 8741   0.685   3.360   9.111
 2434SOL     OW 8742   1.803   2.043   8.673
 2434SOL    HW1 8743   1.805   1.948   8.679
 2434SOL    HW2 8744   1.831   2.062   8.584
 2435SOL     OW 8745   0.458   2.302   7.988
 2435SOL    HW1 8746   0.473   2.236   7.920
 2435SOL    HW2 8747   0.396   2.262   8.048
 2436SOL     OW 8748   1.668   3.362   8.576
 2436SOL    HW1 8749   1.696   3.357   8.484
 2436SOL    HW2 8750   1.722   3.297   8.621
 2437SOL     OW 8751   0.355   2.443   8.726
 2437SOL    HW1 8752   0.400   2.389   8.791
 2437SOL    HW2 8753   0.364   2.395   8.644
 2438SOL     OW 8754   0.827   3.457   8.112
 2438SOL    HW1 8755   0.840   3.522   8.044
 2438SOL    HW2 8756   0.752   3.405   8.083
 2439SOL     OW 8757   1.425   2.079   8.564
 2439SOL    HW1 8758   1.420   1.988   8.594
 2439SOL    HW2 8759   1.379   2.128   8.632
 2440SOL     OW 8760   1.012   1.873   8.571
 2440SOL    HW1 8761   0.958   1.813   8.518
 2440SOL    HW2 8762   1.097   1.829   8.576
 2441SOL     OW 8763   0.773   3.187   7.779
 2441SOL    HW1 8764   0.758   3.093   7.788
 2441SOL    HW2 8765   0.856   3.202   7.824
 2442SOL     OW 8766   0.618   3.418   8.742
 2442SOL    HW1 8767   0.621   3.504   8.786
 2442SOL    HW2 8768   0.705   3.408   8.703
 2443SOL     OW 8769   1.361   1.908   7.613
 2443SOL    HW1 8770   1.398   1.834   7.565
 2443SOL    HW2 8771   1.272   1.881   7.633
 2444SOL     OW 8772   1.314   2.328   8.133
 2444SOL    HW1 8773   1.281   2.418   8.144
 2444SOL    HW2 8774   1.299   2.286   8.217
 2445SOL     OW 8775   1.580   2.063   8.337
 2445SOL    HW1 8776   1.526   2.069   8.415
 2445SOL    HW2 8777   1.543   2.129   8.278
 2446SOL     OW 8778   0.065   2.946   7.740
 2446SOL    HW1 8779   0.146   2.904   7.711
 2446SOL    HW2 8780   0.029   2.885   7.805
 2447SOL     OW 8781   0.862   3.508   7.814
 2447SOL    HW1 8782   0.796   3.492   7.746
 2447SOL    HW2 8783   0.924   3.569   7.773
 2448SOL     OW 8784   0.231   2.567   9.396
 2448SOL    HW1 8785   0.209   2.503   9.463
 2448SOL    HW2 8786   0.237   2.516   9.315
 2449SOL     OW 8787   0.228   2.092  10.291
 2449SOL    HW1 8788   0.258   2.182  10.305
 2449SOL    HW2 8789   0.163   2.078  10.359
 2450SOL     OW 8790   8.004   2.246   9.940
 2450SOL    HW1 8791   7.915   2.255   9.976
 2450SOL    HW2 8792   8.003   2.161   9.896
 2451SOL     OW 8793   0.576   3.179  10.458
 2451SOL    HW1 8794   0.483   3.167  10.438
 2451SOL    HW2 8795   0.578   3.251  10.520
 2452SOL     OW 8796   1.567   3.367  10.017
 2452SOL    HW1 8797   1.520   3.352  10.098
 2452SOL    HW2 8798   1.499   3.386   9.952
 2453SOL     OW 8799   1.137   2.567  10.016
 2453SOL    HW1 8800   1.185   2.649  10.006
 2453SOL    HW2 8801   1.092   2.575  10.099
 2454SOL     OW 8802   1.759   2.467   9.542
 2454SOL    HW1 8803   1.750   2.461   9.447
 2454SOL    HW2 8804   1.729   2.382   9.574
 2455SOL     OW 8805   0.779   3.009  10.372
 2455SOL    HW1 8806   0.702   3.037  10.421
 2455SOL    HW2 8807   0.800   3.082  10.314
 2456SOL     OW 8808   0.867   2.633  11.138
 2456SOL    HW1 8809   0.879   2.701  11.203
 2456SOL    HW2 8810   0.899   2.672  11.056
 2457SOL     OW 8811   0.689   2.865   9.965
 2457SOL    HW1 8812   0.753   2.852  10.034
 2457SOL    HW2 8813   0.619   2.916  10.006
 2458SOL     OW 8814   0.717   3.007  11.114
 2458SOL    HW1 8815   0.758   3.085  11.152
 2458SOL    HW2 8816   0.632   3.039  11.081
 2459SOL     OW 8817   0.303   3.280  10.367
 2459SOL    HW1 8818   0.244   3.205  10.357
 2459SOL    HW2 8819   0.273   3.344  10.303
 2460SOL     OW 8820   1.449   3.369  10.707
 2460SOL    HW1 8821   1.497   3.449  10.682
 2460SOL    HW2 8822   1.477   3.352  10.797
 2461SOL     OW 8823   0.426   2.234  10.835
 2461SOL    HW1 8824   0.519   2.254  10.820
 2461SOL    HW2 8825   0.400   2.183  10.758
 2462SOL     OW 8826   1.608   2.308  10.044
 2462SOL    HW1 8827   1.544   2.337   9.979
 2462SOL    HW2 8828   1.615   2.381  10.105
 2463SOL     OW 8829   0.226   3.552   9.789
 2463SOL    HW1 8830   0.199   3.636   9.825
 2463SOL    HW2 8831   0.292   3.574   9.723
 2464SOL     OW 8832   1.123   3.205  11.036
 2464SOL    HW1 8833   1.179   3.215  11.112
 2464SOL    HW2 8834   1.070   3.127  11.055
 2465SOL     OW 8835   0.308   3.296   9.824
 2465SOL    HW1 8836   0.275   3.386   9.827
 2465SOL    HW2 8837   0.249   3.248   9.881
 2466SOL     OW 8838   0.274   2.958  10.199
 2466SOL    HW1 8839   0.276   2.866  10.227
 2466SOL    HW2 8840   0.202   2.997  10.250
 2467SOL     OW 8841   0.602   3.685  10.696
 2467SOL    HW1 8842   0.532   3.664  10.757
 2467SOL    HW2 8843   0.655   3.750  10.743
 2468SOL     OW 8844   0.548   2.884   9.445
 2468SOL    HW1 8845   0.609   2.910   9.376
 2468SOL    HW2 8846   0.600   2.890   9.525
 2469SOL     OW 8847   1.580   2.005  10.763
 2469SOL    HW1 8848   1.632   2.083  10.740
 2469SOL    HW2 8849   1.561   2.016  10.856
 2470SOL     OW 8850   0.122   2.491   9.855
 2470SOL    HW1 8851   0.090   2.407   9.889
 2470SOL    HW2 8852   0.105   2.553   9.925
 2471SOL     OW 8853   8.005   3.450   9.457
 2471SOL    HW1 8854   7.990   3.356   9.445
 2471SOL    HW2 8855   7.995   3.464   9.551
 2472SOL     OW 8856   1.686   2.779   9.956
 2472SOL    HW1 8857   1.768   2.765  10.003
 2472SOL    HW2 8858   1.711   2.774   9.863
 2473SOL     OW 8859   1.660   2.979   9.719
 2473SOL    HW1 8860   1.747   2.963   9.682
 2473SOL    HW2 8861   1.675   3.040   9.791
 2474SOL     OW 8862   0.575   3.270  10.061
 2474SOL    HW1 8863   0.536   3.183  10.059
 2474SOL    HW2 8864   0.575   3.298   9.969
 2475SOL     OW 8865   1.290   3.068  10.734
 2475SOL    HW1 8866   1.323   3.009  10.667
 2475SOL    HW2 8867   1.360   3.073  10.799
 2476SOL     OW 8868   0.820   1.845   9.859
 2476SOL    HW1 8869   0.837   1.901   9.783
 2476SOL    HW2 8870   0.727   1.857   9.877
 2477SOL     OW 8871   0.183   2.798  10.606
 2477SOL    HW1 8872   0.267   2.761  10.581
 2477SOL    HW2 8873   0.128   2.789  10.529
 2478SOL     OW 8874   1.567   2.847   9.489
 2478SOL    HW1 8875   1.496   2.787   9.513
 2478SOL    HW2 8876   1.596   2.884   9.572
 2479SOL     OW 8877   1.173   3.649  10.869
 2479SOL    HW1 8878   1.203   3.737  10.848
 2479SOL    HW2 8879   1.219   3.626  10.950
 2480SOL     OW 8880   0.363   2.110  11.128
 2480SOL    HW1 8881   0.402   2.191  11.160
 2480SOL    HW2 8882   0.269   2.124  11.138
 2481SOL     OW 8883   1.429   3.264  10.241
 2481SOL    HW1 8884   1.382   3.295  10.319
 2481SOL    HW2 8885   1.484   3.193  10.274
 2482SOL     OW 8886   1.732   3.546   9.823
 2482SOL    HW1 8887   1.650   3.523   9.780
 2482SOL    HW2 8888   1.719   3.522   9.915
 2483SOL     OW 8889   0.600   2.578   9.576
 2483SOL    HW1 8890   0.676   2.636   9.570
 2483SOL    HW2 8891   0.548   2.613   9.648
 2484SOL     OW 8892   1.297   2.216  10.259
 2484SOL    HW1 8893   1.207   2.190  10.242
 2484SOL    HW2 8894   1.307   2.208  10.354
 2485SOL     OW 8895   1.547   3.539   9.605
 2485SOL    HW1 8896   1.604   3.613   9.586
 2485SOL    HW2 8897   1.524   3.504   9.519
 2486SOL     OW 8898   0.771   2.488  10.768
 2486SOL    HW1 8899   0.769   2.449  10.855
 2486SOL    HW2 8900   0.826   2.429  10.716
 2487SOL     OW 8901   1.384   2.322  10.983
 2487SOL    HW1 8902   1.395   2.380  11.058
 2487SOL    HW2 8903   1.449   2.253  10.997
 2488SOL     OW 8904   0.952   2.731  10.895
 2488SOL    HW1 8905   1.012   2.666  10.860
 2488SOL    HW2 8906   0.887   2.743  10.826
 2489SOL     OW 8907   1.057   2.504   9.753
 2489SOL    HW1 8908   1.072   2.536   9.842
 2489SOL    HW2 8909   1.001   2.571   9.713
 2490SOL     OW 8910   0.087   2.677  10.070
 2490SOL    HW1 8911   0.167   2.681  10.122
 2490SOL    HW2 8912   0.067   2.769  10.049
 2491SOL     OW 8913   0.130   3.640  10.874
 2491SOL    HW1 8914   0.141   3.642  10.969
 2491SOL    HW2 8915   0.061   3.704  10.856
 2492SOL     OW 8916   0.926   2.211   9.491
 2492SOL    HW1 8917   0.973   2.271   9.433
 2492SOL    HW2 8918   0.870   2.160   9.433
 2493SOL     OW 8919   1.686   2.444  11.170
 2493SOL    HW1 8920   1.699   2.537  11.154
 2493SOL    HW2 8921   1.714   2.402  11.089
 2494SOL     OW 8922   1.412   3.002   9.839
 2494SOL    HW1 8923   1.481   2.993   9.773
 2494SOL    HW2 8924   1.349   3.062   9.799
 2495SOL     OW 8925   0.559   2.032  10.207
 2495SOL    HW1 8926   0.556   2.063  10.297
 2495SOL    HW2 8927   0.559   2.112  10.154
 2496SOL     OW 8928   1.023   3.314   9.797
 2496SOL    HW1 8929   0.994   3.399   9.764
 2496SOL    HW2 8930   1.004   3.317   9.890
 2497SOL     OW 8931   0.368   3.695  10.173
 2497SOL    HW1 8932   0.448   3.656  10.138
 2497SOL    HW2 8933   0.395   3.781  10.205
 2498SOL     OW 8934   1.749   2.958  10.189
 2498SOL    HW1 8935   1.803   2.880  10.187
 2498SOL    HW2 8936   1.701   2.952  10.272
 2499SOL     OW 8937   1.176   3.347  10.787
 2499SOL    HW1 8938   1.194   3.360  10.880
 2499SOL    HW2 8939   1.256   3.374  10.743
 2500SOL     OW 8940   0.302   2.797   9.542
 2500SOL    HW1 8941   0.388   2.827   9.513
 2500SOL    HW2 8942   0.285   2.717   9.491
 2501SOL     OW 8943   1.489   2.599  10.036
 2501SOL    HW1 8944   1.481   2.560  10.123
 2501SOL    HW2 8945   1.575   2.641  10.037
 2502SOL     OW 8946   0.469   3.121  11.042
 2502SOL    HW1 8947   0.434   3.134  10.954
 2502SOL    HW2 8948   0.392   3.100  11.095
 2503SOL     OW 8949   1.053   3.593   9.556
 2503SOL    HW1 8950   1.120   3.611   9.622
 2503SOL    HW2 8951   1.101   3.554   9.483
 2504SOL     OW 8952   0.112   2.141  10.795
 2504SOL    HW1 8953   0.154   2.225  10.812
 2504SOL    HW2 8954   0.134   2.087  10.870
 2505SOL     OW 8955   1.610   3.243   9.409
 2505SOL    HW1 8956   1.576   3.326   9.376
 2505SOL    HW2 8957   1.539   3.180   9.393
 2506SOL     OW 8958   0.443   3.614   9.614
 2506SOL    HW1 8959   0.495   3.662   9.679
 2506SOL    HW2 8960   0.507   3.566   9.562
 2507SOL     OW 8961   1.387   1.967   9.757
 2507SOL    HW1 8962   1.378   1.940   9.666
 2507SOL    HW2 8963   1.481   1.973   9.771
 2508SOL     OW 8964   0.236   3.651  10.529
 2508SOL    HW1 8965   0.283   3.572  10.556
 2508SOL    HW2 8966   0.191   3.626  10.449
 2509SOL     OW 8967   0.940   3.553  10.207
 2509SOL    HW1 8968   1.031   3.529  10.228
 2509SOL    HW2 8969   0.919   3.501  10.130
 2510SOL     OW 8970   0.402   2.565   9.804
 2510SOL    HW1 8971   0.423   2.472   9.801
 2510SOL    HW2 8972   0.307   2.567   9.817
 2511SOL     OW 8973   1.527   2.078  11.034
 2511SOL    HW1 8974   1.539   2.103  11.125
 2511SOL    HW2 8975   1.458   2.011  11.036
 2512SOL     OW 8976   0.620   1.952   9.436
 2512SOL    HW1 8977   0.712   1.951   9.407
 2512SOL    HW2 8978   0.571   1.917   9.362
 2513SOL     OW 8979   0.747   2.096  11.096
 2513SOL    HW1 8980   0.835   2.060  11.085
 2513SOL    HW2 8981   0.762   2.184  11.130
 2514SOL     OW 8982   0.870   3.358  10.494
 2514SOL    HW1 8983   0.878   3.327  10.403
 2514SOL    HW2 8984   0.957   3.343  10.532
 2515SOL     OW 8985   1.351   2.452  10.740
 2515SOL    HW1 8986   1.375   2.415  10.825
 2515SOL    HW2 8987   1.388   2.541  10.742
 2516SOL     OW 8988   0.817   3.245  10.220
 2516SOL    HW1 8989   0.911   3.235  10.204
 2516SOL    HW2 8990   0.776   3.210  10.141
 2517SOL     OW 8991   0.941   2.382  10.213
 2517SOL    HW1 8992   0.911   2.360  10.125
 2517SOL    HW2 8993   0.968   2.298  10.251
 2518SOL     OW 8994   0.573   1.968   9.845
 2518SOL    HW1 8995   0.490   1.928   9.868
 2518SOL    HW2 8996   0.555   2.018   9.765
 2519SOL     OW 8997   1.426   3.048   9.359
 2519SOL    HW1 8998   1.463   2.977   9.411
 2519SOL    HW2 8999   1.332   3.028   9.355
 2520SOL     OW 9000   0.315   1.916   9.490
 2520SOL    HW1 9001   0.381   1.963   9.441
 2520SOL    HW2 9002   0.364   1.858   9.548
 2521SOL     OW 9003   1.088   2.540  10.754
 2521SOL    HW1 9004   1.048   2.459  10.722
 2521SOL    HW2 9005   1.182   2.520  10.757
 2522SOL     OW 9006   1.204   3.444  10.102
 2522SOL    HW1 9007   1.228   3.507  10.033
 2522SOL    HW2 9008   1.279   3.443  10.161
 2523SOL     OW 9009   0.472   3.023  10.034
 2523SOL    HW1 9010   0.406   2.999  10.100
 2523SOL    HW2 9011   0.431   3.001   9.951
 2524SOL     OW 9012   1.262   3.665   9.916
 2524SOL    HW1 9013   1.312   3.720   9.855
 2524SOL    HW2 9014   1.250   3.720   9.993
 2525SOL     OW 9015   1.042   2.401   9.334
 2525SOL    HW1 9016   0.984   2.475   9.314
 2525SOL    HW2 9017   1.103   2.436   9.399
 2526SOL     OW 9018   0.136   2.466  10.737
 2526SOL    HW1 9019   0.217   2.452  10.688
 2526SOL    HW2 9020   0.089   2.532  10.686
 2527SOL     OW 9021   0.559   2.066  10.481
 2527SOL    HW1 9022   0.599   1.985  10.513
 2527SOL    HW2 9023   0.474   2.070  10.525
 2528SOL     OW 9024   0.861   2.298   9.924
 2528SOL    HW1 9025   0.817   2.365   9.873
 2528SOL    HW2 9026   0.791   2.250   9.967
 2529SOL     OW 9027   1.018   1.911  10.047
 2529SOL    HW1 9028   0.952   1.903   9.979
 2529SOL    HW2 9029   0.992   1.847  10.113
 2530SOL     OW 9030   1.467   2.473  10.282
 2530SOL    HW1 9031   1.410   2.397  10.291
 2530SOL    HW2 9032   1.526   2.469  10.357
 2531SOL     OW 9033   1.805   2.680   9.703
 2531SOL    HW1 9034   1.866   2.640   9.765
 2531SOL    HW2 9035   1.793   2.613   9.636
 2532SOL     OW 9036   0.495   3.286   9.462
 2532SOL    HW1 9037   0.412   3.256   9.499
 2532SOL    HW2 9038   0.507   3.233   9.384
 2533SOL     OW 9039   1.683   3.126   9.949
 2533SOL    HW1 9040   1.776   3.118   9.969
 2533SOL    HW2 9041   1.663   3.218   9.969
 2534SOL     OW 9042   1.405   2.434   9.377
 2534SOL    HW1 9043   1.340   2.413   9.443
 2534SOL    HW2 9044   1.483   2.385   9.404
 2535SOL     OW 9045   0.531   2.126   9.622
 2535SOL    HW1 9046   0.565   2.062   9.560
 2535SOL    HW2 9047   0.512   2.203   9.569
 2536SOL     OW 9048   1.746   3.122  10.863
 2536SOL    HW1 9049   1.827   3.073  10.848
 2536SOL    HW2 9050   1.775   3.208  10.894
 2537SOL     OW 9051   1.596   3.474  10.943
 2537SOL    HW1 9052   1.606   3.531  10.866
 2537SOL    HW2 9053   1.683   3.435  10.955
 2538SOL     OW 9054   1.102   3.084  10.429
 2538SOL    HW1 9055   1.027   3.024  10.426
 2538SOL    HW2 9056   1.104   3.124  10.342
 2539SOL     OW 9057   1.552   3.004  10.367
 2539SOL    HW1 9058   1.576   3.058  10.442
 2539SOL    HW2 9059   1.507   2.929  10.405
 2540SOL     OW 9060   0.906   1.945  10.701
 2540SOL    HW1 9061   0.925   1.944  10.607
 2540SOL    HW2 9062   0.975   1.998  10.739
 2541SOL     OW 9063   0.970   2.984  10.988
 2541SOL    HW1 9064   0.883   2.991  11.028
 2541SOL    HW2 9065   0.976   2.893  10.959
 2542SOL     OW 9066   0.702   2.937   9.691
 2542SOL    HW1 9067   0.694   2.915   9.784
 2542SOL    HW2 9068   0.767   2.875   9.657
 2543SOL     OW 9069   0.424   2.678  10.556
 2543SOL    HW1 9070   0.489   2.690  10.626
 2543SOL    HW2 9071   0.401   2.585  10.559
 2544SOL     OW 9072   1.274   2.247  10.554
 2544SOL    HW1 9073   1.310   2.312  10.615
 2544SOL    HW2 9074   1.179   2.261  10.557
 2545SOL     OW 9075   0.066   3.434  10.670
 2545SOL    HW1 9076   0.058   3.526  10.692
 2545SOL    HW2 9077   0.160   3.421  10.656
 2546SOL     OW 9078   0.335   2.964   9.801
 2546SOL    HW1 9079   0.353   3.028   9.732
 2546SOL    HW2 9080   0.342   2.879   9.758
 2547SOL     OW 9081   0.598   2.375  10.155
 2547SOL    HW1 9082   0.604   2.451  10.097
 2547SOL    HW2 9083   0.511   2.382  10.196
 2548SOL     OW 9084   1.261   3.207   9.711
 2548SOL    HW1 9085   1.313   3.282   9.740
 2548SOL    HW2 9086   1.172   3.228   9.739
 2549SOL     OW 9087   1.289   3.314  10.478
 2549SOL    HW1 9088   1.345   3.323  10.555
 2549SOL    HW2 9089   1.241   3.233  10.492
 2550SOL     OW 9090   1.577   2.470   9.797
 2550SOL    HW1 9091   1.527   2.525   9.858
 2550SOL    HW2 9092   1.641   2.530   9.759
 2551SOL     OW 9093   0.342   3.390  10.612
 2551SOL    HW1 9094   0.325   3.348  10.528
 2551SOL    HW2 9095   0.435   3.410  10.611
 2552SOL     OW 9096   0.435   2.569  10.902
 2552SOL    HW1 9097   0.489   2.629  10.849
 2552SOL    HW2 9098   0.487   2.489  10.908
 2553SOL     OW 9099   1.565   2.597  10.931
 2553SOL    HW1 9100   1.575   2.634  11.019
 2553SOL    HW2 9101   1.625   2.648  10.877
 2554SOL     OW 9102   0.991   1.995  11.060
 2554SOL    HW1 9103   1.049   2.069  11.045
 2554SOL    HW2 9104   1.041   1.919  11.031
 2555SOL     OW 9105   0.562   2.755  10.334
 2555SOL    HW1 9106   0.634   2.811  10.364
 2555SOL    HW2 9107   0.517   2.729  10.414
 2556SOL     OW 9108   1.328   2.717  10.320
 2556SOL    HW1 9109   1.241   2.686  10.292
 2556SOL    HW2 9110   1.383   2.639  10.319
 2557SOL     OW 9111   1.221   2.388   9.570
 2557SOL    HW1 9112   1.245   2.314   9.625
 2557SOL    HW2 9113   1.181   2.451   9.630
 2558SOL     OW 9114   0.320   2.050  10.626
 2558SOL    HW1 9115   0.238   2.078  10.669
 2558SOL    HW2 9116   0.297   1.966  10.585
 2559SOL     OW 9117   0.055   3.168  10.589
 2559SOL    HW1 9118   0.067   3.110  10.664
 2559SOL    HW2 9119   0.048   3.255  10.627
 2560SOL     OW 9120   0.764   2.537  10.395
 2560SOL    HW1 9121   0.798   2.463  10.344
 2560SOL    HW2 9122   0.689   2.568  10.344
 2561SOL     OW 9123   0.305   1.921   9.926
 2561SOL    HW1 9124   0.286   2.012   9.948
 2561SOL    HW2 9125   0.321   1.878  10.010
 2562SOL     OW 9126   1.620   2.235   9.667
 2562SOL    HW1 9127   1.653   2.171   9.730
 2562SOL    HW2 9128   1.596   2.311   9.719
 2563SOL     OW 9129   1.043   2.626  10.279
 2563SOL    HW1 9130   1.026   2.647  10.371
 2563SOL    HW2 9131   1.005   2.539  10.267
 2564SOL     OW 9132   0.944   3.427  11.001
 2564SOL    HW1 9133   0.995   3.508  10.992
 2564SOL    HW2 9134   1.010   3.361  11.022
 2565SOL     OW 9135   1.850   3.369  10.914
 2565SOL    HW1 9136   1.877   3.398  10.827
 2565SOL    HW2 9137   1.927   3.384  10.969
 2566SOL     OW 9138   0.380   2.796  11.115
 2566SOL    HW1 9139   0.368   2.805  11.209
 2566SOL    HW2 9140   0.475   2.796  11.103
 2567SOL     OW 9141   1.511   2.137   9.434
 2567SOL    HW1 9142   1.453   2.066   9.461
 2567SOL    HW2 9143   1.552   2.168   9.515
 2568SOL     OW 9144   1.307   2.692   9.350
 2568SOL    HW1 9145   1.340   2.602   9.347
 2568SOL    HW2 9146   1.320   2.726   9.262
 2569SOL     OW 9147   1.076   3.206  10.179
 2569SOL    HW1 9148   1.084   3.133  10.117
 2569SOL    HW2 9149   1.136   3.272  10.145
 2570SOL     OW 9150   0.306   2.691  10.240
 2570SOL    HW1 9151   0.400   2.707  10.251
 2570SOL    HW2 9152   0.295   2.598  10.262
 2571SOL     OW 9153   1.133   2.225  11.012
 2571SOL    HW1 9154   1.094   2.288  11.072
 2571SOL    HW2 9155   1.221   2.258  10.995
 2572SOL     OW 9156   1.156   2.059  10.784
 2572SOL    HW1 9157   1.146   2.119  10.858
 2572SOL    HW2 9158   1.163   2.115  10.707
 2573SOL     OW 9159   7.976   3.177   9.503
 2573SOL    HW1 9160   7.888   3.187   9.541
 2573SOL    HW2 9161   7.999   3.086   9.520
 2574SOL     OW 9162   0.145   3.581  10.270
 2574SOL    HW1 9163   0.083   3.592  10.198
 2574SOL    HW2 9164   0.224   3.628  10.242
 2575SOL     OW 9165   0.959   2.673  10.543
 2575SOL    HW1 9166   1.009   2.626  10.610
 2575SOL    HW2 9167   0.891   2.612  10.515
 2576SOL     OW 9168   0.017   2.404  10.487
 2576SOL    HW1 9169   0.078   2.412  10.414
 2576SOL    HW2 9170   0.067   2.361  10.556
 2577SOL     OW 9171   0.220   2.375  10.968
 2577SOL    HW1 9172   0.301   2.331  10.942
 2577SOL    HW2 9173   0.183   2.408  10.886
 2578SOL     OW 9174   1.338   2.820  10.972
 2578SOL    HW1 9175   1.408   2.884  10.981
 2578SOL    HW2 9176   1.361   2.770  10.894
 2579SOL     OW 9177   0.783   2.382   9.666
 2579SOL    HW1 9178   0.769   2.333   9.585
 2579SOL    HW2 9179   0.745   2.468   9.649
 2580SOL     OW 9180   1.644   2.462  10.489
 2580SOL    HW1 9181   1.634   2.413  10.571
 2580SOL    HW2 9182   1.733   2.442  10.460
 2581SOL     OW 9183   0.603   2.324  10.577
 2581SOL    HW1 9184   0.612   2.240  10.533
 2581SOL    HW2 9185   0.685   2.370  10.559
 2582SOL     OW 9186   0.944   3.608  10.731
 2582SOL    HW1 9187   0.921   3.517  10.712
 2582SOL    HW2 9188   1.027   3.603  10.779
 2583SOL     OW 9189   0.466   2.355   9.488
 2583SOL    HW1 9190   0.523   2.431   9.501
 2583SOL    HW2 9191   0.378   2.386   9.512
 2584SOL     OW 9192   0.144   2.993  10.789
 2584SOL    HW1 9193   0.128   2.944  10.869
 2584SOL    HW2 9194   0.158   2.926  10.722
 2585SOL     OW 9195   1.320   2.909  10.509
 2585SOL    HW1 9196   1.323   2.838  10.444
 2585SOL    HW2 9197   1.250   2.966  10.479
 2586SOL     OW 9198   1.301   2.736   9.617
 2586SOL    HW1 9199   1.210   2.733   9.646
 2586SOL    HW2 9200   1.297   2.714   9.524
 2587SOL     OW 9201   1.739   3.602  10.432
 2587SOL    HW1 9202   1.814   3.632  10.382
 2587SOL    HW2 9203   1.739   3.507  10.419
 2588SOL     OW 9204   1.225   3.584  10.397
 2588SOL    HW1 9205   1.306   3.624  10.366
 2588SOL    HW2 9206   1.252   3.498  10.430
 2589SOL     OW 9207   0.081   3.092  10.335
 2589SOL    HW1 9208   0.066   3.114  10.427
 2589SOL    HW2 9209  -0.001   3.114  10.291
 2590SOL     OW 9210   0.677   3.517  11.051
 2590SOL    HW1 9211   0.642   3.605  11.040
 2590SOL    HW2 9212   0.770   3.525  11.028
 2591SOL     OW 9213   1.731   2.019   9.814
 2591SOL    HW1 9214   1.797   2.004   9.747
 2591SOL    HW2 9215   1.710   1.933   9.849
 2592SOL     OW 9216   1.388   3.438   9.804
 2592SOL    HW1 9217   1.440   3.470   9.730
 2592SOL    HW2 9218   1.343   3.517   9.837
 2593SOL     OW 9219   0.208   3.604  11.149
 2593SOL    HW1 9220   0.121   3.598  11.189
 2593SOL    HW2 9221   0.253   3.670  11.200
 2594SOL     OW 9222   1.298   2.785   9.978
 2594SOL    HW1 9223   1.364   2.716   9.989
 2594SOL    HW2 9224   1.326   2.832   9.899
 2595SOL     OW 9225   0.861   3.148  10.734
 2595SOL    HW1 9226   0.807   3.184  10.805
 2595SOL    HW2 9227   0.809   3.163  10.655
 2596SOL     OW 9228   0.671   3.492   9.453
 2596SOL    HW1 9229   0.677   3.500   9.358
 2596SOL    HW2 9230   0.620   3.412   9.467
 2597SOL     OW 9231   1.604   3.592  10.679
 2597SOL    HW1 9232   1.659   3.599  10.601
 2597SOL    HW2 9233   1.591   3.683  10.707
 2598SOL     OW 9234   1.828   2.022  10.272
 2598SOL    HW1 9235   1.878   1.945  10.246
 2598SOL    HW2 9236   1.816   2.071  10.190
 2599SOL     OW 9237   0.267   2.176  10.014
 2599SOL    HW1 9238   0.181   2.215   9.997
 2599SOL    HW2 9239   0.273   2.170  10.109
 2600SOL     OW 9240   1.204   3.487   9.357
 2600SOL    HW1 9241   1.179   3.395   9.358
 2600SOL    HW2 9242   1.178   3.519   9.270
 2601SOL     OW 9243   0.812   2.864  10.680
 2601SOL    HW1 9244   0.869   2.818  10.619
 2601SOL    HW2 9245   0.851   2.951  10.688
 2602SOL     OW 9246   1.485   3.491   9.344
 2602SOL    HW1 9247   1.391   3.482   9.328
 2602SOL    HW2 9248   1.524   3.495   9.257
 2603SOL     OW 9249   0.352   3.174  10.805
 2603SOL    HW1 9250   0.341   3.239  10.736
 2603SOL    HW2 9251   0.284   3.109  10.789
 2604SOL     OW 9252   1.593   3.159  10.585
 2604SOL    HW1 9253   1.673   3.142  10.634
 2604SOL    HW2 9254   1.541   3.214  10.643
 2605SOL     OW 9255   1.059   2.983  10.029
 2605SOL    HW1 9256   0.991   2.926  10.064
 2605SOL    HW2 9257   1.119   2.924   9.984
 2606SOL     OW 9258   1.040   2.114  10.249
 2606SOL    HW1 9259   1.030   2.051  10.179
 2606SOL    HW2 9260   1.012   2.068  10.328
 2607SOL     OW 9261   0.614   3.357   9.802
 2607SOL    HW1 9262   0.667   3.306   9.740
 2607SOL    HW2 9263   0.526   3.357   9.764
 2608SOL     OW 9264   1.719   2.253  10.692
 2608SOL    HW1 9265   1.791   2.315  10.698
 2608SOL    HW2 9266   1.749   2.187  10.630
 2609SOL     OW 9267   0.252   3.205   9.573
 2609SOL    HW1 9268   0.156   3.209   9.569
 2609SOL    HW2 9269   0.274   3.238   9.660
 2610SOL     OW 9270   0.123   2.840  11.028
 2610SOL    HW1 9271   0.056   2.850  11.096
 2610SOL    HW2 9272   0.205   2.866  11.071
 2611SOL     OW 9273   0.675   2.026  10.844
 2611SOL    HW1 9274   0.744   2.020  10.778
 2611SOL    HW2 9275   0.715   2.074  10.916
 2612SOL     OW 9276   0.055   2.217   9.317
 2612SOL    HW1 9277  -0.002   2.260   9.381
 2612SOL    HW2 9278   0.086   2.288   9.260
 2613SOL     OW 9279   1.414   2.730  10.711
 2613SOL    HW1 9280   1.394   2.788  10.638
 2613SOL    HW2 9281   1.510   2.735  10.719
 2614SOL     OW 9282   0.062   2.020   9.560
 2614SOL    HW1 9283   0.047   2.105   9.601
 2614SOL    HW2 9284   0.150   1.995   9.588
 2615SOL     OW 9285   1.166   3.216   9.437
 2615SOL    HW1 9286   1.143   3.124   9.423
 2615SOL    HW2 9287   1.210   3.218   9.522
 2616SOL     OW 9288   0.611   2.700  10.747
 2616SOL    HW1 9289   0.670   2.773  10.728
 2616SOL    HW2 9290   0.668   2.623  10.748
 2617SOL     OW 9291   1.480   3.641  10.278
 2617SOL    HW1 9292   1.497   3.715  10.220
 2617SOL    HW2 9293   1.561   3.631  10.329
 2618SOL     OW 9294   0.756   2.403  11.032
 2618SOL    HW1 9295   0.756   2.488  11.077
 2618SOL    HW2 9296   0.845   2.371  11.042
 2619SOL     OW 9297   1.479   3.086  10.928
 2619SOL    HW1 9298   1.468   3.087  11.023
 2619SOL    HW2 9299   1.574   3.092  10.915
 2620SOL     OW 9300   0.396   3.593  10.855
 2620SOL    HW1 9301   0.303   3.618  10.853
 2620SOL    HW2 9302   0.395   3.498  10.844
 2621SOL     OW 9303   1.654   2.747  10.503
 2621SOL    HW1 9304   1.641   2.652  10.513
 2621SOL    HW2 9305   1.747   2.756  10.484
 2622SOL     OW 9306   1.209   2.192   9.770
 2622SOL    HW1 9307   1.261   2.112   9.763
 2622SOL    HW2 9308   1.243   2.235   9.849
 2623SOL     OW 9309   0.602   2.597   9.989
 2623SOL    HW1 9310   0.639   2.684   9.974
 2623SOL    HW2 9311   0.530   2.590   9.926
 2624SOL     OW 9312   1.748   2.235  10.970
 2624SOL    HW1 9313   1.726   2.260  10.880
 2624SOL    HW2 9314   1.677   2.176  10.996
 2625SOL     OW 9315   1.711   2.781  10.794
 2625SOL    HW1 9316   1.743   2.836  10.866
 2625SOL    HW2 9317   1.739   2.827  10.715
 2626SOL     OW 9318   0.825   3.237   9.340
 2626SOL    HW1 9319   0.830   3.272   9.429
 2626SOL    HW2 9320   0.871   3.301   9.286
 2627SOL     OW 9321   0.664   3.639  10.228
 2627SOL    HW1 9322   0.630   3.729  10.226
 2627SOL    HW2 9323   0.759   3.650  10.229
 2628SOL     OW 9324   0.875   2.833  10.172
 2628SOL    HW1 9325   0.920   2.754  10.202
 2628SOL    HW2 9326   0.839   2.872  10.252
 2629SOL     OW 9327   1.166   2.951   9.363
 2629SOL    HW1 9328   1.094   2.953   9.300
 2629SOL    HW2 9329   1.181   2.858   9.380
 2630SOL     OW 9330   1.864   3.404  10.141
 2630SOL    HW1 9331   1.769   3.391  10.144
 2630SOL    HW2 9332   1.898   3.341  10.204
 2631SOL     OW 9333   0.214   3.134  11.195
 2631SOL    HW1 9334   0.119   3.125  11.200
 2631SOL    HW2 9335   0.242   3.137  11.287
 2632SOL     OW 9336   0.135   3.125   9.950
 2632SOL    HW1 9337   0.064   3.078   9.994
 2632SOL    HW2 9338   0.196   3.056   9.923
 2633SOL     OW 9339   0.679   3.265  10.906
 2633SOL    HW1 9340   0.611   3.220  10.955
 2633SOL    HW2 9341   0.692   3.347  10.953
 2634SOL     OW 9342   1.793   2.038  10.543
 2634SOL    HW1 9343   1.867   2.007  10.595
 2634SOL    HW2 9344   1.826   2.043  10.453
 2635SOL     OW 9345   0.419   2.296   9.815
 2635SOL    HW1 9346   0.471   2.230   9.768
 2635SOL    HW2 9347   0.384   2.249   9.890
 2636SOL     OW 9348   1.721   3.331  10.407
 2636SOL    HW1 9349   1.648   3.288  10.451
 2636SOL    HW2 9350   1.799   3.297  10.450
 2637SOL     OW 9351   0.352   2.415  10.589
 2637SOL    HW1 9352   0.441   2.380  10.597
 2637SOL    HW2 9353   0.329   2.400  10.498
 2638SOL     OW 9354   0.805   3.466   9.974
 2638SOL    HW1 9355   0.809   3.549   9.926
 2638SOL    HW2 9356   0.744   3.413   9.924
 2639SOL     OW 9357   1.465   2.047  10.481
 2639SOL    HW1 9358   1.516   2.041  10.562
 2639SOL    HW2 9359   1.393   2.105  10.502
 2640SOL     OW 9360   0.999   1.881  10.439
 2640SOL    HW1 9361   0.948   1.823  10.382
 2640SOL    HW2 9362   1.086   1.841  10.443
 2641SOL     OW 9363   0.779   3.205   9.649
 2641SOL    HW1 9364   0.744   3.116   9.645
 2641SOL    HW2 9365   0.872   3.193   9.668
 2642SOL     OW 9366   0.614   3.438  10.568
 2642SOL    HW1 9367   0.616   3.524  10.612
 2642SOL    HW2 9368   0.707   3.415  10.558
 2643SOL     OW 9369   1.356   1.909   9.489
 2643SOL    HW1 9370   1.391   1.844   9.427
 2643SOL    HW2 9371   1.267   1.880   9.507
 2644SOL     OW 9372   1.292   2.326   9.993
 2644SOL    HW1 9373   1.243   2.408  10.001
 2644SOL    HW2 9374   1.296   2.291  10.083
 2645SOL     OW 9375   1.542   2.082  10.182
 2645SOL    HW1 9376   1.460   2.119  10.214
 2645SOL    HW2 9377   1.574   2.145  10.118
 2646SOL     OW 9378   0.065   2.933   9.576
 2646SOL    HW1 9379   0.150   2.890   9.564
 2646SOL    HW2 9380   0.037   2.906   9.663
 2647SOL     OW 9381   0.201   2.531  11.231
 2647SOL    HW1 9382   0.138   2.558  11.297
 2647SOL    HW2 9383   0.245   2.455  11.270
 2648SOL     OW 9384   0.235   2.141  12.152
 2648SOL    HW1 9385   0.272   2.114  12.236
 2648SOL    HW2 9386   0.148   2.102  12.149
 2649SOL     OW 9387   8.010   2.272  11.792
 2649SOL    HW1 9388   7.981   2.311  11.873
 2649SOL    HW2 9389   7.944   2.206  11.771
 2650SOL     OW 9390   0.562   3.146  12.321
 2650SOL    HW1 9391   0.477   3.180  12.291
 2650SOL    HW2 9392   0.551   3.136  12.416
 2651SOL     OW 9393   1.576   3.369  11.872
 2651SOL    HW1 9394   1.531   3.356  11.956
 2651SOL    HW2 9395   1.505   3.382  11.809
 2652SOL     OW 9396   1.132   2.565  11.870
 2652SOL    HW1 9397   1.180   2.647  11.858
 2652SOL    HW2 9398   1.077   2.581  11.947
 2653SOL     OW 9399   1.751   2.458  11.430
 2653SOL    HW1 9400   1.732   2.465  11.337
 2653SOL    HW2 9401   1.729   2.368  11.453
 2654SOL     OW 9402   0.780   3.055  12.201
 2654SOL    HW1 9403   0.696   3.088  12.232
 2654SOL    HW2 9404   0.817   3.008  12.275
 2655SOL     OW 9405   0.688   2.857  11.806
 2655SOL    HW1 9406   0.747   2.847  11.881
 2655SOL    HW2 9407   0.612   2.903  11.841
 2656SOL     OW 9408   0.335   3.273  12.235
 2656SOL    HW1 9409   0.259   3.224  12.203
 2656SOL    HW2 9410   0.362   3.326  12.160
 2657SOL     OW 9411   1.604   2.316  11.912
 2657SOL    HW1 9412   1.602   2.368  11.832
 2657SOL    HW2 9413   1.621   2.380  11.981
 2658SOL     OW 9414   0.218   3.550  11.625
 2658SOL    HW1 9415   0.200   3.631  11.672
 2658SOL    HW2 9416   0.299   3.568  11.577
 2659SOL     OW 9417   0.328   3.316  11.716
 2659SOL    HW1 9418   0.280   3.396  11.696
 2659SOL    HW2 9419   0.262   3.257  11.754
 2660SOL     OW 9420   0.291   2.949  12.083
 2660SOL    HW1 9421   0.270   2.860  12.112
 2660SOL    HW2 9422   0.220   3.003  12.119
 2661SOL     OW 9423   0.612   2.828  11.305
 2661SOL    HW1 9424   0.661   2.878  11.240
 2661SOL    HW2 9425   0.633   2.870  11.389
 2662SOL     OW 9426   0.125   2.507  11.704
 2662SOL    HW1 9427   0.095   2.421  11.734
 2662SOL    HW2 9428   0.118   2.563  11.781
 2663SOL     OW 9429   1.836   3.612  11.504
 2663SOL    HW1 9430   1.906   3.590  11.566
 2663SOL    HW2 9431   1.853   3.704  11.481
 2664SOL     OW 9432   0.045   3.411  11.289
 2664SOL    HW1 9433   0.012   3.324  11.312
 2664SOL    HW2 9434   0.026   3.466  11.365
 2665SOL     OW 9435   1.685   2.773  11.823
 2665SOL    HW1 9436   1.769   2.728  11.812
 2665SOL    HW2 9437   1.671   2.818  11.740
 2666SOL     OW 9438   1.649   2.960  11.605
 2666SOL    HW1 9439   1.734   2.959  11.561
 2666SOL    HW2 9440   1.659   3.022  11.677
 2667SOL     OW 9441   0.150   2.601   0.283
 2667SOL    HW1 9442   0.149   2.563   0.371
 2667SOL    HW2 9443   0.187   2.688   0.294
 2668SOL     OW 9444   0.602   3.228  11.922
 2668SOL    HW1 9445   0.545   3.151  11.917
 2668SOL    HW2 9446   0.594   3.269  11.836
 2669SOL     OW 9447   0.811   1.877  11.638
 2669SOL    HW1 9448   0.856   1.961  11.646
 2669SOL    HW2 9449   0.723   1.895  11.672
 2670SOL     OW 9450   0.193   2.810  12.377
 2670SOL    HW1 9451   0.283   2.783  12.395
 2670SOL    HW2 9452   0.141   2.765  12.443
 2671SOL     OW 9453   1.494   2.880  11.380
 2671SOL    HW1 9454   1.549   2.825  11.324
 2671SOL    HW2 9455   1.548   2.901  11.455
 2672SOL     OW 9456   1.455   3.288  12.104
 2672SOL    HW1 9457   1.401   3.297  12.183
 2672SOL    HW2 9458   1.444   3.196  12.079
 2673SOL     OW 9459   1.658   3.613  11.752
 2673SOL    HW1 9460   1.639   3.586  11.662
 2673SOL    HW2 9461   1.642   3.535  11.804
 2674SOL     OW 9462   0.593   2.569  11.428
 2674SOL    HW1 9463   0.609   2.655  11.389
 2674SOL    HW2 9464   0.541   2.588  11.506
 2675SOL     OW 9465   1.231   2.145  12.113
 2675SOL    HW1 9466   1.265   2.167  12.026
 2675SOL    HW2 9467   1.308   2.129  12.166
 2676SOL     OW 9468   1.577   3.525  11.479
 2676SOL    HW1 9469   1.667   3.556  11.479
 2676SOL    HW2 9470   1.557   3.509  11.387
 2677SOL     OW 9471   0.944   2.210  12.345
 2677SOL    HW1 9472   0.993   2.263  12.408
 2677SOL    HW2 9473   0.852   2.232  12.362
 2678SOL     OW 9474   1.028   2.580  11.608
 2678SOL    HW1 9475   1.057   2.561  11.697
 2678SOL    HW2 9476   0.960   2.514  11.591
 2679SOL     OW 9477   0.092   2.644  11.942
 2679SOL    HW1 9478   0.174   2.655  11.990
 2679SOL    HW2 9479   0.035   2.712  11.976
 2680SOL     OW 9480   0.054   3.644   0.282
 2680SOL    HW1 9481   0.094   3.594   0.354
 2680SOL    HW2 9482  -0.037   3.617   0.283
 2681SOL     OW 9483   0.894   2.202  11.350
 2681SOL    HW1 9484   0.937   2.273  11.302
 2681SOL    HW2 9485   0.948   2.125  11.334
 2682SOL     OW 9486   1.379   2.993  11.694
 2682SOL    HW1 9487   1.463   2.981  11.649
 2682SOL    HW2 9488   1.336   3.064  11.645
 2683SOL     OW 9489   0.558   2.049  12.049
 2683SOL    HW1 9490   0.560   2.072  12.142
 2683SOL    HW2 9491   0.554   2.133  12.004
 2684SOL     OW 9492   0.999   3.302  11.635
 2684SOL    HW1 9493   0.956   3.375  11.589
 2684SOL    HW2 9494   1.010   3.334  11.725
 2685SOL     OW 9495   0.357   3.690  12.029
 2685SOL    HW1 9496   0.398   3.604  12.040
 2685SOL    HW2 9497   0.426   3.752  12.054
 2686SOL     OW 9498   1.801   2.924  12.040
 2686SOL    HW1 9499   1.749   2.895  11.964
 2686SOL    HW2 9500   1.736   2.945  12.107
 2687SOL     OW 9501   0.299   2.795  11.375
 2687SOL    HW1 9502   0.313   2.855  11.449
 2687SOL    HW2 9503   0.339   2.713  11.403
 2688SOL     OW 9504   1.470   2.624  11.914
 2688SOL    HW1 9505   1.484   2.578  11.997
 2688SOL    HW2 9506   1.553   2.669  11.898
 2689SOL     OW 9507   1.633   3.238  11.271
 2689SOL    HW1 9508   1.595   3.324  11.252
 2689SOL    HW2 9509   1.567   3.175  11.242
 2690SOL     OW 9510   0.460   3.607  11.491
 2690SOL    HW1 9511   0.504   3.661  11.557
 2690SOL    HW2 9512   0.532   3.570  11.439
 2691SOL     OW 9513   1.405   1.979  11.614
 2691SOL    HW1 9514   1.403   1.949  11.523
 2691SOL    HW2 9515   1.498   1.980  11.637
 2692SOL     OW 9516   0.217   3.664  12.410
 2692SOL    HW1 9517   0.258   3.582  12.440
 2692SOL    HW2 9518   0.176   3.640  12.326
 2693SOL     OW 9519   0.949   3.544  12.062
 2693SOL    HW1 9520   1.038   3.509  12.054
 2693SOL    HW2 9521   0.901   3.505  11.990
 2694SOL     OW 9522   0.411   2.562  11.636
 2694SOL    HW1 9523   0.414   2.468  11.654
 2694SOL    HW2 9524   0.325   2.590  11.668
 2695SOL     OW 9525   0.603   1.945  11.263
 2695SOL    HW1 9526   0.652   1.875  11.305
 2695SOL    HW2 9527   0.670   2.001  11.223
 2696SOL     OW 9528   0.946   2.397  12.059
 2696SOL    HW1 9529   0.904   2.375  11.976
 2696SOL    HW2 9530   1.018   2.335  12.067
 2697SOL     OW 9531   0.542   1.928  11.667
 2697SOL    HW1 9532   0.469   1.932  11.728
 2697SOL    HW2 9533   0.532   2.006  11.612
 2698SOL     OW 9534   1.420   3.073  11.199
 2698SOL    HW1 9535   1.448   2.998  11.252
 2698SOL    HW2 9536   1.341   3.105  11.242
 2699SOL     OW 9537   0.293   1.906  11.345
 2699SOL    HW1 9538   0.353   1.977  11.323
 2699SOL    HW2 9539   0.345   1.844  11.396
 2700SOL     OW 9540   0.943   2.122  11.632
 2700SOL    HW1 9541   0.917   2.160  11.548
 2700SOL    HW2 9542   1.038   2.132  11.635
 2701SOL     OW 9543   1.204   3.451  11.974
 2701SOL    HW1 9544   1.224   3.514  11.905
 2701SOL    HW2 9545   1.285   3.444  12.024
 2702SOL     OW 9546   0.467   2.997  11.886
 2702SOL    HW1 9547   0.403   2.979  11.955
 2702SOL    HW2 9548   0.418   2.985  11.805
 2703SOL     OW 9549   1.267   3.662  11.784
 2703SOL    HW1 9550   1.324   3.718  11.732
 2703SOL    HW2 9551   1.205   3.722  11.826
 2704SOL     OW 9552   1.018   2.396  11.201
 2704SOL    HW1 9553   0.988   2.486  11.189
 2704SOL    HW2 9554   1.087   2.402  11.267
 2705SOL     OW 9555   0.567   2.084  12.319
 2705SOL    HW1 9556   0.601   2.000  12.349
 2705SOL    HW2 9557   0.477   2.088  12.352
 2706SOL     OW 9558   0.860   2.321  11.811
 2706SOL    HW1 9559   0.815   2.374  11.746
 2706SOL    HW2 9560   0.888   2.243  11.763
 2707SOL     OW 9561   0.990   1.955  11.998
 2707SOL    HW1 9562   0.982   1.965  11.903
 2707SOL    HW2 9563   0.981   1.861  12.014
 2708SOL     OW 9564   1.427   3.029  12.014
 2708SOL    HW1 9565   1.371   2.953  11.998
 2708SOL    HW2 9566   1.479   3.038  11.934
 2709SOL     OW 9567   1.476   2.472  12.150
 2709SOL    HW1 9568   1.423   2.394  12.164
 2709SOL    HW2 9569   1.538   2.473  12.223
 2710SOL     OW 9570   1.839   2.679  11.566
 2710SOL    HW1 9571   1.899   2.627  11.618
 2710SOL    HW2 9572   1.806   2.619  11.499
 2711SOL     OW 9573   0.456   3.302  11.283
 2711SOL    HW1 9574   0.406   3.277  11.360
 2711SOL    HW2 9575   0.510   3.226  11.263
 2712SOL     OW 9576   1.677   3.119  11.822
 2712SOL    HW1 9577   1.772   3.120  11.834
 2712SOL    HW2 9578   1.650   3.210  11.835
 2713SOL     OW 9579   1.401   2.444  11.227
 2713SOL    HW1 9580   1.363   2.405  11.305
 2713SOL    HW2 9581   1.495   2.436  11.240
 2714SOL     OW 9582   0.508   2.117  11.472
 2714SOL    HW1 9583   0.555   2.067  11.405
 2714SOL    HW2 9584   0.493   2.202  11.432
 2715SOL     OW 9585   1.120   3.094  12.283
 2715SOL    HW1 9586   1.044   3.090  12.341
 2715SOL    HW2 9587   1.085   3.124  12.199
 2716SOL     OW 9588   1.623   2.990  12.231
 2716SOL    HW1 9589   1.608   2.952  12.318
 2716SOL    HW2 9590   1.536   2.999  12.194
 2717SOL     OW 9591   0.717   2.936  11.540
 2717SOL    HW1 9592   0.695   2.909  11.630
 2717SOL    HW2 9593   0.789   2.878  11.516
 2718SOL     OW 9594   0.434   2.674  12.451
 2718SOL    HW1 9595   0.487   2.691  12.530
 2718SOL    HW2 9596   0.382   2.597  12.474
 2719SOL     OW 9597   1.259   2.245  12.419
 2719SOL    HW1 9598   1.331   2.278  12.472
 2719SOL    HW2 9599   1.185   2.303  12.440
 2720SOL     OW 9600   0.552   2.380  12.019
 2720SOL    HW1 9601   0.568   2.444  11.951
 2720SOL    HW2 9602   0.611   2.405  12.090
 2721SOL     OW 9603   1.254   3.216  11.568
 2721SOL    HW1 9604   1.308   3.288  11.601
 2721SOL    HW2 9605   1.165   3.237  11.596
 2722SOL     OW 9606   1.302   3.304  12.329
 2722SOL    HW1 9607   1.364   3.294  12.401
 2722SOL    HW2 9608   1.248   3.225  12.333
 2723SOL     OW 9609   1.589   2.468  11.680
 2723SOL    HW1 9610   1.527   2.539  11.693
 2723SOL    HW2 9611   1.647   2.499  11.611
 2724SOL     OW 9612   0.361   3.426  12.459
 2724SOL    HW1 9613   0.331   3.365  12.392
 2724SOL    HW2 9614   0.452   3.444  12.436
 2725SOL     OW 9615   0.581   2.739  12.225
 2725SOL    HW1 9616   0.561   2.832  12.218
 2725SOL    HW2 9617   0.533   2.709  12.302
 2726SOL     OW 9618   1.342   2.725  12.203
 2726SOL    HW1 9619   1.270   2.698  12.147
 2726SOL    HW2 9620   1.399   2.648  12.207
 2727SOL     OW 9621   1.188   2.373  11.422
 2727SOL    HW1 9622   1.198   2.307  11.491
 2727SOL    HW2 9623   1.216   2.455  11.462
 2728SOL     OW 9624   0.315   2.069  12.402
 2728SOL    HW1 9625   0.255   2.108  12.466
 2728SOL    HW2 9626   0.294   1.976  12.404
 2729SOL     OW 9627   0.084   3.198  12.436
 2729SOL    HW1 9628   0.061   3.140  12.509
 2729SOL    HW2 9629   0.084   3.286  12.475
 2730SOL     OW 9630   0.710   2.484  12.215
 2730SOL    HW1 9631   0.794   2.479  12.169
 2730SOL    HW2 9632   0.687   2.577  12.212
 2731SOL     OW 9633   0.296   1.930  11.792
 2731SOL    HW1 9634   0.277   2.021  11.815
 2731SOL    HW2 9635   0.315   1.887  11.875
 2732SOL     OW 9636   1.614   2.233  11.531
 2732SOL    HW1 9637   1.648   2.162  11.586
 2732SOL    HW2 9638   1.594   2.303  11.594
 2733SOL     OW 9639   1.011   2.640  12.155
 2733SOL    HW1 9640   1.009   2.643  12.250
 2733SOL    HW2 9641   0.992   2.549  12.133
 2734SOL     OW 9642   1.520   2.133  11.295
 2734SOL    HW1 9643   1.463   2.062  11.325
 2734SOL    HW2 9644   1.556   2.171  11.374
 2735SOL     OW 9645   1.278   2.688  11.205
 2735SOL    HW1 9646   1.327   2.606  11.210
 2735SOL    HW2 9647   1.310   2.731  11.126
 2736SOL     OW 9648   1.046   3.211  12.024
 2736SOL    HW1 9649   1.073   3.134  11.974
 2736SOL    HW2 9650   1.113   3.277  12.005
 2737SOL     OW 9651   0.316   2.663  12.102
 2737SOL    HW1 9652   0.409   2.685  12.109
 2737SOL    HW2 9653   0.310   2.574  12.138
 2738SOL     OW 9654   0.328   2.397  12.172
 2738SOL    HW1 9655   0.292   2.308  12.170
 2738SOL    HW2 9656   0.408   2.392  12.119
 2739SOL     OW 9657   1.141   2.081   0.117
 2739SOL    HW1 9658   1.179   2.118   0.196
 2739SOL    HW2 9659   1.193   2.118   0.046
 2740SOL     OW 9660   7.970   3.150  11.353
 2740SOL    HW1 9661   7.884   3.176  11.386
 2740SOL    HW2 9662   7.992   3.071  11.401
 2741SOL     OW 9663   0.118   3.621  12.149
 2741SOL    HW1 9664   0.096   3.540  12.102
 2741SOL    HW2 9665   0.193   3.656  12.101
 2742SOL     OW 9666   0.487   3.447  12.066
 2742SOL    HW1 9667   0.560   3.505  12.086
 2742SOL    HW2 9668   0.525   3.377  12.013
 2743SOL     OW 9669   0.980   2.664  12.448
 2743SOL    HW1 9670   1.069   2.678  12.480
 2743SOL    HW2 9671   0.927   2.660  12.528
 2744SOL     OW 9672   0.070   2.427  12.275
 2744SOL    HW1 9673   0.165   2.431  12.270
 2744SOL    HW2 9674   0.049   2.458  12.363
 2745SOL     OW 9675   0.810   2.418  11.535
 2745SOL    HW1 9676   0.821   2.351  11.467
 2745SOL    HW2 9677   0.741   2.475  11.502
 2746SOL     OW 9678   0.702   2.301  12.422
 2746SOL    HW1 9679   0.640   2.234  12.391
 2746SOL    HW2 9680   0.690   2.374  12.362
 2747SOL     OW 9681   0.975   3.569   0.096
 2747SOL    HW1 9682   0.922   3.509   0.044
 2747SOL    HW2 9683   0.937   3.655   0.077
 2748SOL     OW 9684   0.446   2.349  11.342
 2748SOL    HW1 9685   0.503   2.423  11.362
 2748SOL    HW2 9686   0.370   2.362  11.399
 2749SOL     OW 9687   1.350   2.956  12.349
 2749SOL    HW1 9688   1.356   2.874  12.300
 2749SOL    HW2 9689   1.271   2.998  12.315
 2750SOL     OW 9690   1.289   2.622  11.496
 2750SOL    HW1 9691   1.207   2.655  11.532
 2750SOL    HW2 9692   1.310   2.683  11.424
 2751SOL     OW 9693   1.727   3.592  12.289
 2751SOL    HW1 9694   1.814   3.629  12.275
 2751SOL    HW2 9695   1.742   3.497  12.296
 2752SOL     OW 9696   1.255   3.578  12.304
 2752SOL    HW1 9697   1.328   3.618  12.257
 2752SOL    HW2 9698   1.272   3.484  12.299
 2753SOL     OW 9699   0.099   3.124  12.178
 2753SOL    HW1 9700   0.088   3.145  12.271
 2753SOL    HW2 9701   0.012   3.098  12.149
 2754SOL     OW 9702   1.711   2.020  11.668
 2754SOL    HW1 9703   1.786   2.005  11.611
 2754SOL    HW2 9704   1.698   1.936  11.713
 2755SOL     OW 9705   1.391   3.435  11.665
 2755SOL    HW1 9706   1.453   3.465  11.598
 2755SOL    HW2 9707   1.349   3.516  11.695
 2756SOL     OW 9708   1.276   2.802  11.853
 2756SOL    HW1 9709   1.348   2.740  11.869
 2756SOL    HW2 9710   1.312   2.863  11.788
 2757SOL     OW 9711   0.655   3.486  11.330
 2757SOL    HW1 9712   0.682   3.509  11.241
 2757SOL    HW2 9713   0.591   3.416  11.318
 2758SOL     OW 9714   1.619   3.661   0.031
 2758SOL    HW1 9715   1.658   3.643  -0.054
 2758SOL    HW2 9716   1.678   3.726   0.071
 2759SOL     OW 9717   1.832   2.035  12.129
 2759SOL    HW1 9718   1.873   1.950  12.117
 2759SOL    HW2 9719   1.747   2.028  12.085
 2760SOL     OW 9720   0.261   2.182  11.879
 2760SOL    HW1 9721   0.175   2.217  11.857
 2760SOL    HW2 9722   0.261   2.175  11.975
 2761SOL     OW 9723   1.216   3.466  11.163
 2761SOL    HW1 9724   1.201   3.394  11.225
 2761SOL    HW2 9725   1.157   3.536  11.193
 2762SOL     OW 9726   0.823   2.908  12.468
 2762SOL    HW1 9727   0.855   2.823  12.439
 2762SOL    HW2 9728   0.856   2.916  12.558
 2763SOL     OW 9729   0.911   2.774  11.457
 2763SOL    HW1 9730   0.972   2.797  11.388
 2763SOL    HW2 9731   0.956   2.708  11.509
 2764SOL     OW 9732   1.491   3.483  11.205
 2764SOL    HW1 9733   1.398   3.474  11.183
 2764SOL    HW2 9734   1.536   3.489  11.121
 2765SOL     OW 9735   1.059   2.976  11.896
 2765SOL    HW1 9736   0.991   2.915  11.923
 2765SOL    HW2 9737   1.132   2.921  11.867
 2766SOL     OW 9738   0.615   3.345  11.678
 2766SOL    HW1 9739   0.653   3.309  11.599
 2766SOL    HW2 9740   0.521   3.348  11.661
 2767SOL     OW 9741   1.738   2.219   0.082
 2767SOL    HW1 9742   1.717   2.292   0.023
 2767SOL    HW2 9743   1.770   2.150   0.024
 2768SOL     OW 9744   0.250   3.239  11.448
 2768SOL    HW1 9745   0.159   3.259  11.471
 2768SOL    HW2 9746   0.288   3.205  11.529
 2769SOL     OW 9747   0.109   2.220  11.167
 2769SOL    HW1 9748   0.041   2.257  11.223
 2769SOL    HW2 9749   0.132   2.291  11.107
 2770SOL     OW 9750   0.113   2.092  11.525
 2770SOL    HW1 9751   0.062   2.073  11.446
 2770SOL    HW2 9752   0.191   2.036  11.517
 2771SOL     OW 9753   1.186   3.202  11.305
 2771SOL    HW1 9754   1.099   3.164  11.322
 2771SOL    HW2 9755   1.226   3.208  11.392
 2772SOL     OW 9756   1.486   3.648  12.161
 2772SOL    HW1 9757   1.506   3.719  12.100
 2772SOL    HW2 9758   1.570   3.627  12.201
 2773SOL     OW 9759   1.668   2.761  12.402
 2773SOL    HW1 9760   1.656   2.666  12.409
 2773SOL    HW2 9761   1.715   2.772  12.319
 2774SOL     OW 9762   1.213   2.181  11.632
 2774SOL    HW1 9763   1.279   2.112  11.622
 2774SOL    HW2 9764   1.235   2.224  11.714
 2775SOL     OW 9765   0.597   2.592  11.842
 2775SOL    HW1 9766   0.637   2.678  11.829
 2775SOL    HW2 9767   0.532   2.585  11.772
 2776SOL     OW 9768   1.730   2.750   0.168
 2776SOL    HW1 9769   1.789   2.822   0.191
 2776SOL    HW2 9770   1.714   2.761   0.075
 2777SOL     OW 9771   0.832   3.231  11.211
 2777SOL    HW1 9772   0.816   3.246  11.304
 2777SOL    HW2 9773   0.856   3.317  11.176
 2778SOL     OW 9774   0.669   3.649  12.108
 2778SOL    HW1 9775   0.650   3.740  12.087
 2778SOL    HW2 9776   0.764   3.642  12.100
 2779SOL     OW 9777   0.861   2.832  12.022
 2779SOL    HW1 9778   0.911   2.760  12.061
 2779SOL    HW2 9779   0.816   2.872  12.096
 2780SOL     OW 9780   1.060   2.838  11.240
 2780SOL    HW1 9781   1.067   2.895  11.163
 2780SOL    HW2 9782   1.138   2.783  11.236
 2781SOL     OW 9783   1.867   3.394  12.024
 2781SOL    HW1 9784   1.784   3.390  11.976
 2781SOL    HW2 9785   1.875   3.308  12.066
 2782SOL     OW 9786   0.108   3.148  11.786
 2782SOL    HW1 9787   0.054   3.100  11.849
 2782SOL    HW2 9788   0.166   3.082  11.749
 2783SOL     OW 9789   1.791   2.001  12.404
 2783SOL    HW1 9790   1.771   1.911  12.380
 2783SOL    HW2 9791   1.818   2.042  12.321
 2784SOL     OW 9792   0.419   2.299  11.687
 2784SOL    HW1 9793   0.457   2.224  11.641
 2784SOL    HW2 9794   0.375   2.261  11.762
 2785SOL     OW 9795   1.687   3.308  12.298
 2785SOL    HW1 9796   1.622   3.310  12.228
 2785SOL    HW2 9797   1.761   3.260  12.260
 2786SOL     OW 9798   0.820   3.448  11.838
 2786SOL    HW1 9799   0.840   3.531  11.794
 2786SOL    HW2 9800   0.748   3.411  11.787
 2787SOL     OW 9801   1.450   2.097  12.276
 2787SOL    HW1 9802   1.503   2.031  12.321
 2787SOL    HW2 9803   1.404   2.143  12.347
 2788SOL     OW 9804   1.015   1.841  12.296
 2788SOL    HW1 9805   0.969   1.779  12.239
 2788SOL    HW2 9806   1.101   1.802  12.309
 2789SOL     OW 9807   0.771   3.198  11.487
 2789SOL    HW1 9808   0.748   3.107  11.502
 2789SOL    HW2 9809   0.850   3.212  11.539
 2790SOL     OW 9810   1.368   1.907  11.349
 2790SOL    HW1 9811   1.408   1.830  11.309
 2790SOL    HW2 9812   1.276   1.882  11.362
 2791SOL     OW 9813   1.271   2.320  11.868
 2791SOL    HW1 9814   1.220   2.401  11.863
 2791SOL    HW2 9815   1.361   2.349  11.880
 2792SOL     OW 9816   1.565   2.060  12.030
 2792SOL    HW1 9817   1.531   2.085  12.116
 2792SOL    HW2 9818   1.577   2.144  11.984
 2793SOL     OW 9819   0.023   2.911  11.488
 2793SOL    HW1 9820   0.117   2.914  11.471
 2793SOL    HW2 9821   0.015   2.913  11.583
 2794SOL     OW 9822   0.869   3.506  11.517
 2794SOL    HW1 9823   0.794   3.499  11.457
 2794SOL    HW2 9824   0.918   3.581  11.484
 2795SOL     OW 9825   0.283   4.343   0.064
 2795SOL    HW1 9826   0.233   4.392   0.130
 2795SOL    HW2 9827   0.225   4.270   0.040
 2796SOL     OW 9828   0.246   3.996   0.989
 2796SOL    HW1 9829   0.268   3.967   1.078
 2796SOL    HW2 9830   0.158   3.963   0.974
 2797SOL     OW 9831   8.013   4.139   0.619
 2797SOL    HW1 9832   7.976   4.172   0.701
 2797SOL    HW2 9833   7.987   4.047   0.617
 2798SOL     OW 9834   0.564   5.016   1.185
 2798SOL    HW1 9835   0.482   5.029   1.136
 2798SOL    HW2 9836   0.586   5.103   1.218
 2799SOL     OW 9837   1.561   5.267   0.683
 2799SOL    HW1 9838   1.541   5.291   0.773
 2799SOL    HW2 9839   1.477   5.238   0.646
 2800SOL     OW 9840   1.141   4.447   0.702
 2800SOL    HW1 9841   1.195   4.526   0.701
 2800SOL    HW2 9842   1.099   4.447   0.788
 2801SOL     OW 9843   1.733   4.347   0.257
 2801SOL    HW1 9844   1.747   4.328   0.164
 2801SOL    HW2 9845   1.707   4.263   0.295
 2802SOL     OW 9846   0.736   4.854   1.047
 2802SOL    HW1 9847   0.672   4.892   1.106
 2802SOL    HW2 9848   0.779   4.929   1.007
 2803SOL     OW 9849   0.871   4.487   1.820
 2803SOL    HW1 9850   0.893   4.552   1.887
 2803SOL    HW2 9851   0.895   4.528   1.737
 2804SOL     OW 9852   0.686   4.715   0.643
 2804SOL    HW1 9853   0.754   4.713   0.711
 2804SOL    HW2 9854   0.618   4.771   0.679
 2805SOL     OW 9855   0.717   4.877   1.825
 2805SOL    HW1 9856   0.767   4.951   1.861
 2805SOL    HW2 9857   0.641   4.918   1.783
 2806SOL     OW 9858   0.347   5.134   1.052
 2806SOL    HW1 9859   0.292   5.090   0.987
 2806SOL    HW2 9860   0.397   5.199   1.002
 2807SOL     OW 9861   1.465   5.233   1.364
 2807SOL    HW1 9862   1.523   5.307   1.385
 2807SOL    HW2 9863   1.392   5.242   1.426
 2808SOL     OW 9864   0.444   4.114   1.495
 2808SOL    HW1 9865   0.531   4.074   1.496
 2808SOL    HW2 9866   0.383   4.040   1.495
 2809SOL     OW 9867   1.608   4.175   0.747
 2809SOL    HW1 9868   1.544   4.201   0.680
 2809SOL    HW2 9869   1.602   4.243   0.814
 2810SOL     OW 9870   0.233   5.432   0.469
 2810SOL    HW1 9871   0.236   5.508   0.527
 2810SOL    HW2 9872   0.312   5.440   0.415
 2811SOL     OW 9873   1.144   5.056   1.686
 2811SOL    HW1 9874   1.184   5.065   1.772
 2811SOL    HW2 9875   1.089   4.978   1.693
 2812SOL     OW 9876   0.301   5.177   0.556
 2812SOL    HW1 9877   0.254   5.260   0.547
 2812SOL    HW2 9878   0.241   5.121   0.605
 2813SOL     OW 9879   0.283   4.807   0.912
 2813SOL    HW1 9880   0.277   4.713   0.927
 2813SOL    HW2 9881   0.200   4.842   0.945
 2814SOL     OW 9882   0.652   5.514   1.396
 2814SOL    HW1 9883   0.569   5.493   1.439
 2814SOL    HW2 9884   0.680   5.597   1.437
 2815SOL     OW 9885   0.606   4.693   0.134
 2815SOL    HW1 9886   0.675   4.715   0.072
 2815SOL    HW2 9887   0.631   4.738   0.215
 2816SOL     OW 9888   1.591   3.854   1.458
 2816SOL    HW1 9889   1.603   3.932   1.404
 2816SOL    HW2 9890   1.579   3.887   1.547
 2817SOL     OW 9891   0.145   4.372   0.533
 2817SOL    HW1 9892   0.102   4.289   0.552
 2817SOL    HW2 9893   0.125   4.427   0.609
 2818SOL     OW 9894   1.842   5.473   0.410
 2818SOL    HW1 9895   1.929   5.439   0.430
 2818SOL    HW2 9896   1.858   5.557   0.367
 2819SOL     OW 9897   0.031   5.280   0.091
 2819SOL    HW1 9898   0.031   5.204   0.149
 2819SOL    HW2 9899   0.057   5.353   0.146
 2820SOL     OW 9900   1.644   4.837   0.432
 2820SOL    HW1 9901   1.735   4.835   0.401
 2820SOL    HW2 9902   1.647   4.798   0.519
 2821SOL     OW 9903   0.156   4.480   1.587
 2821SOL    HW1 9904   0.252   4.482   1.584
 2821SOL    HW2 9905   0.132   4.558   1.637
 2822SOL     OW 9906   0.624   5.113   0.736
 2822SOL    HW1 9907   0.577   5.030   0.745
 2822SOL    HW2 9908   0.604   5.142   0.647
 2823SOL     OW 9909   1.331   4.917   1.393
 2823SOL    HW1 9910   1.391   4.896   1.465
 2823SOL    HW2 9911   1.280   4.991   1.426
 2824SOL     OW 9912   0.815   3.736   0.511
 2824SOL    HW1 9913   0.854   3.822   0.494
 2824SOL    HW2 9914   0.721   3.753   0.517
 2825SOL     OW 9915   0.170   4.640   1.267
 2825SOL    HW1 9916   0.262   4.615   1.265
 2825SOL    HW2 9917   0.144   4.641   1.175
 2826SOL     OW 9918   1.502   4.739   0.218
 2826SOL    HW1 9919   1.444   4.670   0.249
 2826SOL    HW2 9920   1.548   4.769   0.296
 2827SOL     OW 9921   1.286   5.554   1.580
 2827SOL    HW1 9922   1.238   5.632   1.551
 2827SOL    HW2 9923   1.217   5.493   1.608
 2828SOL     OW 9924   0.352   3.972   1.828
 2828SOL    HW1 9925   0.407   4.047   1.852
 2828SOL    HW2 9926   0.263   4.002   1.840
 2829SOL     OW 9927   1.476   5.141   0.957
 2829SOL    HW1 9928   1.402   5.158   1.015
 2829SOL    HW2 9929   1.456   5.057   0.915
 2830SOL     OW 9930   0.607   4.450   0.271
 2830SOL    HW1 9931   0.609   4.539   0.234
 2830SOL    HW2 9932   0.547   4.457   0.346
 2831SOL     OW 9933   1.582   5.402   0.332
 2831SOL    HW1 9934   1.675   5.418   0.313
 2831SOL    HW2 9935   1.542   5.393   0.245
 2832SOL     OW 9936   0.777   4.348   1.444
 2832SOL    HW1 9937   0.760   4.318   1.533
 2832SOL    HW2 9938   0.751   4.275   1.389
 2833SOL     OW 9939   1.390   4.177   1.678
 2833SOL    HW1 9940   1.398   4.222   1.762
 2833SOL    HW2 9941   1.448   4.102   1.684
 2834SOL     OW 9942   0.950   4.604   1.583
 2834SOL    HW1 9943   1.002   4.535   1.543
 2834SOL    HW2 9944   0.902   4.644   1.510
 2835SOL     OW 9945   0.969   4.160   1.250
 2835SOL    HW1 9946   0.874   4.152   1.254
 2835SOL    HW2 9947   0.995   4.110   1.172
 2836SOL     OW 9948   1.034   4.402   0.458
 2836SOL    HW1 9949   1.079   4.428   0.539
 2836SOL    HW2 9950   0.965   4.342   0.487
 2837SOL     OW 9951   0.092   4.510   0.769
 2837SOL    HW1 9952   0.168   4.523   0.825
 2837SOL    HW2 9953   0.047   4.594   0.769
 2838SOL     OW 9954   0.098   5.561   1.502
 2838SOL    HW1 9955   0.186   5.528   1.523
 2838SOL    HW2 9956   0.059   5.579   1.587
 2839SOL     OW 9957   0.859   4.080   0.218
 2839SOL    HW1 9958   0.929   4.130   0.175
 2839SOL    HW2 9959   0.855   3.998   0.169
 2840SOL     OW 9960   1.737   4.305   1.825
 2840SOL    HW1 9961   1.682   4.374   1.786
 2840SOL    HW2 9962   1.737   4.235   1.759
 2841SOL     OW 9963   1.371   4.857   0.505
 2841SOL    HW1 9964   1.462   4.873   0.481
 2841SOL    HW2 9965   1.322   4.929   0.466
 2842SOL     OW 9966   0.551   3.903   0.898
 2842SOL    HW1 9967   0.556   3.925   0.991
 2842SOL    HW2 9968   0.555   3.988   0.853
 2843SOL     OW 9969   0.987   5.160   0.471
 2843SOL    HW1 9970   0.953   5.237   0.426
 2843SOL    HW2 9971   0.967   5.174   0.563
 2844SOL     OW 9972   0.353   5.544   0.870
 2844SOL    HW1 9973   0.396   5.459   0.881
 2844SOL    HW2 9974   0.419   5.607   0.897
 2845SOL     OW 9975   1.796   4.811   0.905
 2845SOL    HW1 9976   1.769   4.763   0.826
 2845SOL    HW2 9977   1.727   4.792   0.969
 2846SOL     OW 9978   1.198   5.209   1.467
 2846SOL    HW1 9979   1.193   5.171   1.554
 2846SOL    HW2 9980   1.140   5.286   1.471
 2847SOL     OW 9981   0.344   4.676   0.245
 2847SOL    HW1 9982   0.423   4.702   0.197
 2847SOL    HW2 9983   0.274   4.685   0.182
 2848SOL     OW 9984   1.459   4.463   0.732
 2848SOL    HW1 9985   1.454   4.427   0.821
 2848SOL    HW2 9986   1.541   4.512   0.731
 2849SOL     OW 9987   0.464   4.988   1.754
 2849SOL    HW1 9988   0.437   4.996   1.663
 2849SOL    HW2 9989   0.391   4.943   1.797
 2850SOL     OW 9990   1.086   5.506   0.237
 2850SOL    HW1 9991   1.049   5.452   0.306
 2850SOL    HW2 9992   1.140   5.446   0.185
 2851SOL     OW 9993   0.180   3.982   1.498
 2851SOL    HW1 9994   0.173   4.051   1.565
 2851SOL    HW2 9995   0.158   3.901   1.544
 2852SOL     OW 9996   1.641   5.110   0.079
 2852SOL    HW1 9997   1.577   5.179   0.062
 2852SOL    HW2 9998   1.590   5.029   0.075
 2853SOL     OW 9999   0.453   5.479   0.311
 2853SOL    HW110000   0.504   5.527   0.377
 2853SOL    HW210001   0.518   5.424   0.267
 2854SOL     OW10002   1.412   3.830   0.440
 2854SOL    HW110003   1.410   3.778   0.359
 2854SOL    HW210004   1.504   3.829   0.467
 2855SOL     OW10005   0.274   5.541   1.232
 2855SOL    HW110006   0.306   5.512   1.317
 2855SOL    HW210007   0.251   5.460   1.186
 2856SOL     OW10008   0.942   5.431   0.896
 2856SOL    HW110009   1.011   5.384   0.943
 2856SOL    HW210010   0.911   5.370   0.830
 2857SOL     OW10011   0.420   4.409   0.467
 2857SOL    HW110012   0.430   4.317   0.492
 2857SOL    HW210013   0.327   4.428   0.482
 2858SOL     OW10014   1.542   3.947   1.720
 2858SOL    HW110015   1.555   3.964   1.813
 2858SOL    HW210016   1.477   3.876   1.717
 2859SOL     OW10017   0.623   3.849   0.122
 2859SOL    HW110018   0.714   3.818   0.123
 2859SOL    HW210019   0.611   3.885   0.034
 2860SOL     OW10020   0.757   4.003   1.756
 2860SOL    HW110021   0.841   3.956   1.752
 2860SOL    HW210022   0.720   3.977   1.840
 2861SOL     OW10023   0.884   5.245   1.169
 2861SOL    HW110024   0.857   5.200   1.089
 2861SOL    HW210025   0.946   5.186   1.211
 2862SOL     OW10026   1.355   4.333   1.458
 2862SOL    HW110027   1.363   4.265   1.526
 2862SOL    HW210028   1.404   4.407   1.493
 2863SOL     OW10029   0.824   5.097   0.943
 2863SOL    HW110030   0.910   5.090   0.902
 2863SOL    HW210031   0.764   5.109   0.870
 2864SOL     OW10032   0.932   4.256   0.892
 2864SOL    HW110033   0.924   4.241   0.798
 2864SOL    HW210034   0.983   4.182   0.924
 2865SOL     OW10035   0.547   3.783   0.501
 2865SOL    HW110036   0.470   3.787   0.557
 2865SOL    HW210037   0.541   3.862   0.447
 2866SOL     OW10038   1.404   4.904   0.031
 2866SOL    HW110039   1.435   4.855   0.107
 2866SOL    HW210040   1.332   4.958   0.064
 2867SOL     OW10041   0.327   3.804   0.206
 2867SOL    HW110042   0.406   3.842   0.169
 2867SOL    HW210043   0.355   3.718   0.238
 2868SOL     OW10044   0.937   3.977   0.465
 2868SOL    HW110045   0.912   4.019   0.382
 2868SOL    HW210046   1.032   3.989   0.469
 2869SOL     OW10047   1.085   4.403   1.447
 2869SOL    HW110048   1.031   4.325   1.435
 2869SOL    HW210049   1.174   4.369   1.455
 2870SOL     OW10050   1.229   5.295   0.797
 2870SOL    HW110051   1.237   5.365   0.732
 2870SOL    HW210052   1.254   5.337   0.880
 2871SOL     OW10053   0.476   4.876   0.726
 2871SOL    HW110054   0.413   4.859   0.795
 2871SOL    HW210055   0.428   4.859   0.645
 2872SOL     OW10056   1.262   5.519   0.609
 2872SOL    HW110057   1.303   5.586   0.555
 2872SOL    HW210058   1.191   5.564   0.655
 2873SOL     OW10059   0.983   4.299   0.119
 2873SOL    HW110060   0.995   4.364   0.050
 2873SOL    HW210061   1.069   4.294   0.162
 2874SOL     OW10062   0.085   4.318   1.377
 2874SOL    HW110063   0.174   4.293   1.353
 2874SOL    HW210064   0.097   4.379   1.450
 2875SOL     OW10065   0.560   3.944   1.170
 2875SOL    HW110066   0.607   3.876   1.220
 2875SOL    HW210067   0.470   3.940   1.202
 2876SOL     OW10068   0.869   4.216   0.607
 2876SOL    HW110069   0.775   4.224   0.624
 2876SOL    HW210070   0.881   4.124   0.582
 2877SOL     OW10071   1.039   3.737   0.706
 2877SOL    HW110072   0.958   3.764   0.664
 2877SOL    HW210073   1.014   3.715   0.796
 2878SOL     OW10074   1.458   4.883   0.856
 2878SOL    HW110075   1.397   4.824   0.813
 2878SOL    HW210076   1.522   4.905   0.789
 2879SOL     OW10077   1.452   4.354   0.985
 2879SOL    HW110078   1.390   4.281   0.987
 2879SOL    HW210079   1.514   4.334   1.056
 2880SOL     OW10080   1.830   4.580   0.381
 2880SOL    HW110081   1.805   4.581   0.473
 2880SOL    HW210082   1.792   4.499   0.347
 2881SOL     OW10083   0.496   5.107   0.132
 2881SOL    HW110084   0.446   5.066   0.203
 2881SOL    HW210085   0.433   5.163   0.088
 2882SOL     OW10086   1.651   4.998   0.691
 2882SOL    HW110087   1.745   4.984   0.677
 2882SOL    HW210088   1.640   5.093   0.688
 2883SOL     OW10089   1.380   4.301   0.081
 2883SOL    HW110090   1.330   4.294   0.162
 2883SOL    HW210091   1.459   4.250   0.097
 2884SOL     OW10092   0.531   3.992   0.331
 2884SOL    HW110093   0.573   3.939   0.263
 2884SOL    HW210094   0.511   4.075   0.287
 2885SOL     OW10095   1.748   4.973   1.539
 2885SOL    HW110096   1.836   4.938   1.527
 2885SOL    HW210097   1.762   5.060   1.577
 2886SOL     OW10098   1.044   5.057   1.300
 2886SOL    HW110099   0.964   5.032   1.345
 2886SOL    HW210100   1.096   5.103   1.366
 2887SOL     OW10101   1.599   5.331   1.655
 2887SOL    HW110102   1.613   5.378   1.573
 2887SOL    HW210103   1.679   5.279   1.667
 2888SOL     OW10104   1.151   4.905   1.096
 2888SOL    HW110105   1.101   4.951   1.163
 2888SOL    HW210106   1.127   4.947   1.014
 2889SOL     OW10107   1.568   4.814   1.097
 2889SOL    HW110108   1.592   4.891   1.148
 2889SOL    HW210109   1.536   4.849   1.014
 2890SOL     OW10110   0.916   3.815   1.392
 2890SOL    HW110111   0.940   3.793   1.301
 2890SOL    HW210112   0.994   3.857   1.427
 2891SOL     OW10113   0.982   4.839   1.721
 2891SOL    HW110114   0.892   4.855   1.748
 2891SOL    HW210115   0.978   4.758   1.671
 2892SOL     OW10116   0.720   4.778   0.371
 2892SOL    HW110117   0.700   4.761   0.463
 2892SOL    HW210118   0.790   4.716   0.350
 2893SOL     OW10119   0.424   4.540   1.253
 2893SOL    HW110120   0.492   4.556   1.320
 2893SOL    HW210121   0.397   4.450   1.268
 2894SOL     OW10122   1.278   4.095   1.301
 2894SOL    HW110123   1.303   4.182   1.333
 2894SOL    HW210124   1.249   4.110   1.211
 2895SOL     OW10125   0.052   5.320   1.375
 2895SOL    HW110126   0.055   5.410   1.410
 2895SOL    HW210127   0.144   5.296   1.363
 2896SOL     OW10128   0.338   4.820   0.492
 2896SOL    HW110129   0.335   4.898   0.436
 2896SOL    HW210130   0.337   4.747   0.430
 2897SOL     OW10131   0.553   4.249   0.849
 2897SOL    HW110132   0.566   4.312   0.779
 2897SOL    HW210133   0.616   4.274   0.917
 2898SOL     OW10134   1.237   5.076   0.393
 2898SOL    HW110135   1.290   5.150   0.424
 2898SOL    HW210136   1.150   5.092   0.428
 2899SOL     OW10137   1.294   5.188   1.156
 2899SOL    HW110138   1.353   5.200   1.230
 2899SOL    HW210139   1.215   5.150   1.194
 2900SOL     OW10140   1.555   4.335   0.495
 2900SOL    HW110141   1.524   4.393   0.565
 2900SOL    HW210142   1.596   4.394   0.432
 2901SOL     OW10143   0.295   5.201   1.319
 2901SOL    HW110144   0.337   5.190   1.233
 2901SOL    HW210145   0.350   5.266   1.364
 2902SOL     OW10146   0.438   4.446   1.611
 2902SOL    HW110147   0.489   4.499   1.550
 2902SOL    HW210148   0.498   4.378   1.641
 2903SOL     OW10149   1.603   4.490   1.674
 2903SOL    HW110150   1.519   4.534   1.685
 2903SOL    HW210151   1.651   4.543   1.611
 2904SOL     OW10152   0.991   3.861   1.755
 2904SOL    HW110153   1.049   3.935   1.737
 2904SOL    HW210154   1.042   3.784   1.728
 2905SOL     OW10155   0.494   3.744   1.746
 2905SOL    HW110156   0.439   3.687   1.692
 2905SOL    HW210157   0.443   3.824   1.757
 2906SOL     OW10158   0.586   4.599   1.030
 2906SOL    HW110159   0.624   4.687   1.031
 2906SOL    HW210160   0.532   4.595   1.110
 2907SOL     OW10161   1.316   4.591   1.056
 2907SOL    HW110162   1.234   4.572   1.011
 2907SOL    HW210163   1.373   4.517   1.034
 2908SOL     OW10164   1.200   4.255   0.286
 2908SOL    HW110165   1.221   4.180   0.341
 2908SOL    HW210166   1.163   4.319   0.346
 2909SOL     OW10167   0.301   3.923   1.253
 2909SOL    HW110168   0.252   3.950   1.331
 2909SOL    HW210169   0.287   3.829   1.247
 2910SOL     OW10170   0.041   5.029   1.287
 2910SOL    HW110171   0.093   4.969   1.340
 2910SOL    HW210172   0.093   5.109   1.284
 2911SOL     OW10173   0.715   4.347   1.045
 2911SOL    HW110174   0.797   4.334   0.997
 2911SOL    HW210175   0.693   4.439   1.031
 2912SOL     OW10176   1.753   4.670   1.843
 2912SOL    HW110177   1.700   4.608   1.793
 2912SOL    HW210178   1.702   4.686   1.922
 2913SOL     OW10179   0.301   3.793   0.627
 2913SOL    HW110180   0.283   3.885   0.649
 2913SOL    HW210181   0.316   3.751   0.712
 2914SOL     OW10182   1.624   4.107   0.364
 2914SOL    HW110183   1.650   4.035   0.422
 2914SOL    HW210184   1.589   4.174   0.423
 2915SOL     OW10185   1.038   4.496   0.966
 2915SOL    HW110186   1.022   4.510   1.060
 2915SOL    HW210187   1.011   4.406   0.950
 2916SOL     OW10188   0.970   5.268   1.728
 2916SOL    HW110189   0.958   5.320   1.648
 2916SOL    HW210190   1.025   5.195   1.700
 2917SOL     OW10191   1.884   5.276   1.566
 2917SOL    HW110192   1.862   5.359   1.608
 2917SOL    HW210193   1.964   5.248   1.610
 2918SOL     OW10194   0.377   4.658   1.787
 2918SOL    HW110195   0.448   4.678   1.848
 2918SOL    HW210196   0.407   4.581   1.740
 2919SOL     OW10197   1.490   4.001   0.148
 2919SOL    HW110198   1.468   3.916   0.187
 2919SOL    HW210199   1.547   4.043   0.212
 2920SOL     OW10200   1.305   4.555  12.484
 2920SOL    HW110201   1.342   4.481  12.533
 2920SOL    HW210202   1.287   4.519  12.397
 2921SOL     OW10203   1.082   5.060   0.860
 2921SOL    HW110204   1.083   4.992   0.793
 2921SOL    HW210205   1.138   5.129   0.826
 2922SOL     OW10206   0.317   4.528   0.939
 2922SOL    HW110207   0.409   4.554   0.943
 2922SOL    HW210208   0.315   4.439   0.975
 2923SOL     OW10209   0.339   4.247   1.013
 2923SOL    HW110210   0.306   4.158   1.002
 2923SOL    HW210211   0.414   4.254   0.954
 2924SOL     OW10212   1.130   4.093   1.694
 2924SOL    HW110213   1.086   4.151   1.755
 2924SOL    HW210214   1.219   4.126   1.688
 2925SOL     OW10215   1.156   3.922   1.475
 2925SOL    HW110216   1.143   3.983   1.547
 2925SOL    HW210217   1.199   3.974   1.407
 2926SOL     OW10218   0.083   5.455   0.905
 2926SOL    HW110219   0.100   5.406   0.825
 2926SOL    HW210220   0.164   5.505   0.919
 2927SOL     OW10221   0.493   5.301   0.898
 2927SOL    HW110222   0.562   5.365   0.919
 2927SOL    HW210223   0.537   5.237   0.841
 2928SOL     OW10224   0.969   4.518   1.228
 2928SOL    HW110225   1.029   4.489   1.297
 2928SOL    HW210226   0.886   4.477   1.250
 2929SOL     OW10227   0.076   4.271   1.107
 2929SOL    HW110228   0.170   4.270   1.090
 2929SOL    HW210229   0.068   4.287   1.201
 2930SOL     OW10230   0.208   4.219   1.671
 2930SOL    HW110231   0.296   4.216   1.633
 2930SOL    HW210232   0.176   4.307   1.650
 2931SOL     OW10233   1.377   4.644   1.628
 2931SOL    HW110234   1.407   4.731   1.654
 2931SOL    HW210235   1.363   4.652   1.533
 2932SOL     OW10236   1.647   4.328   1.180
 2932SOL    HW110237   1.638   4.263   1.250
 2932SOL    HW210238   1.731   4.308   1.140
 2933SOL     OW10239   0.209   5.192   1.755
 2933SOL    HW110240   0.190   5.281   1.788
 2933SOL    HW210241   0.293   5.201   1.710
 2934SOL     OW10242   0.692   4.172   1.253
 2934SOL    HW110243   0.646   4.094   1.220
 2934SOL    HW210244   0.692   4.233   1.179
 2935SOL     OW10245   0.977   5.397   1.471
 2935SOL    HW110246   0.908   5.372   1.409
 2935SOL    HW210247   0.963   5.490   1.485
 2936SOL     OW10248   0.491   4.219   0.191
 2936SOL    HW110249   0.503   4.298   0.244
 2936SOL    HW210250   0.418   4.241   0.133
 2937SOL     OW10251   0.140   4.838   1.455
 2937SOL    HW110252   0.134   4.798   1.542
 2937SOL    HW210253   0.152   4.765   1.395
 2938SOL     OW10254   1.299   4.571   0.299
 2938SOL    HW110255   1.263   4.566   0.387
 2938SOL    HW210256   1.228   4.606   0.246
 2939SOL     OW10257   1.820   5.433   1.167
 2939SOL    HW110258   1.856   5.477   1.090
 2939SOL    HW210259   1.778   5.354   1.132
 2940SOL     OW10260   1.233   5.457   1.063
 2940SOL    HW110261   1.299   5.525   1.072
 2940SOL    HW210262   1.267   5.382   1.113
 2941SOL     OW10263   0.044   4.910   1.033
 2941SOL    HW110264   0.041   4.958   1.116
 2941SOL    HW210265  -0.006   4.964   0.972
 2942SOL     OW10266   0.691   5.398   1.754
 2942SOL    HW110267   0.621   5.460   1.736
 2942SOL    HW210268   0.769   5.452   1.766
 2943SOL     OW10269   0.909   3.839   0.081
 2943SOL    HW110270   0.920   3.870  -0.008
 2943SOL    HW210271   0.992   3.857   0.124
 2944SOL     OW10272   1.716   3.881   0.501
 2944SOL    HW110273   1.789   3.861   0.442
 2944SOL    HW210274   1.699   3.799   0.546
 2945SOL     OW10275   1.367   5.299   0.478
 2945SOL    HW110276   1.430   5.338   0.418
 2945SOL    HW210277   1.322   5.374   0.518
 2946SOL     OW10278   0.177   5.443   1.848
 2946SOL    HW110279   0.105   5.500   1.874
 2946SOL    HW210280   0.256   5.492   1.871
 2947SOL     OW10281   1.291   4.675   0.685
 2947SOL    HW110282   1.361   4.610   0.693
 2947SOL    HW210283   1.322   4.736   0.618
 2948SOL     OW10284   0.798   5.011   1.415
 2948SOL    HW110285   0.776   5.048   1.500
 2948SOL    HW210286   0.726   5.036   1.357
 2949SOL     OW10287   0.648   5.334   0.182
 2949SOL    HW110288   0.723   5.338   0.122
 2949SOL    HW210289   0.609   5.247   0.166
 2950SOL     OW10290   1.667   5.445   1.403
 2950SOL    HW110291   1.682   5.453   1.309
 2950SOL    HW210292   1.640   5.533   1.430
 2951SOL     OW10293   1.857   3.906   0.949
 2951SOL    HW110294   1.883   3.815   0.936
 2951SOL    HW210295   1.767   3.910   0.918
 2952SOL     OW10296   0.267   4.045   0.714
 2952SOL    HW110297   0.184   4.090   0.696
 2952SOL    HW210298   0.266   4.033   0.809
 2953SOL     OW10299   1.191   5.333   0.058
 2953SOL    HW110300   1.191   5.238   0.069
 2953SOL    HW210301   1.172   5.347  -0.035
 2954SOL     OW10302   0.821   4.739   1.379
 2954SOL    HW110303   0.862   4.732   1.293
 2954SOL    HW210304   0.813   4.833   1.395
 2955SOL     OW10305   0.912   4.600   0.294
 2955SOL    HW110306   0.980   4.633   0.235
 2955SOL    HW210307   0.958   4.538   0.351
 2956SOL     OW10308   1.465   5.306   0.034
 2956SOL    HW110309   1.379   5.347   0.044
 2956SOL    HW210310   1.525   5.380   0.022
 2957SOL     OW10311   0.353   5.010   1.512
 2957SOL    HW110312   0.349   5.079   1.447
 2957SOL    HW210313   0.285   4.948   1.485
 2958SOL     OW10314   1.615   5.015   1.281
 2958SOL    HW110315   1.665   4.994   1.360
 2958SOL    HW210316   1.554   5.084   1.309
 2959SOL     OW10317   1.062   4.838   0.705
 2959SOL    HW110318   0.992   4.786   0.745
 2959SOL    HW210319   1.134   4.776   0.694
 2960SOL     OW10320   0.982   3.958   0.982
 2960SOL    HW110321   1.071   3.991   0.971
 2960SOL    HW210322   0.992   3.882   1.039
 2961SOL     OW10323   0.589   5.209   0.485
 2961SOL    HW110324   0.611   5.165   0.403
 2961SOL    HW210325   0.493   5.213   0.485
 2962SOL     OW10326   1.734   4.121   1.371
 2962SOL    HW110327   1.808   4.181   1.367
 2962SOL    HW210328   1.760   4.046   1.317
 2963SOL     OW10329   0.316   5.039   0.326
 2963SOL    HW110330   0.227   5.028   0.294
 2963SOL    HW210331   0.307   5.093   0.404
 2964SOL     OW10332   0.122   4.725   1.715
 2964SOL    HW110333   0.093   4.802   1.765
 2964SOL    HW210334   0.209   4.706   1.749
 2965SOL     OW10335   0.678   3.921   1.501
 2965SOL    HW110336   0.762   3.899   1.460
 2965SOL    HW210337   0.700   3.952   1.588
 2966SOL     OW10338   0.130   4.112  12.506
 2966SOL    HW110339   0.055   4.114  12.565
 2966SOL    HW210340   0.101   4.159  12.428
 2967SOL     OW10341   1.408   4.618   1.346
 2967SOL    HW110342   1.375   4.531   1.323
 2967SOL    HW210343   1.502   4.612   1.335
 2968SOL     OW10344   1.191   5.059   0.122
 2968SOL    HW110345   1.096   5.051   0.111
 2968SOL    HW210346   1.205   5.061   0.216
 2969SOL     OW10347   0.618   4.563   1.439
 2969SOL    HW110348   0.675   4.639   1.427
 2969SOL    HW210349   0.677   4.489   1.442
 2970SOL     OW10350   1.564   5.455   0.886
 2970SOL    HW110351   1.527   5.541   0.868
 2970SOL    HW210352   1.563   5.447   0.981
 2971SOL     OW10353   0.703   4.289   1.703
 2971SOL    HW110354   0.755   4.350   1.756
 2971SOL    HW210355   0.729   4.203   1.734
 2972SOL     OW10356   1.483   4.902   1.626
 2972SOL    HW110357   1.462   4.923   1.717
 2972SOL    HW210358   1.574   4.930   1.616
 2973SOL     OW10359   1.667   4.600   1.250
 2973SOL    HW110360   1.664   4.513   1.211
 2973SOL    HW210361   1.644   4.659   1.178
 2974SOL     OW10362   1.220   4.029   0.446
 2974SOL    HW110363   1.288   3.961   0.448
 2974SOL    HW210364   1.235   4.080   0.525
 2975SOL     OW10365   0.606   4.446   0.665
 2975SOL    HW110366   0.641   4.535   0.661
 2975SOL    HW210367   0.539   4.443   0.597
 2976SOL     OW10368   1.767   4.103   1.642
 2976SOL    HW110369   1.744   4.113   1.549
 2976SOL    HW210370   1.705   4.039   1.675
 2977SOL     OW10371   1.734   4.654   1.508
 2977SOL    HW110372   1.739   4.749   1.520
 2977SOL    HW210373   1.723   4.643   1.414
 2978SOL     OW10374   0.912   5.074   0.057
 2978SOL    HW110375   0.862   5.066   0.138
 2978SOL    HW210376   0.898   5.165   0.030
 2979SOL     OW10377   0.670   5.499   0.923
 2979SOL    HW110378   0.648   5.592   0.918
 2979SOL    HW210379   0.766   5.497   0.928
 2980SOL     OW10380   0.872   4.698   0.852
 2980SOL    HW110381   0.924   4.628   0.892
 2980SOL    HW210382   0.829   4.740   0.927
 2981SOL     OW10383   1.108   4.687   0.114
 2981SOL    HW110384   1.085   4.767   0.067
 2981SOL    HW210385   1.179   4.648   0.063
 2982SOL     OW10386   1.842   5.271   0.832
 2982SOL    HW110387   1.751   5.283   0.859
 2982SOL    HW210388   1.873   5.197   0.885
 2983SOL     OW10389   0.215   4.948   1.877
 2983SOL    HW110390   0.202   5.032   1.833
 2983SOL    HW210391   0.232   4.971   1.969
 2984SOL     OW10392   0.152   4.970   0.669
 2984SOL    HW110393   0.069   4.928   0.695
 2984SOL    HW210394   0.198   4.902   0.620
 2985SOL     OW10395   0.687   5.137   1.632
 2985SOL    HW110396   0.604   5.109   1.669
 2985SOL    HW210397   0.699   5.226   1.665
 2986SOL     OW10398   1.817   3.912   1.226
 2986SOL    HW110399   1.821   3.819   1.248
 2986SOL    HW210400   1.821   3.914   1.130
 2987SOL     OW10401   0.446   4.155   0.537
 2987SOL    HW110402   0.473   4.082   0.481
 2987SOL    HW210403   0.392   4.114   0.605
 2988SOL     OW10404   1.702   5.205   1.088
 2988SOL    HW110405   1.622   5.186   1.039
 2988SOL    HW210406   1.703   5.140   1.158
 2989SOL     OW10407   0.343   4.279   1.297
 2989SOL    HW110408   0.392   4.225   1.359
 2989SOL    HW210409   0.369   4.247   1.211
 2990SOL     OW10410   0.839   5.293   0.679
 2990SOL    HW110411   0.810   5.366   0.625
 2990SOL    HW210412   0.762   5.238   0.688
 2991SOL     OW10413   1.464   3.935   1.119
 2991SOL    HW110414   1.433   3.902   1.203
 2991SOL    HW210415   1.394   3.992   1.088
 2992SOL     OW10416   1.005   3.727   1.142
 2992SOL    HW110417   0.955   3.668   1.085
 2992SOL    HW210418   1.094   3.693   1.138
 2993SOL     OW10419   0.796   5.038   0.300
 2993SOL    HW110420   0.762   4.952   0.326
 2993SOL    HW210421   0.858   5.061   0.369
 2994SOL     OW10422   0.631   5.262   1.272
 2994SOL    HW110423   0.619   5.343   1.322
 2994SOL    HW210424   0.718   5.271   1.233
 2995SOL     OW10425   1.351   3.735   0.185
 2995SOL    HW110426   1.395   3.717   0.101
 2995SOL    HW210427   1.280   3.795   0.162
 2996SOL     OW10428   1.269   4.179   0.669
 2996SOL    HW110429   1.247   4.272   0.677
 2996SOL    HW210430   1.267   4.146   0.759
 2997SOL     OW10431   1.593   3.916   0.883
 2997SOL    HW110432   1.546   3.929   0.965
 2997SOL    HW210433   1.576   3.995   0.832
 2998SOL     OW10434   0.040   4.711   0.311
 2998SOL    HW110435   0.053   4.797   0.272
 2998SOL    HW210436  -0.007   4.728   0.393
 2999SOL     OW10437   0.870   5.377   0.359
 2999SOL    HW110438   0.784   5.359   0.320
 2999SOL    HW210439   0.855   5.455   0.414
 3000SOL     OW10440   0.233   4.415   1.942
 3000SOL    HW110441   0.202   4.360   2.014
 3000SOL    HW210442   0.257   4.354   1.873
 3001SOL     OW10443   0.233   3.993   2.845
 3001SOL    HW110444   0.260   3.962   2.931
 3001SOL    HW210445   0.155   3.942   2.824
 3002SOL     OW10446   8.008   4.115   2.466
 3002SOL    HW110447   7.921   4.098   2.501
 3002SOL    HW210448   8.015   4.057   2.390
 3003SOL     OW10449   0.574   5.017   3.031
 3003SOL    HW110450   0.491   5.048   2.997
 3003SOL    HW210451   0.637   5.084   3.006
 3004SOL     OW10452   1.578   5.238   2.572
 3004SOL    HW110453   1.530   5.225   2.653
 3004SOL    HW210454   1.510   5.247   2.505
 3005SOL     OW10455   1.766   4.318   2.095
 3005SOL    HW110456   1.748   4.322   2.001
 3005SOL    HW210457   1.734   4.232   2.122
 3006SOL     OW10458   0.731   4.838   2.894
 3006SOL    HW110459   0.671   4.877   2.958
 3006SOL    HW210460   0.772   4.913   2.851
 3007SOL     OW10461   0.879   4.490   3.689
 3007SOL    HW110462   0.900   4.556   3.755
 3007SOL    HW210463   0.904   4.531   3.606
 3008SOL     OW10464   0.681   4.720   2.516
 3008SOL    HW110465   0.755   4.715   2.576
 3008SOL    HW210466   0.617   4.776   2.561
 3009SOL     OW10467   0.685   4.865   3.669
 3009SOL    HW110468   0.731   4.949   3.666
 3009SOL    HW210469   0.598   4.884   3.635
 3010SOL     OW10470   0.355   5.148   2.914
 3010SOL    HW110471   0.277   5.149   2.858
 3010SOL    HW210472   0.417   5.207   2.869
 3011SOL     OW10473   1.468   5.220   3.250
 3011SOL    HW110474   1.518   5.302   3.247
 3011SOL    HW210475   1.477   5.190   3.341
 3012SOL     OW10476   0.458   4.108   3.304
 3012SOL    HW110477   0.540   4.066   3.332
 3012SOL    HW210478   0.389   4.049   3.336
 3013SOL     OW10479   1.590   4.188   2.595
 3013SOL    HW110480   1.602   4.235   2.512
 3013SOL    HW210481   1.647   4.234   2.657
 3014SOL     OW10482   0.249   5.418   2.340
 3014SOL    HW110483   0.249   5.501   2.388
 3014SOL    HW210484   0.316   5.429   2.273
 3015SOL     OW10485   1.057   5.062   3.605
 3015SOL    HW110486   1.150   5.051   3.585
 3015SOL    HW210487   1.019   4.975   3.590
 3016SOL     OW10488   0.222   5.155   2.375
 3016SOL    HW110489   0.245   5.249   2.374
 3016SOL    HW210490   0.232   5.130   2.467
 3017SOL     OW10491   0.218   4.813   2.850
 3017SOL    HW110492   0.250   4.728   2.821
 3017SOL    HW210493   0.294   4.856   2.889
 3018SOL     OW10494   0.617   5.507   3.246
 3018SOL    HW110495   0.542   5.475   3.295
 3018SOL    HW210496   0.638   5.591   3.287
 3019SOL     OW10497   0.571   4.719   2.003
 3019SOL    HW110498   0.625   4.762   1.937
 3019SOL    HW210499   0.609   4.747   2.087
 3020SOL     OW10500   1.577   3.857   3.315
 3020SOL    HW110501   1.636   3.918   3.270
 3020SOL    HW210502   1.564   3.896   3.401
 3021SOL     OW10503   0.129   4.359   2.403
 3021SOL    HW110504   0.094   4.275   2.433
 3021SOL    HW210505   0.116   4.418   2.478
 3022SOL     OW10506   1.849   5.475   2.182
 3022SOL    HW110507   1.918   5.453   2.244
 3022SOL    HW210508   1.862   5.568   2.164
 3023SOL     OW10509   7.907   5.322   2.028
 3023SOL    HW110510   7.980   5.262   2.022
 3023SOL    HW210511   7.946   5.409   2.021
 3024SOL     OW10512   1.649   4.578   2.490
 3024SOL    HW110513   1.739   4.583   2.523
 3024SOL    HW210514   1.640   4.654   2.432
 3025SOL     OW10515   1.631   4.810   2.342
 3025SOL    HW110516   1.686   4.816   2.264
 3025SOL    HW210517   1.664   4.879   2.400
 3026SOL     OW10518   0.148   4.498   3.448
 3026SOL    HW110519   0.241   4.481   3.458
 3026SOL    HW210520   0.134   4.583   3.489
 3027SOL     OW10521   0.585   5.115   2.603
 3027SOL    HW110522   0.550   5.026   2.598
 3027SOL    HW210523   0.589   5.145   2.512
 3028SOL     OW10524   1.259   4.977   3.240
 3028SOL    HW110525   1.304   4.902   3.201
 3028SOL    HW210526   1.296   4.986   3.327
 3029SOL     OW10527   0.825   3.741   2.362
 3029SOL    HW110528   0.863   3.827   2.345
 3029SOL    HW210529   0.732   3.758   2.373
 3030SOL     OW10530   0.173   4.642   3.115
 3030SOL    HW110531   0.268   4.633   3.106
 3030SOL    HW210532   0.143   4.555   3.141
 3031SOL     OW10533   1.167   5.527   3.483
 3031SOL    HW110534   1.194   5.599   3.426
 3031SOL    HW210535   1.200   5.448   3.440
 3032SOL     OW10536   0.354   3.991   3.686
 3032SOL    HW110537   0.401   4.059   3.734
 3032SOL    HW210538   0.262   4.008   3.704
 3033SOL     OW10539   1.472   5.149   2.816
 3033SOL    HW110540   1.407   5.164   2.884
 3033SOL    HW210541   1.458   5.058   2.790
 3034SOL     OW10542   1.652   5.491   2.431
 3034SOL    HW110543   1.631   5.452   2.346
 3034SOL    HW210544   1.643   5.418   2.493
 3035SOL     OW10545   0.587   4.437   2.121
 3035SOL    HW110546   0.604   4.521   2.080
 3035SOL    HW210547   0.530   4.457   2.195
 3036SOL     OW10548   1.266   4.080   2.803
 3036SOL    HW110549   1.181   4.035   2.810
 3036SOL    HW210550   1.325   4.026   2.855
 3037SOL     OW10551   1.580   5.400   2.173
 3037SOL    HW110552   1.672   5.425   2.161
 3037SOL    HW210553   1.547   5.388   2.084
 3038SOL     OW10554   0.753   4.293   3.304
 3038SOL    HW110555   0.719   4.303   3.393
 3038SOL    HW210556   0.829   4.236   3.314
 3039SOL     OW10557   1.390   4.186   3.540
 3039SOL    HW110558   1.402   4.235   3.622
 3039SOL    HW210559   1.447   4.110   3.550
 3040SOL     OW10560   0.948   4.593   3.438
 3040SOL    HW110561   1.008   4.528   3.402
 3040SOL    HW210562   0.912   4.637   3.361
 3041SOL     OW10563   0.928   4.109   3.082
 3041SOL    HW110564   0.967   4.054   3.150
 3041SOL    HW210565   0.963   4.074   3.000
 3042SOL     OW10566   1.014   4.422   2.337
 3042SOL    HW110567   1.083   4.369   2.296
 3042SOL    HW210568   0.932   4.383   2.306
 3043SOL     OW10569   0.099   4.513   2.634
 3043SOL    HW110570   0.182   4.527   2.679
 3043SOL    HW210571   0.051   4.595   2.646
 3044SOL     OW10572   0.139   5.533   3.428
 3044SOL    HW110573   0.162   5.512   3.518
 3044SOL    HW210574   0.061   5.587   3.435
 3045SOL     OW10575   0.901   4.072   2.053
 3045SOL    HW110576   0.939   4.139   1.997
 3045SOL    HW210577   0.931   3.989   2.014
 3046SOL     OW10578   1.688   4.291   3.697
 3046SOL    HW110579   1.657   4.364   3.643
 3046SOL    HW210580   1.728   4.230   3.635
 3047SOL     OW10581   1.359   4.860   2.381
 3047SOL    HW110582   1.447   4.846   2.347
 3047SOL    HW210583   1.324   4.932   2.329
 3048SOL     OW10584   0.545   3.904   2.760
 3048SOL    HW110585   0.556   3.934   2.850
 3048SOL    HW210586   0.550   3.984   2.708
 3049SOL     OW10587   1.000   5.177   2.331
 3049SOL    HW110588   0.957   5.241   2.274
 3049SOL    HW210589   1.044   5.229   2.397
 3050SOL     OW10590   0.362   5.544   2.741
 3050SOL    HW110591   0.418   5.467   2.751
 3050SOL    HW210592   0.420   5.618   2.759
 3051SOL     OW10593   1.783   4.765   2.727
 3051SOL    HW110594   1.748   4.830   2.666
 3051SOL    HW210595   1.727   4.771   2.804
 3052SOL     OW10596   1.210   5.271   3.378
 3052SOL    HW110597   1.242   5.201   3.434
 3052SOL    HW210598   1.262   5.264   3.298
 3053SOL     OW10599   0.300   4.664   2.089
 3053SOL    HW110600   0.386   4.695   2.061
 3053SOL    HW210601   0.282   4.589   2.031
 3054SOL     OW10602   1.437   4.462   2.613
 3054SOL    HW110603   1.463   4.420   2.694
 3054SOL    HW210604   1.518   4.501   2.579
 3055SOL     OW10605   0.452   4.989   3.595
 3055SOL    HW110606   0.426   4.997   3.503
 3055SOL    HW210607   0.369   4.979   3.642
 3056SOL     OW10608   1.127   5.507   2.088
 3056SOL    HW110609   1.084   5.472   2.166
 3056SOL    HW210610   1.056   5.529   2.028
 3057SOL     OW10611   0.201   3.985   3.353
 3057SOL    HW110612   0.180   4.060   3.409
 3057SOL    HW210613   0.178   3.908   3.405
 3058SOL     OW10614   1.626   5.100   1.926
 3058SOL    HW110615   1.583   5.185   1.930
 3058SOL    HW210616   1.554   5.037   1.919
 3059SOL     OW10617   0.468   5.463   2.180
 3059SOL    HW110618   0.514   5.524   2.238
 3059SOL    HW210619   0.536   5.431   2.120
 3060SOL     OW10620   1.405   3.856   2.301
 3060SOL    HW110621   1.399   3.822   2.212
 3060SOL    HW210622   1.499   3.857   2.320
 3061SOL     OW10623   0.259   5.527   3.090
 3061SOL    HW110624   0.291   5.453   3.141
 3061SOL    HW210625   0.224   5.489   3.010
 3062SOL     OW10626   0.948   5.376   2.787
 3062SOL    HW110627   1.039   5.350   2.773
 3062SOL    HW210628   0.906   5.361   2.703
 3063SOL     OW10629   0.405   4.424   2.341
 3063SOL    HW110630   0.423   4.330   2.350
 3063SOL    HW210631   0.310   4.431   2.355
 3064SOL     OW10632   1.535   3.943   3.587
 3064SOL    HW110633   1.537   3.972   3.678
 3064SOL    HW210634   1.503   3.853   3.591
 3065SOL     OW10635   0.638   3.836   1.967
 3065SOL    HW110636   0.700   3.769   1.993
 3065SOL    HW210637   0.592   3.799   1.891
 3066SOL     OW10638   0.757   4.022   3.619
 3066SOL    HW110639   0.838   3.971   3.615
 3066SOL    HW210640   0.718   3.998   3.703
 3067SOL     OW10641   0.829   5.232   3.044
 3067SOL    HW110642   0.835   5.207   2.952
 3067SOL    HW210643   0.901   5.186   3.087
 3068SOL     OW10644   1.349   4.328   3.304
 3068SOL    HW110645   1.383   4.290   3.385
 3068SOL    HW210646   1.392   4.413   3.297
 3069SOL     OW10647   0.798   5.092   2.800
 3069SOL    HW110648   0.890   5.088   2.773
 3069SOL    HW210649   0.751   5.120   2.722
 3070SOL     OW10650   0.921   4.231   2.764
 3070SOL    HW110651   0.897   4.222   2.672
 3070SOL    HW210652   0.952   4.144   2.789
 3071SOL     OW10653   0.554   3.791   2.357
 3071SOL    HW110654   0.474   3.789   2.410
 3071SOL    HW210655   0.543   3.867   2.300
 3072SOL     OW10656   1.418   4.923   1.895
 3072SOL    HW110657   1.438   4.839   1.938
 3072SOL    HW210658   1.337   4.952   1.936
 3073SOL     OW10659   0.281   3.764   2.028
 3073SOL    HW110660   0.340   3.829   1.990
 3073SOL    HW210661   0.338   3.709   2.083
 3074SOL     OW10662   0.944   3.988   2.315
 3074SOL    HW110663   0.920   4.020   2.228
 3074SOL    HW210664   1.039   4.000   2.320
 3075SOL     OW10665   1.085   4.384   3.320
 3075SOL    HW110666   1.065   4.313   3.382
 3075SOL    HW210667   1.179   4.378   3.308
 3076SOL     OW10668   1.210   5.276   2.720
 3076SOL    HW110669   1.193   5.321   2.637
 3076SOL    HW210670   1.295   5.308   2.748
 3077SOL     OW10671   0.448   4.867   2.595
 3077SOL    HW110672   0.368   4.892   2.641
 3077SOL    HW210673   0.419   4.844   2.507
 3078SOL     OW10674   1.023   4.257   1.891
 3078SOL    HW110675   0.988   4.343   1.868
 3078SOL    HW210676   1.090   4.275   1.957
 3079SOL     OW10677   0.095   4.352   3.228
 3079SOL    HW110678   0.183   4.318   3.211
 3079SOL    HW210679   0.100   4.388   3.316
 3080SOL     OW10680   0.573   3.959   3.045
 3080SOL    HW110681   0.613   3.876   3.073
 3080SOL    HW210682   0.480   3.949   3.067
 3081SOL     OW10683   0.869   4.186   2.501
 3081SOL    HW110684   0.827   4.241   2.435
 3081SOL    HW210685   0.895   4.107   2.454
 3082SOL     OW10686   0.992   3.794   2.616
 3082SOL    HW110687   0.950   3.771   2.533
 3082SOL    HW210688   0.986   3.715   2.669
 3083SOL     OW10689   1.455   4.891   2.724
 3083SOL    HW110690   1.383   4.832   2.700
 3083SOL    HW210691   1.503   4.905   2.643
 3084SOL     OW10692   1.448   4.326   2.853
 3084SOL    HW110693   1.414   4.237   2.849
 3084SOL    HW210694   1.515   4.323   2.921
 3085SOL     OW10695   1.869   4.535   2.225
 3085SOL    HW110696   1.909   4.487   2.297
 3085SOL    HW210697   1.823   4.468   2.174
 3086SOL     OW10698   0.487   5.134   1.998
 3086SOL    HW110699   0.404   5.113   2.040
 3086SOL    HW210700   0.486   5.086   1.916
 3087SOL     OW10701   1.690   4.981   2.552
 3087SOL    HW110702   1.785   4.988   2.545
 3087SOL    HW210703   1.659   5.072   2.551
 3088SOL     OW10704   1.413   4.266   1.930
 3088SOL    HW110705   1.336   4.262   1.987
 3088SOL    HW210706   1.467   4.336   1.968
 3089SOL     OW10707   0.520   3.986   2.169
 3089SOL    HW110708   0.571   3.936   2.105
 3089SOL    HW210709   0.501   4.068   2.125
 3090SOL     OW10710   1.758   4.945   3.386
 3090SOL    HW110711   1.849   4.921   3.372
 3090SOL    HW210712   1.762   5.019   3.448
 3091SOL     OW10713   1.016   5.069   3.169
 3091SOL    HW110714   0.952   5.041   3.234
 3091SOL    HW210715   1.101   5.046   3.208
 3092SOL     OW10716   1.607   5.356   3.514
 3092SOL    HW110717   1.606   5.400   3.429
 3092SOL    HW210718   1.688   5.305   3.513
 3093SOL     OW10719   1.104   4.905   2.965
 3093SOL    HW110720   1.068   4.965   3.030
 3093SOL    HW210721   1.094   4.951   2.882
 3094SOL     OW10722   1.623   4.817   2.940
 3094SOL    HW110723   1.618   4.877   3.015
 3094SOL    HW210724   1.551   4.844   2.883
 3095SOL     OW10725   0.906   3.866   3.227
 3095SOL    HW110726   0.924   3.801   3.159
 3095SOL    HW210727   0.988   3.874   3.275
 3096SOL     OW10728   0.946   4.820   3.585
 3096SOL    HW110729   0.853   4.816   3.607
 3096SOL    HW210730   0.960   4.746   3.527
 3097SOL     OW10731   0.697   4.779   2.242
 3097SOL    HW110732   0.691   4.763   2.336
 3097SOL    HW210733   0.773   4.729   2.214
 3098SOL     OW10734   0.428   4.551   3.116
 3098SOL    HW110735   0.495   4.563   3.183
 3098SOL    HW210736   0.399   4.461   3.127
 3099SOL     OW10737   1.276   4.119   3.143
 3099SOL    HW110738   1.313   4.186   3.200
 3099SOL    HW210739   1.236   4.168   3.071
 3100SOL     OW10740   0.046   5.324   3.181
 3100SOL    HW110741   0.042   5.402   3.235
 3100SOL    HW210742   0.134   5.288   3.198
 3101SOL     OW10743   0.319   4.835   2.349
 3101SOL    HW110744   0.346   4.910   2.296
 3101SOL    HW210745   0.334   4.759   2.292
 3102SOL     OW10746   0.549   4.254   2.723
 3102SOL    HW110747   0.561   4.315   2.650
 3102SOL    HW210748   0.624   4.270   2.780
 3103SOL     OW10749   1.243   5.078   2.246
 3103SOL    HW110750   1.302   5.145   2.279
 3103SOL    HW210751   1.157   5.101   2.281
 3104SOL     OW10752   1.306   5.182   3.033
 3104SOL    HW110753   1.369   5.196   3.104
 3104SOL    HW210754   1.256   5.105   3.059
 3105SOL     OW10755   1.600   4.344   2.353
 3105SOL    HW110756   1.605   4.427   2.401
 3105SOL    HW210757   1.629   4.365   2.265
 3106SOL     OW10758   0.320   5.256   3.168
 3106SOL    HW110759   0.338   5.211   3.085
 3106SOL    HW210760   0.406   5.269   3.207
 3107SOL     OW10761   0.431   4.456   3.476
 3107SOL    HW110762   0.487   4.501   3.414
 3107SOL    HW210763   0.487   4.392   3.518
 3108SOL     OW10764   1.589   4.492   3.539
 3108SOL    HW110765   1.512   4.549   3.543
 3108SOL    HW210766   1.649   4.536   3.479
 3109SOL     OW10767   0.987   3.878   3.617
 3109SOL    HW110768   1.052   3.946   3.598
 3109SOL    HW210769   1.027   3.797   3.587
 3110SOL     OW10770   0.509   3.772   3.610
 3110SOL    HW110771   0.468   3.714   3.545
 3110SOL    HW210772   0.450   3.847   3.617
 3111SOL     OW10773   0.605   4.579   2.903
 3111SOL    HW110774   0.644   4.666   2.895
 3111SOL    HW210775   0.543   4.588   2.976
 3112SOL     OW10776   1.338   4.579   2.874
 3112SOL    HW110777   1.248   4.547   2.879
 3112SOL    HW210778   1.391   4.500   2.875
 3113SOL     OW10779   1.196   4.258   2.112
 3113SOL    HW110780   1.210   4.192   2.180
 3113SOL    HW210781   1.233   4.339   2.148
 3114SOL     OW10782   0.300   3.914   3.102
 3114SOL    HW110783   0.265   3.946   3.186
 3114SOL    HW210784   0.289   3.819   3.107
 3115SOL     OW10785   0.048   5.018   3.102
 3115SOL    HW110786   0.076   4.966   3.177
 3115SOL    HW210787   0.052   5.109   3.134
 3116SOL     OW10788   0.718   4.321   2.945
 3116SOL    HW110789   0.796   4.310   2.891
 3116SOL    HW210790   0.688   4.411   2.926
 3117SOL     OW10791   1.746   4.672   3.732
 3117SOL    HW110792   1.696   4.636   3.658
 3117SOL    HW210793   1.681   4.685   3.801
 3118SOL     OW10794   0.308   3.790   2.481
 3118SOL    HW110795   0.285   3.880   2.505
 3118SOL    HW210796   0.320   3.744   2.564
 3119SOL     OW10797   1.625   4.102   2.216
 3119SOL    HW110798   1.652   4.028   2.271
 3119SOL    HW210799   1.606   4.172   2.279
 3120SOL     OW10800   1.066   4.459   2.806
 3120SOL    HW110801   1.049   4.482   2.897
 3120SOL    HW210802   1.017   4.378   2.792
 3121SOL     OW10803   0.941   5.302   3.562
 3121SOL    HW110804   0.940   5.350   3.479
 3121SOL    HW210805   0.988   5.221   3.542
 3122SOL     OW10806   1.846   5.232   3.469
 3122SOL    HW110807   1.870   5.255   3.379
 3122SOL    HW210808   1.928   5.239   3.517
 3123SOL     OW10809   0.360   4.664   3.661
 3123SOL    HW110810   0.433   4.677   3.722
 3123SOL    HW210811   0.383   4.585   3.612
 3124SOL     OW10812   1.553   3.971   1.984
 3124SOL    HW110813   1.481   3.915   2.013
 3124SOL    HW210814   1.573   4.025   2.061
 3125SOL     OW10815   1.251   4.534   1.849
 3125SOL    HW110816   1.323   4.551   1.910
 3125SOL    HW210817   1.284   4.563   1.764
 3126SOL     OW10818   1.059   5.051   2.739
 3126SOL    HW110819   1.068   4.996   2.661
 3126SOL    HW210820   1.118   5.125   2.723
 3127SOL     OW10821   0.321   4.544   2.798
 3127SOL    HW110822   0.415   4.557   2.785
 3127SOL    HW210823   0.314   4.457   2.838
 3128SOL     OW10824   0.332   4.241   2.878
 3128SOL    HW110825   0.298   4.154   2.859
 3128SOL    HW210826   0.408   4.251   2.820
 3129SOL     OW10827   1.125   4.127   3.535
 3129SOL    HW110828   1.088   4.168   3.614
 3129SOL    HW210829   1.218   4.147   3.540
 3130SOL     OW10830   1.145   3.951   3.324
 3130SOL    HW110831   1.142   4.009   3.399
 3130SOL    HW210832   1.207   3.992   3.263
 3131SOL     OW10833   7.954   5.015   2.062
 3131SOL    HW110834   7.947   5.002   1.968
 3131SOL    HW210835   7.984   4.931   2.096
 3132SOL     OW10836   0.098   5.455   2.748
 3132SOL    HW110837   0.091   5.461   2.653
 3132SOL    HW210838   0.185   5.490   2.768
 3133SOL     OW10839   0.520   5.315   2.781
 3133SOL    HW110840   0.595   5.371   2.803
 3133SOL    HW210841   0.554   5.256   2.713
 3134SOL     OW10842   0.990   4.490   3.069
 3134SOL    HW110843   1.044   4.467   3.145
 3134SOL    HW210844   0.900   4.482   3.101
 3135SOL     OW10845   0.065   4.278   2.971
 3135SOL    HW110846   0.158   4.257   2.956
 3135SOL    HW210847   0.061   4.300   3.064
 3136SOL     OW10848   0.182   4.215   3.510
 3136SOL    HW110849   0.278   4.211   3.516
 3136SOL    HW210850   0.158   4.298   3.551
 3137SOL     OW10851   1.384   4.683   3.527
 3137SOL    HW110852   1.388   4.779   3.531
 3137SOL    HW210853   1.392   4.662   3.434
 3138SOL     OW10854   0.801   4.285   2.228
 3138SOL    HW110855   0.817   4.214   2.165
 3138SOL    HW210856   0.730   4.336   2.188
 3139SOL     OW10857   1.637   4.318   3.044
 3139SOL    HW110858   1.636   4.266   3.125
 3139SOL    HW210859   1.725   4.304   3.008
 3140SOL     OW10860   0.289   5.254   3.584
 3140SOL    HW110861   0.265   5.332   3.633
 3140SOL    HW210862   0.278   5.182   3.646
 3141SOL     OW10863   0.939   5.412   3.299
 3141SOL    HW110864   1.027   5.375   3.297
 3141SOL    HW210865   0.953   5.506   3.309
 3142SOL     OW10866   0.453   4.210   2.029
 3142SOL    HW110867   0.509   4.286   2.044
 3142SOL    HW210868   0.371   4.231   2.075
 3143SOL     OW10869   0.149   4.848   3.299
 3143SOL    HW110870   0.131   4.812   3.386
 3143SOL    HW210871   0.158   4.772   3.243
 3144SOL     OW10872   1.310   4.759   3.075
 3144SOL    HW110873   1.343   4.707   3.002
 3144SOL    HW210874   1.237   4.810   3.037
 3145SOL     OW10875   1.282   4.499   2.197
 3145SOL    HW110876   1.227   4.576   2.209
 3145SOL    HW210877   1.359   4.532   2.151
 3146SOL     OW10878   1.783   5.466   3.025
 3146SOL    HW110879   1.843   5.489   2.954
 3146SOL    HW210880   1.754   5.377   3.004
 3147SOL     OW10881   1.241   5.453   2.992
 3147SOL    HW110882   1.317   5.484   2.943
 3147SOL    HW210883   1.253   5.359   2.999
 3148SOL     OW10884   0.667   5.393   3.604
 3148SOL    HW110885   0.608   5.468   3.604
 3148SOL    HW210886   0.749   5.427   3.569
 3149SOL     OW10887   1.698   3.872   2.348
 3149SOL    HW110888   1.780   3.863   2.299
 3149SOL    HW210889   1.691   3.790   2.397
 3150SOL     OW10890   1.399   5.281   2.357
 3150SOL    HW110891   1.446   5.331   2.289
 3150SOL    HW210892   1.326   5.338   2.381
 3151SOL     OW10893   0.200   5.484   3.692
 3151SOL    HW110894   0.122   5.461   3.741
 3151SOL    HW210895   0.247   5.546   3.748
 3152SOL     OW10896   1.267   4.655   2.519
 3152SOL    HW110897   1.350   4.614   2.541
 3152SOL    HW210898   1.291   4.729   2.463
 3153SOL     OW10899   0.788   4.987   3.305
 3153SOL    HW110900   0.770   5.030   3.388
 3153SOL    HW210901   0.718   5.017   3.247
 3154SOL     OW10902   0.659   5.342   2.025
 3154SOL    HW110903   0.679   5.366   1.934
 3154SOL    HW210904   0.605   5.263   2.017
 3155SOL     OW10905   1.607   5.459   3.252
 3155SOL    HW110906   1.668   5.461   3.178
 3155SOL    HW210907   1.595   5.551   3.275
 3156SOL     OW10908   1.817   3.887   2.842
 3156SOL    HW110909   1.865   3.813   2.804
 3156SOL    HW210910   1.738   3.894   2.789
 3157SOL     OW10911   0.260   4.042   2.571
 3157SOL    HW110912   0.173   4.075   2.550
 3157SOL    HW210913   0.260   4.031   2.666
 3158SOL     OW10914   1.224   5.309   1.859
 3158SOL    HW110915   1.203   5.237   1.919
 3158SOL    HW210916   1.140   5.350   1.840
 3159SOL     OW10917   0.835   4.726   3.227
 3159SOL    HW110918   0.885   4.737   3.147
 3159SOL    HW210919   0.820   4.816   3.258
 3160SOL     OW10920   0.904   4.630   2.166
 3160SOL    HW110921   0.961   4.654   2.093
 3160SOL    HW210922   0.956   4.571   2.219
 3161SOL     OW10923   1.488   5.346   1.907
 3161SOL    HW110924   1.394   5.337   1.897
 3161SOL    HW210925   1.522   5.353   1.818
 3162SOL     OW10926   0.357   5.023   3.344
 3162SOL    HW110927   0.318   5.107   3.319
 3162SOL    HW210928   0.288   4.959   3.328
 3163SOL     OW10929   1.601   4.993   3.149
 3163SOL    HW110930   1.662   4.971   3.220
 3163SOL    HW210931   1.551   5.067   3.182
 3164SOL     OW10932   1.050   4.843   2.562
 3164SOL    HW110933   0.987   4.785   2.604
 3164SOL    HW210934   1.116   4.783   2.526
 3165SOL     OW10935   1.011   3.964   2.837
 3165SOL    HW110936   1.003   3.922   2.751
 3165SOL    HW210937   1.012   3.892   2.899
 3166SOL     OW10938   0.597   5.203   2.346
 3166SOL    HW110939   0.656   5.156   2.287
 3166SOL    HW210940   0.561   5.274   2.292
 3167SOL     OW10941   1.727   4.128   3.246
 3167SOL    HW110942   1.803   4.186   3.249
 3167SOL    HW210943   1.754   4.055   3.190
 3168SOL     OW10944   0.236   5.061   2.124
 3168SOL    HW110945   0.141   5.069   2.109
 3168SOL    HW210946   0.249   5.100   2.211
 3169SOL     OW10947   0.114   4.739   3.557
 3169SOL    HW110948   0.059   4.798   3.608
 3169SOL    HW210949   0.194   4.732   3.609
 3170SOL     OW10950   0.708   4.008   3.342
 3170SOL    HW110951   0.769   3.943   3.308
 3170SOL    HW210952   0.719   4.005   3.437
 3171SOL     OW10953   0.089   4.072   1.872
 3171SOL    HW110954   0.027   4.122   1.924
 3171SOL    HW210955   0.115   4.130   1.801
 3172SOL     OW10956   1.423   4.596   3.265
 3172SOL    HW110957   1.376   4.654   3.205
 3172SOL    HW210958   1.513   4.596   3.234
 3173SOL     OW10959   0.098   3.968   2.227
 3173SOL    HW110960   0.051   3.964   2.143
 3173SOL    HW210961   0.172   3.909   2.215
 3174SOL     OW10962   1.171   5.055   1.979
 3174SOL    HW110963   1.076   5.044   1.981
 3174SOL    HW210964   1.197   5.060   2.070
 3175SOL     OW10965   0.629   4.548   3.295
 3175SOL    HW110966   0.691   4.619   3.283
 3175SOL    HW210967   0.683   4.469   3.296
 3176SOL     OW10968   1.474   5.507   2.849
 3176SOL    HW110969   1.492   5.575   2.784
 3176SOL    HW210970   1.561   5.483   2.882
 3177SOL     OW10971   0.700   4.305   3.570
 3177SOL    HW110972   0.753   4.364   3.623
 3177SOL    HW210973   0.721   4.217   3.602
 3178SOL     OW10974   0.394   5.437   3.398
 3178SOL    HW110975   0.307   5.476   3.387
 3178SOL    HW210976   0.379   5.364   3.459
 3179SOL     OW10977   1.660   4.603   3.123
 3179SOL    HW110978   1.669   4.519   3.078
 3179SOL    HW210979   1.659   4.668   3.053
 3180SOL     OW10980   1.216   4.063   2.323
 3180SOL    HW110981   1.279   3.992   2.312
 3180SOL    HW210982   1.238   4.103   2.407
 3181SOL     OW10983   0.583   4.461   2.547
 3181SOL    HW110984   0.629   4.544   2.534
 3181SOL    HW210985   0.526   4.453   2.471
 3182SOL     OW10986   1.764   4.088   3.519
 3182SOL    HW110987   1.746   4.109   3.427
 3182SOL    HW210988   1.692   4.030   3.545
 3183SOL     OW10989   1.733   4.661   3.387
 3183SOL    HW110990   1.743   4.755   3.399
 3183SOL    HW210991   1.727   4.649   3.292
 3184SOL     OW10992   0.867   5.089   1.917
 3184SOL    HW110993   0.829   5.127   1.997
 3184SOL    HW210994   0.884   5.164   1.861
 3185SOL     OW10995   0.701   5.517   2.855
 3185SOL    HW110996   0.660   5.597   2.822
 3185SOL    HW210997   0.776   5.503   2.798
 3186SOL     OW10998   0.878   4.685   2.712
 3186SOL    HW110999   0.935   4.621   2.756
 3186SOL    HW211000   0.837   4.733   2.784
 3187SOL     OW11001   1.051   4.685   1.947
 3187SOL    HW111002   1.046   4.756   1.884
 3187SOL    HW211003   1.125   4.632   1.918
 3188SOL     OW11004   1.850   5.271   2.700
 3188SOL    HW111005   1.763   5.260   2.662
 3188SOL    HW211006   1.858   5.202   2.765
 3189SOL     OW11007   0.214   5.019   3.728
 3189SOL    HW111008   0.122   5.006   3.704
 3189SOL    HW211009   0.214   5.027   3.823
 3190SOL     OW11010   0.171   4.957   2.573
 3190SOL    HW111011   0.082   4.923   2.586
 3190SOL    HW211012   0.199   4.919   2.490
 3191SOL     OW11013   0.689   5.122   3.528
 3191SOL    HW111014   0.599   5.094   3.545
 3191SOL    HW211015   0.690   5.216   3.546
 3192SOL     OW11016   1.801   3.907   3.111
 3192SOL    HW111017   1.879   3.857   3.136
 3192SOL    HW211018   1.803   3.910   3.016
 3193SOL     OW11019   0.429   4.160   2.382
 3193SOL    HW111020   0.469   4.090   2.331
 3193SOL    HW211021   0.383   4.114   2.452
 3194SOL     OW11022   1.699   5.217   2.965
 3194SOL    HW111023   1.622   5.187   2.916
 3194SOL    HW211024   1.723   5.142   3.020
 3195SOL     OW11025   0.347   4.293   3.147
 3195SOL    HW111026   0.387   4.227   3.203
 3195SOL    HW211027   0.356   4.258   3.058
 3196SOL     OW11028   0.806   5.341   2.555
 3196SOL    HW111029   0.859   5.403   2.505
 3196SOL    HW211030   0.761   5.288   2.489
 3197SOL     OW11031   1.434   3.955   2.975
 3197SOL    HW111032   1.459   3.868   3.006
 3197SOL    HW211033   1.398   3.999   3.052
 3198SOL     OW11034   1.005   3.738   2.994
 3198SOL    HW111035   0.960   3.668   2.947
 3198SOL    HW211036   1.095   3.706   3.004
 3199SOL     OW11037   0.775   5.055   2.201
 3199SOL    HW111038   0.760   4.961   2.208
 3199SOL    HW211039   0.858   5.070   2.247
 3200SOL     OW11040   1.363   3.771   2.040
 3200SOL    HW111041   1.401   3.697   1.994
 3200SOL    HW211042   1.272   3.747   2.055
 3201SOL     OW11043   1.278   4.219   2.567
 3201SOL    HW111044   1.372   4.228   2.555
 3201SOL    HW211045   1.270   4.163   2.644
 3202SOL     OW11046   1.570   3.926   2.730
 3202SOL    HW111047   1.524   3.946   2.812
 3202SOL    HW211048   1.562   4.006   2.678
 3203SOL     OW11049   0.048   4.769   2.149
 3203SOL    HW111050   0.133   4.750   2.109
 3203SOL    HW211051   0.061   4.754   2.242
 3204SOL     OW11052   0.875   5.373   2.197
 3204SOL    HW111053   0.805   5.375   2.132
 3204SOL    HW211054   0.860   5.450   2.252
 3205SOL     OW11055   0.217   4.364   3.748
 3205SOL    HW111056   0.154   4.397   3.812
 3205SOL    HW211057   0.273   4.305   3.798
 3206SOL     OW11058   0.229   3.990   4.703
 3206SOL    HW111059   0.283   3.957   4.774
 3206SOL    HW211060   0.142   3.998   4.741
 3207SOL     OW11061   8.003   4.133   4.351
 3207SOL    HW111062   7.986   4.183   4.430
 3207SOL    HW211063   7.917   4.099   4.324
 3208SOL     OW11064   0.578   5.027   4.906
 3208SOL    HW111065   0.485   5.015   4.888
 3208SOL    HW211066   0.584   5.116   4.942
 3209SOL     OW11067   1.576   5.245   4.426
 3209SOL    HW111068   1.529   5.228   4.507
 3209SOL    HW211069   1.508   5.251   4.359
 3210SOL     OW11070   1.122   4.429   4.410
 3210SOL    HW111071   1.175   4.508   4.399
 3210SOL    HW211072   1.083   4.438   4.498
 3211SOL     OW11073   1.782   4.310   3.950
 3211SOL    HW111074   1.748   4.311   3.860
 3211SOL    HW211075   1.739   4.236   3.991
 3212SOL     OW11076   0.756   4.877   4.762
 3212SOL    HW111077   0.693   4.915   4.823
 3212SOL    HW211078   0.780   4.949   4.704
 3213SOL     OW11079   0.878   4.481   5.551
 3213SOL    HW111080   0.851   4.553   5.607
 3213SOL    HW211081   0.901   4.522   5.468
 3214SOL     OW11082   0.685   4.726   4.374
 3214SOL    HW111083   0.755   4.714   4.438
 3214SOL    HW211084   0.616   4.772   4.422
 3215SOL     OW11085   0.725   4.876   5.534
 3215SOL    HW111086   0.766   4.956   5.568
 3215SOL    HW211087   0.642   4.905   5.498
 3216SOL     OW11088   0.322   5.130   4.785
 3216SOL    HW111089   0.245   5.074   4.777
 3216SOL    HW211090   0.321   5.182   4.704
 3217SOL     OW11091   1.420   5.236   5.118
 3217SOL    HW111092   1.472   5.316   5.111
 3217SOL    HW211093   1.482   5.165   5.105
 3218SOL     OW11094   0.417   4.129   5.299
 3218SOL    HW111095   0.496   4.131   5.246
 3218SOL    HW211096   0.358   4.069   5.253
 3219SOL     OW11097   1.604   4.171   4.466
 3219SOL    HW111098   1.545   4.201   4.398
 3219SOL    HW211099   1.618   4.247   4.522
 3220SOL     OW11100   0.245   5.395   4.202
 3220SOL    HW111101   0.203   5.475   4.233
 3220SOL    HW211102   0.313   5.425   4.142
 3221SOL     OW11103   1.147   5.054   5.425
 3221SOL    HW111104   1.173   5.058   5.517
 3221SOL    HW211105   1.091   4.977   5.419
 3222SOL     OW11106   0.325   5.153   4.287
 3222SOL    HW111107   0.291   5.239   4.263
 3222SOL    HW211108   0.249   5.103   4.315
 3223SOL     OW11109   0.274   4.813   4.615
 3223SOL    HW111110   0.270   4.723   4.646
 3223SOL    HW211111   0.207   4.860   4.665
 3224SOL     OW11112   0.611   5.544   5.134
 3224SOL    HW111113   0.531   5.515   5.179
 3224SOL    HW211114   0.682   5.504   5.184
 3225SOL     OW11115   0.567   4.715   3.874
 3225SOL    HW111116   0.618   4.757   3.804
 3225SOL    HW211117   0.610   4.742   3.955
 3226SOL     OW11118   1.600   3.862   5.204
 3226SOL    HW111119   1.578   3.892   5.116
 3226SOL    HW211120   1.694   3.877   5.212
 3227SOL     OW11121   0.150   4.361   4.261
 3227SOL    HW111122   0.091   4.288   4.279
 3227SOL    HW211123   0.115   4.433   4.314
 3228SOL     OW11124   1.843   5.472   4.055
 3228SOL    HW111125   1.914   5.447   4.115
 3228SOL    HW211126   1.860   5.564   4.036
 3229SOL     OW11127   0.033   5.317   3.874
 3229SOL    HW111128  -0.059   5.290   3.862
 3229SOL    HW211129   0.028   5.406   3.909
 3230SOL     OW11130   1.662   4.618   4.359
 3230SOL    HW111131   1.715   4.665   4.423
 3230SOL    HW211132   1.667   4.672   4.279
 3231SOL     OW11133   1.654   4.817   4.148
 3231SOL    HW111134   1.742   4.818   4.110
 3231SOL    HW211135   1.656   4.885   4.215
 3232SOL     OW11136   0.150   4.480   5.292
 3232SOL    HW111137   0.245   4.488   5.297
 3232SOL    HW211138   0.117   4.558   5.337
 3233SOL     OW11139   1.300   4.952   5.153
 3233SOL    HW111140   1.315   4.890   5.081
 3233SOL    HW211141   1.372   4.935   5.214
 3234SOL     OW11142   0.811   3.730   4.210
 3234SOL    HW111143   0.858   3.812   4.200
 3234SOL    HW211144   0.722   3.755   4.233
 3235SOL     OW11145   0.181   4.675   4.980
 3235SOL    HW111146   0.262   4.625   4.970
 3235SOL    HW211147   0.113   4.608   4.992
 3236SOL     OW11148   1.534   4.712   3.922
 3236SOL    HW111149   1.464   4.659   3.959
 3236SOL    HW211150   1.579   4.748   3.998
 3237SOL     OW11151   1.174   5.539   5.307
 3237SOL    HW111152   1.180   5.621   5.258
 3237SOL    HW211153   1.264   5.518   5.330
 3238SOL     OW11154   0.351   3.974   5.548
 3238SOL    HW111155   0.379   4.036   5.480
 3238SOL    HW211156   0.264   4.005   5.574
 3239SOL     OW11157   1.434   5.164   4.643
 3239SOL    HW111158   1.392   5.171   4.729
 3239SOL    HW211159   1.429   5.071   4.621
 3240SOL     OW11160   1.644   5.492   4.300
 3240SOL    HW111161   1.634   5.447   4.216
 3240SOL    HW211162   1.638   5.421   4.365
 3241SOL     OW11163   0.586   4.426   3.984
 3241SOL    HW111164   0.606   4.514   3.952
 3241SOL    HW211165   0.534   4.440   4.063
 3242SOL     OW11166   1.275   4.102   4.661
 3242SOL    HW111167   1.188   4.063   4.670
 3242SOL    HW211168   1.332   4.047   4.715
 3243SOL     OW11169   1.579   5.395   4.036
 3243SOL    HW111170   1.672   5.417   4.033
 3243SOL    HW211171   1.555   5.379   3.945
 3244SOL     OW11172   0.792   4.339   5.187
 3244SOL    HW111173   0.765   4.317   5.277
 3244SOL    HW211174   0.746   4.275   5.132
 3245SOL     OW11175   1.420   4.202   5.411
 3245SOL    HW111176   1.411   4.236   5.500
 3245SOL    HW211177   1.509   4.225   5.386
 3246SOL     OW11178   0.949   4.604   5.316
 3246SOL    HW111179   1.002   4.537   5.271
 3246SOL    HW211180   0.895   4.642   5.247
 3247SOL     OW11181   0.978   4.137   4.956
 3247SOL    HW111182   0.888   4.143   4.988
 3247SOL    HW211183   0.970   4.091   4.872
 3248SOL     OW11184   1.051   4.423   4.144
 3248SOL    HW111185   1.074   4.421   4.237
 3248SOL    HW211186   0.970   4.372   4.138
 3249SOL     OW11187   0.094   4.504   4.506
 3249SOL    HW111188   0.178   4.517   4.550
 3249SOL    HW211189   0.034   4.566   4.547
 3250SOL     OW11190   0.135   5.545   5.286
 3250SOL    HW111191   0.148   5.530   5.380
 3250SOL    HW211192   0.040   5.552   5.276
 3251SOL     OW11193   0.901   4.067   3.914
 3251SOL    HW111194   0.940   4.133   3.857
 3251SOL    HW211195   0.940   3.984   3.884
 3252SOL     OW11196   1.689   4.301   5.569
 3252SOL    HW111197   1.667   4.374   5.511
 3252SOL    HW211198   1.724   4.234   5.509
 3253SOL     OW11199   1.382   4.851   4.247
 3253SOL    HW111200   1.467   4.841   4.203
 3253SOL    HW211201   1.340   4.923   4.200
 3254SOL     OW11202   0.520   3.935   4.583
 3254SOL    HW111203   0.540   3.923   4.676
 3254SOL    HW211204   0.549   4.024   4.564
 3255SOL     OW11205   1.004   5.164   4.193
 3255SOL    HW111206   0.973   5.244   4.151
 3255SOL    HW211207   1.022   5.190   4.283
 3256SOL     OW11208   0.364   5.536   4.582
 3256SOL    HW111209   0.424   5.461   4.585
 3256SOL    HW211210   0.419   5.611   4.604
 3257SOL     OW11211   0.304   4.676   3.971
 3257SOL    HW111212   0.387   4.702   3.932
 3257SOL    HW211213   0.301   4.581   3.960
 3258SOL     OW11214   1.459   4.473   4.456
 3258SOL    HW111215   1.473   4.435   4.543
 3258SOL    HW211216   1.539   4.522   4.438
 3259SOL     OW11217   0.483   4.968   5.439
 3259SOL    HW111218   0.443   4.978   5.353
 3259SOL    HW211219   0.412   4.982   5.501
 3260SOL     OW11220   1.133   5.497   3.949
 3260SOL    HW111221   1.058   5.465   4.000
 3260SOL    HW211222   1.147   5.429   3.883
 3261SOL     OW11223   0.178   4.003   5.222
 3261SOL    HW111224   0.134   4.088   5.224
 3261SOL    HW211225   0.141   3.955   5.296
 3262SOL     OW11226   1.628   5.109   3.836
 3262SOL    HW111227   1.597   5.189   3.794
 3262SOL    HW211228   1.551   5.052   3.841
 3263SOL     OW11229   0.487   5.462   4.050
 3263SOL    HW111230   0.517   5.523   4.118
 3263SOL    HW211231   0.545   5.478   3.976
 3264SOL     OW11232   1.401   3.831   4.167
 3264SOL    HW111233   1.402   3.803   4.076
 3264SOL    HW211234   1.493   3.830   4.193
 3265SOL     OW11235   0.243   5.515   4.947
 3265SOL    HW111236   0.278   5.433   4.982
 3265SOL    HW211237   0.196   5.489   4.867
 3266SOL     OW11238   0.953   5.424   4.624
 3266SOL    HW111239   1.042   5.389   4.623
 3266SOL    HW211240   0.905   5.368   4.562
 3267SOL     OW11241   0.414   4.422   4.202
 3267SOL    HW111242   0.434   4.330   4.216
 3267SOL    HW211243   0.322   4.431   4.226
 3268SOL     OW11244   1.493   3.944   5.499
 3268SOL    HW111245   1.454   4.018   5.452
 3268SOL    HW211246   1.487   3.871   5.437
 3269SOL     OW11247   0.636   3.833   3.840
 3269SOL    HW111248   0.714   3.778   3.847
 3269SOL    HW211249   0.595   3.806   3.758
 3270SOL     OW11250   0.780   4.019   5.507
 3270SOL    HW111251   0.856   3.963   5.489
 3270SOL    HW211252   0.721   3.964   5.559
 3271SOL     OW11253   0.886   5.254   4.937
 3271SOL    HW111254   0.889   5.231   4.844
 3271SOL    HW211255   0.957   5.202   4.976
 3272SOL     OW11256   1.327   4.312   5.155
 3272SOL    HW111257   1.368   4.286   5.238
 3272SOL    HW211258   1.361   4.399   5.138
 3273SOL     OW11259   0.819   5.118   4.624
 3273SOL    HW111260   0.910   5.092   4.613
 3273SOL    HW211261   0.803   5.183   4.556
 3274SOL     OW11262   0.928   4.235   4.617
 3274SOL    HW111263   0.904   4.221   4.526
 3274SOL    HW211264   0.958   4.149   4.647
 3275SOL     OW11265   0.540   3.795   4.243
 3275SOL    HW111266   0.526   3.830   4.331
 3275SOL    HW211267   0.529   3.871   4.186
 3276SOL     OW11268   1.403   4.945   3.829
 3276SOL    HW111269   1.444   4.861   3.845
 3276SOL    HW211270   1.396   4.951   3.734
 3277SOL     OW11271   0.290   3.775   3.900
 3277SOL    HW111272   0.350   3.836   3.857
 3277SOL    HW211273   0.347   3.716   3.949
 3278SOL     OW11274   0.943   3.973   4.177
 3278SOL    HW111275   0.922   4.011   4.092
 3278SOL    HW211276   1.037   3.984   4.186
 3279SOL     OW11277   1.069   4.412   5.167
 3279SOL    HW111278   1.001   4.345   5.170
 3279SOL    HW211279   1.151   4.362   5.160
 3280SOL     OW11280   1.204   5.314   4.522
 3280SOL    HW111281   1.232   5.376   4.455
 3280SOL    HW211282   1.282   5.295   4.573
 3281SOL     OW11283   0.464   4.896   4.447
 3281SOL    HW111284   0.407   4.865   4.517
 3281SOL    HW211285   0.427   4.860   4.367
 3282SOL     OW11286   1.261   5.525   4.337
 3282SOL    HW111287   1.313   5.579   4.277
 3282SOL    HW211288   1.225   5.588   4.400
 3283SOL     OW11289   1.028   4.255   3.758
 3283SOL    HW111290   0.992   4.343   3.746
 3283SOL    HW211291   1.094   4.265   3.827
 3284SOL     OW11292   0.108   4.272   5.110
 3284SOL    HW111293   0.199   4.269   5.081
 3284SOL    HW211294   0.103   4.351   5.164
 3285SOL     OW11295   0.578   3.897   4.846
 3285SOL    HW111296   0.613   3.832   4.908
 3285SOL    HW211297   0.580   3.979   4.894
 3286SOL     OW11298   0.859   4.175   4.359
 3286SOL    HW111299   0.825   4.230   4.288
 3286SOL    HW211300   0.890   4.096   4.314
 3287SOL     OW11301   1.017   3.777   4.488
 3287SOL    HW111302   0.969   3.760   4.407
 3287SOL    HW211303   0.995   3.703   4.545
 3288SOL     OW11304   1.418   4.906   4.567
 3288SOL    HW111305   1.430   4.820   4.607
 3288SOL    HW211306   1.456   4.896   4.479
 3289SOL     OW11307   1.464   4.337   4.699
 3289SOL    HW111308   1.411   4.258   4.696
 3289SOL    HW211309   1.524   4.323   4.772
 3290SOL     OW11310   1.865   4.529   4.092
 3290SOL    HW111311   1.911   4.483   4.163
 3290SOL    HW211312   1.835   4.458   4.034
 3291SOL     OW11313   0.498   5.150   3.863
 3291SOL    HW111314   0.416   5.134   3.911
 3291SOL    HW211315   0.485   5.106   3.779
 3292SOL     OW11316   1.660   4.994   4.348
 3292SOL    HW111317   1.745   4.977   4.389
 3292SOL    HW211318   1.639   5.084   4.373
 3293SOL     OW11319   1.393   4.301   3.790
 3293SOL    HW111320   1.341   4.272   3.865
 3293SOL    HW211321   1.483   4.278   3.813
 3294SOL     OW11322   0.522   3.982   4.040
 3294SOL    HW111323   0.572   3.927   3.980
 3294SOL    HW211324   0.504   4.062   3.990
 3295SOL     OW11325   1.751   4.969   5.303
 3295SOL    HW111326   1.835   4.932   5.278
 3295SOL    HW211327   1.770   5.061   5.323
 3296SOL     OW11328   1.053   5.094   5.108
 3296SOL    HW111329   0.966   5.060   5.124
 3296SOL    HW211330   1.105   5.017   5.084
 3297SOL     OW11331   1.598   5.346   5.377
 3297SOL    HW111332   1.594   5.386   5.290
 3297SOL    HW211333   1.684   5.304   5.380
 3298SOL     OW11334   1.118   4.950   4.837
 3298SOL    HW111335   1.030   4.912   4.844
 3298SOL    HW211336   1.124   4.979   4.746
 3299SOL     OW11337   1.603   4.792   4.825
 3299SOL    HW111338   1.607   4.882   4.855
 3299SOL    HW211339   1.661   4.789   4.749
 3300SOL     OW11340   0.936   3.800   5.115
 3300SOL    HW111341   0.956   3.788   5.022
 3300SOL    HW211342   1.011   3.848   5.150
 3301SOL     OW11343   0.988   4.835   5.448
 3301SOL    HW111344   0.897   4.854   5.471
 3301SOL    HW211345   0.983   4.756   5.395
 3302SOL     OW11346   0.711   4.782   4.101
 3302SOL    HW111347   0.700   4.765   4.194
 3302SOL    HW211348   0.785   4.729   4.074
 3303SOL     OW11349   0.427   4.539   4.973
 3303SOL    HW111350   0.492   4.553   5.041
 3303SOL    HW211351   0.402   4.447   4.982
 3304SOL     OW11352   1.249   4.089   5.010
 3304SOL    HW111353   1.284   4.170   5.048
 3304SOL    HW211354   1.160   4.111   4.984
 3305SOL     OW11355   0.040   5.327   5.063
 3305SOL    HW111356   0.077   5.415   5.067
 3305SOL    HW211357   0.085   5.279   5.132
 3306SOL     OW11358   0.349   4.828   4.213
 3306SOL    HW111359   0.345   4.885   4.136
 3306SOL    HW211360   0.342   4.739   4.177
 3307SOL     OW11361   0.561   4.245   4.597
 3307SOL    HW111362   0.578   4.307   4.526
 3307SOL    HW211363   0.623   4.270   4.665
 3308SOL     OW11364   1.257   5.073   4.133
 3308SOL    HW111365   1.310   5.147   4.163
 3308SOL    HW211366   1.168   5.094   4.161
 3309SOL     OW11367   1.287   5.180   4.875
 3309SOL    HW111368   1.341   5.184   4.954
 3309SOL    HW211369   1.241   5.096   4.882
 3310SOL     OW11370   1.580   4.345   4.210
 3310SOL    HW111371   1.535   4.404   4.271
 3310SOL    HW211372   1.638   4.401   4.159
 3311SOL     OW11373   0.342   5.267   5.024
 3311SOL    HW111374   0.323   5.211   4.949
 3311SOL    HW211375   0.437   5.266   5.031
 3312SOL     OW11376   0.423   4.463   5.336
 3312SOL    HW111377   0.486   4.507   5.278
 3312SOL    HW211378   0.462   4.377   5.353
 3313SOL     OW11379   1.600   4.499   5.409
 3313SOL    HW111380   1.519   4.549   5.400
 3313SOL    HW211381   1.659   4.536   5.343
 3314SOL     OW11382   1.004   3.862   5.487
 3314SOL    HW111383   1.063   3.932   5.459
 3314SOL    HW211384   1.044   3.782   5.453
 3315SOL     OW11385   0.481   3.741   5.491
 3315SOL    HW111386   0.461   3.709   5.403
 3315SOL    HW211387   0.429   3.820   5.500
 3316SOL     OW11388   0.565   4.627   4.743
 3316SOL    HW111389   0.618   4.703   4.765
 3316SOL    HW211390   0.527   4.599   4.827
 3317SOL     OW11391   1.338   4.582   4.747
 3317SOL    HW111392   1.261   4.564   4.693
 3317SOL    HW211393   1.391   4.504   4.738
 3318SOL     OW11394   1.192   4.244   3.983
 3318SOL    HW111395   1.208   4.168   4.038
 3318SOL    HW211396   1.159   4.311   4.043
 3319SOL     OW11397   0.243   3.913   4.970
 3319SOL    HW111398   0.238   3.945   5.060
 3319SOL    HW211399   0.267   3.820   4.979
 3320SOL     OW11400   0.059   5.036   4.996
 3320SOL    HW111401   0.078   4.971   5.064
 3320SOL    HW211402   0.047   5.118   5.044
 3321SOL     OW11403   0.747   4.390   4.761
 3321SOL    HW111404   0.810   4.344   4.705
 3321SOL    HW211405   0.717   4.464   4.708
 3322SOL     OW11406   1.746   4.668   5.593
 3322SOL    HW111407   1.697   4.616   5.530
 3322SOL    HW211408   1.681   4.696   5.658
 3323SOL     OW11409   1.625   4.107   4.078
 3323SOL    HW111410   1.650   4.037   4.138
 3323SOL    HW211411   1.599   4.179   4.135
 3324SOL     OW11412   1.033   4.485   4.677
 3324SOL    HW111413   1.024   4.504   4.770
 3324SOL    HW211414   1.008   4.393   4.669
 3325SOL     OW11415   0.993   5.301   5.434
 3325SOL    HW111416   0.959   5.334   5.351
 3325SOL    HW211417   0.985   5.206   5.427
 3326SOL     OW11418   1.845   5.225   5.325
 3326SOL    HW111419   1.865   5.257   5.237
 3326SOL    HW211420   1.926   5.240   5.375
 3327SOL     OW11421   0.356   4.672   5.526
 3327SOL    HW111422   0.444   4.703   5.544
 3327SOL    HW211423   0.369   4.589   5.479
 3328SOL     OW11424   1.516   4.004   3.847
 3328SOL    HW111425   1.463   3.930   3.876
 3328SOL    HW211426   1.556   4.038   3.927
 3329SOL     OW11427   1.275   4.545   3.742
 3329SOL    HW111428   1.323   4.463   3.750
 3329SOL    HW211429   1.319   4.592   3.672
 3330SOL     OW11430   1.077   5.058   4.583
 3330SOL    HW111431   1.082   4.984   4.522
 3330SOL    HW211432   1.141   5.121   4.549
 3331SOL     OW11433   0.319   4.532   4.657
 3331SOL    HW111434   0.409   4.563   4.671
 3331SOL    HW211435   0.319   4.443   4.692
 3332SOL     OW11436   0.329   4.248   4.730
 3332SOL    HW111437   0.298   4.158   4.718
 3332SOL    HW211438   0.412   4.251   4.684
 3333SOL     OW11439   1.149   4.094   5.417
 3333SOL    HW111440   1.098   4.150   5.475
 3333SOL    HW211441   1.233   4.140   5.407
 3334SOL     OW11442   1.171   3.914   5.207
 3334SOL    HW111443   1.156   3.981   5.274
 3334SOL    HW211444   1.205   3.963   5.132
 3335SOL     OW11445   0.126   5.473   4.696
 3335SOL    HW111446   0.088   5.421   4.626
 3335SOL    HW211447   0.206   5.510   4.657
 3336SOL     OW11448   0.542   5.251   4.596
 3336SOL    HW111449   0.589   5.333   4.609
 3336SOL    HW211450   0.554   5.203   4.678
 3337SOL     OW11451   0.956   4.528   4.941
 3337SOL    HW111452   1.006   4.495   5.016
 3337SOL    HW211453   0.883   4.467   4.932
 3338SOL     OW11454   0.071   4.266   4.833
 3338SOL    HW111455   0.164   4.277   4.813
 3338SOL    HW211456   0.066   4.271   4.928
 3339SOL     OW11457   0.201   4.247   5.427
 3339SOL    HW111458   0.279   4.217   5.379
 3339SOL    HW211459   0.169   4.321   5.377
 3340SOL     OW11460   1.381   4.660   5.383
 3340SOL    HW111461   1.406   4.752   5.378
 3340SOL    HW211462   1.373   4.632   5.291
 3341SOL     OW11463   0.816   4.284   4.090
 3341SOL    HW111464   0.828   4.211   4.029
 3341SOL    HW211465   0.742   4.333   4.054
 3342SOL     OW11466   1.640   4.311   4.908
 3342SOL    HW111467   1.636   4.251   4.982
 3342SOL    HW211468   1.728   4.298   4.872
 3343SOL     OW11469   0.298   5.258   5.443
 3343SOL    HW111470   0.260   5.330   5.494
 3343SOL    HW211471   0.293   5.182   5.501
 3344SOL     OW11472   0.892   5.410   5.197
 3344SOL    HW111473   0.895   5.364   5.113
 3344SOL    HW211474   0.960   5.476   5.191
 3345SOL     OW11475   0.451   4.201   3.882
 3345SOL    HW111476   0.508   4.275   3.904
 3345SOL    HW211477   0.376   4.211   3.940
 3346SOL     OW11478   0.158   4.853   5.181
 3346SOL    HW111479   0.130   4.800   5.256
 3346SOL    HW211480   0.166   4.790   5.109
 3347SOL     OW11481   1.310   4.773   4.948
 3347SOL    HW111482   1.354   4.721   4.881
 3347SOL    HW211483   1.246   4.825   4.900
 3348SOL     OW11484   1.316   4.573   4.020
 3348SOL    HW111485   1.244   4.545   4.076
 3348SOL    HW211486   1.284   4.558   3.931
 3349SOL     OW11487   1.704   5.452   4.851
 3349SOL    HW111488   1.773   5.516   4.837
 3349SOL    HW211489   1.745   5.368   4.835
 3350SOL     OW11490   1.237   5.453   4.830
 3350SOL    HW111491   1.318   5.486   4.790
 3350SOL    HW211492   1.254   5.361   4.847
 3351SOL     OW11493   0.086   4.971   4.740
 3351SOL    HW111494   0.070   4.989   4.832
 3351SOL    HW211495   0.002   4.940   4.706
 3352SOL     OW11496   0.679   5.391   5.468
 3352SOL    HW111497   0.625   5.470   5.458
 3352SOL    HW211498   0.762   5.414   5.425
 3353SOL     OW11499   1.711   3.887   4.225
 3353SOL    HW111500   1.786   3.867   4.168
 3353SOL    HW211501   1.694   3.805   4.271
 3354SOL     OW11502   1.390   5.300   4.219
 3354SOL    HW111503   1.451   5.328   4.151
 3354SOL    HW211504   1.347   5.381   4.247
 3355SOL     OW11505   0.182   5.476   5.557
 3355SOL    HW111506   0.117   5.429   5.609
 3355SOL    HW211507   0.224   5.536   5.619
 3356SOL     OW11508   1.268   4.655   4.390
 3356SOL    HW111509   1.340   4.596   4.412
 3356SOL    HW211510   1.308   4.723   4.336
 3357SOL     OW11511   0.796   5.003   5.134
 3357SOL    HW111512   0.767   5.042   5.216
 3357SOL    HW211513   0.719   5.007   5.077
 3358SOL     OW11514   0.740   5.293   3.849
 3358SOL    HW111515   0.712   5.340   3.771
 3358SOL    HW211516   0.665   5.239   3.873
 3359SOL     OW11517   1.591   5.443   5.109
 3359SOL    HW111518   1.636   5.450   5.024
 3359SOL    HW211519   1.580   5.534   5.138
 3360SOL     OW11520   1.830   3.924   4.683
 3360SOL    HW111521   1.861   3.834   4.689
 3360SOL    HW211522   1.746   3.918   4.637
 3361SOL     OW11523   0.255   4.030   4.417
 3361SOL    HW111524   0.177   4.079   4.389
 3361SOL    HW211525   0.274   4.064   4.504
 3362SOL     OW11526   1.177   5.311   3.746
 3362SOL    HW111527   1.227   5.232   3.725
 3362SOL    HW211528   1.175   5.361   3.664
 3363SOL     OW11529   0.821   4.726   5.109
 3363SOL    HW111530   0.869   4.700   5.030
 3363SOL    HW211531   0.823   4.821   5.108
 3364SOL     OW11532   0.912   4.628   4.014
 3364SOL    HW111533   0.972   4.663   3.949
 3364SOL    HW211534   0.964   4.564   4.063
 3365SOL     OW11535   1.499   5.370   3.766
 3365SOL    HW111536   1.414   5.334   3.741
 3365SOL    HW211537   1.548   5.376   3.683
 3366SOL     OW11538   0.368   5.026   5.200
 3366SOL    HW111539   0.333   5.110   5.170
 3366SOL    HW211540   0.294   4.965   5.192
 3367SOL     OW11541   1.593   5.044   5.058
 3367SOL    HW111542   1.670   5.010   5.103
 3367SOL    HW211543   1.628   5.086   4.979
 3368SOL     OW11544   1.058   4.834   4.435
 3368SOL    HW111545   0.991   4.775   4.470
 3368SOL    HW211546   1.132   4.777   4.412
 3369SOL     OW11547   1.024   3.968   4.696
 3369SOL    HW111548   1.022   3.921   4.613
 3369SOL    HW211549   1.020   3.900   4.763
 3370SOL     OW11550   0.616   5.215   4.209
 3370SOL    HW111551   0.671   5.164   4.151
 3370SOL    HW211552   0.560   5.267   4.151
 3371SOL     OW11553   1.753   4.113   5.127
 3371SOL    HW111554   1.824   4.175   5.115
 3371SOL    HW211555   1.768   4.046   5.060
 3372SOL     OW11556   0.250   5.102   3.996
 3372SOL    HW111557   0.181   5.169   3.987
 3372SOL    HW211558   0.278   5.109   4.088
 3373SOL     OW11559   0.099   4.721   5.426
 3373SOL    HW111560   0.061   4.806   5.447
 3373SOL    HW211561   0.182   4.719   5.474
 3374SOL     OW11562   0.668   3.909   5.265
 3374SOL    HW111563   0.681   3.959   5.185
 3374SOL    HW211564   0.706   3.963   5.334
 3375SOL     OW11565   0.098   4.075   3.736
 3375SOL    HW111566   0.037   4.120   3.794
 3375SOL    HW211567   0.109   4.135   3.662
 3376SOL     OW11568   1.411   4.578   5.123
 3376SOL    HW111569   1.362   4.637   5.067
 3376SOL    HW211570   1.499   4.577   5.086
 3377SOL     OW11571   0.127   3.946   4.073
 3377SOL    HW111572   0.057   3.951   4.008
 3377SOL    HW211573   0.194   3.891   4.032
 3378SOL     OW11574   1.108   5.047   3.900
 3378SOL    HW111575   1.131   4.961   3.864
 3378SOL    HW211576   1.173   5.064   3.967
 3379SOL     OW11577   0.620   4.551   5.164
 3379SOL    HW111578   0.678   4.626   5.151
 3379SOL    HW211579   0.678   4.475   5.166
 3380SOL     OW11580   1.475   5.514   4.705
 3380SOL    HW111581   1.506   5.588   4.653
 3380SOL    HW211582   1.550   5.490   4.760
 3381SOL     OW11583   0.709   4.283   5.442
 3381SOL    HW111584   0.765   4.342   5.494
 3381SOL    HW211585   0.736   4.195   5.469
 3382SOL     OW11586   1.482   4.918   5.355
 3382SOL    HW111587   1.473   4.933   5.449
 3382SOL    HW211588   1.573   4.938   5.336
 3383SOL     OW11589   0.393   5.459   5.279
 3383SOL    HW111590   0.305   5.489   5.258
 3383SOL    HW211591   0.380   5.375   5.324
 3384SOL     OW11592   1.651   4.586   4.996
 3384SOL    HW111593   1.659   4.505   4.945
 3384SOL    HW211594   1.639   4.655   4.930
 3385SOL     OW11595   1.213   4.038   4.175
 3385SOL    HW111596   1.278   3.968   4.171
 3385SOL    HW211597   1.238   4.088   4.253
 3386SOL     OW11598   0.598   4.454   4.412
 3386SOL    HW111599   0.641   4.539   4.398
 3386SOL    HW211600   0.533   4.448   4.343
 3387SOL     OW11601   1.731   4.088   5.400
 3387SOL    HW111602   1.744   4.102   5.306
 3387SOL    HW211603   1.674   4.011   5.405
 3388SOL     OW11604   1.760   4.635   5.241
 3388SOL    HW111605   1.771   4.730   5.249
 3388SOL    HW211606   1.734   4.622   5.149
 3389SOL     OW11607   0.662   5.491   4.645
 3389SOL    HW111608   0.636   5.582   4.635
 3389SOL    HW211609   0.758   5.493   4.652
 3390SOL     OW11610   0.868   4.688   4.577
 3390SOL    HW111611   0.923   4.618   4.612
 3390SOL    HW211612   0.836   4.735   4.654
 3391SOL     OW11613   1.063   4.703   3.805
 3391SOL    HW111614   1.048   4.757   3.728
 3391SOL    HW211615   1.144   4.655   3.785
 3392SOL     OW11616   1.852   5.276   4.583
 3392SOL    HW111617   1.785   5.252   4.519
 3392SOL    HW211618   1.879   5.192   4.622
 3393SOL     OW11619   0.244   5.033   5.591
 3393SOL    HW111620   0.151   5.021   5.612
 3393SOL    HW211621   0.288   5.028   5.676
 3394SOL     OW11622   0.120   4.991   4.357
 3394SOL    HW111623   0.044   4.964   4.409
 3394SOL    HW211624   0.177   4.914   4.357
 3395SOL     OW11625   0.687   5.133   5.351
 3395SOL    HW111626   0.613   5.079   5.380
 3395SOL    HW211627   0.673   5.217   5.394
 3396SOL     OW11628   1.798   3.903   4.959
 3396SOL    HW111629   1.840   3.817   4.955
 3396SOL    HW211630   1.797   3.934   4.868
 3397SOL     OW11631   0.442   4.158   4.246
 3397SOL    HW111632   0.475   4.089   4.188
 3397SOL    HW211633   0.386   4.111   4.308
 3398SOL     OW11634   1.666   5.159   4.826
 3398SOL    HW111635   1.617   5.180   4.746
 3398SOL    HW211636   1.752   5.130   4.794
 3399SOL     OW11637   0.358   4.276   5.001
 3399SOL    HW111638   0.438   4.232   5.030
 3399SOL    HW211639   0.355   4.260   4.907
 3400SOL     OW11640   0.806   5.311   4.408
 3400SOL    HW111641   0.863   5.368   4.357
 3400SOL    HW211642   0.727   5.301   4.354
 3401SOL     OW11643   1.426   3.957   4.834
 3401SOL    HW111644   1.429   3.862   4.847
 3401SOL    HW211645   1.372   3.989   4.906
 3402SOL     OW11646   1.016   3.740   4.859
 3402SOL    HW111647   0.959   3.667   4.836
 3402SOL    HW211648   1.104   3.703   4.859
 3403SOL     OW11649   0.779   5.054   4.059
 3403SOL    HW111650   0.761   4.960   4.062
 3403SOL    HW211651   0.868   5.062   4.094
 3404SOL     OW11652   0.619   5.286   4.996
 3404SOL    HW111653   0.614   5.375   5.032
 3404SOL    HW211654   0.712   5.273   4.979
 3405SOL     OW11655   1.370   3.774   3.897
 3405SOL    HW111656   1.413   3.700   3.855
 3405SOL    HW211657   1.279   3.747   3.907
 3406SOL     OW11658   1.274   4.184   4.396
 3406SOL    HW111659   1.234   4.271   4.403
 3406SOL    HW211660   1.282   4.154   4.486
 3407SOL     OW11661   1.570   3.922   4.592
 3407SOL    HW111662   1.521   3.948   4.670
 3407SOL    HW211663   1.573   4.001   4.538
 3408SOL     OW11664   0.060   4.802   4.030
 3408SOL    HW111665   0.147   4.769   4.008
 3408SOL    HW211666   0.021   4.731   4.082
 3409SOL     OW11667   0.897   5.385   4.069
 3409SOL    HW111668   0.829   5.369   4.004
 3409SOL    HW211669   0.866   5.462   4.117
 3410SOL     OW11670   0.265   4.400   5.658
 3410SOL    HW111671   0.210   4.367   5.729
 3410SOL    HW211672   0.236   4.351   5.581
 3411SOL     OW11673   0.211   4.009   6.575
 3411SOL    HW111674   0.153   4.065   6.626
 3411SOL    HW211675   0.153   3.946   6.533
 3412SOL     OW11676   8.009   4.048   6.215
 3412SOL    HW111677   7.920   4.082   6.226
 3412SOL    HW211678   8.017   4.032   6.121
 3413SOL     OW11679   0.564   5.003   6.728
 3413SOL    HW111680   0.475   5.020   6.698
 3413SOL    HW211681   0.587   5.078   6.782
 3414SOL     OW11682   1.547   5.225   6.288
 3414SOL    HW111683   1.505   5.222   6.374
 3414SOL    HW211684   1.475   5.241   6.227
 3415SOL     OW11685   1.143   4.432   6.284
 3415SOL    HW111686   1.202   4.506   6.269
 3415SOL    HW211687   1.097   4.454   6.365
 3416SOL     OW11688   1.739   4.323   5.830
 3416SOL    HW111689   1.723   4.323   5.735
 3416SOL    HW211690   1.795   4.246   5.845
 3417SOL     OW11691   0.763   4.842   6.644
 3417SOL    HW111692   0.687   4.894   6.671
 3417SOL    HW211693   0.838   4.900   6.660
 3418SOL     OW11694   0.858   4.501   7.404
 3418SOL    HW111695   0.896   4.562   7.467
 3418SOL    HW211696   0.880   4.538   7.319
 3419SOL     OW11697   0.689   4.717   6.244
 3419SOL    HW111698   0.755   4.716   6.313
 3419SOL    HW211699   0.621   4.776   6.276
 3420SOL     OW11700   0.713   4.873   7.409
 3420SOL    HW111701   0.758   4.952   7.439
 3420SOL    HW211702   0.634   4.906   7.366
 3421SOL     OW11703   0.334   5.147   6.651
 3421SOL    HW111704   0.269   5.104   6.596
 3421SOL    HW211705   0.381   5.205   6.592
 3422SOL     OW11706   1.479   5.228   6.953
 3422SOL    HW111707   1.506   5.316   6.930
 3422SOL    HW211708   1.495   5.221   7.047
 3423SOL     OW11709   0.444   4.045   7.030
 3423SOL    HW111710   0.532   4.014   7.053
 3423SOL    HW211711   0.395   4.043   7.112
 3424SOL     OW11712   1.597   4.144   6.328
 3424SOL    HW111713   1.538   4.179   6.262
 3424SOL    HW211714   1.665   4.212   6.337
 3425SOL     OW11715   0.225   5.406   6.055
 3425SOL    HW111716   0.214   5.490   6.100
 3425SOL    HW211717   0.296   5.422   5.993
 3426SOL     OW11718   1.139   5.063   7.283
 3426SOL    HW111719   1.198   5.053   7.358
 3426SOL    HW211720   1.087   4.983   7.283
 3427SOL     OW11721   0.333   5.191   6.182
 3427SOL    HW111722   0.288   5.263   6.138
 3427SOL    HW211723   0.265   5.126   6.198
 3428SOL     OW11724   0.287   4.812   6.492
 3428SOL    HW111725   0.282   4.720   6.517
 3428SOL    HW211726   0.210   4.852   6.533
 3429SOL     OW11727   0.614   4.691   5.704
 3429SOL    HW111728   0.654   4.746   5.636
 3429SOL    HW211729   0.633   4.736   5.786
 3430SOL     OW11730   1.566   3.860   7.030
 3430SOL    HW111731   1.644   3.898   6.989
 3430SOL    HW211732   1.572   3.886   7.122
 3431SOL     OW11733   0.145   4.349   6.146
 3431SOL    HW111734   0.120   4.270   6.194
 3431SOL    HW211735   0.121   4.421   6.204
 3432SOL     OW11736   1.852   5.474   5.929
 3432SOL    HW111737   1.929   5.449   5.982
 3432SOL    HW211738   1.865   5.566   5.908
 3433SOL     OW11739   0.026   5.313   5.716
 3433SOL    HW111740   0.007   5.220   5.705
 3433SOL    HW211741   0.012   5.330   5.809
 3434SOL     OW11742   1.657   4.579   6.221
 3434SOL    HW111743   1.747   4.575   6.253
 3434SOL    HW211744   1.659   4.647   6.153
 3435SOL     OW11745   1.654   4.821   6.040
 3435SOL    HW111746   1.737   4.817   5.991
 3435SOL    HW211747   1.670   4.886   6.109
 3436SOL     OW11748   0.173   4.483   7.158
 3436SOL    HW111749   0.252   4.538   7.161
 3436SOL    HW211750   0.102   4.541   7.184
 3437SOL     OW11751   0.627   5.102   6.341
 3437SOL    HW111752   0.574   5.022   6.345
 3437SOL    HW211753   0.615   5.134   6.251
 3438SOL     OW11754   1.282   4.950   7.008
 3438SOL    HW111755   1.324   4.888   6.950
 3438SOL    HW211756   1.339   4.952   7.086
 3439SOL     OW11757   0.841   3.722   6.117
 3439SOL    HW111758   0.855   3.811   6.084
 3439SOL    HW211759   0.749   3.718   6.140
 3440SOL     OW11760   0.200   4.669   6.870
 3440SOL    HW111761   0.283   4.629   6.846
 3440SOL    HW211762   0.141   4.648   6.797
 3441SOL     OW11763   1.525   4.728   5.797
 3441SOL    HW111764   1.459   4.669   5.834
 3441SOL    HW211765   1.575   4.760   5.872
 3442SOL     OW11766   1.182   5.530   7.212
 3442SOL    HW111767   1.208   5.586   7.139
 3442SOL    HW211768   1.193   5.441   7.178
 3443SOL     OW11769   0.339   3.996   7.362
 3443SOL    HW111770   0.401   4.021   7.431
 3443SOL    HW211771   0.253   3.998   7.405
 3444SOL     OW11772   1.456   5.146   6.547
 3444SOL    HW111773   1.394   5.160   6.619
 3444SOL    HW211774   1.440   5.056   6.519
 3445SOL     OW11775   1.665   5.459   6.176
 3445SOL    HW111776   1.657   5.439   6.082
 3445SOL    HW211777   1.622   5.385   6.220
 3446SOL     OW11778   1.281   4.097   6.547
 3446SOL    HW111779   1.196   4.055   6.540
 3446SOL    HW211780   1.336   4.033   6.592
 3447SOL     OW11781   1.585   5.395   5.898
 3447SOL    HW111782   1.676   5.423   5.893
 3447SOL    HW211783   1.561   5.378   5.807
 3448SOL     OW11784   0.768   4.342   7.029
 3448SOL    HW111785   0.750   4.314   7.118
 3448SOL    HW211786   0.748   4.265   6.975
 3449SOL     OW11787   1.407   4.180   7.246
 3449SOL    HW111788   1.398   4.220   7.332
 3449SOL    HW211789   1.468   4.107   7.260
 3450SOL     OW11790   0.947   4.605   7.162
 3450SOL    HW111791   1.014   4.550   7.120
 3450SOL    HW211792   0.904   4.650   7.089
 3451SOL     OW11793   1.045   4.415   6.010
 3451SOL    HW111794   1.061   4.409   6.104
 3451SOL    HW211795   0.960   4.372   5.997
 3452SOL     OW11796   0.090   4.525   6.355
 3452SOL    HW111797   0.167   4.542   6.410
 3452SOL    HW211798   0.043   4.609   6.354
 3453SOL     OW11799   0.106   5.538   7.157
 3453SOL    HW111800   0.110   5.525   7.251
 3453SOL    HW211801   0.015   5.520   7.133
 3454SOL     OW11802   0.903   4.081   5.781
 3454SOL    HW111803   0.953   4.135   5.719
 3454SOL    HW211804   0.860   4.016   5.726
 3455SOL     OW11805   1.742   4.315   7.419
 3455SOL    HW111806   1.692   4.381   7.372
 3455SOL    HW211807   1.751   4.242   7.357
 3456SOL     OW11808   1.384   4.872   6.137
 3456SOL    HW111809   1.465   4.864   6.085
 3456SOL    HW211810   1.331   4.934   6.088
 3457SOL     OW11811   0.543   3.901   6.498
 3457SOL    HW111812   0.552   3.961   6.572
 3457SOL    HW211813   0.550   3.957   6.421
 3458SOL     OW11814   1.005   5.176   6.063
 3458SOL    HW111815   0.972   5.237   5.998
 3458SOL    HW211816   0.982   5.215   6.147
 3459SOL     OW11817   0.346   5.550   6.473
 3459SOL    HW111818   0.398   5.470   6.478
 3459SOL    HW211819   0.409   5.621   6.480
 3460SOL     OW11820   1.759   4.768   6.431
 3460SOL    HW111821   1.727   4.840   6.376
 3460SOL    HW211822   1.720   4.784   6.517
 3461SOL     OW11823   1.195   5.280   7.104
 3461SOL    HW111824   1.229   5.211   7.161
 3461SOL    HW211825   1.153   5.234   7.032
 3462SOL     OW11826   0.337   4.651   5.823
 3462SOL    HW111827   0.356   4.723   5.764
 3462SOL    HW211828   0.280   4.593   5.773
 3463SOL     OW11829   0.460   4.942   7.318
 3463SOL    HW111830   0.432   4.964   7.229
 3463SOL    HW211831   0.381   4.949   7.371
 3464SOL     OW11832   1.128   5.499   5.803
 3464SOL    HW111833   1.051   5.462   5.847
 3464SOL    HW211834   1.150   5.435   5.736
 3465SOL     OW11835   0.143   4.013   7.104
 3465SOL    HW111836   0.130   4.105   7.083
 3465SOL    HW211837   0.146   4.010   7.199
 3466SOL     OW11838   1.622   5.101   5.692
 3466SOL    HW111839   1.591   5.189   5.669
 3466SOL    HW211840   1.553   5.043   5.660
 3467SOL     OW11841   0.448   5.465   5.902
 3467SOL    HW111842   0.495   5.520   5.964
 3467SOL    HW211843   0.517   5.413   5.860
 3468SOL     OW11844   1.403   3.821   6.039
 3468SOL    HW111845   1.404   3.781   5.952
 3468SOL    HW211846   1.495   3.826   6.064
 3469SOL     OW11847   0.244   5.511   6.815
 3469SOL    HW111848   0.329   5.480   6.846
 3469SOL    HW211849   0.240   5.484   6.723
 3470SOL     OW11850   0.967   5.362   6.501
 3470SOL    HW111851   1.056   5.380   6.531
 3470SOL    HW211852   0.951   5.427   6.433
 3471SOL     OW11853   0.419   4.422   6.065
 3471SOL    HW111854   0.438   4.329   6.077
 3471SOL    HW211855   0.326   4.431   6.085
 3472SOL     OW11856   1.538   3.934   7.314
 3472SOL    HW111857   1.554   3.961   7.405
 3472SOL    HW211858   1.485   3.854   7.322
 3473SOL     OW11859   0.650   3.845   5.681
 3473SOL    HW111860   0.707   3.771   5.701
 3473SOL    HW211861   0.589   3.811   5.616
 3474SOL     OW11862   0.764   4.016   7.356
 3474SOL    HW111863   0.839   3.959   7.336
 3474SOL    HW211864   0.768   4.028   7.451
 3475SOL     OW11865   0.881   5.193   6.710
 3475SOL    HW111866   0.918   5.272   6.672
 3475SOL    HW211867   0.938   5.172   6.784
 3476SOL     OW11868   1.345   4.311   7.013
 3476SOL    HW111869   1.383   4.273   7.092
 3476SOL    HW211870   1.386   4.398   7.007
 3477SOL     OW11871   0.937   4.229   6.490
 3477SOL    HW111872   0.912   4.220   6.398
 3477SOL    HW211873   0.963   4.141   6.516
 3478SOL     OW11874   1.422   4.924   5.625
 3478SOL    HW111875   1.452   4.852   5.680
 3478SOL    HW211876   1.337   4.949   5.661
 3479SOL     OW11877   0.282   3.783   5.762
 3479SOL    HW111878   0.335   3.848   5.717
 3479SOL    HW211879   0.346   3.733   5.814
 3480SOL     OW11880   0.950   3.982   6.041
 3480SOL    HW111881   0.928   4.010   5.952
 3480SOL    HW211882   1.045   3.993   6.046
 3481SOL     OW11883   1.080   4.358   7.041
 3481SOL    HW111884   1.062   4.334   7.132
 3481SOL    HW211885   1.175   4.351   7.033
 3482SOL     OW11886   1.225   5.284   6.377
 3482SOL    HW111887   1.232   5.353   6.310
 3482SOL    HW211888   1.276   5.317   6.451
 3483SOL     OW11889   0.477   4.875   6.312
 3483SOL    HW111890   0.411   4.856   6.379
 3483SOL    HW211891   0.430   4.863   6.229
 3484SOL     OW11892   1.258   5.508   6.199
 3484SOL    HW111893   1.309   5.574   6.153
 3484SOL    HW211894   1.188   5.556   6.242
 3485SOL     OW11895   1.036   4.262   5.612
 3485SOL    HW111896   0.984   4.339   5.590
 3485SOL    HW211897   1.096   4.291   5.680
 3486SOL     OW11898   0.105   4.276   6.983
 3486SOL    HW111899   0.194   4.280   6.950
 3486SOL    HW211900   0.095   4.356   7.035
 3487SOL     OW11901   0.587   3.956   6.778
 3487SOL    HW111902   0.600   3.862   6.762
 3487SOL    HW211903   0.536   3.958   6.860
 3488SOL     OW11904   0.874   4.184   6.228
 3488SOL    HW111905   0.809   4.232   6.178
 3488SOL    HW211906   0.896   4.109   6.173
 3489SOL     OW11907   1.023   3.778   6.330
 3489SOL    HW111908   0.965   3.775   6.253
 3489SOL    HW211909   0.992   3.707   6.386
 3490SOL     OW11910   1.431   4.885   6.442
 3490SOL    HW111911   1.344   4.844   6.436
 3490SOL    HW211912   1.454   4.904   6.351
 3491SOL     OW11913   1.492   4.347   6.533
 3491SOL    HW111914   1.451   4.261   6.521
 3491SOL    HW211915   1.548   4.335   6.610
 3492SOL     OW11916   1.830   4.542   5.965
 3492SOL    HW111917   1.888   4.495   6.025
 3492SOL    HW211918   1.799   4.476   5.904
 3493SOL     OW11919   1.691   4.992   6.263
 3493SOL    HW111920   1.775   5.031   6.284
 3493SOL    HW211921   1.630   5.066   6.261
 3494SOL     OW11922   1.403   4.280   5.671
 3494SOL    HW111923   1.339   4.275   5.742
 3494SOL    HW211924   1.482   4.315   5.712
 3495SOL     OW11925   0.531   4.013   5.883
 3495SOL    HW111926   0.571   3.951   5.823
 3495SOL    HW211927   0.521   4.093   5.831
 3496SOL     OW11928   1.737   4.951   7.135
 3496SOL    HW111929   1.832   4.942   7.124
 3496SOL    HW211930   1.724   5.040   7.168
 3497SOL     OW11931   1.063   5.069   6.911
 3497SOL    HW111932   0.985   5.052   6.964
 3497SOL    HW211933   1.134   5.026   6.959
 3498SOL     OW11934   1.095   4.909   6.686
 3498SOL    HW111935   1.082   4.965   6.762
 3498SOL    HW211936   1.086   4.967   6.610
 3499SOL     OW11937   1.613   4.823   6.653
 3499SOL    HW111938   1.614   4.884   6.728
 3499SOL    HW211939   1.548   4.860   6.593
 3500SOL     OW11940   0.913   3.883   6.941
 3500SOL    HW111941   0.930   3.825   6.866
 3500SOL    HW211942   0.992   3.876   6.995
 3501SOL     OW11943   0.979   4.839   7.307
 3501SOL    HW111944   0.888   4.855   7.332
 3501SOL    HW211945   0.975   4.761   7.252
 3502SOL     OW11946   0.673   4.677   5.976
 3502SOL    HW111947   0.675   4.704   6.068
 3502SOL    HW211948   0.765   4.676   5.949
 3503SOL     OW11949   0.437   4.535   6.834
 3503SOL    HW111950   0.498   4.554   6.905
 3503SOL    HW211951   0.407   4.446   6.852
 3504SOL     OW11952   1.205   4.168   6.825
 3504SOL    HW111953   1.264   4.218   6.882
 3504SOL    HW211954   1.248   4.169   6.739
 3505SOL     OW11955   0.084   5.297   6.939
 3505SOL    HW111956   0.083   5.388   6.911
 3505SOL    HW211957   0.176   5.271   6.936
 3506SOL     OW11958   0.333   4.827   6.080
 3506SOL    HW111959   0.312   4.901   6.023
 3506SOL    HW211960   0.344   4.753   6.020
 3507SOL     OW11961   0.559   4.255   6.449
 3507SOL    HW111962   0.574   4.312   6.373
 3507SOL    HW211963   0.625   4.281   6.513
 3508SOL     OW11964   1.246   5.071   5.984
 3508SOL    HW111965   1.302   5.145   6.005
 3508SOL    HW211966   1.159   5.097   6.015
 3509SOL     OW11967   1.286   5.182   6.765
 3509SOL    HW111968   1.353   5.195   6.831
 3509SOL    HW211969   1.213   5.142   6.812
 3510SOL     OW11970   1.594   4.347   6.067
 3510SOL    HW111971   1.620   4.427   6.112
 3510SOL    HW211972   1.642   4.349   5.984
 3511SOL     OW11973   0.350   5.232   6.908
 3511SOL    HW111974   0.342   5.201   6.818
 3511SOL    HW211975   0.442   5.260   6.915
 3512SOL     OW11976   0.477   4.470   7.242
 3512SOL    HW111977   0.509   4.526   7.170
 3512SOL    HW211978   0.527   4.390   7.234
 3513SOL     OW11979   1.608   4.505   7.281
 3513SOL    HW111980   1.520   4.543   7.279
 3513SOL    HW211981   1.656   4.552   7.212
 3514SOL     OW11982   0.981   3.866   7.301
 3514SOL    HW111983   1.052   3.927   7.320
 3514SOL    HW211984   1.023   3.780   7.298
 3515SOL     OW11985   0.512   3.778   7.305
 3515SOL    HW111986   0.464   3.712   7.255
 3515SOL    HW211987   0.448   3.847   7.322
 3516SOL     OW11988   0.597   4.596   6.618
 3516SOL    HW111989   0.629   4.686   6.622
 3516SOL    HW211990   0.537   4.588   6.692
 3517SOL     OW11991   1.338   4.588   6.554
 3517SOL    HW111992   1.244   4.596   6.570
 3517SOL    HW211993   1.369   4.526   6.620
 3518SOL     OW11994   1.210   4.251   5.859
 3518SOL    HW111995   1.216   4.173   5.914
 3518SOL    HW211996   1.157   4.312   5.911
 3519SOL     OW11997   0.036   5.032   6.857
 3519SOL    HW111998   0.063   4.974   6.928
 3519SOL    HW211999   0.054   5.120   6.889
 3520SOL     OW12000   0.728   4.353   6.645
 3520SOL    HW112001   0.802   4.346   6.585
 3520SOL    HW212002   0.693   4.440   6.630
 3521SOL     OW12003   1.746   4.678   7.456
 3521SOL    HW112004   1.704   4.614   7.399
 3521SOL    HW212005   1.679   4.704   7.518
 3522SOL     OW12006   0.262   3.784   6.195
 3522SOL    HW112007   0.270   3.874   6.226
 3522SOL    HW212008   0.352   3.750   6.197
 3523SOL     OW12009   1.577   4.075   5.928
 3523SOL    HW112010   1.623   4.012   5.985
 3523SOL    HW212011   1.576   4.156   5.979
 3524SOL     OW12012   1.030   4.480   6.546
 3524SOL    HW112013   1.019   4.489   6.640
 3524SOL    HW212014   1.006   4.389   6.528
 3525SOL     OW12015   0.956   5.271   7.290
 3525SOL    HW112016   0.952   5.320   7.208
 3525SOL    HW212017   1.026   5.207   7.276
 3526SOL     OW12018   1.899   5.191   7.159
 3526SOL    HW112019   1.816   5.225   7.192
 3526SOL    HW212020   1.965   5.231   7.215
 3527SOL     OW12021   1.295   4.548   5.619
 3527SOL    HW112022   1.330   4.460   5.610
 3527SOL    HW212023   1.323   4.593   5.539
 3528SOL     OW12024   1.035   5.074   6.434
 3528SOL    HW112025   1.060   4.996   6.384
 3528SOL    HW212026   1.102   5.139   6.413
 3529SOL     OW12027   0.320   4.533   6.521
 3529SOL    HW112028   0.414   4.552   6.518
 3529SOL    HW212029   0.315   4.444   6.554
 3530SOL     OW12030   0.348   4.248   6.608
 3530SOL    HW112031   0.308   4.163   6.588
 3530SOL    HW212032   0.422   4.254   6.548
 3531SOL     OW12033   1.136   4.114   7.267
 3531SOL    HW112034   1.092   4.159   7.340
 3531SOL    HW212035   1.228   4.139   7.277
 3532SOL     OW12036   1.145   3.978   7.040
 3532SOL    HW112037   1.142   4.014   7.128
 3532SOL    HW212038   1.237   3.989   7.013
 3533SOL     OW12039   7.973   5.035   5.748
 3533SOL    HW112040   7.888   5.055   5.786
 3533SOL    HW212041   7.989   4.943   5.772
 3534SOL     OW12042   0.090   5.445   6.505
 3534SOL    HW112043   0.104   5.397   6.423
 3534SOL    HW212044   0.161   5.509   6.507
 3535SOL     OW12045   0.492   5.309   6.491
 3535SOL    HW112046   0.565   5.370   6.501
 3535SOL    HW212047   0.521   5.247   6.423
 3536SOL     OW12048   0.976   4.484   6.814
 3536SOL    HW112049   1.024   4.449   6.888
 3536SOL    HW212050   0.885   4.489   6.844
 3537SOL     OW12051   0.090   4.213   6.712
 3537SOL    HW112052   0.162   4.268   6.683
 3537SOL    HW212053   0.071   4.243   6.801
 3538SOL     OW12054   0.186   4.258   7.298
 3538SOL    HW112055   0.275   4.229   7.279
 3538SOL    HW212056   0.172   4.334   7.242
 3539SOL     OW12057   1.377   4.650   7.241
 3539SOL    HW112058   1.403   4.742   7.242
 3539SOL    HW212059   1.382   4.624   7.149
 3540SOL     OW12060   0.803   4.280   5.945
 3540SOL    HW112061   0.839   4.211   5.888
 3540SOL    HW212062   0.708   4.270   5.937
 3541SOL     OW12063   1.649   4.317   6.754
 3541SOL    HW112064   1.645   4.268   6.836
 3541SOL    HW212065   1.739   4.307   6.724
 3542SOL     OW12066   0.319   5.229   7.379
 3542SOL    HW112067   0.291   5.319   7.396
 3542SOL    HW212068   0.252   5.194   7.320
 3543SOL     OW12069   0.774   4.152   6.825
 3543SOL    HW112070   0.712   4.082   6.805
 3543SOL    HW212071   0.753   4.222   6.762
 3544SOL     OW12072   0.891   5.414   7.056
 3544SOL    HW112073   0.809   5.435   7.010
 3544SOL    HW212074   0.944   5.493   7.045
 3545SOL     OW12075   0.496   4.299   5.798
 3545SOL    HW112076   0.477   4.304   5.704
 3545SOL    HW212077   0.412   4.276   5.838
 3546SOL     OW12078   0.145   4.861   7.047
 3546SOL    HW112079   0.134   4.813   7.129
 3546SOL    HW212080   0.163   4.794   6.982
 3547SOL     OW12081   1.311   4.759   6.798
 3547SOL    HW112082   1.374   4.762   6.727
 3547SOL    HW212083   1.233   4.803   6.763
 3548SOL     OW12084   1.302   4.572   5.900
 3548SOL    HW112085   1.218   4.538   5.932
 3548SOL    HW212086   1.294   4.571   5.805
 3549SOL     OW12087   1.774   5.484   6.714
 3549SOL    HW112088   1.840   5.508   6.649
 3549SOL    HW212089   1.770   5.389   6.709
 3550SOL     OW12090   1.227   5.433   6.650
 3550SOL    HW112091   1.310   5.475   6.628
 3550SOL    HW212092   1.252   5.358   6.704
 3551SOL     OW12093   0.067   4.920   6.611
 3551SOL    HW112094   0.057   4.960   6.698
 3551SOL    HW212095  -0.011   4.948   6.563
 3552SOL     OW12096   0.684   5.379   7.327
 3552SOL    HW112097   0.639   5.445   7.275
 3552SOL    HW212098   0.775   5.384   7.299
 3553SOL     OW12099   1.695   3.870   6.063
 3553SOL    HW112100   1.782   3.870   6.024
 3553SOL    HW212101   1.692   3.789   6.115
 3554SOL     OW12102   1.387   5.295   6.067
 3554SOL    HW112103   1.451   5.331   6.006
 3554SOL    HW212104   1.338   5.371   6.099
 3555SOL     OW12105   0.175   5.461   7.448
 3555SOL    HW112106   0.114   5.399   7.488
 3555SOL    HW212107   0.153   5.545   7.487
 3556SOL     OW12108   1.345   4.611   6.210
 3556SOL    HW112109   1.350   4.575   6.122
 3556SOL    HW212110   1.345   4.706   6.198
 3557SOL     OW12111   0.803   5.011   7.008
 3557SOL    HW112112   0.779   5.036   7.097
 3557SOL    HW212113   0.742   5.060   6.952
 3558SOL     OW12114   0.664   5.344   5.747
 3558SOL    HW112115   0.664   5.354   5.652
 3558SOL    HW212116   0.617   5.262   5.763
 3559SOL     OW12117   1.568   5.478   6.895
 3559SOL    HW112118   1.647   5.489   6.842
 3559SOL    HW212119   1.573   5.549   6.959
 3560SOL     OW12120   1.828   3.887   6.557
 3560SOL    HW112121   1.870   3.806   6.529
 3560SOL    HW212122   1.744   3.888   6.511
 3561SOL     OW12123   0.274   4.045   6.294
 3561SOL    HW112124   0.183   4.060   6.268
 3561SOL    HW212125   0.273   4.049   6.389
 3562SOL     OW12126   1.210   5.320   5.605
 3562SOL    HW112127   1.201   5.232   5.642
 3562SOL    HW212128   1.137   5.328   5.544
 3563SOL     OW12129   0.829   4.740   6.955
 3563SOL    HW112130   0.863   4.744   6.866
 3563SOL    HW212131   0.817   4.832   6.980
 3564SOL     OW12132   0.927   4.646   5.896
 3564SOL    HW112133   0.978   4.677   5.821
 3564SOL    HW212134   0.974   4.568   5.926
 3565SOL     OW12135   1.490   5.353   5.632
 3565SOL    HW112136   1.397   5.343   5.613
 3565SOL    HW212137   1.532   5.358   5.546
 3566SOL     OW12138   0.366   5.018   7.081
 3566SOL    HW112139   0.363   5.092   7.019
 3566SOL    HW212140   0.289   4.966   7.060
 3567SOL     OW12141   1.598   5.000   6.857
 3567SOL    HW112142   1.675   4.991   6.913
 3567SOL    HW212143   1.550   5.074   6.895
 3568SOL     OW12144   1.079   4.833   6.311
 3568SOL    HW112145   1.008   4.783   6.352
 3568SOL    HW212146   1.073   4.811   6.218
 3569SOL     OW12147   1.035   3.963   6.545
 3569SOL    HW112148   1.030   3.916   6.461
 3569SOL    HW212149   1.021   3.895   6.611
 3570SOL     OW12150   0.594   5.212   6.091
 3570SOL    HW112151   0.587   5.174   6.003
 3570SOL    HW212152   0.503   5.222   6.120
 3571SOL     OW12153   1.730   4.129   6.966
 3571SOL    HW112154   1.808   4.184   6.972
 3571SOL    HW212155   1.757   4.054   6.913
 3572SOL     OW12156   0.226   5.004   5.900
 3572SOL    HW112157   0.163   5.074   5.883
 3572SOL    HW212158   0.311   5.044   5.883
 3573SOL     OW12159   0.109   4.742   7.300
 3573SOL    HW112160   0.031   4.797   7.301
 3573SOL    HW212161   0.172   4.787   7.356
 3574SOL     OW12162   0.681   3.931   7.087
 3574SOL    HW112163   0.765   3.914   7.044
 3574SOL    HW212164   0.704   3.944   7.179
 3575SOL     OW12165   0.102   4.077   5.616
 3575SOL    HW112166   0.031   4.116   5.668
 3575SOL    HW212167   0.117   4.140   5.545
 3576SOL     OW12168   1.417   4.576   6.977
 3576SOL    HW112169   1.371   4.640   6.922
 3576SOL    HW212170   1.509   4.585   6.951
 3577SOL     OW12171   0.087   3.965   5.951
 3577SOL    HW112172   0.038   3.950   5.871
 3577SOL    HW212173   0.168   3.915   5.939
 3578SOL     OW12174   1.174   5.061   5.706
 3578SOL    HW112175   1.080   5.042   5.704
 3578SOL    HW212176   1.198   5.058   5.799
 3579SOL     OW12177   0.624   4.568   7.028
 3579SOL    HW112178   0.682   4.642   7.010
 3579SOL    HW212179   0.681   4.492   7.028
 3580SOL     OW12180   1.483   5.512   6.563
 3580SOL    HW112181   1.509   5.587   6.509
 3580SOL    HW212182   1.559   5.496   6.619
 3581SOL     OW12183   0.705   4.292   7.288
 3581SOL    HW112184   0.759   4.351   7.341
 3581SOL    HW212185   0.723   4.205   7.323
 3582SOL     OW12186   1.466   4.908   7.211
 3582SOL    HW112187   1.457   4.935   7.303
 3582SOL    HW212188   1.554   4.935   7.186
 3583SOL     OW12189   0.368   5.453   7.173
 3583SOL    HW112190   0.281   5.481   7.144
 3583SOL    HW212191   0.367   5.358   7.163
 3584SOL     OW12192   1.656   4.606   6.836
 3584SOL    HW112193   1.679   4.523   6.796
 3584SOL    HW212194   1.664   4.670   6.765
 3585SOL     OW12195   1.229   4.044   6.047
 3585SOL    HW112196   1.286   3.967   6.047
 3585SOL    HW212197   1.254   4.093   6.126
 3586SOL     OW12198   0.608   4.452   6.265
 3586SOL    HW112199   0.641   4.542   6.258
 3586SOL    HW212200   0.540   4.446   6.198
 3587SOL     OW12201   1.748   4.100   7.249
 3587SOL    HW112202   1.745   4.114   7.154
 3587SOL    HW212203   1.685   4.031   7.266
 3588SOL     OW12204   1.714   4.671   7.101
 3588SOL    HW112205   1.724   4.765   7.117
 3588SOL    HW212206   1.716   4.663   7.006
 3589SOL     OW12207   0.888   5.094   5.621
 3589SOL    HW112208   0.861   5.075   5.710
 3589SOL    HW212209   0.863   5.185   5.607
 3590SOL     OW12210   0.682   5.504   6.513
 3590SOL    HW112211   0.643   5.588   6.488
 3590SOL    HW212212   0.717   5.519   6.601
 3591SOL     OW12213   0.880   4.696   6.441
 3591SOL    HW112214   0.924   4.619   6.479
 3591SOL    HW212215   0.836   4.737   6.516
 3592SOL     OW12216   1.076   4.707   5.678
 3592SOL    HW112217   1.053   4.761   5.603
 3592SOL    HW212218   1.151   4.655   5.648
 3593SOL     OW12219   1.847   5.237   6.393
 3593SOL    HW112220   1.769   5.282   6.360
 3593SOL    HW212221   1.827   5.221   6.486
 3594SOL     OW12222   0.212   4.949   7.452
 3594SOL    HW112223   0.147   5.006   7.410
 3594SOL    HW212224   0.233   4.993   7.533
 3595SOL     OW12225   0.137   4.994   6.226
 3595SOL    HW112226   0.063   4.949   6.268
 3595SOL    HW212227   0.193   4.924   6.194
 3596SOL     OW12228   0.673   5.118   7.224
 3596SOL    HW112229   0.586   5.088   7.250
 3596SOL    HW212230   0.680   5.207   7.257
 3597SOL     OW12231   1.800   3.905   6.832
 3597SOL    HW112232   1.887   3.875   6.860
 3597SOL    HW212233   1.805   3.903   6.736
 3598SOL     OW12234   0.464   4.160   6.115
 3598SOL    HW112235   0.484   4.093   6.050
 3598SOL    HW212236   0.406   4.118   6.178
 3599SOL     OW12237   1.723   5.212   6.647
 3599SOL    HW112238   1.630   5.193   6.635
 3599SOL    HW212239   1.746   5.167   6.729
 3600SOL     OW12240   0.360   4.271   6.882
 3600SOL    HW112241   0.400   4.195   6.922
 3600SOL    HW212242   0.368   4.255   6.788
 3601SOL     OW12243   0.812   5.315   6.234
 3601SOL    HW112244   0.824   5.407   6.209
 3601SOL    HW212245   0.742   5.284   6.177
 3602SOL     OW12246   1.446   3.945   6.716
 3602SOL    HW112247   1.500   3.867   6.727
 3602SOL    HW212248   1.436   3.980   6.804
 3603SOL     OW12249   1.005   3.736   6.720
 3603SOL    HW112250   0.947   3.677   6.671
 3603SOL    HW212251   1.091   3.695   6.712
 3604SOL     OW12252   0.816   5.034   5.868
 3604SOL    HW112253   0.720   5.036   5.863
 3604SOL    HW212254   0.835   5.043   5.961
 3605SOL     OW12255   0.647   5.226   6.859
 3605SOL    HW112256   0.637   5.318   6.882
 3605SOL    HW212257   0.726   5.223   6.805
 3606SOL     OW12258   1.374   3.782   5.752
 3606SOL    HW112259   1.397   3.717   5.686
 3606SOL    HW212260   1.286   3.756   5.782
 3607SOL     OW12261   1.290   4.193   6.274
 3607SOL    HW112262   1.232   4.269   6.276
 3607SOL    HW212263   1.288   4.159   6.364
 3608SOL     OW12264   1.568   3.906   6.464
 3608SOL    HW112265   1.524   3.939   6.543
 3608SOL    HW212266   1.576   3.982   6.407
 3609SOL     OW12267   0.042   4.781   5.866
 3609SOL    HW112268   0.120   4.833   5.886
 3609SOL    HW212269  -0.008   4.781   5.948
 3610SOL     OW12270   0.890   5.383   5.915
 3610SOL    HW112271   0.813   5.367   5.861
 3610SOL    HW212272   0.863   5.451   5.976
 3611SOL     OW12273   0.248   4.442   7.516
 3611SOL    HW112274   0.233   4.387   7.593
 3611SOL    HW212275   0.205   4.394   7.444
 3612SOL     OW12276   0.229   4.003   8.440
 3612SOL    HW112277   0.252   3.963   8.524
 3612SOL    HW212278   0.141   3.971   8.422
 3613SOL     OW12279   8.008   4.082   8.072
 3613SOL    HW112280   7.913   4.083   8.083
 3613SOL    HW212281   8.022   4.039   7.987
 3614SOL     OW12282   0.551   5.032   8.641
 3614SOL    HW112283   0.466   5.049   8.601
 3614SOL    HW212284   0.581   5.117   8.672
 3615SOL     OW12285   1.579   5.237   8.156
 3615SOL    HW112286   1.538   5.240   8.242
 3615SOL    HW212287   1.507   5.244   8.094
 3616SOL     OW12288   1.146   4.428   8.147
 3616SOL    HW112289   1.195   4.509   8.134
 3616SOL    HW212290   1.100   4.440   8.230
 3617SOL     OW12291   1.768   4.330   7.686
 3617SOL    HW112292   1.751   4.332   7.592
 3617SOL    HW212293   1.752   4.239   7.711
 3618SOL     OW12294   0.693   4.859   8.496
 3618SOL    HW112295   0.640   4.912   8.557
 3618SOL    HW212296   0.752   4.922   8.454
 3619SOL     OW12297   0.860   4.504   9.263
 3619SOL    HW112298   0.846   4.582   9.316
 3619SOL    HW212299   0.892   4.537   9.179
 3620SOL     OW12300   0.701   4.734   8.095
 3620SOL    HW112301   0.758   4.719   8.170
 3620SOL    HW212302   0.631   4.789   8.128
 3621SOL     OW12303   0.682   4.849   9.271
 3621SOL    HW112304   0.713   4.935   9.242
 3621SOL    HW212305   0.592   4.844   9.241
 3622SOL     OW12306   0.332   5.150   8.510
 3622SOL    HW112307   0.279   5.103   8.445
 3622SOL    HW212308   0.386   5.209   8.458
 3623SOL     OW12309   1.454   5.223   8.809
 3623SOL    HW112310   1.512   5.299   8.808
 3623SOL    HW212311   1.384   5.247   8.869
 3624SOL     OW12312   0.439   4.123   8.967
 3624SOL    HW112313   0.517   4.068   8.954
 3624SOL    HW212314   0.366   4.062   8.954
 3625SOL     OW12315   1.641   4.162   8.173
 3625SOL    HW112316   1.576   4.195   8.112
 3625SOL    HW212317   1.643   4.228   8.243
 3626SOL     OW12318   0.237   5.428   7.911
 3626SOL    HW112319   0.245   5.508   7.963
 3626SOL    HW212320   0.293   5.443   7.835
 3627SOL     OW12321   1.140   5.059   9.137
 3627SOL    HW112322   1.179   5.049   9.224
 3627SOL    HW212323   1.091   4.978   9.123
 3628SOL     OW12324   0.238   5.158   7.954
 3628SOL    HW112325   0.250   5.252   7.965
 3628SOL    HW212326   0.216   5.126   8.041
 3629SOL     OW12327   0.286   4.801   8.367
 3629SOL    HW112328   0.284   4.706   8.382
 3629SOL    HW212329   0.205   4.833   8.407
 3630SOL     OW12330   0.604   5.526   8.844
 3630SOL    HW112331   0.532   5.503   8.902
 3630SOL    HW212332   0.639   5.607   8.881
 3631SOL     OW12333   0.554   4.707   7.566
 3631SOL    HW112334   0.601   4.761   7.503
 3631SOL    HW212335   0.592   4.730   7.651
 3632SOL     OW12336   1.608   3.842   8.920
 3632SOL    HW112337   1.622   3.915   8.859
 3632SOL    HW212338   1.563   3.882   8.995
 3633SOL     OW12339   0.067   4.351   7.990
 3633SOL    HW112340   0.063   4.266   8.033
 3633SOL    HW212341   0.092   4.412   8.060
 3634SOL     OW12342   1.846   5.475   7.780
 3634SOL    HW112343   1.920   5.453   7.836
 3634SOL    HW212344   1.861   5.566   7.755
 3635SOL     OW12345   7.999   5.309   7.598
 3635SOL    HW112346   7.995   5.214   7.588
 3635SOL    HW212347   7.990   5.324   7.692
 3636SOL     OW12348   1.683   4.632   8.084
 3636SOL    HW112349   1.769   4.595   8.061
 3636SOL    HW212350   1.663   4.692   8.013
 3637SOL     OW12351   1.648   4.830   7.886
 3637SOL    HW112352   1.733   4.834   7.842
 3637SOL    HW212353   1.657   4.891   7.959
 3638SOL     OW12354   0.144   4.484   9.025
 3638SOL    HW112355   0.239   4.488   9.015
 3638SOL    HW212356   0.122   4.562   9.076
 3639SOL     OW12357   0.600   5.106   8.194
 3639SOL    HW112358   0.560   5.019   8.196
 3639SOL    HW212359   0.594   5.134   8.103
 3640SOL     OW12360   1.275   4.944   8.875
 3640SOL    HW112361   1.313   4.889   8.806
 3640SOL    HW212362   1.343   4.949   8.942
 3641SOL     OW12363   0.809   3.764   8.026
 3641SOL    HW112364   0.856   3.827   7.972
 3641SOL    HW212365   0.720   3.763   7.991
 3642SOL     OW12366   0.189   4.637   8.709
 3642SOL    HW112367   0.283   4.620   8.701
 3642SOL    HW212368   0.156   4.627   8.619
 3643SOL     OW12369   1.526   4.730   7.654
 3643SOL    HW112370   1.458   4.672   7.688
 3643SOL    HW212371   1.570   4.764   7.731
 3644SOL     OW12372   1.185   5.544   9.093
 3644SOL    HW112373   1.191   5.613   9.028
 3644SOL    HW212374   1.210   5.464   9.045
 3645SOL     OW12375   0.343   3.973   9.296
 3645SOL    HW112376   0.394   4.053   9.283
 3645SOL    HW212377   0.252   4.002   9.297
 3646SOL     OW12378   1.480   5.127   8.411
 3646SOL    HW112379   1.406   5.146   8.468
 3646SOL    HW212380   1.461   5.041   8.374
 3647SOL     OW12381   1.648   5.486   8.027
 3647SOL    HW112382   1.636   5.454   7.938
 3647SOL    HW212383   1.640   5.409   8.082
 3648SOL     OW12384   0.601   4.454   7.715
 3648SOL    HW112385   0.669   4.520   7.725
 3648SOL    HW212386   0.551   4.458   7.797
 3649SOL     OW12387   1.276   4.091   8.375
 3649SOL    HW112388   1.189   4.053   8.385
 3649SOL    HW212389   1.332   4.040   8.434
 3650SOL     OW12390   1.581   5.393   7.765
 3650SOL    HW112391   1.673   5.416   7.755
 3650SOL    HW212392   1.549   5.386   7.675
 3651SOL     OW12393   0.779   4.352   8.879
 3651SOL    HW112394   0.761   4.324   8.969
 3651SOL    HW212395   0.739   4.285   8.824
 3652SOL     OW12396   1.419   4.235   9.114
 3652SOL    HW112397   1.412   4.256   9.208
 3652SOL    HW212398   1.446   4.144   9.112
 3653SOL     OW12399   0.951   4.603   9.027
 3653SOL    HW112400   1.000   4.529   8.991
 3653SOL    HW212401   0.908   4.643   8.951
 3654SOL     OW12402   0.993   4.149   8.686
 3654SOL    HW112403   0.916   4.106   8.724
 3654SOL    HW212404   1.002   4.110   8.599
 3655SOL     OW12405   1.045   4.460   7.891
 3655SOL    HW112406   1.068   4.439   7.981
 3655SOL    HW212407   1.055   4.378   7.843
 3656SOL     OW12408   0.110   4.529   8.208
 3656SOL    HW112409   0.192   4.538   8.257
 3656SOL    HW212410   0.064   4.611   8.225
 3657SOL     OW12411   0.147   5.578   9.001
 3657SOL    HW112412   0.103   5.572   9.086
 3657SOL    HW212413   0.095   5.522   8.943
 3658SOL     OW12414   0.897   4.058   7.626
 3658SOL    HW112415   0.951   4.127   7.586
 3658SOL    HW212416   0.951   3.979   7.621
 3659SOL     OW12417   1.693   4.308   9.274
 3659SOL    HW112418   1.661   4.384   9.224
 3659SOL    HW212419   1.713   4.243   9.208
 3660SOL     OW12420   1.374   4.864   7.974
 3660SOL    HW112421   1.458   4.854   7.929
 3660SOL    HW212422   1.328   4.931   7.924
 3661SOL     OW12423   0.551   3.887   8.336
 3661SOL    HW112424   0.558   3.934   8.419
 3661SOL    HW212425   0.564   3.955   8.270
 3662SOL     OW12426   0.999   5.170   7.916
 3662SOL    HW112427   0.948   5.238   7.873
 3662SOL    HW212428   1.012   5.203   8.005
 3663SOL     OW12429   0.364   5.535   8.310
 3663SOL    HW112430   0.407   5.451   8.324
 3663SOL    HW212431   0.427   5.601   8.340
 3664SOL     OW12432   1.799   4.762   8.333
 3664SOL    HW112433   1.749   4.768   8.252
 3664SOL    HW212434   1.733   4.770   8.402
 3665SOL     OW12435   1.230   5.269   8.965
 3665SOL    HW112436   1.210   5.189   9.015
 3665SOL    HW212437   1.147   5.293   8.924
 3666SOL     OW12438   0.308   4.680   7.708
 3666SOL    HW112439   0.382   4.711   7.656
 3666SOL    HW212440   0.305   4.586   7.693
 3667SOL     OW12441   1.470   4.497   8.192
 3667SOL    HW112442   1.487   4.434   8.262
 3667SOL    HW212443   1.556   4.533   8.171
 3668SOL     OW12444   0.421   4.887   9.196
 3668SOL    HW112445   0.435   4.929   9.111
 3668SOL    HW212446   0.350   4.937   9.236
 3669SOL     OW12447   0.194   3.997   8.948
 3669SOL    HW112448   0.118   4.054   8.939
 3669SOL    HW212449   0.159   3.916   8.985
 3670SOL     OW12450   1.629   5.102   7.540
 3670SOL    HW112451   1.629   5.165   7.468
 3670SOL    HW212452   1.558   5.041   7.519
 3671SOL     OW12453   0.459   5.492   7.724
 3671SOL    HW112454   0.500   5.535   7.798
 3671SOL    HW212455   0.528   5.436   7.687
 3672SOL     OW12456   1.404   3.821   7.887
 3672SOL    HW112457   1.387   3.803   7.795
 3672SOL    HW212458   1.495   3.795   7.900
 3673SOL     OW12459   0.255   5.513   8.693
 3673SOL    HW112460   0.319   5.456   8.735
 3673SOL    HW212461   0.171   5.471   8.712
 3674SOL     OW12462   0.905   5.427   8.352
 3674SOL    HW112463   0.993   5.399   8.376
 3674SOL    HW212464   0.882   5.372   8.277
 3675SOL     OW12465   0.410   4.438   7.935
 3675SOL    HW112466   0.430   4.347   7.960
 3675SOL    HW212467   0.322   4.433   7.897
 3676SOL     OW12468   1.498   3.963   9.154
 3676SOL    HW112469   1.495   3.968   9.249
 3676SOL    HW212470   1.413   3.927   9.129
 3677SOL     OW12471   0.624   3.737   7.556
 3677SOL    HW112472   0.708   3.782   7.571
 3677SOL    HW212473   0.595   3.771   7.471
 3678SOL     OW12474   0.774   3.985   9.230
 3678SOL    HW112475   0.850   3.930   9.212
 3678SOL    HW212476   0.800   4.039   9.304
 3679SOL     OW12477   0.877   5.238   8.638
 3679SOL    HW112478   0.865   5.202   8.550
 3679SOL    HW212479   0.955   5.194   8.671
 3680SOL     OW12480   1.337   4.331   8.876
 3680SOL    HW112481   1.375   4.297   8.957
 3680SOL    HW212482   1.379   4.416   8.864
 3681SOL     OW12483   0.811   5.101   8.391
 3681SOL    HW112484   0.900   5.093   8.356
 3681SOL    HW212485   0.756   5.112   8.314
 3682SOL     OW12486   0.911   4.213   8.351
 3682SOL    HW112487   0.894   4.210   8.256
 3682SOL    HW212488   0.950   4.128   8.371
 3683SOL     OW12489   0.543   3.803   7.927
 3683SOL    HW112490   0.465   3.795   7.982
 3683SOL    HW212491   0.524   3.875   7.867
 3684SOL     OW12492   1.422   4.924   7.483
 3684SOL    HW112493   1.451   4.852   7.539
 3684SOL    HW212494   1.341   4.955   7.524
 3685SOL     OW12495   0.297   3.758   7.614
 3685SOL    HW112496   0.326   3.844   7.645
 3685SOL    HW212497   0.360   3.696   7.652
 3686SOL     OW12498   0.943   3.980   7.915
 3686SOL    HW112499   0.919   4.008   7.827
 3686SOL    HW212500   1.039   3.984   7.917
 3687SOL     OW12501   1.077   4.385   8.919
 3687SOL    HW112502   1.032   4.309   8.881
 3687SOL    HW212503   1.170   4.367   8.905
 3688SOL     OW12504   1.211   5.304   8.240
 3688SOL    HW112505   1.233   5.366   8.170
 3688SOL    HW212506   1.264   5.332   8.314
 3689SOL     OW12507   0.474   4.863   8.180
 3689SOL    HW112508   0.409   4.847   8.248
 3689SOL    HW212509   0.426   4.854   8.098
 3690SOL     OW12510   1.267   5.534   8.075
 3690SOL    HW112511   1.296   5.578   7.995
 3690SOL    HW212512   1.306   5.584   8.146
 3691SOL     OW12513   1.022   4.260   7.467
 3691SOL    HW112514   0.989   4.350   7.470
 3691SOL    HW212515   1.112   4.267   7.500
 3692SOL     OW12516   0.102   4.293   8.837
 3692SOL    HW112517   0.192   4.282   8.807
 3692SOL    HW212518   0.107   4.362   8.902
 3693SOL     OW12519   0.570   3.952   8.609
 3693SOL    HW112520   0.615   3.871   8.630
 3693SOL    HW212521   0.481   3.940   8.641
 3694SOL     OW12522   0.855   4.185   8.085
 3694SOL    HW112523   0.829   4.235   8.008
 3694SOL    HW212524   0.887   4.102   8.049
 3695SOL     OW12525   1.009   3.788   8.212
 3695SOL    HW112526   0.944   3.787   8.142
 3695SOL    HW212527   0.996   3.704   8.258
 3696SOL     OW12528   1.454   4.878   8.294
 3696SOL    HW112529   1.387   4.826   8.250
 3696SOL    HW212530   1.515   4.902   8.224
 3697SOL     OW12531   1.471   4.325   8.414
 3697SOL    HW112532   1.410   4.251   8.419
 3697SOL    HW212533   1.527   4.315   8.492
 3698SOL     OW12534   1.869   4.524   7.842
 3698SOL    HW112535   1.962   4.517   7.820
 3698SOL    HW212536   1.825   4.465   7.781
 3699SOL     OW12537   0.481   5.134   7.580
 3699SOL    HW112538   0.410   5.098   7.633
 3699SOL    HW212539   0.438   5.159   7.497
 3700SOL     OW12540   1.672   4.974   8.119
 3700SOL    HW112541   1.768   4.971   8.122
 3700SOL    HW212542   1.651   5.067   8.128
 3701SOL     OW12543   1.751   4.992   9.078
 3701SOL    HW112544   1.820   4.926   9.081
 3701SOL    HW212545   1.773   5.046   9.002
 3702SOL     OW12546   1.064   5.068   8.763
 3702SOL    HW112547   0.986   5.049   8.816
 3702SOL    HW212548   1.136   5.029   8.813
 3703SOL     OW12549   1.614   5.343   9.091
 3703SOL    HW112550   1.583   5.384   9.011
 3703SOL    HW212551   1.709   5.335   9.079
 3704SOL     OW12552   1.090   4.902   8.544
 3704SOL    HW112553   1.076   4.965   8.615
 3704SOL    HW212554   1.092   4.955   8.464
 3705SOL     OW12555   1.604   4.804   8.527
 3705SOL    HW112556   1.588   4.862   8.602
 3705SOL    HW212557   1.540   4.831   8.461
 3706SOL     OW12558   0.920   3.835   8.836
 3706SOL    HW112559   0.946   3.806   8.749
 3706SOL    HW212560   1.002   3.863   8.877
 3707SOL     OW12561   0.983   4.827   9.181
 3707SOL    HW112562   0.892   4.857   9.185
 3707SOL    HW212563   0.983   4.754   9.119
 3708SOL     OW12564   0.676   4.755   7.814
 3708SOL    HW112565   0.680   4.756   7.910
 3708SOL    HW212566   0.759   4.715   7.787
 3709SOL     OW12567   0.460   4.546   8.664
 3709SOL    HW112568   0.513   4.564   8.742
 3709SOL    HW212569   0.421   4.460   8.681
 3710SOL     OW12570   1.283   4.134   8.693
 3710SOL    HW112571   1.311   4.201   8.755
 3710SOL    HW212572   1.189   4.126   8.708
 3711SOL     OW12573   0.327   4.845   7.946
 3711SOL    HW112574   0.340   4.923   7.893
 3711SOL    HW212575   0.337   4.772   7.885
 3712SOL     OW12576   0.556   4.267   8.324
 3712SOL    HW112577   0.567   4.274   8.229
 3712SOL    HW212578   0.636   4.305   8.360
 3713SOL     OW12579   1.245   5.074   7.840
 3713SOL    HW112580   1.303   5.145   7.867
 3713SOL    HW212581   1.158   5.104   7.868
 3714SOL     OW12582   1.286   5.176   8.602
 3714SOL    HW112583   1.354   5.191   8.668
 3714SOL    HW212584   1.212   5.140   8.651
 3715SOL     OW12585   1.578   4.355   7.935
 3715SOL    HW112586   1.517   4.416   7.977
 3715SOL    HW212587   1.604   4.399   7.854
 3716SOL     OW12588   0.360   5.227   8.777
 3716SOL    HW112589   0.334   5.206   8.688
 3716SOL    HW212590   0.453   5.251   8.770
 3717SOL     OW12591   0.425   4.457   9.041
 3717SOL    HW112592   0.487   4.506   8.987
 3717SOL    HW212593   0.467   4.373   9.056
 3718SOL     OW12594   1.612   4.528   9.138
 3718SOL    HW112595   1.523   4.557   9.117
 3718SOL    HW212596   1.665   4.563   9.067
 3719SOL     OW12597   1.006   3.837   9.258
 3719SOL    HW112598   1.056   3.907   9.216
 3719SOL    HW212599   1.034   3.757   9.214
 3720SOL     OW12600   0.490   3.752   9.223
 3720SOL    HW112601   0.446   3.711   9.148
 3720SOL    HW212602   0.443   3.834   9.236
 3721SOL     OW12603   1.334   4.563   8.472
 3721SOL    HW112604   1.318   4.588   8.381
 3721SOL    HW212605   1.386   4.483   8.466
 3722SOL     OW12606   1.126   4.234   7.764
 3722SOL    HW112607   1.155   4.160   7.816
 3722SOL    HW212608   1.194   4.245   7.698
 3723SOL     OW12609   0.315   3.910   8.696
 3723SOL    HW112610   0.257   3.949   8.762
 3723SOL    HW212611   0.291   3.818   8.693
 3724SOL     OW12612   0.006   5.042   8.728
 3724SOL    HW112613   0.057   4.993   8.793
 3724SOL    HW212614   0.027   5.134   8.744
 3725SOL     OW12615   0.755   4.386   8.496
 3725SOL    HW112616   0.808   4.325   8.444
 3725SOL    HW212617   0.818   4.428   8.555
 3726SOL     OW12618   1.739   4.677   9.327
 3726SOL    HW112619   1.697   4.624   9.260
 3726SOL    HW212620   1.667   4.707   9.383
 3727SOL     OW12621   0.309   3.789   8.071
 3727SOL    HW112622   0.289   3.880   8.090
 3727SOL    HW212623   0.318   3.748   8.157
 3728SOL     OW12624   1.675   4.113   7.867
 3728SOL    HW112625   1.616   4.060   7.814
 3728SOL    HW212626   1.627   4.193   7.885
 3729SOL     OW12627   1.022   4.465   8.388
 3729SOL    HW112628   1.048   4.482   8.479
 3729SOL    HW212629   1.003   4.371   8.386
 3730SOL     OW12630   1.009   5.299   9.186
 3730SOL    HW112631   0.970   5.351   9.116
 3730SOL    HW212632   1.029   5.215   9.145
 3731SOL     OW12633   1.865   5.259   9.070
 3731SOL    HW112634   1.876   5.286   8.979
 3731SOL    HW212635   1.954   5.253   9.104
 3732SOL     OW12636   0.344   4.624   9.246
 3732SOL    HW112637   0.393   4.706   9.238
 3732SOL    HW212638   0.388   4.564   9.186
 3733SOL     OW12639   1.522   4.002   7.582
 3733SOL    HW112640   1.459   3.933   7.604
 3733SOL    HW212641   1.470   4.082   7.578
 3734SOL     OW12642   1.284   4.558   7.486
 3734SOL    HW112643   1.313   4.467   7.492
 3734SOL    HW212644   1.323   4.590   7.405
 3735SOL     OW12645   1.068   5.064   8.309
 3735SOL    HW112646   1.079   4.993   8.246
 3735SOL    HW212647   1.127   5.133   8.278
 3736SOL     OW12648   0.345   4.523   8.363
 3736SOL    HW112649   0.408   4.509   8.293
 3736SOL    HW212650   0.339   4.438   8.407
 3737SOL     OW12651   0.338   4.246   8.471
 3737SOL    HW112652   0.300   4.160   8.452
 3737SOL    HW212653   0.417   4.250   8.418
 3738SOL     OW12654   1.129   4.105   9.214
 3738SOL    HW112655   1.130   4.193   9.175
 3738SOL    HW212656   1.158   4.047   9.143
 3739SOL     OW12657   7.976   5.033   7.654
 3739SOL    HW112658   7.883   5.045   7.677
 3739SOL    HW212659   7.989   4.938   7.655
 3740SOL     OW12660   0.080   5.460   8.357
 3740SOL    HW112661   0.106   5.429   8.444
 3740SOL    HW212662   0.160   5.501   8.322
 3741SOL     OW12663   0.509   5.302   8.362
 3741SOL    HW112664   0.586   5.312   8.418
 3741SOL    HW212665   0.537   5.240   8.294
 3742SOL     OW12666   0.945   4.489   8.676
 3742SOL    HW112667   1.034   4.506   8.708
 3742SOL    HW212668   0.903   4.442   8.748
 3743SOL     OW12669   0.076   4.291   8.565
 3743SOL    HW112670   0.166   4.267   8.544
 3743SOL    HW212671   0.069   4.279   8.660
 3744SOL     OW12672   0.212   4.245   9.152
 3744SOL    HW112673   0.273   4.204   9.091
 3744SOL    HW212674   0.180   4.322   9.105
 3745SOL     OW12675   1.365   4.660   9.110
 3745SOL    HW112676   1.387   4.752   9.100
 3745SOL    HW212677   1.363   4.626   9.020
 3746SOL     OW12678   0.791   4.262   7.823
 3746SOL    HW112679   0.829   4.202   7.760
 3746SOL    HW212680   0.735   4.320   7.771
 3747SOL     OW12681   1.639   4.316   8.630
 3747SOL    HW112682   1.632   4.256   8.703
 3747SOL    HW212683   1.728   4.301   8.596
 3748SOL     OW12684   0.276   5.263   9.148
 3748SOL    HW112685   0.242   5.337   9.199
 3748SOL    HW212686   0.291   5.194   9.213
 3749SOL     OW12687   0.665   4.192   8.696
 3749SOL    HW112688   0.635   4.107   8.663
 3749SOL    HW212689   0.684   4.243   8.617
 3750SOL     OW12690   0.957   5.397   8.911
 3750SOL    HW112691   0.908   5.363   8.836
 3750SOL    HW212692   0.943   5.492   8.907
 3751SOL     OW12693   0.488   4.269   7.548
 3751SOL    HW112694   0.544   4.305   7.616
 3751SOL    HW212695   0.444   4.194   7.589
 3752SOL     OW12696   0.126   4.842   8.885
 3752SOL    HW112697   0.150   4.808   8.971
 3752SOL    HW212698   0.148   4.771   8.824
 3753SOL     OW12699   1.288   4.746   8.666
 3753SOL    HW112700   1.316   4.684   8.599
 3753SOL    HW212701   1.223   4.802   8.623
 3754SOL     OW12702   1.310   4.582   7.762
 3754SOL    HW112703   1.235   4.541   7.806
 3754SOL    HW212704   1.296   4.565   7.669
 3755SOL     OW12705   1.793   5.457   8.620
 3755SOL    HW112706   1.843   5.495   8.549
 3755SOL    HW212707   1.756   5.377   8.583
 3756SOL     OW12708   1.204   5.435   8.521
 3756SOL    HW112709   1.267   5.507   8.531
 3756SOL    HW212710   1.252   5.358   8.551
 3757SOL     OW12711   0.052   4.911   8.488
 3757SOL    HW112712   0.040   4.959   8.570
 3757SOL    HW212713   0.017   4.969   8.421
 3758SOL     OW12714   0.705   5.430   9.232
 3758SOL    HW112715   0.649   5.482   9.174
 3758SOL    HW212716   0.711   5.345   9.188
 3759SOL     OW12717   1.770   3.846   7.993
 3759SOL    HW112718   1.809   3.828   7.908
 3759SOL    HW212719   1.730   3.764   8.020
 3760SOL     OW12720   1.392   5.291   7.940
 3760SOL    HW112721   1.456   5.318   7.874
 3760SOL    HW212722   1.347   5.372   7.964
 3761SOL     OW12723   0.172   5.462   9.295
 3761SOL    HW112724   0.092   5.432   9.338
 3761SOL    HW212725   0.210   5.525   9.356
 3762SOL     OW12726   1.279   4.675   8.139
 3762SOL    HW112727   1.351   4.612   8.149
 3762SOL    HW212728   1.308   4.733   8.069
 3763SOL     OW12729   0.812   5.008   8.878
 3763SOL    HW112730   0.789   5.042   8.964
 3763SOL    HW212731   0.745   5.042   8.820
 3764SOL     OW12732   0.653   5.336   7.606
 3764SOL    HW112733   0.674   5.362   7.516
 3764SOL    HW212734   0.601   5.256   7.597
 3765SOL     OW12735   1.612   5.442   8.833
 3765SOL    HW112736   1.671   5.446   8.757
 3765SOL    HW212737   1.595   5.533   8.855
 3766SOL     OW12738   1.845   3.895   8.411
 3766SOL    HW112739   1.876   3.807   8.392
 3766SOL    HW212740   1.757   3.899   8.374
 3767SOL     OW12741   0.263   4.045   8.168
 3767SOL    HW112742   0.174   4.065   8.141
 3767SOL    HW212743   0.257   4.031   8.263
 3768SOL     OW12744   1.220   5.322   7.484
 3768SOL    HW112745   1.196   5.231   7.501
 3768SOL    HW212746   1.154   5.353   7.422
 3769SOL     OW12747   0.829   4.738   8.821
 3769SOL    HW112748   0.880   4.732   8.740
 3769SOL    HW212749   0.824   4.832   8.839
 3770SOL     OW12750   0.891   4.623   7.739
 3770SOL    HW112751   0.950   4.650   7.669
 3770SOL    HW212752   0.944   4.567   7.795
 3771SOL     OW12753   1.481   5.394   7.501
 3771SOL    HW112754   1.392   5.360   7.491
 3771SOL    HW212755   1.528   5.361   7.425
 3772SOL     OW12756   0.350   5.006   8.956
 3772SOL    HW112757   0.369   5.090   8.915
 3772SOL    HW212758   0.274   4.972   8.909
 3773SOL     OW12759   1.553   4.971   8.750
 3773SOL    HW112760   1.647   4.983   8.757
 3773SOL    HW212761   1.516   5.057   8.770
 3774SOL     OW12762   1.041   4.811   8.176
 3774SOL    HW112763   0.994   4.782   8.098
 3774SOL    HW212764   1.126   4.767   8.171
 3775SOL     OW12765   1.022   3.966   8.422
 3775SOL    HW112766   1.021   3.919   8.338
 3775SOL    HW212767   1.020   3.897   8.488
 3776SOL     OW12768   0.600   5.195   7.942
 3776SOL    HW112769   0.655   5.140   7.886
 3776SOL    HW212770   0.572   5.267   7.886
 3777SOL     OW12771   1.742   4.112   8.836
 3777SOL    HW112772   1.814   4.175   8.828
 3777SOL    HW212773   1.765   4.042   8.775
 3778SOL     OW12774   0.245   5.056   7.709
 3778SOL    HW112775   0.151   5.061   7.693
 3778SOL    HW212776   0.257   5.099   7.793
 3779SOL     OW12777   0.097   4.706   9.178
 3779SOL    HW112778   0.075   4.789   9.220
 3779SOL    HW212779   0.183   4.683   9.214
 3780SOL     OW12780   0.678   3.921   8.957
 3780SOL    HW112781   0.761   3.904   8.912
 3780SOL    HW212782   0.704   3.945   9.046
 3781SOL     OW12783   0.084   4.068   7.457
 3781SOL    HW112784   0.023   4.100   7.523
 3781SOL    HW212785   0.107   4.145   7.405
 3782SOL     OW12786   1.422   4.592   8.851
 3782SOL    HW112787   1.369   4.648   8.794
 3782SOL    HW212788   1.509   4.592   8.811
 3783SOL     OW12789   0.080   3.958   7.833
 3783SOL    HW112790   0.046   3.929   7.748
 3783SOL    HW212791   0.173   3.974   7.818
 3784SOL     OW12792   1.180   5.045   7.570
 3784SOL    HW112793   1.085   5.035   7.571
 3784SOL    HW212794   1.205   5.055   7.662
 3785SOL     OW12795   0.619   4.569   8.882
 3785SOL    HW112796   0.678   4.644   8.872
 3785SOL    HW212797   0.678   4.493   8.884
 3786SOL     OW12798   1.497   5.471   8.358
 3786SOL    HW112799   1.553   5.529   8.305
 3786SOL    HW212800   1.469   5.525   8.432
 3787SOL     OW12801   0.714   4.298   9.139
 3787SOL    HW112802   0.756   4.365   9.193
 3787SOL    HW212803   0.739   4.215   9.182
 3788SOL     OW12804   1.473   4.912   9.076
 3788SOL    HW112805   1.488   4.928   9.169
 3788SOL    HW212806   1.559   4.919   9.036
 3789SOL     OW12807   0.394   5.468   9.004
 3789SOL    HW112808   0.308   5.508   8.994
 3789SOL    HW212809   0.376   5.379   9.035
 3790SOL     OW12810   1.656   4.593   8.707
 3790SOL    HW112811   1.657   4.509   8.662
 3790SOL    HW212812   1.648   4.658   8.638
 3791SOL     OW12813   1.216   4.027   7.921
 3791SOL    HW112814   1.280   3.957   7.907
 3791SOL    HW212815   1.253   4.081   7.990
 3792SOL     OW12816   0.536   4.521   8.166
 3792SOL    HW112817   0.607   4.575   8.131
 3792SOL    HW212818   0.489   4.490   8.088
 3793SOL     OW12819   1.740   4.093   9.111
 3793SOL    HW112820   1.745   4.106   9.016
 3793SOL    HW212821   1.665   4.035   9.123
 3794SOL     OW12822   1.765   4.650   8.953
 3794SOL    HW112823   1.815   4.732   8.944
 3794SOL    HW212824   1.735   4.631   8.864
 3795SOL     OW12825   0.866   5.094   7.493
 3795SOL    HW112826   0.821   5.149   7.558
 3795SOL    HW212827   0.888   5.153   7.422
 3796SOL     OW12828   0.829   4.655   8.337
 3796SOL    HW112829   0.891   4.582   8.339
 3796SOL    HW212830   0.883   4.733   8.348
 3797SOL     OW12831   1.045   4.682   7.525
 3797SOL    HW112832   1.041   4.752   7.461
 3797SOL    HW212833   1.133   4.645   7.515
 3798SOL     OW12834   1.842   5.277   8.286
 3798SOL    HW112835   1.765   5.272   8.230
 3798SOL    HW212836   1.813   5.245   8.371
 3799SOL     OW12837   0.212   5.027   9.310
 3799SOL    HW112838   0.118   5.018   9.329
 3799SOL    HW212839   0.250   5.053   9.394
 3800SOL     OW12840   0.141   4.974   8.138
 3800SOL    HW112841   0.064   4.921   8.154
 3800SOL    HW212842   0.197   4.920   8.082
 3801SOL     OW12843   1.809   3.899   8.684
 3801SOL    HW112844   1.810   3.804   8.690
 3801SOL    HW212845   1.822   3.917   8.591
 3802SOL     OW12846   0.443   4.184   8.013
 3802SOL    HW112847   0.447   4.134   7.932
 3802SOL    HW212848   0.386   4.132   8.070
 3803SOL     OW12849   1.721   5.212   8.526
 3803SOL    HW112850   1.635   5.180   8.496
 3803SOL    HW212851   1.747   5.150   8.593
 3804SOL     OW12852   0.358   4.292   8.742
 3804SOL    HW112853   0.415   4.236   8.794
 3804SOL    HW212854   0.367   4.259   8.652
 3805SOL     OW12855   0.812   5.325   8.114
 3805SOL    HW112856   0.826   5.382   8.039
 3805SOL    HW212857   0.749   5.260   8.084
 3806SOL     OW12858   1.430   3.955   8.553
 3806SOL    HW112859   1.429   3.868   8.594
 3806SOL    HW212860   1.386   4.011   8.616
 3807SOL     OW12861   1.004   3.733   8.582
 3807SOL    HW112862   0.958   3.673   8.524
 3807SOL    HW212863   1.093   3.698   8.588
 3808SOL     OW12864   0.767   5.046   7.796
 3808SOL    HW112865   0.760   4.954   7.768
 3808SOL    HW212866   0.859   5.056   7.821
 3809SOL     OW12867   0.624   5.287   8.715
 3809SOL    HW112868   0.622   5.372   8.760
 3809SOL    HW212869   0.715   5.276   8.689
 3810SOL     OW12870   1.358   3.772   7.618
 3810SOL    HW112871   1.395   3.691   7.584
 3810SOL    HW212872   1.265   3.755   7.627
 3811SOL     OW12873   1.305   4.190   8.122
 3811SOL    HW112874   1.255   4.271   8.124
 3811SOL    HW212875   1.298   4.154   8.210
 3812SOL     OW12876   1.588   3.917   8.329
 3812SOL    HW112877   1.531   3.939   8.403
 3812SOL    HW212878   1.579   3.991   8.269
 3813SOL     OW12879   0.035   4.763   7.726
 3813SOL    HW112880   0.122   4.752   7.687
 3813SOL    HW212881   0.051   4.770   7.820
 3814SOL     OW12882   0.837   5.367   7.819
 3814SOL    HW112883   0.776   5.350   7.747
 3814SOL    HW212884   0.882   5.447   7.794
 3815SOL     OW12885   0.243   4.334   9.415
 3815SOL    HW112886   0.166   4.386   9.437
 3815SOL    HW212887   0.233   4.314   9.322
 3816SOL     OW12888   0.241   3.973  10.293
 3816SOL    HW112889   0.272   3.957  10.382
 3816SOL    HW212890   0.149   3.947  10.295
 3817SOL     OW12891   8.006   4.105   9.931
 3817SOL    HW112892   7.917   4.114   9.965
 3817SOL    HW212893   7.997   4.048   9.855
 3818SOL     OW12894   0.580   5.004  10.493
 3818SOL    HW112895   0.521   4.971  10.425
 3818SOL    HW212896   0.541   5.088  10.519
 3819SOL     OW12897   1.560   5.225  10.001
 3819SOL    HW112898   1.514   5.210  10.084
 3819SOL    HW212899   1.490   5.236   9.937
 3820SOL     OW12900   1.173   4.473  10.008
 3820SOL    HW112901   1.257   4.461  10.053
 3820SOL    HW212902   1.109   4.485  10.077
 3821SOL     OW12903   0.803   4.875  10.381
 3821SOL    HW112904   0.716   4.882  10.421
 3821SOL    HW212905   0.816   4.958  10.336
 3822SOL     OW12906   0.854   4.488  11.137
 3822SOL    HW112907   0.790   4.543  11.183
 3822SOL    HW212908   0.881   4.541  11.062
 3823SOL     OW12909   0.695   4.718   9.970
 3823SOL    HW112910   0.766   4.710  10.033
 3823SOL    HW212911   0.625   4.762  10.017
 3824SOL     OW12912   0.741   4.900  11.066
 3824SOL    HW112913   0.731   4.978  11.122
 3824SOL    HW212914   0.689   4.833  11.109
 3825SOL     OW12915   0.333   5.150  10.384
 3825SOL    HW112916   0.259   5.102  10.347
 3825SOL    HW212917   0.372   5.196  10.310
 3826SOL     OW12918   1.461   5.227  10.677
 3826SOL    HW112919   1.520   5.303  10.674
 3826SOL    HW212920   1.422   5.231  10.764
 3827SOL     OW12921   0.450   4.095  10.791
 3827SOL    HW112922   0.493   4.085  10.876
 3827SOL    HW212923   0.365   4.051  10.802
 3828SOL     OW12924   1.607   4.213  10.016
 3828SOL    HW112925   1.565   4.127  10.018
 3828SOL    HW212926   1.624   4.234  10.107
 3829SOL     OW12927   0.223   5.416   9.778
 3829SOL    HW112928   0.227   5.497   9.829
 3829SOL    HW212929   0.292   5.426   9.712
 3830SOL     OW12930   1.124   5.075  11.016
 3830SOL    HW112931   1.174   5.064  11.097
 3830SOL    HW212932   1.083   4.990  11.001
 3831SOL     OW12933   0.299   5.158   9.829
 3831SOL    HW112934   0.269   5.249   9.832
 3831SOL    HW212935   0.238   5.111   9.887
 3832SOL     OW12936   0.192   4.776  10.228
 3832SOL    HW112937   0.284   4.783  10.203
 3832SOL    HW212938   0.168   4.864  10.257
 3833SOL     OW12939   0.572   4.705   9.481
 3833SOL    HW112940   0.614   4.748   9.406
 3833SOL    HW212941   0.617   4.741   9.557
 3834SOL     OW12942   1.574   3.849  10.757
 3834SOL    HW112943   1.632   3.904  10.705
 3834SOL    HW212944   1.562   3.898  10.839
 3835SOL     OW12945   0.113   4.359   9.856
 3835SOL    HW112946   0.084   4.276   9.895
 3835SOL    HW212947   0.113   4.421   9.929
 3836SOL     OW12948   1.838   5.478   9.660
 3836SOL    HW112949   1.920   5.454   9.703
 3836SOL    HW212950   1.852   5.567   9.628
 3837SOL     OW12951   7.982   5.320   9.446
 3837SOL    HW112952   8.010   5.230   9.465
 3837SOL    HW212953   7.986   5.365   9.530
 3838SOL     OW12954   1.680   4.611   9.949
 3838SOL    HW112955   1.766   4.592   9.986
 3838SOL    HW212956   1.698   4.676   9.881
 3839SOL     OW12957   1.657   4.825   9.743
 3839SOL    HW112958   1.744   4.821   9.704
 3839SOL    HW212959   1.668   4.883   9.819
 3840SOL     OW12960   0.134   4.483  10.916
 3840SOL    HW112961   0.225   4.483  10.887
 3840SOL    HW212962   0.118   4.572  10.946
 3841SOL     OW12963   0.618   5.124  10.049
 3841SOL    HW112964   0.583   5.044  10.088
 3841SOL    HW212965   0.581   5.126   9.960
 3842SOL     OW12966   1.283   4.960  10.733
 3842SOL    HW112967   1.314   4.893  10.671
 3842SOL    HW212968   1.344   4.954  10.807
 3843SOL     OW12969   0.814   3.714   9.759
 3843SOL    HW112970   0.862   3.796   9.766
 3843SOL    HW212971   0.725   3.735   9.786
 3844SOL     OW12972   0.172   4.643  10.572
 3844SOL    HW112973   0.266   4.631  10.582
 3844SOL    HW212974   0.152   4.604  10.486
 3845SOL     OW12975   1.532   4.753   9.498
 3845SOL    HW112976   1.473   4.678   9.503
 3845SOL    HW212977   1.568   4.762   9.586
 3846SOL     OW12978   1.112   5.523  10.880
 3846SOL    HW112979   1.170   5.592  10.848
 3846SOL    HW212980   1.163   5.443  10.870
 3847SOL     OW12981   0.351   3.977  11.122
 3847SOL    HW112982   0.395   4.052  11.160
 3847SOL    HW212983   0.258   3.991  11.141
 3848SOL     OW12984   1.420   5.163  10.229
 3848SOL    HW112985   1.380   5.176  10.315
 3848SOL    HW212986   1.428   5.068  10.221
 3849SOL     OW12987   1.674   5.468   9.938
 3849SOL    HW112988   1.684   5.463   9.843
 3849SOL    HW212989   1.640   5.383   9.964
 3850SOL     OW12990   0.598   4.444   9.587
 3850SOL    HW112991   0.594   4.527   9.540
 3850SOL    HW212992   0.533   4.452   9.656
 3851SOL     OW12993   1.296   4.093  10.245
 3851SOL    HW112994   1.210   4.061  10.271
 3851SOL    HW212995   1.357   4.024  10.270
 3852SOL     OW12996   1.579   5.374   9.618
 3852SOL    HW112997   1.665   5.415   9.618
 3852SOL    HW212998   1.556   5.364   9.525
 3853SOL     OW12999   0.791   4.342  10.756
 3853SOL    HW113000   0.764   4.319  10.844
 3853SOL    HW213001   0.752   4.275  10.700
 3854SOL     OW13002   1.397   4.195  11.000
 3854SOL    HW113003   1.412   4.233  11.087
 3854SOL    HW213004   1.453   4.117  10.997
 3855SOL     OW13005   0.952   4.608  10.892
 3855SOL    HW113006   1.005   4.539  10.853
 3855SOL    HW213007   0.905   4.646  10.817
 3856SOL     OW13008   0.971   4.073  10.566
 3856SOL    HW113009   0.888   4.119  10.574
 3856SOL    HW213010   0.986   4.065  10.472
 3857SOL     OW13011   1.051   4.418   9.738
 3857SOL    HW113012   1.062   4.416   9.833
 3857SOL    HW213013   0.968   4.372   9.722
 3858SOL     OW13014   0.109   4.522  10.073
 3858SOL    HW113015   0.191   4.513  10.123
 3858SOL    HW213016   0.076   4.609  10.098
 3859SOL     OW13017   0.146   5.552  10.882
 3859SOL    HW113018   0.148   5.528  10.974
 3859SOL    HW213019   0.074   5.501  10.845
 3860SOL     OW13020   0.915   4.042   9.475
 3860SOL    HW113021   0.936   4.132   9.450
 3860SOL    HW213022   0.975   3.988   9.425
 3861SOL     OW13023   1.688   4.299  11.143
 3861SOL    HW113024   1.670   4.371  11.082
 3861SOL    HW213025   1.721   4.228  11.088
 3862SOL     OW13026   1.387   4.821   9.820
 3862SOL    HW113027   1.478   4.836   9.795
 3862SOL    HW213028   1.339   4.895   9.782
 3863SOL     OW13029   0.557   3.898  10.217
 3863SOL    HW113030   0.562   3.926  10.309
 3863SOL    HW213031   0.558   3.980  10.167
 3864SOL     OW13032   0.352   5.543  10.163
 3864SOL    HW113033   0.392   5.458  10.181
 3864SOL    HW213034   0.419   5.607  10.188
 3865SOL     OW13035   1.789   4.773  10.197
 3865SOL    HW113036   1.731   4.792  10.124
 3865SOL    HW213037   1.734   4.780  10.275
 3866SOL     OW13038   1.194   5.265  10.825
 3866SOL    HW113039   1.194   5.198  10.893
 3866SOL    HW213040   1.171   5.217  10.745
 3867SOL     OW13041   0.293   4.651   9.524
 3867SOL    HW113042   0.381   4.689   9.527
 3867SOL    HW213043   0.293   4.597   9.445
 3868SOL     OW13044   1.450   4.499  10.044
 3868SOL    HW113045   1.462   4.437  10.116
 3868SOL    HW213046   1.538   4.531  10.025
 3869SOL     OW13047   0.456   5.026  11.053
 3869SOL    HW113048   0.434   5.021  10.960
 3869SOL    HW213049   0.378   4.995  11.098
 3870SOL     OW13050   1.133   5.483   9.556
 3870SOL    HW113051   1.045   5.454   9.578
 3870SOL    HW213052   1.159   5.429   9.481
 3871SOL     OW13053   0.202   3.983  10.812
 3871SOL    HW113054   0.148   4.052  10.773
 3871SOL    HW213055   0.159   3.962  10.894
 3872SOL     OW13056   0.457   5.464   9.631
 3872SOL    HW113057   0.500   5.530   9.687
 3872SOL    HW213058   0.525   5.436   9.570
 3873SOL     OW13059   1.399   3.820   9.734
 3873SOL    HW113060   1.406   3.799   9.641
 3873SOL    HW213061   1.490   3.837   9.761
 3874SOL     OW13062   0.263   5.515  10.546
 3874SOL    HW113063   0.297   5.428  10.565
 3874SOL    HW213064   0.219   5.505  10.461
 3875SOL     OW13065   0.942   5.428  10.203
 3875SOL    HW113066   1.022   5.385  10.235
 3875SOL    HW213067   0.907   5.368  10.137
 3876SOL     OW13068   0.408   4.422   9.790
 3876SOL    HW113069   0.426   4.329   9.804
 3876SOL    HW213070   0.315   4.432   9.812
 3877SOL     OW13071   1.528   3.938  11.020
 3877SOL    HW113072   1.526   3.966  11.111
 3877SOL    HW213073   1.508   3.845  11.023
 3878SOL     OW13074   0.676   3.801   9.423
 3878SOL    HW113075   0.715   3.869   9.369
 3878SOL    HW213076   0.607   3.763   9.368
 3879SOL     OW13077   0.753   3.999  11.063
 3879SOL    HW113078   0.835   3.951  11.050
 3879SOL    HW213079   0.741   4.002  11.158
 3880SOL     OW13080   0.873   5.251  10.514
 3880SOL    HW113081   0.853   5.216  10.427
 3880SOL    HW213082   0.939   5.192  10.550
 3881SOL     OW13083   1.338   4.317  10.757
 3881SOL    HW113084   1.375   4.281  10.838
 3881SOL    HW213085   1.380   4.402  10.747
 3882SOL     OW13086   0.826   5.127  10.258
 3882SOL    HW113087   0.906   5.103  10.212
 3882SOL    HW213088   0.757   5.118  10.192
 3883SOL     OW13089   0.937   4.236  10.208
 3883SOL    HW113090   0.910   4.222  10.118
 3883SOL    HW213091   0.965   4.150  10.239
 3884SOL     OW13092   0.556   3.783   9.802
 3884SOL    HW113093   0.475   3.784   9.853
 3884SOL    HW213094   0.550   3.861   9.747
 3885SOL     OW13095   1.494   4.981   9.343
 3885SOL    HW113096   1.509   4.901   9.394
 3885SOL    HW213097   1.405   5.007   9.366
 3886SOL     OW13098   0.260   3.769   9.476
 3886SOL    HW113099   0.310   3.835   9.429
 3886SOL    HW213100   0.325   3.717   9.522
 3887SOL     OW13101   0.944   3.958   9.751
 3887SOL    HW113102   0.922   3.997   9.667
 3887SOL    HW213103   1.037   3.978   9.763
 3888SOL     OW13104   1.083   4.410  10.759
 3888SOL    HW113105   1.023   4.339  10.779
 3888SOL    HW213106   1.170   4.370  10.764
 3889SOL     OW13107   1.207   5.281  10.087
 3889SOL    HW113108   1.231   5.358  10.035
 3889SOL    HW213109   1.286   5.261  10.138
 3890SOL     OW13110   1.268   5.516   9.929
 3890SOL    HW113111   1.320   5.575   9.874
 3890SOL    HW213112   1.199   5.573   9.966
 3891SOL     OW13113   0.967   4.292   9.398
 3891SOL    HW113114   0.937   4.370   9.351
 3891SOL    HW213115   1.063   4.295   9.390
 3892SOL     OW13116   0.560   3.933  10.493
 3892SOL    HW113117   0.591   3.859  10.544
 3892SOL    HW213118   0.467   3.942  10.517
 3893SOL     OW13119   0.877   4.184   9.945
 3893SOL    HW113120   0.818   4.237   9.890
 3893SOL    HW213121   0.892   4.105   9.893
 3894SOL     OW13122   1.003   3.801  10.091
 3894SOL    HW113123   0.983   3.793   9.997
 3894SOL    HW213124   0.987   3.713  10.126
 3895SOL     OW13125   1.443   4.892  10.183
 3895SOL    HW113126   1.389   4.813  10.188
 3895SOL    HW213127   1.484   4.887  10.096
 3896SOL     OW13128   1.454   4.338  10.279
 3896SOL    HW113129   1.407   4.254  10.280
 3896SOL    HW213130   1.520   4.329  10.348
 3897SOL     OW13131   1.854   4.511   9.649
 3897SOL    HW113132   1.894   4.473   9.727
 3897SOL    HW213133   1.918   4.495   9.579
 3898SOL     OW13134   0.528   5.124   9.487
 3898SOL    HW113135   0.435   5.109   9.504
 3898SOL    HW213136   0.540   5.097   9.396
 3899SOL     OW13137   1.673   4.968   9.971
 3899SOL    HW113138   1.768   4.967   9.982
 3899SOL    HW213139   1.649   5.060   9.982
 3900SOL     OW13140   1.390   4.275   9.393
 3900SOL    HW113141   1.323   4.270   9.462
 3900SOL    HW213142   1.432   4.188   9.396
 3901SOL     OW13143   0.528   3.978   9.615
 3901SOL    HW113144   0.576   3.929   9.548
 3901SOL    HW213145   0.507   4.061   9.574
 3902SOL     OW13146   1.740   4.950  10.864
 3902SOL    HW113147   1.827   4.912  10.871
 3902SOL    HW213148   1.754   5.044  10.879
 3903SOL     OW13149   1.050   5.075  10.648
 3903SOL    HW113150   0.972   5.039  10.690
 3903SOL    HW213151   1.123   5.027  10.687
 3904SOL     OW13152   1.563   5.349  10.953
 3904SOL    HW113153   1.598   5.369  10.866
 3904SOL    HW213154   1.640   5.342  11.009
 3905SOL     OW13155   1.138   4.940  10.412
 3905SOL    HW113156   1.071   4.964  10.476
 3905SOL    HW213157   1.100   4.964  10.327
 3906SOL     OW13158   1.615   4.817  10.399
 3906SOL    HW113159   1.613   4.873  10.477
 3906SOL    HW213160   1.540   4.845  10.347
 3907SOL     OW13161   0.996   4.838  11.023
 3907SOL    HW113162   0.904   4.862  11.036
 3907SOL    HW213163   0.992   4.755  10.974
 3908SOL     OW13164   0.710   4.782   9.700
 3908SOL    HW113165   0.696   4.761   9.792
 3908SOL    HW213166   0.788   4.732   9.676
 3909SOL     OW13167   0.435   4.563  10.560
 3909SOL    HW113168   0.500   4.580  10.628
 3909SOL    HW213169   0.415   4.470  10.568
 3910SOL     OW13170   1.267   4.105  10.598
 3910SOL    HW113171   1.304   4.181  10.642
 3910SOL    HW213172   1.177   4.129  10.579
 3911SOL     OW13173   0.042   5.339  10.643
 3911SOL    HW113174   0.103   5.392  10.592
 3911SOL    HW213175   0.097   5.295  10.708
 3912SOL     OW13176   0.282   4.823   9.790
 3912SOL    HW113177   0.353   4.885   9.806
 3912SOL    HW213178   0.327   4.741   9.769
 3913SOL     OW13179   0.560   4.239  10.168
 3913SOL    HW113180   0.571   4.300  10.095
 3913SOL    HW213181   0.617   4.274  10.236
 3914SOL     OW13182   1.262   5.058   9.710
 3914SOL    HW113183   1.314   5.137   9.724
 3914SOL    HW213184   1.188   5.068   9.770
 3915SOL     OW13185   1.291   5.182  10.468
 3915SOL    HW113186   1.347   5.187  10.545
 3915SOL    HW213187   1.242   5.101  10.479
 3916SOL     OW13188   1.608   4.364   9.768
 3916SOL    HW113189   1.606   4.336   9.860
 3916SOL    HW213190   1.671   4.436   9.767
 3917SOL     OW13191   0.345   5.266  10.623
 3917SOL    HW113192   0.335   5.217  10.541
 3917SOL    HW213193   0.440   5.276  10.633
 3918SOL     OW13194   0.422   4.461  10.909
 3918SOL    HW113195   0.479   4.510  10.851
 3918SOL    HW213196   0.479   4.396  10.950
 3919SOL     OW13197   1.597   4.526  11.015
 3919SOL    HW113198   1.514   4.559  10.981
 3919SOL    HW213199   1.663   4.552  10.951
 3920SOL     OW13200   0.980   3.864  11.006
 3920SOL    HW113201   1.047   3.932  11.017
 3920SOL    HW213202   0.996   3.803  11.079
 3921SOL     OW13203   0.510   3.756  11.051
 3921SOL    HW113204   0.460   3.703  10.988
 3921SOL    HW213205   0.456   3.833  11.066
 3922SOL     OW13206   0.587   4.601  10.330
 3922SOL    HW113207   0.571   4.683  10.284
 3922SOL    HW213208   0.533   4.605  10.409
 3923SOL     OW13209   1.330   4.589  10.320
 3923SOL    HW113210   1.240   4.556  10.316
 3923SOL    HW213211   1.384   4.511  10.316
 3924SOL     OW13212   1.208   4.240   9.590
 3924SOL    HW113213   1.213   4.161   9.643
 3924SOL    HW213214   1.151   4.299   9.640
 3925SOL     OW13215   0.295   3.913  10.557
 3925SOL    HW113216   0.267   3.943  10.644
 3925SOL    HW213217   0.274   3.820  10.556
 3926SOL     OW13218   0.049   5.036  10.588
 3926SOL    HW113219   0.078   4.969  10.650
 3926SOL    HW213220   0.043   5.116  10.640
 3927SOL     OW13221   0.713   4.353  10.366
 3927SOL    HW113222   0.795   4.350  10.318
 3927SOL    HW213223   0.681   4.442  10.354
 3928SOL     OW13224   1.761   4.703  11.162
 3928SOL    HW113225   1.710   4.635  11.117
 3928SOL    HW213226   1.728   4.702  11.252
 3929SOL     OW13227   0.312   3.796   9.921
 3929SOL    HW113228   0.287   3.887   9.937
 3929SOL    HW213229   0.304   3.753  10.006
 3930SOL     OW13230   1.632   4.115   9.656
 3930SOL    HW113231   1.649   4.041   9.715
 3930SOL    HW213232   1.608   4.187   9.714
 3931SOL     OW13233   1.043   4.481  10.263
 3931SOL    HW113234   1.025   4.494  10.356
 3931SOL    HW213235   1.012   4.392  10.245
 3932SOL     OW13236   0.963   5.299  11.023
 3932SOL    HW113237   0.983   5.349  10.944
 3932SOL    HW213238   1.002   5.213  11.007
 3933SOL     OW13239   1.831   5.200  10.886
 3933SOL    HW113240   1.889   5.248  10.827
 3933SOL    HW213241   1.840   5.244  10.970
 3934SOL     OW13242   0.334   4.635  11.107
 3934SOL    HW113243   0.415   4.659  11.152
 3934SOL    HW213244   0.361   4.573  11.040
 3935SOL     OW13245   1.500   4.019   9.436
 3935SOL    HW113246   1.454   3.937   9.451
 3935SOL    HW213247   1.540   4.040   9.520
 3936SOL     OW13248   1.323   4.556   9.365
 3936SOL    HW113249   1.353   4.465   9.359
 3936SOL    HW213250   1.337   4.592   9.278
 3937SOL     OW13251   1.062   5.051  10.150
 3937SOL    HW113252   1.081   4.980  10.089
 3937SOL    HW213253   1.118   5.123  10.122
 3938SOL     OW13254   0.332   4.490  10.223
 3938SOL    HW113255   0.412   4.542  10.232
 3938SOL    HW213256   0.342   4.419  10.286
 3939SOL     OW13257   0.347   4.222  10.333
 3939SOL    HW113258   0.306   4.139  10.310
 3939SOL    HW213259   0.419   4.231  10.270
 3940SOL     OW13260   1.137   4.101  11.002
 3940SOL    HW113261   1.090   4.154  11.065
 3940SOL    HW213262   1.226   4.135  11.003
 3941SOL     OW13263   1.173   3.929  10.786
 3941SOL    HW113264   1.167   3.990  10.859
 3941SOL    HW213265   1.224   3.976  10.720
 3942SOL     OW13266   7.993   5.006   9.487
 3942SOL    HW113267   7.908   5.032   9.523
 3942SOL    HW213268   8.010   4.920   9.526
 3943SOL     OW13269   0.115   5.518  10.323
 3943SOL    HW113270   0.026   5.514  10.288
 3943SOL    HW213271   0.171   5.524  10.245
 3944SOL     OW13272   0.490   5.309  10.214
 3944SOL    HW113273   0.561   5.367  10.243
 3944SOL    HW213274   0.534   5.241  10.164
 3945SOL     OW13275   0.975   4.497  10.523
 3945SOL    HW113276   1.031   4.478  10.598
 3945SOL    HW213277   0.886   4.499  10.559
 3946SOL     OW13278   0.085   4.272  10.406
 3946SOL    HW113279   0.180   4.272  10.399
 3946SOL    HW213280   0.067   4.252  10.498
 3947SOL     OW13281   0.196   4.241  11.012
 3947SOL    HW113282   0.253   4.211  10.941
 3947SOL    HW213283   0.155   4.320  10.978
 3948SOL     OW13284   1.359   4.653  11.005
 3948SOL    HW113285   1.376   4.747  11.003
 3948SOL    HW213286   1.343   4.631  10.913
 3949SOL     OW13287   0.816   4.295   9.675
 3949SOL    HW113288   0.827   4.238   9.599
 3949SOL    HW213289   0.742   4.351   9.653
 3950SOL     OW13290   1.650   4.320  10.477
 3950SOL    HW113291   1.642   4.263  10.553
 3950SOL    HW213292   1.740   4.310  10.448
 3951SOL     OW13293   0.296   5.275  11.025
 3951SOL    HW113294   0.250   5.336  11.084
 3951SOL    HW213295   0.309   5.196  11.077
 3952SOL     OW13296   0.709   4.160  10.565
 3952SOL    HW113297   0.646   4.094  10.537
 3952SOL    HW213298   0.699   4.232  10.503
 3953SOL     OW13299   0.867   5.431  10.749
 3953SOL    HW113300   0.892   5.377  10.674
 3953SOL    HW213301   0.945   5.481  10.770
 3954SOL     OW13302   0.483   4.214   9.485
 3954SOL    HW113303   0.537   4.287   9.515
 3954SOL    HW213304   0.400   4.254   9.460
 3955SOL     OW13305   0.157   4.850  10.759
 3955SOL    HW113306   0.134   4.810  10.843
 3955SOL    HW213307   0.158   4.776  10.697
 3956SOL     OW13308   1.315   4.765  10.532
 3956SOL    HW113309   1.338   4.703  10.463
 3956SOL    HW213310   1.252   4.824  10.491
 3957SOL     OW13311   1.270   4.563   9.644
 3957SOL    HW113312   1.190   4.511   9.654
 3957SOL    HW213313   1.283   4.569   9.549
 3958SOL     OW13314   1.731   5.476  10.399
 3958SOL    HW113315   1.824   5.483  10.380
 3958SOL    HW213316   1.716   5.382  10.412
 3959SOL     OW13317   1.224   5.447  10.432
 3959SOL    HW113318   1.312   5.483  10.440
 3959SOL    HW213319   1.235   5.353  10.444
 3960SOL     OW13320   0.093   5.014  10.323
 3960SOL    HW113321   0.078   5.022  10.417
 3960SOL    HW213322   0.005   5.011  10.285
 3961SOL     OW13323   0.708   5.407  11.018
 3961SOL    HW113324   0.676   5.439  11.102
 3961SOL    HW213325   0.796   5.373  11.037
 3962SOL     OW13326   1.673   3.879   9.794
 3962SOL    HW113327   1.769   3.880   9.800
 3962SOL    HW213328   1.643   3.876   9.885
 3963SOL     OW13329   1.386   5.292   9.793
 3963SOL    HW113330   1.449   5.323   9.729
 3963SOL    HW213331   1.338   5.370   9.820
 3964SOL     OW13332   0.160   5.478  11.151
 3964SOL    HW113333   0.099   5.425  11.203
 3964SOL    HW213334   0.210   5.527  11.216
 3965SOL     OW13335   0.797   4.993  10.722
 3965SOL    HW113336   0.763   5.032  10.803
 3965SOL    HW213337   0.723   4.995  10.662
 3966SOL     OW13338   0.666   5.361   9.484
 3966SOL    HW113339   0.684   5.389   9.395
 3966SOL    HW213340   0.625   5.275   9.475
 3967SOL     OW13341   1.612   5.458  10.683
 3967SOL    HW113342   1.664   5.467  10.603
 3967SOL    HW213343   1.599   5.547  10.713
 3968SOL     OW13344   1.818   3.893  10.275
 3968SOL    HW113345   1.858   3.809  10.251
 3968SOL    HW213346   1.742   3.900  10.217
 3969SOL     OW13347   0.262   4.043  10.019
 3969SOL    HW113348   0.175   4.075   9.996
 3969SOL    HW213349   0.258   4.030  10.114
 3970SOL     OW13350   1.227   5.329   9.350
 3970SOL    HW113351   1.213   5.235   9.364
 3970SOL    HW213352   1.168   5.352   9.279
 3971SOL     OW13353   0.832   4.730  10.672
 3971SOL    HW113354   0.851   4.738  10.578
 3971SOL    HW213355   0.824   4.820  10.703
 3972SOL     OW13356   0.934   4.654   9.628
 3972SOL    HW113357   0.983   4.676   9.549
 3972SOL    HW213358   0.968   4.568   9.654
 3973SOL     OW13359   1.502   5.314   9.342
 3973SOL    HW113360   1.408   5.326   9.349
 3973SOL    HW213361   1.528   5.366   9.266
 3974SOL     OW13362   0.366   5.031  10.796
 3974SOL    HW113363   0.337   5.109  10.748
 3974SOL    HW213364   0.297   4.966  10.780
 3975SOL     OW13365   1.592   4.993  10.607
 3975SOL    HW113366   1.658   4.979  10.675
 3975SOL    HW213367   1.544   5.070  10.635
 3976SOL     OW13368   1.062   4.820   9.991
 3976SOL    HW113369   1.008   4.781  10.059
 3976SOL    HW213370   1.024   4.789   9.909
 3977SOL     OW13371   1.030   3.978  10.299
 3977SOL    HW113372   1.023   3.930  10.216
 3977SOL    HW213373   1.039   3.911  10.366
 3978SOL     OW13374   0.606   5.211   9.754
 3978SOL    HW113375   0.588   5.161   9.674
 3978SOL    HW213376   0.535   5.275   9.758
 3979SOL     OW13377   1.700   4.122  10.686
 3979SOL    HW113378   1.772   4.183  10.703
 3979SOL    HW213379   1.738   4.054  10.631
 3980SOL     OW13380   0.261   5.092   9.568
 3980SOL    HW113381   0.168   5.070   9.572
 3980SOL    HW213382   0.283   5.115   9.659
 3981SOL     OW13383   0.103   4.738  11.007
 3981SOL    HW113384   0.063   4.814  11.048
 3981SOL    HW213385   0.182   4.721  11.058
 3982SOL     OW13386   0.748   3.921  10.786
 3982SOL    HW113387   0.711   3.999  10.745
 3982SOL    HW213388   0.741   3.938  10.880
 3983SOL     OW13389   0.076   4.072   9.314
 3983SOL    HW113390   0.020   4.124   9.371
 3983SOL    HW213391   0.107   4.134   9.248
 3984SOL     OW13392   1.420   4.587  10.728
 3984SOL    HW113393   1.373   4.648  10.671
 3984SOL    HW213394   1.509   4.586  10.694
 3985SOL     OW13395   0.084   3.936   9.677
 3985SOL    HW113396   0.101   4.028   9.658
 3985SOL    HW213397   0.157   3.889   9.638
 3986SOL     OW13398   1.190   5.059   9.421
 3986SOL    HW113399   1.095   5.055   9.418
 3986SOL    HW213400   1.211   5.048   9.514
 3987SOL     OW13401   0.627   4.562  10.750
 3987SOL    HW113402   0.686   4.636  10.737
 3987SOL    HW213403   0.684   4.486  10.755
 3988SOL     OW13404   0.711   4.285  11.006
 3988SOL    HW113405   0.750   4.352  11.062
 3988SOL    HW213406   0.733   4.202  11.050
 3989SOL     OW13407   1.467   4.917  10.937
 3989SOL    HW113408   1.460   4.929  11.032
 3989SOL    HW213409   1.561   4.928  10.918
 3990SOL     OW13410   0.415   5.462  10.864
 3990SOL    HW113411   0.331   5.497  10.833
 3990SOL    HW213412   0.392   5.381  10.909
 3991SOL     OW13413   1.653   4.592  10.570
 3991SOL    HW113414   1.663   4.507  10.528
 3991SOL    HW213415   1.652   4.655  10.498
 3992SOL     OW13416   1.212   4.024   9.767
 3992SOL    HW113417   1.279   3.956   9.761
 3992SOL    HW213418   1.236   4.075   9.845
 3993SOL     OW13419   0.610   4.447   9.984
 3993SOL    HW113420   0.640   4.538   9.984
 3993SOL    HW213421   0.539   4.445   9.919
 3994SOL     OW13422   1.751   4.094  10.979
 3994SOL    HW113423   1.759   4.109  10.884
 3994SOL    HW213424   1.683   4.027  10.987
 3995SOL     OW13425   1.731   4.655  10.825
 3995SOL    HW113426   1.741   4.750  10.829
 3995SOL    HW213427   1.723   4.636  10.731
 3996SOL     OW13428   0.908   5.131   9.386
 3996SOL    HW113429   0.833   5.111   9.330
 3996SOL    HW213430   0.951   5.205   9.343
 3997SOL     OW13431   0.672   5.508  10.256
 3997SOL    HW113432   0.648   5.598  10.231
 3997SOL    HW213433   0.767   5.505  10.243
 3998SOL     OW13434   0.890   4.706  10.170
 3998SOL    HW113435   0.930   4.629  10.211
 3998SOL    HW213436   0.849   4.753  10.243
 3999SOL     OW13437   1.079   4.699   9.405
 3999SOL    HW113438   1.053   4.753   9.330
 3999SOL    HW213439   1.161   4.658   9.377
 4000SOL     OW13440   1.837   5.274  10.161
 4000SOL    HW113441   1.826   5.227  10.079
 4000SOL    HW213442   1.849   5.206  10.227
 4001SOL     OW13443   0.202   5.031  11.160
 4001SOL    HW113444   0.110   5.016  11.139
 4001SOL    HW213445   0.205   5.030  11.256
 4002SOL     OW13446   0.105   4.990   9.930
 4002SOL    HW113447   0.044   4.949   9.992
 4002SOL    HW213448   0.166   4.920   9.907
 4003SOL     OW13449   0.656   5.160  10.893
 4003SOL    HW113450   0.607   5.096  10.944
 4003SOL    HW213451   0.673   5.232  10.954
 4004SOL     OW13452   1.784   3.907  10.548
 4004SOL    HW113453   1.851   3.844  10.576
 4004SOL    HW213454   1.791   3.909  10.453
 4005SOL     OW13455   0.443   4.161   9.840
 4005SOL    HW113456   0.458   4.091   9.776
 4005SOL    HW213457   0.389   4.120   9.908
 4006SOL     OW13458   1.699   5.213  10.434
 4006SOL    HW113459   1.627   5.157  10.405
 4006SOL    HW213460   1.754   5.155  10.488
 4007SOL     OW13461   0.404   4.299  10.594
 4007SOL    HW113462   0.411   4.231  10.660
 4007SOL    HW213463   0.380   4.252  10.513
 4008SOL     OW13464   0.810   5.322   9.973
 4008SOL    HW113465   0.785   5.412   9.954
 4008SOL    HW213466   0.732   5.282  10.012
 4009SOL     OW13467   1.378   3.906  10.441
 4009SOL    HW113468   1.468   3.883  10.467
 4009SOL    HW213469   1.352   3.974  10.503
 4010SOL     OW13470   1.023   3.762  10.484
 4010SOL    HW113471   0.963   3.693  10.455
 4010SOL    HW213472   1.110   3.724  10.471
 4011SOL     OW13473   0.834   5.024   9.638
 4011SOL    HW113474   0.786   4.942   9.643
 4011SOL    HW213475   0.848   5.038   9.544
 4012SOL     OW13476   0.622   5.291  10.649
 4012SOL    HW113477   0.639   5.231  10.722
 4012SOL    HW213478   0.699   5.281  10.592
 4013SOL     OW13479   1.370   3.775   9.456
 4013SOL    HW113480   1.405   3.698   9.410
 4013SOL    HW213481   1.281   3.783   9.424
 4014SOL     OW13482   1.267   4.173   9.983
 4014SOL    HW113483   1.218   4.251  10.008
 4014SOL    HW213484   1.296   4.135  10.066
 4015SOL     OW13485   0.055   4.768   9.613
 4015SOL    HW113486   0.137   4.739   9.573
 4015SOL    HW213487   0.077   4.786   9.704
 4016SOL     OW13488   0.877   5.401   9.648
 4016SOL    HW113489   0.811   5.398   9.580
 4016SOL    HW213490   0.859   5.482   9.697
 4017SOL     OW13491   0.235   4.335  11.274
 4017SOL    HW113492   0.163   4.393  11.299
 4017SOL    HW213493   0.224   4.321  11.180
 4018SOL     OW13494   0.244   4.004  12.126
 4018SOL    HW113495   0.271   3.969  12.211
 4018SOL    HW213496   0.160   3.961  12.107
 4019SOL     OW13497   0.034   4.106  11.778
 4019SOL    HW113498  -0.056   4.089  11.806
 4019SOL    HW213499   0.045   4.051  11.700
 4020SOL     OW13500   0.547   4.985  12.363
 4020SOL    HW113501   0.472   5.024  12.317
 4020SOL    HW213502   0.536   5.012  12.454
 4021SOL     OW13503   1.586   5.243  11.879
 4021SOL    HW113504   1.545   5.267  11.962
 4021SOL    HW213505   1.515   5.245  11.815
 4022SOL     OW13506   1.778   4.327  11.398
 4022SOL    HW113507   1.752   4.311  11.307
 4022SOL    HW213508   1.724   4.267  11.449
 4023SOL     OW13509   0.759   4.877  12.238
 4023SOL    HW113510   0.680   4.907  12.283
 4023SOL    HW213511   0.787   4.953  12.187
 4024SOL     OW13512   0.675   4.704  11.824
 4024SOL    HW113513   0.745   4.706  11.889
 4024SOL    HW213514   0.610   4.767  11.857
 4025SOL     OW13515   0.342   5.131  12.233
 4025SOL    HW113516   0.271   5.078  12.197
 4025SOL    HW213517   0.378   5.178  12.158
 4026SOL     OW13518   1.598   4.163  11.890
 4026SOL    HW113519   1.565   4.140  11.803
 4026SOL    HW213520   1.579   4.257  11.898
 4027SOL     OW13521   0.224   5.415  11.649
 4027SOL    HW113522   0.211   5.500  11.691
 4027SOL    HW213523   0.296   5.430  11.587
 4028SOL     OW13524   0.303   5.157  11.688
 4028SOL    HW113525   0.272   5.247  11.695
 4028SOL    HW213526   0.246   5.108  11.747
 4029SOL     OW13527   0.280   4.814  12.066
 4029SOL    HW113528   0.278   4.723  12.094
 4029SOL    HW213529   0.207   4.855  12.111
 4030SOL     OW13530   0.118   4.363  11.720
 4030SOL    HW113531   0.073   4.284  11.750
 4030SOL    HW213532   0.108   4.425  11.792
 4031SOL     OW13533   1.826   5.491  11.552
 4031SOL    HW113534   1.908   5.452  11.581
 4031SOL    HW213535   1.852   5.562  11.493
 4032SOL     OW13536   0.014   5.316  11.314
 4032SOL    HW113537   0.000   5.222  11.296
 4032SOL    HW213538  -0.003   5.325  11.407
 4033SOL     OW13539   1.699   4.649  11.827
 4033SOL    HW113540   1.772   4.592  11.806
 4033SOL    HW213541   1.666   4.679  11.742
 4034SOL     OW13542   1.648   4.837  11.593
 4034SOL    HW113543   1.737   4.826  11.561
 4034SOL    HW213544   1.657   4.893  11.671
 4035SOL     OW13545   0.137   4.452   0.271
 4035SOL    HW113546   0.146   4.422   0.362
 4035SOL    HW213547   0.135   4.547   0.277
 4036SOL     OW13548   0.613   5.114  11.886
 4036SOL    HW113549   0.569   5.030  11.895
 4036SOL    HW213550   0.601   5.138  11.794
 4037SOL     OW13551   0.825   3.746  11.740
 4037SOL    HW113552   0.867   3.818  11.693
 4037SOL    HW213553   0.732   3.754  11.719
 4038SOL     OW13554   0.198   4.653  12.483
 4038SOL    HW113555   0.282   4.627  12.445
 4038SOL    HW213556   0.137   4.649  12.409
 4039SOL     OW13557   1.536   4.691  11.382
 4039SOL    HW113558   1.495   4.632  11.445
 4039SOL    HW213559   1.588   4.752  11.435
 4040SOL     OW13560   1.496   5.121  12.146
 4040SOL    HW113561   1.418   5.144  12.196
 4040SOL    HW213562   1.467   5.052  12.087
 4041SOL     OW13563   1.638   5.504  11.758
 4041SOL    HW113564   1.693   5.484  11.682
 4041SOL    HW213565   1.630   5.420  11.805
 4042SOL     OW13566   0.604   4.436  11.448
 4042SOL    HW113567   0.618   4.509  11.389
 4042SOL    HW213568   0.551   4.473  11.519
 4043SOL     OW13569   1.290   4.098  12.128
 4043SOL    HW113570   1.202   4.061  12.123
 4043SOL    HW213571   1.337   4.039  12.188
 4044SOL     OW13572   1.571   5.387  11.476
 4044SOL    HW113573   1.665   5.405  11.480
 4044SOL    HW213574   1.551   5.384  11.382
 4045SOL     OW13575   0.955   4.064  12.399
 4045SOL    HW113576   0.883   4.126  12.410
 4045SOL    HW213577   0.967   4.058  12.304
 4046SOL     OW13578   1.047   4.427  11.583
 4046SOL    HW113579   1.062   4.427  11.677
 4046SOL    HW213580   0.966   4.377  11.571
 4047SOL     OW13581   0.097   4.522  11.932
 4047SOL    HW113582   0.166   4.548  11.994
 4047SOL    HW213583   0.016   4.553  11.972
 4048SOL     OW13584   0.064   5.486   0.261
 4048SOL    HW113585   0.121   5.477   0.337
 4048SOL    HW213586  -0.022   5.507   0.297
 4049SOL     OW13587   0.889   4.048  11.336
 4049SOL    HW113588   0.939   4.116  11.291
 4049SOL    HW213589   0.946   3.971  11.334
 4050SOL     OW13590   1.373   4.836  11.673
 4050SOL    HW113591   1.463   4.841  11.642
 4050SOL    HW213592   1.331   4.914  11.638
 4051SOL     OW13593   0.574   3.909  12.070
 4051SOL    HW113594   0.560   3.980  12.133
 4051SOL    HW213595   0.603   3.953  11.990
 4052SOL     OW13596   1.006   5.171  11.638
 4052SOL    HW113597   0.975   5.250  11.594
 4052SOL    HW213598   0.986   5.186  11.731
 4053SOL     OW13599   0.365   5.529  12.028
 4053SOL    HW113600   0.413   5.447  12.039
 4053SOL    HW213601   0.422   5.595  12.067
 4054SOL     OW13602   1.791   4.783  12.059
 4054SOL    HW113603   1.764   4.764  11.969
 4054SOL    HW213604   1.714   4.762  12.112
 4055SOL     OW13605   0.325   4.681  11.413
 4055SOL    HW113606   0.409   4.713  11.382
 4055SOL    HW213607   0.310   4.600  11.365
 4056SOL     OW13608   1.526   4.435  11.896
 4056SOL    HW113609   1.490   4.425  11.984
 4056SOL    HW213610   1.575   4.517  11.899
 4057SOL     OW13611   1.122   5.513  11.385
 4057SOL    HW113612   1.053   5.472  11.438
 4057SOL    HW213613   1.147   5.445  11.322
 4058SOL     OW13614   1.654   5.103  11.271
 4058SOL    HW113615   1.695   5.183  11.240
 4058SOL    HW213616   1.570   5.100  11.224
 4059SOL     OW13617   0.451   5.476  11.485
 4059SOL    HW113618   0.499   5.521  11.554
 4059SOL    HW213619   0.517   5.428  11.436
 4060SOL     OW13620   1.402   3.838  11.609
 4060SOL    HW113621   1.398   3.814  11.516
 4060SOL    HW213622   1.476   3.899  11.615
 4061SOL     OW13623   0.254   5.516  12.377
 4061SOL    HW113624   0.266   5.439  12.433
 4061SOL    HW213625   0.183   5.492  12.318
 4062SOL     OW13626   0.917   5.411  12.079
 4062SOL    HW113627   0.990   5.358  12.110
 4062SOL    HW213628   0.881   5.363  12.004
 4063SOL     OW13629   0.387   4.419  11.650
 4063SOL    HW113630   0.394   4.328  11.624
 4063SOL    HW213631   0.295   4.431  11.674
 4064SOL     OW13632   0.624   3.832  11.297
 4064SOL    HW113633   0.712   3.797  11.308
 4064SOL    HW213634   0.597   3.803  11.210
 4065SOL     OW13635   0.800   5.105  12.097
 4065SOL    HW113636   0.892   5.102  12.069
 4065SOL    HW213637   0.750   5.102  12.016
 4066SOL     OW13638   0.917   4.215  12.101
 4066SOL    HW113639   0.953   4.262  12.026
 4066SOL    HW213640   0.952   4.127  12.093
 4067SOL     OW13641   0.552   3.792  11.673
 4067SOL    HW113642   0.468   3.792  11.719
 4067SOL    HW213643   0.548   3.870  11.617
 4068SOL     OW13644   1.411   4.907  11.205
 4068SOL    HW113645   1.462   4.863  11.273
 4068SOL    HW213646   1.338   4.947  11.252
 4069SOL     OW13647   0.298   3.778  11.347
 4069SOL    HW113648   0.357   3.849  11.322
 4069SOL    HW213649   0.352   3.719  11.400
 4070SOL     OW13650   0.943   3.973  11.629
 4070SOL    HW113651   0.915   4.020  11.550
 4070SOL    HW213652   1.037   3.990  11.634
 4071SOL     OW13653   1.224   5.306  11.968
 4071SOL    HW113654   1.235   5.358  11.888
 4071SOL    HW213655   1.296   5.335  12.024
 4072SOL     OW13656   0.473   4.881  11.891
 4072SOL    HW113657   0.410   4.859  11.960
 4072SOL    HW213658   0.428   4.859  11.810
 4073SOL     OW13659   1.273   5.520  11.782
 4073SOL    HW113660   1.310   5.576  11.713
 4073SOL    HW213661   1.273   5.576  11.860
 4074SOL     OW13662   1.020   4.259  11.203
 4074SOL    HW113663   0.972   4.341  11.192
 4074SOL    HW213664   1.080   4.275  11.275
 4075SOL     OW13665   0.577   3.946  12.369
 4075SOL    HW113666   0.597   3.873  12.310
 4075SOL    HW213667   0.481   3.946  12.375
 4076SOL     OW13668   0.796   4.137  11.807
 4076SOL    HW113669   0.829   4.226  11.793
 4076SOL    HW213670   0.854   4.082  11.755
 4077SOL     OW13671   1.018   3.779  11.935
 4077SOL    HW113672   0.955   3.781  11.862
 4077SOL    HW213673   0.996   3.700  11.983
 4078SOL     OW13674   1.457   4.888  12.002
 4078SOL    HW113675   1.396   4.822  11.968
 4078SOL    HW213676   1.517   4.905  11.929
 4079SOL     OW13677   1.448   4.347  12.160
 4079SOL    HW113678   1.404   4.264  12.141
 4079SOL    HW213679   1.521   4.324  12.217
 4080SOL     OW13680   1.849   4.526  11.568
 4080SOL    HW113681   1.906   4.474  11.626
 4080SOL    HW213682   1.815   4.463  11.505
 4081SOL     OW13683   0.481   5.151  11.322
 4081SOL    HW113684   0.403   5.112  11.361
 4081SOL    HW213685   0.500   5.095  11.246
 4082SOL     OW13686   1.668   4.978  11.829
 4082SOL    HW113687   1.762   4.968  11.838
 4082SOL    HW213688   1.652   5.072  11.841
 4083SOL     OW13689   1.412   4.306  11.258
 4083SOL    HW113690   1.339   4.279  11.314
 4083SOL    HW213691   1.488   4.261  11.294
 4084SOL     OW13692   0.509   3.993  11.489
 4084SOL    HW113693   0.559   3.941  11.426
 4084SOL    HW213694   0.496   4.078  11.445
 4085SOL     OW13695   1.114   4.958  12.298
 4085SOL    HW113696   1.028   4.974  12.337
 4085SOL    HW213697   1.102   4.975  12.205
 4086SOL     OW13698   1.577   4.848  12.241
 4086SOL    HW113699   1.634   4.923  12.256
 4086SOL    HW213700   1.534   4.867  12.157
 4087SOL     OW13701   0.722   4.818  11.575
 4087SOL    HW113702   0.707   4.773  11.658
 4087SOL    HW213703   0.776   4.757  11.525
 4088SOL     OW13704   0.450   4.537  12.444
 4088SOL    HW113705   0.493   4.578  12.519
 4088SOL    HW213706   0.399   4.465  12.482
 4089SOL     OW13707   1.244   4.084  12.465
 4089SOL    HW113708   1.290   4.165  12.489
 4089SOL    HW213709   1.164   4.114  12.423
 4090SOL     OW13710   0.333   4.829  11.660
 4090SOL    HW113711   0.355   4.902  11.602
 4090SOL    HW213712   0.341   4.752  11.604
 4091SOL     OW13713   0.556   4.243  12.027
 4091SOL    HW113714   0.568   4.309  11.959
 4091SOL    HW213715   0.627   4.258  12.089
 4092SOL     OW13716   1.255   5.077  11.560
 4092SOL    HW113717   1.312   5.146  11.594
 4092SOL    HW213718   1.169   5.098  11.596
 4093SOL     OW13719   1.295   5.165  12.324
 4093SOL    HW113720   1.346   5.160  12.404
 4093SOL    HW213721   1.237   5.089  12.327
 4094SOL     OW13722   1.510   4.459  11.607
 4094SOL    HW113723   1.510   4.453  11.702
 4094SOL    HW213724   1.529   4.370  11.577
 4095SOL     OW13725   0.362   5.273  12.465
 4095SOL    HW113726   0.336   5.216  12.393
 4095SOL    HW213727   0.441   5.318  12.433
 4096SOL     OW13728   0.576   4.595  12.207
 4096SOL    HW113729   0.606   4.686  12.211
 4096SOL    HW213730   0.533   4.579  12.291
 4097SOL     OW13731   1.331   4.588  12.205
 4097SOL    HW113732   1.284   4.610  12.125
 4097SOL    HW213733   1.372   4.503  12.186
 4098SOL     OW13734   1.196   4.260  11.427
 4098SOL    HW113735   1.227   4.187  11.482
 4098SOL    HW213736   1.146   4.315  11.487
 4099SOL     OW13737   0.307   3.927  12.386
 4099SOL    HW113738   0.249   3.982  12.439
 4099SOL    HW213739   0.279   3.837  12.406
 4100SOL     OW13740   0.075   5.056  12.436
 4100SOL    HW113741   0.059   5.007  12.517
 4100SOL    HW213742   0.075   5.148  12.464
 4101SOL     OW13743   0.715   4.348  12.234
 4101SOL    HW113744   0.795   4.330  12.185
 4101SOL    HW213745   0.691   4.437  12.208
 4102SOL     OW13746   0.294   3.787  11.783
 4102SOL    HW113747   0.204   3.819  11.790
 4102SOL    HW213748   0.313   3.750  11.869
 4103SOL     OW13749   0.982   4.509  12.157
 4103SOL    HW113750   1.031   4.451  12.215
 4103SOL    HW213751   1.008   4.483  12.069
 4104SOL     OW13752   1.497   3.992  11.275
 4104SOL    HW113753   1.442   3.922  11.310
 4104SOL    HW213754   1.524   4.042  11.352
 4105SOL     OW13755   1.064   5.075  12.035
 4105SOL    HW113756   1.071   4.999  11.977
 4105SOL    HW213757   1.128   5.138  12.001
 4106SOL     OW13758   0.316   4.541  12.111
 4106SOL    HW113759   0.408   4.563  12.119
 4106SOL    HW213760   0.311   4.448  12.134
 4107SOL     OW13761   0.323   4.265  12.153
 4107SOL    HW113762   0.306   4.173  12.172
 4107SOL    HW213763   0.412   4.266  12.118
 4108SOL     OW13764   1.154   3.929   0.170
 4108SOL    HW113765   1.179   3.976   0.249
 4108SOL    HW213766   1.187   3.983   0.098
 4109SOL     OW13767   7.993   5.027  11.380
 4109SOL    HW113768   7.903   5.043  11.409
 4109SOL    HW213769   8.001   4.931  11.380
 4110SOL     OW13770   0.102   5.474  12.116
 4110SOL    HW113771   0.103   5.390  12.070
 4110SOL    HW213772   0.184   5.517  12.090
 4111SOL     OW13773   0.515   5.294  12.070
 4111SOL    HW113774   0.590   5.286  12.129
 4111SOL    HW213775   0.537   5.237  11.996
 4112SOL     OW13776   0.976   4.499  12.441
 4112SOL    HW113777   0.986   4.578  12.496
 4112SOL    HW213778   0.937   4.531  12.360
 4113SOL     OW13779   0.095   4.298  12.306
 4113SOL    HW113780   0.182   4.305  12.265
 4113SOL    HW213781   0.071   4.388  12.327
 4114SOL     OW13782   0.826   4.282  11.513
 4114SOL    HW113783   0.813   4.209  11.452
 4114SOL    HW213784   0.752   4.340  11.496
 4115SOL     OW13785   1.658   4.318  12.347
 4115SOL    HW113786   1.663   4.254  12.418
 4115SOL    HW213787   1.745   4.317  12.307
 4116SOL     OW13788   0.708   4.197  12.454
 4116SOL    HW113789   0.656   4.121  12.429
 4116SOL    HW213790   0.704   4.255  12.378
 4117SOL     OW13791   0.882   5.369   0.043
 4117SOL    HW113792   0.893   5.443  -0.016
 4117SOL    HW213793   0.934   5.391   0.120
 4118SOL     OW13794   0.477   4.220  11.336
 4118SOL    HW113795   0.534   4.290  11.368
 4118SOL    HW213796   0.397   4.265  11.309
 4119SOL     OW13797   1.288   4.546  11.399
 4119SOL    HW113798   1.251   4.601  11.468
 4119SOL    HW213799   1.293   4.458  11.438
 4120SOL     OW13800   1.792   5.476  12.328
 4120SOL    HW113801   1.846   5.495  12.251
 4120SOL    HW213802   1.758   5.388  12.312
 4121SOL     OW13803   1.186   5.418  12.281
 4121SOL    HW113804   1.244   5.492  12.268
 4121SOL    HW213805   1.242   5.341  12.271
 4122SOL     OW13806   0.079   4.939  12.197
 4122SOL    HW113807   0.080   4.978  12.284
 4122SOL    HW213808  -0.003   4.968  12.158
 4123SOL     OW13809   1.788   3.866  11.728
 4123SOL    HW113810   1.820   3.860  11.638
 4123SOL    HW213811   1.745   3.782  11.744
 4124SOL     OW13812   1.399   5.292  11.666
 4124SOL    HW113813   1.461   5.320  11.599
 4124SOL    HW213814   1.355   5.372  11.694
 4125SOL     OW13815   1.295   4.682  11.892
 4125SOL    HW113816   1.263   4.595  11.872
 4125SOL    HW213817   1.323   4.718  11.808
 4126SOL     OW13818   0.661   5.350  11.326
 4126SOL    HW113819   0.730   5.301  11.281
 4126SOL    HW213820   0.588   5.288  11.332
 4127SOL     OW13821   1.659   5.499   0.060
 4127SOL    HW113822   1.711   5.488  -0.019
 4127SOL    HW213823   1.644   5.594   0.065
 4128SOL     OW13824   1.832   3.894  12.154
 4128SOL    HW113825   1.867   3.812  12.120
 4128SOL    HW213826   1.750   3.907  12.107
 4129SOL     OW13827   1.183   5.317  11.203
 4129SOL    HW113828   1.180   5.227  11.236
 4129SOL    HW213829   1.112   5.320  11.138
 4130SOL     OW13830   0.832   4.786  12.486
 4130SOL    HW113831   0.813   4.804  12.394
 4130SOL    HW213832   0.847   4.872  12.525
 4131SOL     OW13833   0.916   4.652  11.473
 4131SOL    HW113834   0.973   4.687  11.404
 4131SOL    HW213835   0.966   4.579  11.509
 4132SOL     OW13836   1.453   5.406  11.218
 4132SOL    HW113837   1.369   5.366  11.194
 4132SOL    HW213838   1.511   5.386  11.144
 4133SOL     OW13839   1.063   4.844  11.898
 4133SOL    HW113840   0.988   4.790  11.921
 4133SOL    HW213841   1.135   4.782  11.886
 4134SOL     OW13842   1.034   3.960  12.143
 4134SOL    HW113843   1.034   3.915  12.058
 4134SOL    HW213844   1.032   3.889  12.207
 4135SOL     OW13845   0.608   5.211  11.632
 4135SOL    HW113846   0.660   5.161  11.570
 4135SOL    HW213847   0.517   5.200  11.602
 4136SOL     OW13848   1.766   4.144   0.040
 4136SOL    HW113849   1.861   4.155   0.049
 4136SOL    HW213850   1.756   4.053   0.009
 4137SOL     OW13851   0.253   5.061  11.442
 4137SOL    HW113852   0.157   5.061  11.436
 4137SOL    HW213853   0.271   5.098  11.529
 4138SOL     OW13854   0.081   4.053  11.174
 4138SOL    HW113855   0.031   4.098  11.242
 4138SOL    HW213856   0.108   4.122  11.114
 4139SOL     OW13857   0.090   3.953  11.550
 4139SOL    HW113858   0.113   4.041  11.520
 4139SOL    HW213859   0.158   3.897  11.513
 4140SOL     OW13860   1.174   5.047  11.299
 4140SOL    HW113861   1.124   4.965  11.306
 4140SOL    HW213862   1.205   5.065  11.388
 4141SOL     OW13863   1.489   5.445  12.071
 4141SOL    HW113864   1.535   5.510  12.017
 4141SOL    HW213865   1.473   5.490  12.154
 4142SOL     OW13866   1.615   4.583  12.392
 4142SOL    HW113867   1.620   4.488  12.381
 4142SOL    HW213868   1.695   4.617  12.351
 4143SOL     OW13869   1.207   4.041  11.622
 4143SOL    HW113870   1.278   3.978  11.609
 4143SOL    HW213871   1.233   4.090  11.700
 4144SOL     OW13872   0.574   4.446  11.850
 4144SOL    HW113873   0.622   4.529  11.843
 4144SOL    HW213874   0.511   4.449  11.777
 4145SOL     OW13875   1.814   4.651   0.081
 4145SOL    HW113876   1.799   4.693   0.166
 4145SOL    HW213877   1.727   4.623   0.053
 4146SOL     OW13878   0.802   5.138  11.223
 4146SOL    HW113879   0.796   5.100  11.311
 4146SOL    HW213880   0.896   5.144  11.206
 4147SOL     OW13881   0.852   4.716  12.031
 4147SOL    HW113882   0.895   4.638  12.067
 4147SOL    HW213883   0.823   4.765  12.107
 4148SOL     OW13884   1.091   4.768  11.272
 4148SOL    HW113885   1.051   4.787  11.187
 4148SOL    HW213886   1.146   4.691  11.256
 4149SOL     OW13887   1.857   5.270  12.011
 4149SOL    HW113888   1.772   5.260  11.970
 4149SOL    HW213889   1.870   5.190  12.061
 4150SOL     OW13890   0.133   4.988  11.818
 4150SOL    HW113891   0.056   4.951  11.861
 4150SOL    HW213892   0.189   4.912  11.801
 4151SOL     OW13893   1.821   3.883  12.430
 4151SOL    HW113894   1.884   3.813  12.445
 4151SOL    HW213895   1.819   3.895  12.335
 4152SOL     OW13896   0.395   4.119  11.775
 4152SOL    HW113897   0.399   4.080  11.688
 4152SOL    HW213898   0.485   4.140  11.797
 4153SOL     OW13899   1.702   5.224  12.297
 4153SOL    HW113900   1.632   5.192  12.240
 4153SOL    HW213901   1.715   5.153  12.360
 4154SOL     OW13902   0.817   5.311  11.845
 4154SOL    HW113903   0.795   5.367  11.771
 4154SOL    HW213904   0.748   5.245  11.847
 4155SOL     OW13905   1.430   3.948  12.306
 4155SOL    HW113906   1.505   3.904  12.347
 4155SOL    HW213907   1.381   3.984  12.380
 4156SOL     OW13908   1.016   3.723  12.293
 4156SOL    HW113909   0.978   3.658  12.234
 4156SOL    HW213910   1.103   3.690  12.313
 4157SOL     OW13911   0.793   5.062  11.485
 4157SOL    HW113912   0.762   4.974  11.507
 4157SOL    HW213913   0.872   5.073  11.539
 4158SOL     OW13914   1.344   3.767  11.340
 4158SOL    HW113915   1.382   3.682  11.317
 4158SOL    HW213916   1.250   3.755  11.327
 4159SOL     OW13917   1.270   4.162  11.855
 4159SOL    HW113918   1.221   4.244  11.861
 4159SOL    HW213919   1.296   4.143  11.945
 4160SOL     OW13920   1.576   3.923  12.053
 4160SOL    HW113921   1.514   3.954  12.119
 4160SOL    HW213922   1.583   3.995  11.990
 4161SOL     OW13923   0.052   4.754  11.451
 4161SOL    HW113924   0.145   4.744  11.434
 4161SOL    HW213925   0.047   4.776  11.544
 4162SOL     OW13926   0.892   5.390  11.514
 4162SOL    HW113927   0.810   5.367  11.469
 4162SOL    HW213928   0.869   5.464  11.570
 4163SOL     OW13929   0.235   6.193   0.117
 4163SOL    HW113930   0.193   6.123   0.066
 4163SOL    HW213931   0.277   6.249   0.051
 4164SOL     OW13932   0.232   5.856   0.984
 4164SOL    HW113933   0.256   5.827   1.072
 4164SOL    HW213934   0.150   5.810   0.964
 4165SOL     OW13935   8.006   5.977   0.595
 4165SOL    HW113936   7.922   5.957   0.636
 4165SOL    HW213937   8.015   5.913   0.525
 4166SOL     OW13938   0.560   6.891   1.160
 4166SOL    HW113939   0.472   6.871   1.193
 4166SOL    HW213940   0.585   6.972   1.204
 4167SOL     OW13941   1.559   7.110   0.729
 4167SOL    HW113942   1.527   7.083   0.815
 4167SOL    HW213943   1.484   7.099   0.670
 4168SOL     OW13944   1.167   6.265   0.726
 4168SOL    HW113945   1.135   6.287   0.638
 4168SOL    HW213946   1.106   6.307   0.786
 4169SOL     OW13947   1.736   6.199   0.249
 4169SOL    HW113948   1.752   6.156   0.165
 4169SOL    HW213949   1.695   6.131   0.304
 4170SOL     OW13950   0.746   6.736   1.028
 4170SOL    HW113951   0.678   6.788   1.071
 4170SOL    HW213952   0.828   6.776   1.055
 4171SOL     OW13953   0.879   6.347   1.827
 4171SOL    HW113954   0.879   6.413   1.896
 4171SOL    HW213955   0.901   6.395   1.747
 4172SOL     OW13956   0.688   6.592   0.647
 4172SOL    HW113957   0.755   6.577   0.713
 4172SOL    HW213958   0.616   6.633   0.695
 4173SOL     OW13959   0.703   6.721   1.813
 4173SOL    HW113960   0.747   6.800   1.844
 4173SOL    HW213961   0.622   6.752   1.773
 4174SOL     OW13962   0.300   7.053   1.050
 4174SOL    HW113963   0.253   6.978   1.012
 4174SOL    HW213964   0.378   7.062   0.996
 4175SOL     OW13965   1.464   7.084   1.357
 4175SOL    HW113966   1.521   7.160   1.369
 4175SOL    HW213967   1.391   7.099   1.417
 4176SOL     OW13968   0.469   5.962   1.472
 4176SOL    HW113969   0.548   5.908   1.477
 4176SOL    HW213970   0.412   5.929   1.541
 4177SOL     OW13971   1.607   6.033   0.742
 4177SOL    HW113972   1.528   6.055   0.693
 4177SOL    HW213973   1.603   6.089   0.820
 4178SOL     OW13974   0.229   7.303   0.479
 4178SOL    HW113975   0.245   7.376   0.539
 4178SOL    HW213976   0.308   7.298   0.426
 4179SOL     OW13977   1.170   6.922   1.671
 4179SOL    HW113978   1.177   6.984   1.743
 4179SOL    HW213979   1.111   6.854   1.703
 4180SOL     OW13980   0.292   7.038   0.523
 4180SOL    HW113981   0.263   7.127   0.542
 4180SOL    HW213982   0.240   6.982   0.582
 4181SOL     OW13983   0.256   6.648   0.917
 4181SOL    HW113984   0.279   6.615   1.004
 4181SOL    HW213985   0.195   6.720   0.934
 4182SOL     OW13986   0.577   7.410   1.386
 4182SOL    HW113987   0.517   7.381   1.454
 4182SOL    HW213988   0.641   7.465   1.432
 4183SOL     OW13989   0.567   6.643   0.174
 4183SOL    HW113990   0.628   6.634   0.101
 4183SOL    HW213991   0.623   6.644   0.252
 4184SOL     OW13992   1.596   5.699   1.455
 4184SOL    HW113993   1.534   5.743   1.397
 4184SOL    HW213994   1.578   5.735   1.542
 4185SOL     OW13995   0.120   6.230   0.550
 4185SOL    HW113996   0.098   6.139   0.571
 4185SOL    HW213997   0.110   6.277   0.633
 4186SOL     OW13998   1.856   7.333   0.308
 4186SOL    HW113999   1.925   7.313   0.372
 4186SOL    HW214000   1.865   7.427   0.292
 4187SOL     OW14001   0.010   7.119   0.119
 4187SOL    HW114002  -0.026   7.065   0.190
 4187SOL    HW214003   0.037   7.200   0.162
 4188SOL     OW14004   1.690   6.519   0.668
 4188SOL    HW114005   1.771   6.469   0.666
 4188SOL    HW214006   1.681   6.555   0.580
 4189SOL     OW14007   1.658   6.702   0.432
 4189SOL    HW114008   1.747   6.700   0.395
 4189SOL    HW214009   1.662   6.770   0.499
 4190SOL     OW14010   0.099   6.420   1.516
 4190SOL    HW114011   0.144   6.341   1.547
 4190SOL    HW214012   0.113   6.484   1.586
 4191SOL     OW14013   0.559   6.949   0.640
 4191SOL    HW114014   0.536   6.861   0.670
 4191SOL    HW214015   0.520   7.007   0.706
 4192SOL     OW14016   1.305   6.800   1.424
 4192SOL    HW114017   1.382   6.823   1.372
 4192SOL    HW214018   1.328   6.824   1.513
 4193SOL     OW14019   0.826   5.593   0.522
 4193SOL    HW114020   0.866   5.676   0.498
 4193SOL    HW214021   0.732   5.611   0.525
 4194SOL     OW14022   0.192   6.522   1.232
 4194SOL    HW114023   0.278   6.480   1.236
 4194SOL    HW214024   0.140   6.474   1.296
 4195SOL     OW14025   1.528   6.612   0.212
 4195SOL    HW114026   1.454   6.559   0.241
 4195SOL    HW214027   1.574   6.636   0.292
 4196SOL     OW14028   1.147   7.399   1.625
 4196SOL    HW114029   1.205   7.376   1.553
 4196SOL    HW214030   1.163   7.333   1.692
 4197SOL     OW14031   0.345   5.836   1.820
 4197SOL    HW114032   0.393   5.917   1.839
 4197SOL    HW214033   0.254   5.857   1.843
 4198SOL     OW14034   1.459   7.000   0.963
 4198SOL    HW114035   1.392   7.014   1.029
 4198SOL    HW214036   1.445   6.910   0.932
 4199SOL     OW14037   1.642   7.346   0.587
 4199SOL    HW114038   1.627   7.302   0.503
 4199SOL    HW214039   1.628   7.277   0.652
 4200SOL     OW14040   0.584   6.314   0.259
 4200SOL    HW114041   0.563   6.381   0.194
 4200SOL    HW214042   0.517   6.323   0.326
 4201SOL     OW14043   1.306   5.938   0.954
 4201SOL    HW114044   1.214   5.919   0.973
 4201SOL    HW214045   1.354   5.869   1.001
 4202SOL     OW14046   1.595   7.265   0.325
 4202SOL    HW114047   1.690   7.276   0.323
 4202SOL    HW214048   1.566   7.282   0.236
 4203SOL     OW14049   0.788   6.214   1.434
 4203SOL    HW114050   0.771   6.192   1.526
 4203SOL    HW214051   0.760   6.137   1.385
 4204SOL     OW14052   1.388   6.038   1.690
 4204SOL    HW114053   1.399   6.085   1.773
 4204SOL    HW214054   1.443   5.960   1.698
 4205SOL     OW14055   0.956   6.474   1.589
 4205SOL    HW114056   1.005   6.402   1.548
 4205SOL    HW214057   0.906   6.512   1.517
 4206SOL     OW14058   0.989   6.015   1.219
 4206SOL    HW114059   0.900   6.020   1.252
 4206SOL    HW214060   0.987   5.944   1.155
 4207SOL     OW14061   0.098   6.395   0.783
 4207SOL    HW114062   0.172   6.455   0.777
 4207SOL    HW214063   0.046   6.427   0.857
 4208SOL     OW14064   0.126   7.391   1.570
 4208SOL    HW114065   0.144   7.358   1.658
 4208SOL    HW214066   0.052   7.450   1.581
 4209SOL     OW14067   0.879   5.948   0.222
 4209SOL    HW114068   0.918   6.012   0.162
 4209SOL    HW214069   0.880   5.866   0.173
 4210SOL     OW14070   1.681   6.161   1.829
 4210SOL    HW114071   1.645   6.224   1.767
 4210SOL    HW214072   1.726   6.097   1.774
 4211SOL     OW14073   1.389   6.723   0.529
 4211SOL    HW114074   1.474   6.719   0.487
 4211SOL    HW214075   1.338   6.784   0.476
 4212SOL     OW14076   0.554   5.750   0.909
 4212SOL    HW114077   0.556   5.780   1.000
 4212SOL    HW214078   0.558   5.831   0.858
 4213SOL     OW14079   1.008   7.020   0.470
 4213SOL    HW114080   0.968   7.101   0.439
 4213SOL    HW214081   1.010   7.029   0.565
 4214SOL     OW14082   0.357   7.408   0.879
 4214SOL    HW114083   0.403   7.324   0.885
 4214SOL    HW214084   0.423   7.473   0.905
 4215SOL     OW14085   1.764   6.717   0.847
 4215SOL    HW114086   1.731   6.647   0.790
 4215SOL    HW214087   1.718   6.704   0.930
 4216SOL     OW14088   1.228   7.123   1.485
 4216SOL    HW114089   1.220   7.062   1.559
 4216SOL    HW214090   1.137   7.143   1.461
 4217SOL     OW14091   0.324   6.532   0.197
 4217SOL    HW114092   0.407   6.581   0.194
 4217SOL    HW214093   0.325   6.478   0.118
 4218SOL     OW14094   1.492   6.320   0.719
 4218SOL    HW114095   1.471   6.288   0.807
 4218SOL    HW214096   1.548   6.396   0.734
 4219SOL     OW14097   0.465   6.842   1.733
 4219SOL    HW114098   0.440   6.846   1.641
 4219SOL    HW214099   0.382   6.834   1.780
 4220SOL     OW14100   1.137   7.310   0.255
 4220SOL    HW114101   1.158   7.316   0.348
 4220SOL    HW214102   1.046   7.282   0.252
 4221SOL     OW14103   0.173   5.869   1.486
 4221SOL    HW114104   0.170   5.943   1.547
 4221SOL    HW214105   0.154   5.793   1.540
 4222SOL     OW14106   1.619   7.015   0.008
 4222SOL    HW114107   1.682   7.026   0.079
 4222SOL    HW214108   1.563   6.943   0.037
 4223SOL     OW14109   0.458   7.325   0.326
 4223SOL    HW114110   0.504   7.388   0.382
 4223SOL    HW214111   0.525   7.292   0.267
 4224SOL     OW14112   1.410   5.680   0.428
 4224SOL    HW114113   1.408   5.654   0.336
 4224SOL    HW214114   1.503   5.691   0.448
 4225SOL     OW14115   0.280   7.389   1.232
 4225SOL    HW114116   0.343   7.347   1.291
 4225SOL    HW214117   0.228   7.317   1.197
 4226SOL     OW14118   0.949   7.273   0.839
 4226SOL    HW114119   1.024   7.251   0.895
 4226SOL    HW214120   0.873   7.252   0.893
 4227SOL     OW14121   0.390   6.282   0.464
 4227SOL    HW114122   0.420   6.191   0.473
 4227SOL    HW214123   0.298   6.279   0.494
 4228SOL     OW14124   1.527   5.797   1.722
 4228SOL    HW114125   1.535   5.818   1.815
 4228SOL    HW214126   1.462   5.727   1.719
 4229SOL     OW14127   0.644   5.698   0.118
 4229SOL    HW114128   0.739   5.689   0.111
 4229SOL    HW214129   0.610   5.614   0.087
 4230SOL     OW14130   0.741   5.881   1.757
 4230SOL    HW114131   0.811   5.817   1.768
 4230SOL    HW214132   0.684   5.867   1.833
 4231SOL     OW14133   1.355   6.189   1.467
 4231SOL    HW114134   1.364   6.118   1.531
 4231SOL    HW214135   1.419   6.254   1.494
 4232SOL     OW14136   0.776   6.998   0.852
 4232SOL    HW114137   0.855   7.015   0.904
 4232SOL    HW214138   0.776   6.903   0.838
 4233SOL     OW14139   0.905   6.084   0.906
 4233SOL    HW114140   0.896   6.077   0.811
 4233SOL    HW214141   0.952   6.004   0.931
 4234SOL     OW14142   0.560   5.650   0.498
 4234SOL    HW114143   0.481   5.648   0.553
 4234SOL    HW214144   0.548   5.726   0.441
 4235SOL     OW14145   1.440   6.812   0.051
 4235SOL    HW114146   1.477   6.753   0.117
 4235SOL    HW214147   1.372   6.760   0.009
 4236SOL     OW14148   0.301   5.697   0.202
 4236SOL    HW114149   0.371   5.752   0.235
 4236SOL    HW214150   0.329   5.608   0.223
 4237SOL     OW14151   0.946   5.834   0.466
 4237SOL    HW114152   0.916   5.879   0.387
 4237SOL    HW214153   1.040   5.851   0.469
 4238SOL     OW14154   1.091   6.267   1.466
 4238SOL    HW114155   1.039   6.190   1.487
 4238SOL    HW214156   1.181   6.237   1.469
 4239SOL     OW14157   1.234   7.131   0.777
 4239SOL    HW114158   1.243   7.213   0.729
 4239SOL    HW214159   1.283   7.144   0.858
 4240SOL     OW14160   0.455   6.714   0.735
 4240SOL    HW114161   0.394   6.689   0.805
 4240SOL    HW214162   0.407   6.694   0.654
 4241SOL     OW14163   1.254   7.382   0.591
 4241SOL    HW114164   1.310   7.453   0.560
 4241SOL    HW214165   1.188   7.425   0.644
 4242SOL     OW14166   1.028   6.136   0.068
 4242SOL    HW114167   1.072   6.207   0.020
 4242SOL    HW214168   1.080   6.127   0.149
 4243SOL     OW14169   0.090   6.171   1.367
 4243SOL    HW114170   0.183   6.155   1.349
 4243SOL    HW214171   0.080   6.155   1.460
 4244SOL     OW14172   0.559   5.813   1.178
 4244SOL    HW114173   0.603   5.749   1.233
 4244SOL    HW214174   0.469   5.814   1.209
 4245SOL     OW14175   0.855   6.042   0.643
 4245SOL    HW114176   0.822   6.098   0.572
 4245SOL    HW214177   0.886   5.963   0.599
 4246SOL     OW14178   1.033   5.632   0.735
 4246SOL    HW114179   0.964   5.631   0.669
 4246SOL    HW214180   1.006   5.567   0.799
 4247SOL     OW14181   1.429   6.748   0.858
 4247SOL    HW114182   1.365   6.677   0.851
 4247SOL    HW214183   1.464   6.757   0.769
 4248SOL     OW14184   1.463   6.179   0.965
 4248SOL    HW114185   1.406   6.102   0.974
 4248SOL    HW214186   1.521   6.174   1.041
 4249SOL     OW14187   1.832   6.406   0.389
 4249SOL    HW114188   1.877   6.356   0.457
 4249SOL    HW214189   1.785   6.341   0.338
 4250SOL     OW14190   0.485   6.979   0.149
 4250SOL    HW114191   0.410   6.947   0.200
 4250SOL    HW214192   0.519   6.902   0.104
 4251SOL     OW14193   1.676   6.881   0.625
 4251SOL    HW114194   1.745   6.850   0.685
 4251SOL    HW214195   1.646   6.963   0.665
 4252SOL     OW14196   1.395   6.150   0.092
 4252SOL    HW114197   1.337   6.136   0.166
 4252SOL    HW214198   1.458   6.078   0.096
 4253SOL     OW14199   0.515   5.841   0.307
 4253SOL    HW114200   0.572   5.797   0.244
 4253SOL    HW214201   0.503   5.929   0.271
 4254SOL     OW14202   1.757   6.819   1.565
 4254SOL    HW114203   1.845   6.782   1.573
 4254SOL    HW214204   1.768   6.912   1.587
 4255SOL     OW14205   1.080   6.916   1.314
 4255SOL    HW114206   0.999   6.913   1.365
 4255SOL    HW214207   1.147   6.881   1.374
 4256SOL     OW14208   1.593   7.239   1.659
 4256SOL    HW114209   1.611   7.238   1.566
 4256SOL    HW214210   1.675   7.213   1.701
 4257SOL     OW14211   1.097   6.761   1.095
 4257SOL    HW114212   1.090   6.818   1.171
 4257SOL    HW214213   1.095   6.821   1.020
 4258SOL     OW14214   1.617   6.691   1.075
 4258SOL    HW114215   1.606   6.743   1.154
 4258SOL    HW214216   1.535   6.700   1.028
 4259SOL     OW14217   0.922   5.692   1.391
 4259SOL    HW114218   0.947   5.669   1.301
 4259SOL    HW214219   1.002   5.726   1.430
 4260SOL     OW14220   0.996   6.706   1.734
 4260SOL    HW114221   0.908   6.729   1.764
 4260SOL    HW214222   0.984   6.626   1.683
 4261SOL     OW14223   0.732   6.656   0.388
 4261SOL    HW114224   0.719   6.630   0.479
 4261SOL    HW214225   0.799   6.596   0.356
 4262SOL     OW14226   0.421   6.369   1.243
 4262SOL    HW114227   0.484   6.395   1.310
 4262SOL    HW214228   0.385   6.286   1.275
 4263SOL     OW14229   1.246   5.980   1.306
 4263SOL    HW114230   1.287   6.061   1.336
 4263SOL    HW214231   1.160   6.006   1.275
 4264SOL     OW14232   0.067   7.203   1.327
 4264SOL    HW114233   0.069   7.266   1.399
 4264SOL    HW214234   0.150   7.156   1.334
 4265SOL     OW14235   0.328   6.678   0.493
 4265SOL    HW114236   0.338   6.742   0.423
 4265SOL    HW214237   0.346   6.593   0.451
 4266SOL     OW14238   0.568   6.138   0.841
 4266SOL    HW114239   0.562   6.199   0.767
 4266SOL    HW214240   0.661   6.115   0.845
 4267SOL     OW14241   1.254   6.934   0.383
 4267SOL    HW114242   1.307   7.006   0.417
 4267SOL    HW214243   1.168   6.947   0.423
 4268SOL     OW14244   1.275   7.057   1.160
 4268SOL    HW114245   1.339   7.064   1.231
 4268SOL    HW214246   1.197   7.020   1.202
 4269SOL     OW14247   1.555   6.202   0.484
 4269SOL    HW114248   1.523   6.239   0.567
 4269SOL    HW214249   1.570   6.278   0.428
 4270SOL     OW14250   0.328   7.103   1.315
 4270SOL    HW114251   0.315   7.080   1.222
 4270SOL    HW214252   0.422   7.114   1.324
 4271SOL     OW14253   0.427   6.351   1.600
 4271SOL    HW114254   0.503   6.371   1.545
 4271SOL    HW214255   0.431   6.256   1.613
 4272SOL     OW14256   1.575   6.360   1.667
 4272SOL    HW114257   1.495   6.412   1.659
 4272SOL    HW214258   1.640   6.409   1.616
 4273SOL     OW14259   0.480   5.599   1.754
 4273SOL    HW114260   0.444   5.553   1.678
 4273SOL    HW214261   0.431   5.681   1.758
 4274SOL     OW14262   0.576   6.509   1.042
 4274SOL    HW114263   0.632   6.580   1.011
 4274SOL    HW214264   0.562   6.528   1.135
 4275SOL     OW14265   1.345   6.428   1.010
 4275SOL    HW114266   1.276   6.428   0.944
 4275SOL    HW214267   1.384   6.341   1.005
 4276SOL     OW14268   1.199   6.111   0.282
 4276SOL    HW114269   1.212   6.042   0.347
 4276SOL    HW214270   1.162   6.184   0.333
 4277SOL     OW14271   0.293   5.807   1.246
 4277SOL    HW114272   0.257   5.834   1.330
 4277SOL    HW214273   0.286   5.711   1.247
 4278SOL     OW14274   0.038   6.901   1.273
 4278SOL    HW114275   0.064   6.832   1.334
 4278SOL    HW214276   0.045   6.982   1.324
 4279SOL     OW14277   0.731   6.232   1.059
 4279SOL    HW114278   0.794   6.178   1.011
 4279SOL    HW214279   0.781   6.311   1.083
 4280SOL     OW14280   1.728   6.549   1.840
 4280SOL    HW114281   1.687   6.463   1.826
 4280SOL    HW214282   1.680   6.587   1.914
 4281SOL     OW14283   0.316   5.652   0.624
 4281SOL    HW114284   0.285   5.740   0.643
 4281SOL    HW214285   0.321   5.609   0.709
 4282SOL     OW14286   1.611   5.957   0.392
 4282SOL    HW114287   1.609   5.894   0.465
 4282SOL    HW214288   1.580   6.039   0.430
 4283SOL     OW14289   1.006   6.343   0.962
 4283SOL    HW114290   1.009   6.354   1.057
 4283SOL    HW214291   0.992   6.249   0.949
 4284SOL     OW14292   0.918   7.168   1.705
 4284SOL    HW114293   0.940   7.174   1.612
 4284SOL    HW214294   1.002   7.172   1.750
 4285SOL     OW14295   1.831   7.069   1.606
 4285SOL    HW114296   1.886   7.112   1.540
 4285SOL    HW214297   1.856   7.111   1.688
 4286SOL     OW14298   0.368   6.522   1.803
 4286SOL    HW114299   0.446   6.531   1.858
 4286SOL    HW214300   0.394   6.461   1.735
 4287SOL     OW14301   1.520   5.898   0.140
 4287SOL    HW114302   1.470   5.817   0.142
 4287SOL    HW214303   1.551   5.910   0.230
 4288SOL     OW14304   1.272   6.378   0.010
 4288SOL    HW114305   1.321   6.299   0.031
 4288SOL    HW214306   1.336   6.438  -0.027
 4289SOL     OW14307   1.059   6.923   0.860
 4289SOL    HW114308   1.063   6.848   0.800
 4289SOL    HW214309   1.123   6.985   0.825
 4290SOL     OW14310   0.358   6.093   0.998
 4290SOL    HW114311   0.304   6.015   0.992
 4290SOL    HW214312   0.418   6.087   0.923
 4291SOL     OW14313   1.119   6.009   1.644
 4291SOL    HW114314   1.073   6.030   1.725
 4291SOL    HW214315   1.212   6.019   1.664
 4292SOL     OW14316   1.160   5.787   1.483
 4292SOL    HW114317   1.137   5.854   1.547
 4292SOL    HW214318   1.203   5.835   1.413
 4293SOL     OW14319   7.911   6.863   0.214
 4293SOL    HW114320   7.939   6.873   0.123
 4293SOL    HW214321   7.970   6.798   0.250
 4294SOL     OW14322   0.093   7.323   0.912
 4294SOL    HW114323   0.113   7.245   0.964
 4294SOL    HW214324   0.178   7.363   0.894
 4295SOL     OW14325   0.528   7.131   0.894
 4295SOL    HW114326   0.566   7.217   0.915
 4295SOL    HW214327   0.601   7.070   0.902
 4296SOL     OW14328   0.954   6.355   1.236
 4296SOL    HW114329   1.034   6.344   1.287
 4296SOL    HW214330   0.886   6.315   1.291
 4297SOL     OW14331   0.062   6.120   1.108
 4297SOL    HW114332   0.117   6.042   1.115
 4297SOL    HW214333   0.056   6.154   1.197
 4298SOL     OW14334   1.372   6.535   1.602
 4298SOL    HW114335   1.405   6.621   1.629
 4298SOL    HW214336   1.277   6.541   1.616
 4299SOL     OW14337   0.747   6.122   0.396
 4299SOL    HW114338   0.789   6.067   0.330
 4299SOL    HW214339   0.712   6.196   0.347
 4300SOL     OW14340   1.645   6.178   1.170
 4300SOL    HW114341   1.638   6.121   1.246
 4300SOL    HW214342   1.734   6.166   1.138
 4301SOL     OW14343   0.282   7.117   1.707
 4301SOL    HW114344   0.255   7.185   1.769
 4301SOL    HW214345   0.292   7.039   1.761
 4302SOL     OW14346   0.714   6.031   1.250
 4302SOL    HW114347   0.655   5.958   1.232
 4302SOL    HW214348   0.702   6.091   1.178
 4303SOL     OW14349   0.946   7.233   1.432
 4303SOL    HW114350   0.915   7.213   1.343
 4303SOL    HW214351   0.930   7.326   1.443
 4304SOL     OW14352   0.476   6.074   0.178
 4304SOL    HW114353   0.529   6.150   0.203
 4304SOL    HW214354   0.388   6.109   0.165
 4305SOL     OW14355   0.137   6.722   1.453
 4305SOL    HW114356   0.128   6.689   1.542
 4305SOL    HW214357   0.164   6.645   1.402
 4306SOL     OW14358   1.340   6.604   1.212
 4306SOL    HW114359   1.343   6.541   1.140
 4306SOL    HW214360   1.261   6.655   1.197
 4307SOL     OW14361   1.307   6.472   0.278
 4307SOL    HW114362   1.249   6.451   0.351
 4307SOL    HW214363   1.298   6.399   0.217
 4308SOL     OW14364   1.772   7.334   1.145
 4308SOL    HW114365   1.838   7.349   1.077
 4308SOL    HW214366   1.746   7.243   1.134
 4309SOL     OW14367   1.246   7.329   1.093
 4309SOL    HW114368   1.333   7.341   1.056
 4309SOL    HW214369   1.246   7.239   1.125
 4310SOL     OW14370   0.085   6.842   1.009
 4310SOL    HW114371   0.068   6.862   1.101
 4310SOL    HW214372   0.005   6.800   0.979
 4311SOL     OW14373   0.669   7.249   1.732
 4311SOL    HW114374   0.667   7.344   1.723
 4311SOL    HW214375   0.762   7.226   1.723
 4312SOL     OW14376   0.913   5.675   0.104
 4312SOL    HW114377   0.976   5.730   0.058
 4312SOL    HW214378   0.966   5.627   0.168
 4313SOL     OW14379   1.685   5.693   0.528
 4313SOL    HW114380   1.765   5.712   0.479
 4313SOL    HW214381   1.701   5.729   0.615
 4314SOL     OW14382   1.381   7.159   0.476
 4314SOL    HW114383   1.452   7.194   0.421
 4314SOL    HW214384   1.342   7.236   0.516
 4315SOL     OW14385   0.168   7.329   1.838
 4315SOL    HW114386   0.108   7.280   1.894
 4315SOL    HW214387   0.220   7.382   1.898
 4316SOL     OW14388   1.286   6.548   0.713
 4316SOL    HW114389   1.299   6.456   0.690
 4316SOL    HW214390   1.322   6.597   0.639
 4317SOL     OW14391   0.824   6.873   1.422
 4317SOL    HW114392   0.795   6.896   1.510
 4317SOL    HW214393   0.774   6.931   1.364
 4318SOL     OW14394   0.650   7.193   0.179
 4318SOL    HW114395   0.693   7.200   0.094
 4318SOL    HW214396   0.595   7.115   0.172
 4319SOL     OW14397   1.625   7.310   1.382
 4319SOL    HW114398   1.676   7.320   1.302
 4319SOL    HW214399   1.612   7.399   1.414
 4320SOL     OW14400   1.841   5.754   0.959
 4320SOL    HW114401   1.872   5.664   0.943
 4320SOL    HW214402   1.757   5.759   0.913
 4321SOL     OW14403   0.255   5.905   0.712
 4321SOL    HW114404   0.168   5.936   0.688
 4321SOL    HW214405   0.250   5.889   0.806
 4322SOL     OW14406   0.829   6.602   1.376
 4322SOL    HW114407   0.892   6.592   1.304
 4322SOL    HW214408   0.828   6.696   1.395
 4323SOL     OW14409   0.923   6.521   0.243
 4323SOL    HW114410   1.003   6.570   0.222
 4323SOL    HW214411   0.952   6.455   0.307
 4324SOL     OW14412   1.415   7.200   0.051
 4324SOL    HW114413   1.447   7.288   0.073
 4324SOL    HW214414   1.493   7.152   0.024
 4325SOL     OW14415   0.360   6.877   1.484
 4325SOL    HW114416   0.342   6.963   1.445
 4325SOL    HW214417   0.278   6.829   1.473
 4326SOL     OW14418   1.581   6.840   1.314
 4326SOL    HW114419   1.660   6.839   1.367
 4326SOL    HW214420   1.545   6.928   1.324
 4327SOL     OW14421   1.053   6.701   0.705
 4327SOL    HW114422   0.986   6.642   0.739
 4327SOL    HW214423   1.131   6.645   0.697
 4328SOL     OW14424   1.027   5.832   0.963
 4328SOL    HW114425   1.038   5.785   0.880
 4328SOL    HW214426   1.022   5.762   1.028
 4329SOL     OW14427   1.732   5.997   1.381
 4329SOL    HW114428   1.810   6.052   1.380
 4329SOL    HW214429   1.757   5.920   1.331
 4330SOL     OW14430   0.264   6.906   0.294
 4330SOL    HW114431   0.173   6.926   0.275
 4330SOL    HW214432   0.283   6.953   0.375
 4331SOL     OW14433   0.132   6.607   1.704
 4331SOL    HW114434   0.086   6.660   1.770
 4331SOL    HW214435   0.215   6.583   1.747
 4332SOL     OW14436   0.688   5.793   1.495
 4332SOL    HW114437   0.774   5.770   1.461
 4332SOL    HW214438   0.705   5.821   1.585
 4333SOL     OW14439   0.099   5.991  12.489
 4333SOL    HW114440   0.032   5.974  12.556
 4333SOL    HW214441   0.088   5.921  12.425
 4334SOL     OW14442   0.072   5.819   0.362
 4334SOL    HW114443   0.030   5.868   0.291
 4334SOL    HW214444   0.148   5.778   0.321
 4335SOL     OW14445   1.145   6.945   0.130
 4335SOL    HW114446   1.120   6.855   0.109
 4335SOL    HW214447   1.191   6.939   0.213
 4336SOL     OW14448   0.624   6.423   1.411
 4336SOL    HW114449   0.682   6.499   1.410
 4336SOL    HW214450   0.682   6.348   1.425
 4337SOL     OW14451   1.495   7.363   0.982
 4337SOL    HW114452   1.529   7.435   0.928
 4337SOL    HW214453   1.571   7.331   1.030
 4338SOL     OW14454   0.724   6.154   1.687
 4338SOL    HW114455   0.763   6.209   1.755
 4338SOL    HW214456   0.733   6.064   1.721
 4339SOL     OW14457   1.492   6.774   1.631
 4339SOL    HW114458   1.468   6.791   1.722
 4339SOL    HW214459   1.583   6.802   1.624
 4340SOL     OW14460   0.392   7.325   1.560
 4340SOL    HW114461   0.300   7.348   1.549
 4340SOL    HW214462   0.390   7.239   1.603
 4341SOL     OW14463   1.621   6.454   1.235
 4341SOL    HW114464   1.635   6.364   1.206
 4341SOL    HW214465   1.640   6.507   1.158
 4342SOL     OW14466   1.225   5.896   0.455
 4342SOL    HW114467   1.285   5.822   0.452
 4342SOL    HW214468   1.247   5.943   0.535
 4343SOL     OW14469   0.557   6.346   0.674
 4343SOL    HW114470   0.618   6.416   0.651
 4343SOL    HW214471   0.508   6.329   0.593
 4344SOL     OW14472   1.749   5.953   1.654
 4344SOL    HW114473   1.733   5.971   1.562
 4344SOL    HW214474   1.682   5.889   1.678
 4345SOL     OW14475   1.694   6.551   1.505
 4345SOL    HW114476   1.722   6.629   1.553
 4345SOL    HW214477   1.771   6.524   1.455
 4346SOL     OW14478   0.824   6.997   0.026
 4346SOL    HW114479   0.802   6.917   0.074
 4346SOL    HW214480   0.897   7.035   0.076
 4347SOL     OW14481   0.647   7.374   0.950
 4347SOL    HW114482   0.677   7.465   0.956
 4347SOL    HW214483   0.702   7.327   1.013
 4348SOL     OW14484   0.866   6.553   0.848
 4348SOL    HW114485   0.917   6.481   0.885
 4348SOL    HW214486   0.840   6.605   0.924
 4349SOL     OW14487   1.131   6.640   0.088
 4349SOL    HW114488   1.139   6.613  -0.004
 4349SOL    HW214489   1.193   6.584   0.134
 4350SOL     OW14490   1.861   7.130   0.844
 4350SOL    HW114491   1.772   7.113   0.815
 4350SOL    HW214492   1.886   7.053   0.896
 4351SOL     OW14493   0.218   6.883   1.848
 4351SOL    HW114494   0.123   6.871   1.838
 4351SOL    HW214495   0.231   6.897   1.942
 4352SOL     OW14496   0.126   6.850   0.624
 4352SOL    HW114497   0.062   6.814   0.685
 4352SOL    HW214498   0.181   6.775   0.601
 4353SOL     OW14499   0.660   6.995   1.607
 4353SOL    HW114500   0.597   6.947   1.661
 4353SOL    HW214501   0.667   7.081   1.650
 4354SOL     OW14502   1.801   5.780   1.230
 4354SOL    HW114503   1.723   5.726   1.243
 4354SOL    HW214504   1.815   5.779   1.135
 4355SOL     OW14505   0.424   6.023   0.524
 4355SOL    HW114506   0.467   5.953   0.473
 4355SOL    HW214507   0.374   5.976   0.590
 4356SOL     OW14508   1.686   7.084   1.107
 4356SOL    HW114509   1.610   7.048   1.061
 4356SOL    HW214510   1.721   7.010   1.156
 4357SOL     OW14511   0.348   6.117   1.292
 4357SOL    HW114512   0.390   6.067   1.361
 4357SOL    HW214513   0.349   6.059   1.216
 4358SOL     OW14514   0.784   7.159   0.634
 4358SOL    HW114515   0.837   7.233   0.664
 4358SOL    HW214516   0.775   7.103   0.711
 4359SOL     OW14517   1.007   5.612   1.134
 4359SOL    HW114518   0.948   5.541   1.110
 4359SOL    HW214519   1.094   5.575   1.125
 4360SOL     OW14520   0.790   6.912   0.332
 4360SOL    HW114521   0.770   6.819   0.343
 4360SOL    HW214522   0.881   6.920   0.362
 4361SOL     OW14523   0.598   7.143   1.283
 4361SOL    HW114524   0.597   7.222   1.337
 4361SOL    HW214525   0.675   7.153   1.228
 4362SOL     OW14526   1.379   5.643   0.140
 4362SOL    HW114527   1.385   5.642   0.044
 4362SOL    HW214528   1.287   5.664   0.158
 4363SOL     OW14529   1.306   6.026   0.687
 4363SOL    HW114530   1.263   6.111   0.695
 4363SOL    HW214531   1.305   5.991   0.776
 4364SOL     OW14532   1.607   5.766   0.815
 4364SOL    HW114533   1.556   5.747   0.893
 4364SOL    HW214534   1.593   5.859   0.799
 4365SOL     OW14535   0.066   6.658   0.296
 4365SOL    HW114536   0.154   6.675   0.262
 4365SOL    HW214537   0.066   6.565   0.319
 4366SOL     OW14538   0.873   7.230   0.343
 4366SOL    HW114539   0.801   7.227   0.279
 4366SOL    HW214540   0.853   7.305   0.399
 4367SOL     OW14541   0.240   6.216   1.949
 4367SOL    HW114542   0.160   6.256   1.984
 4367SOL    HW214543   0.221   6.200   1.857
 4368SOL     OW14544   0.232   5.837   2.837
 4368SOL    HW114545   0.245   5.814   2.929
 4368SOL    HW214546   0.149   5.796   2.814
 4369SOL     OW14547   8.000   5.913   2.501
 4369SOL    HW114548   7.913   5.952   2.506
 4369SOL    HW214549   8.010   5.888   2.410
 4370SOL     OW14550   0.576   6.885   3.063
 4370SOL    HW114551   0.489   6.882   3.023
 4370SOL    HW214552   0.587   6.976   3.090
 4371SOL     OW14553   1.580   7.102   2.568
 4371SOL    HW114554   1.531   7.073   2.645
 4371SOL    HW214555   1.514   7.105   2.498
 4372SOL     OW14556   1.138   6.270   2.552
 4372SOL    HW114557   1.182   6.354   2.547
 4372SOL    HW214558   1.095   6.270   2.638
 4373SOL     OW14559   1.731   6.189   2.097
 4373SOL    HW114560   1.728   6.177   2.002
 4373SOL    HW214561   1.719   6.101   2.132
 4374SOL     OW14562   0.741   6.728   2.910
 4374SOL    HW114563   0.681   6.765   2.974
 4374SOL    HW214564   0.774   6.803   2.861
 4375SOL     OW14565   0.905   6.356   3.698
 4375SOL    HW114566   0.859   6.424   3.747
 4375SOL    HW214567   0.916   6.393   3.610
 4376SOL     OW14568   0.689   6.569   2.501
 4376SOL    HW114569   0.753   6.577   2.571
 4376SOL    HW214570   0.611   6.613   2.534
 4377SOL     OW14571   0.712   6.740   3.676
 4377SOL    HW114572   0.752   6.822   3.704
 4377SOL    HW214573   0.629   6.767   3.636
 4378SOL     OW14574   0.330   6.999   2.935
 4378SOL    HW114575   0.257   6.957   2.890
 4378SOL    HW214576   0.373   7.052   2.868
 4379SOL     OW14577   1.473   7.082   3.255
 4379SOL    HW114578   1.506   7.172   3.244
 4379SOL    HW214579   1.389   7.093   3.299
 4380SOL     OW14580   0.420   5.906   3.279
 4380SOL    HW114581   0.497   5.946   3.319
 4380SOL    HW214582   0.364   5.882   3.352
 4381SOL     OW14583   1.588   6.032   2.602
 4381SOL    HW114584   1.500   6.040   2.564
 4381SOL    HW214585   1.588   6.095   2.674
 4382SOL     OW14586   0.201   7.290   2.295
 4382SOL    HW114587   0.201   7.364   2.356
 4382SOL    HW214588   0.286   7.295   2.251
 4383SOL     OW14589   1.142   6.927   3.569
 4383SOL    HW114590   1.166   6.920   3.662
 4383SOL    HW214591   1.089   6.849   3.552
 4384SOL     OW14592   0.273   7.018   2.364
 4384SOL    HW114593   0.267   7.106   2.400
 4384SOL    HW214594   0.230   6.962   2.430
 4385SOL     OW14595   0.244   6.675   2.750
 4385SOL    HW114596   0.235   6.593   2.799
 4385SOL    HW214597   0.189   6.738   2.798
 4386SOL     OW14598   0.612   7.377   3.296
 4386SOL    HW114599   0.534   7.354   3.347
 4386SOL    HW214600   0.580   7.440   3.232
 4387SOL     OW14601   0.576   6.566   2.004
 4387SOL    HW114602   0.628   6.610   1.937
 4387SOL    HW214603   0.606   6.603   2.087
 4388SOL     OW14604   1.589   5.722   3.322
 4388SOL    HW114605   1.620   5.802   3.279
 4388SOL    HW214606   1.576   5.748   3.413
 4389SOL     OW14607   0.076   6.231   2.404
 4389SOL    HW114608   0.105   6.149   2.443
 4389SOL    HW214609   0.091   6.297   2.472
 4390SOL     OW14610   1.825   7.343   2.227
 4390SOL    HW114611   1.909   7.323   2.269
 4390SOL    HW214612   1.847   7.352   2.134
 4391SOL     OW14613   0.014   7.178   2.007
 4391SOL    HW114614   0.008   7.084   1.994
 4391SOL    HW214615   0.023   7.189   2.101
 4392SOL     OW14616   1.693   6.511   2.518
 4392SOL    HW114617   1.777   6.465   2.516
 4392SOL    HW214618   1.685   6.549   2.430
 4393SOL     OW14619   1.655   6.687   2.287
 4393SOL    HW114620   1.742   6.681   2.247
 4393SOL    HW214621   1.666   6.750   2.358
 4394SOL     OW14622   0.143   6.343   3.468
 4394SOL    HW114623   0.238   6.348   3.455
 4394SOL    HW214624   0.120   6.427   3.506
 4395SOL     OW14625   1.286   6.831   3.273
 4395SOL    HW114626   1.309   6.759   3.215
 4395SOL    HW214627   1.343   6.821   3.349
 4396SOL     OW14628   0.811   5.586   2.360
 4396SOL    HW114629   0.858   5.667   2.339
 4396SOL    HW214630   0.719   5.614   2.369
 4397SOL     OW14631   0.193   6.534   3.142
 4397SOL    HW114632   0.281   6.498   3.125
 4397SOL    HW214633   0.138   6.494   3.076
 4398SOL     OW14634   1.545   6.577   2.060
 4398SOL    HW114635   1.554   6.486   2.089
 4398SOL    HW214636   1.576   6.629   2.134
 4399SOL     OW14637   1.206   7.406   3.482
 4399SOL    HW114638   1.203   7.452   3.398
 4399SOL    HW214639   1.200   7.313   3.460
 4400SOL     OW14640   0.351   5.827   3.661
 4400SOL    HW114641   0.414   5.897   3.646
 4400SOL    HW214642   0.274   5.870   3.696
 4401SOL     OW14643   1.452   7.015   2.797
 4401SOL    HW114644   1.393   7.026   2.872
 4401SOL    HW214645   1.447   6.922   2.776
 4402SOL     OW14646   1.646   7.360   2.452
 4402SOL    HW114647   1.689   7.334   2.370
 4402SOL    HW214648   1.623   7.277   2.495
 4403SOL     OW14649   0.604   6.299   2.128
 4403SOL    HW114650   0.609   6.385   2.086
 4403SOL    HW214651   0.543   6.311   2.200
 4404SOL     OW14652   1.288   5.949   2.792
 4404SOL    HW114653   1.199   5.915   2.798
 4404SOL    HW214654   1.338   5.898   2.856
 4405SOL     OW14655   1.566   7.253   2.170
 4405SOL    HW114656   1.660   7.269   2.169
 4405SOL    HW214657   1.542   7.242   2.078
 4406SOL     OW14658   0.793   6.166   3.338
 4406SOL    HW114659   0.744   6.132   3.413
 4406SOL    HW214660   0.753   6.125   3.262
 4407SOL     OW14661   1.394   6.062   3.534
 4407SOL    HW114662   1.405   6.110   3.616
 4407SOL    HW214663   1.459   5.992   3.538
 4408SOL     OW14664   0.948   6.473   3.452
 4408SOL    HW114665   0.999   6.406   3.407
 4408SOL    HW214666   0.890   6.508   3.384
 4409SOL     OW14667   0.990   5.989   3.084
 4409SOL    HW114668   0.915   6.027   3.130
 4409SOL    HW214669   0.978   6.016   2.993
 4410SOL     OW14670   1.042   6.291   2.298
 4410SOL    HW114671   1.048   6.279   2.392
 4410SOL    HW214672   0.962   6.245   2.273
 4411SOL     OW14673   0.111   6.384   2.623
 4411SOL    HW114674   0.201   6.386   2.655
 4411SOL    HW214675   0.060   6.426   2.691
 4412SOL     OW14676   0.129   7.400   3.425
 4412SOL    HW114677   0.137   7.386   3.519
 4412SOL    HW214678   0.035   7.405   3.410
 4413SOL     OW14679   0.908   5.913   2.044
 4413SOL    HW114680   0.946   5.977   1.984
 4413SOL    HW214681   0.914   5.830   1.999
 4414SOL     OW14682   1.387   6.726   2.401
 4414SOL    HW114683   1.471   6.729   2.355
 4414SOL    HW214684   1.334   6.794   2.359
 4415SOL     OW14685   0.550   5.747   2.776
 4415SOL    HW114686   0.553   5.780   2.866
 4415SOL    HW214687   0.570   5.823   2.722
 4416SOL     OW14688   1.002   7.036   2.335
 4416SOL    HW114689   0.975   7.109   2.279
 4416SOL    HW214690   0.964   7.056   2.420
 4417SOL     OW14691   0.359   7.416   2.717
 4417SOL    HW114692   0.399   7.332   2.737
 4417SOL    HW214693   0.424   7.481   2.745
 4418SOL     OW14694   1.801   6.659   2.738
 4418SOL    HW114695   1.751   6.634   2.660
 4418SOL    HW214696   1.738   6.652   2.810
 4419SOL     OW14697   1.232   7.123   3.384
 4419SOL    HW114698   1.221   7.055   3.450
 4419SOL    HW214699   1.167   7.103   3.318
 4420SOL     OW14700   0.257   6.494   2.078
 4420SOL    HW114701   0.332   6.547   2.104
 4420SOL    HW214702   0.292   6.433   2.013
 4421SOL     OW14703   1.485   6.343   2.580
 4421SOL    HW114704   1.479   6.298   2.664
 4421SOL    HW214705   1.562   6.399   2.588
 4422SOL     OW14706   0.466   6.846   3.598
 4422SOL    HW114707   0.440   6.854   3.506
 4422SOL    HW214708   0.383   6.839   3.646
 4423SOL     OW14709   1.116   7.375   2.081
 4423SOL    HW114710   1.044   7.335   2.130
 4423SOL    HW214711   1.134   7.313   2.010
 4424SOL     OW14712   0.152   5.876   3.403
 4424SOL    HW114713   0.174   5.953   3.456
 4424SOL    HW214714   0.149   5.804   3.466
 4425SOL     OW14715   1.647   6.946   1.961
 4425SOL    HW114716   1.647   7.039   1.938
 4425SOL    HW214717   1.560   6.916   1.933
 4426SOL     OW14718   0.450   7.345   2.167
 4426SOL    HW114719   0.502   7.377   2.241
 4426SOL    HW214720   0.506   7.279   2.126
 4427SOL     OW14721   1.420   5.736   2.274
 4427SOL    HW114722   1.401   5.684   2.196
 4427SOL    HW214723   1.474   5.679   2.329
 4428SOL     OW14724   0.269   7.380   3.080
 4428SOL    HW114725   0.290   7.299   3.126
 4428SOL    HW214726   0.202   7.355   3.016
 4429SOL     OW14727   0.932   7.287   2.753
 4429SOL    HW114728   1.005   7.233   2.782
 4429SOL    HW214729   0.894   7.240   2.680
 4430SOL     OW14730   0.412   6.291   2.327
 4430SOL    HW114731   0.419   6.197   2.345
 4430SOL    HW214732   0.325   6.315   2.359
 4431SOL     OW14733   1.522   5.812   3.579
 4431SOL    HW114734   1.555   5.843   3.663
 4431SOL    HW214735   1.451   5.752   3.601
 4432SOL     OW14736   0.623   5.698   1.970
 4432SOL    HW114737   0.715   5.675   1.958
 4432SOL    HW214738   0.578   5.655   1.897
 4433SOL     OW14739   0.761   5.823   3.701
 4433SOL    HW114740   0.836   5.796   3.648
 4433SOL    HW214741   0.719   5.892   3.650
 4434SOL     OW14742   0.885   7.123   3.058
 4434SOL    HW114743   0.865   7.079   2.976
 4434SOL    HW214744   0.950   7.068   3.101
 4435SOL     OW14745   1.328   6.172   3.292
 4435SOL    HW114746   1.362   6.140   3.376
 4435SOL    HW214747   1.366   6.260   3.283
 4436SOL     OW14748   0.827   6.985   2.820
 4436SOL    HW114749   0.908   6.965   2.773
 4436SOL    HW214750   0.759   6.982   2.753
 4437SOL     OW14751   0.886   6.036   2.772
 4437SOL    HW114752   0.876   6.049   2.678
 4437SOL    HW214753   0.948   5.964   2.780
 4438SOL     OW14754   0.545   5.655   2.358
 4438SOL    HW114755   0.463   5.655   2.409
 4438SOL    HW214756   0.538   5.732   2.302
 4439SOL     OW14757   1.419   6.768   1.891
 4439SOL    HW114758   1.452   6.707   1.957
 4439SOL    HW214759   1.336   6.800   1.926
 4440SOL     OW14760   0.290   5.645   2.050
 4440SOL    HW114761   0.343   5.707   2.001
 4440SOL    HW214762   0.353   5.584   2.089
 4441SOL     OW14763   0.944   5.830   2.310
 4441SOL    HW114764   0.926   5.855   2.219
 4441SOL    HW214765   1.039   5.840   2.319
 4442SOL     OW14766   1.066   6.270   3.313
 4442SOL    HW114767   0.997   6.206   3.329
 4442SOL    HW214768   1.146   6.219   3.310
 4443SOL     OW14769   1.213   7.158   2.658
 4443SOL    HW114770   1.230   7.225   2.592
 4443SOL    HW214771   1.298   7.141   2.698
 4444SOL     OW14772   0.452   6.689   2.572
 4444SOL    HW114773   0.386   6.680   2.641
 4444SOL    HW214774   0.492   6.775   2.588
 4445SOL     OW14775   1.263   7.378   2.482
 4445SOL    HW114776   1.306   7.439   2.422
 4445SOL    HW214777   1.185   7.425   2.511
 4446SOL     OW14778   1.022   6.120   1.890
 4446SOL    HW114779   0.970   6.198   1.868
 4446SOL    HW214780   1.098   6.155   1.937
 4447SOL     OW14781   0.098   6.162   3.270
 4447SOL    HW114782   0.180   6.177   3.223
 4447SOL    HW214783   0.092   6.234   3.333
 4448SOL     OW14784   0.562   5.808   3.048
 4448SOL    HW114785   0.617   5.764   3.113
 4448SOL    HW214786   0.491   5.847   3.099
 4449SOL     OW14787   0.866   6.032   2.494
 4449SOL    HW114788   0.818   6.093   2.438
 4449SOL    HW214789   0.890   5.960   2.435
 4450SOL     OW14790   0.983   5.643   2.622
 4450SOL    HW114791   0.932   5.669   2.545
 4450SOL    HW214792   1.044   5.577   2.589
 4451SOL     OW14793   1.435   6.748   2.726
 4451SOL    HW114794   1.367   6.683   2.740
 4451SOL    HW214795   1.453   6.745   2.632
 4452SOL     OW14796   1.472   6.195   2.817
 4452SOL    HW114797   1.403   6.131   2.830
 4452SOL    HW214798   1.526   6.188   2.896
 4453SOL     OW14799   1.825   6.387   2.253
 4453SOL    HW114800   1.887   6.341   2.310
 4453SOL    HW214801   1.799   6.321   2.188
 4454SOL     OW14802   0.487   7.016   1.992
 4454SOL    HW114803   0.412   6.986   2.043
 4454SOL    HW214804   0.508   6.943   1.933
 4455SOL     OW14805   1.687   6.851   2.496
 4455SOL    HW114806   1.781   6.849   2.512
 4455SOL    HW214807   1.661   6.941   2.517
 4456SOL     OW14808   1.404   6.158   1.940
 4456SOL    HW114809   1.355   6.123   2.014
 4456SOL    HW214810   1.493   6.124   1.952
 4457SOL     OW14811   0.522   5.852   2.173
 4457SOL    HW114812   0.568   5.799   2.108
 4457SOL    HW214813   0.500   5.933   2.126
 4458SOL     OW14814   1.829   6.903   3.477
 4458SOL    HW114815   1.885   6.839   3.434
 4458SOL    HW214816   1.793   6.857   3.553
 4459SOL     OW14817   1.054   6.975   3.224
 4459SOL    HW114818   0.975   6.927   3.249
 4459SOL    HW214819   1.125   6.913   3.239
 4460SOL     OW14820   1.640   7.183   3.503
 4460SOL    HW114821   1.627   7.240   3.428
 4460SOL    HW214822   1.585   7.107   3.486
 4461SOL     OW14823   1.131   6.814   2.962
 4461SOL    HW114824   1.051   6.772   2.993
 4461SOL    HW214825   1.111   6.842   2.873
 4462SOL     OW14826   1.617   6.673   2.938
 4462SOL    HW114827   1.604   6.734   3.011
 4462SOL    HW214828   1.542   6.688   2.881
 4463SOL     OW14829   0.935   5.683   3.244
 4463SOL    HW114830   0.958   5.691   3.151
 4463SOL    HW214831   1.008   5.724   3.290
 4464SOL     OW14832   0.981   6.703   3.588
 4464SOL    HW114833   0.889   6.717   3.611
 4464SOL    HW214834   0.981   6.623   3.534
 4465SOL     OW14835   0.701   6.655   2.236
 4465SOL    HW114836   0.690   6.636   2.329
 4465SOL    HW214837   0.773   6.599   2.208
 4466SOL     OW14838   0.431   6.400   3.109
 4466SOL    HW114839   0.499   6.409   3.176
 4466SOL    HW214840   0.395   6.312   3.124
 4467SOL     OW14841   1.259   5.951   3.146
 4467SOL    HW114842   1.289   6.031   3.188
 4467SOL    HW214843   1.169   5.971   3.118
 4468SOL     OW14844   0.050   7.193   3.189
 4468SOL    HW114845   0.026   7.254   3.259
 4468SOL    HW214846   0.130   7.151   3.219
 4469SOL     OW14847   0.311   6.684   2.324
 4469SOL    HW114848   0.355   6.768   2.313
 4469SOL    HW214849   0.360   6.640   2.394
 4470SOL     OW14850   0.549   6.116   2.726
 4470SOL    HW114851   0.563   6.174   2.651
 4470SOL    HW214852   0.620   6.139   2.786
 4471SOL     OW14853   1.250   6.933   2.273
 4471SOL    HW114854   1.305   7.009   2.296
 4471SOL    HW214855   1.162   6.960   2.298
 4472SOL     OW14856   1.289   7.042   3.015
 4472SOL    HW114857   1.332   7.024   3.098
 4472SOL    HW214858   1.224   6.972   3.005
 4473SOL     OW14859   1.505   6.295   2.300
 4473SOL    HW114860   1.519   6.300   2.395
 4473SOL    HW214861   1.591   6.275   2.264
 4474SOL     OW14862   0.344   7.124   3.175
 4474SOL    HW114863   0.326   7.075   3.095
 4474SOL    HW214864   0.440   7.130   3.179
 4475SOL     OW14865   0.426   6.310   3.478
 4475SOL    HW114866   0.482   6.356   3.415
 4475SOL    HW214867   0.476   6.232   3.503
 4476SOL     OW14868   1.591   6.422   3.556
 4476SOL    HW114869   1.500   6.432   3.526
 4476SOL    HW214870   1.643   6.428   3.476
 4477SOL     OW14871   0.994   5.723   3.594
 4477SOL    HW114872   1.051   5.800   3.591
 4477SOL    HW214873   1.052   5.650   3.573
 4478SOL     OW14874   0.485   5.597   3.612
 4478SOL    HW114875   0.448   5.562   3.531
 4478SOL    HW214876   0.442   5.682   3.624
 4479SOL     OW14877   0.586   6.473   2.886
 4479SOL    HW114878   0.631   6.557   2.895
 4479SOL    HW214879   0.537   6.464   2.968
 4480SOL     OW14880   1.356   6.454   2.878
 4480SOL    HW114881   1.263   6.434   2.866
 4480SOL    HW214882   1.400   6.370   2.867
 4481SOL     OW14883   1.218   6.128   2.154
 4481SOL    HW114884   1.231   6.044   2.196
 4481SOL    HW214885   1.127   6.151   2.172
 4482SOL     OW14886   0.241   5.794   3.112
 4482SOL    HW114887   0.309   5.823   3.173
 4482SOL    HW214888   0.250   5.698   3.110
 4483SOL     OW14889   0.048   6.896   3.141
 4483SOL    HW114890   0.074   6.833   3.209
 4483SOL    HW214891   0.042   6.980   3.187
 4484SOL     OW14892   0.723   6.225   2.913
 4484SOL    HW114893   0.807   6.210   2.869
 4484SOL    HW214894   0.703   6.317   2.896
 4485SOL     OW14895   1.732   6.578   3.721
 4485SOL    HW114896   1.693   6.512   3.664
 4485SOL    HW214897   1.676   6.579   3.799
 4486SOL     OW14898   0.299   5.642   2.491
 4486SOL    HW114899   0.283   5.735   2.505
 4486SOL    HW214900   0.319   5.607   2.577
 4487SOL     OW14901   1.628   5.963   2.228
 4487SOL    HW114902   1.669   5.888   2.271
 4487SOL    HW214903   1.562   5.993   2.291
 4488SOL     OW14904   1.000   7.162   3.583
 4488SOL    HW114905   0.969   7.199   3.500
 4488SOL    HW214906   1.036   7.077   3.559
 4489SOL     OW14907   0.361   6.518   3.660
 4489SOL    HW114908   0.435   6.538   3.716
 4489SOL    HW214909   0.392   6.448   3.602
 4490SOL     OW14910   1.515   5.865   1.987
 4490SOL    HW114911   1.457   5.794   2.016
 4490SOL    HW214912   1.560   5.892   2.066
 4491SOL     OW14913   1.303   6.409   1.913
 4491SOL    HW114914   1.338   6.320   1.915
 4491SOL    HW214915   1.369   6.460   1.865
 4492SOL     OW14916   1.071   6.921   2.715
 4492SOL    HW114917   1.077   6.849   2.652
 4492SOL    HW214918   1.120   6.993   2.674
 4493SOL     OW14919   0.342   6.386   2.766
 4493SOL    HW114920   0.433   6.413   2.775
 4493SOL    HW214921   0.323   6.340   2.848
 4494SOL     OW14922   0.333   6.086   2.884
 4494SOL    HW114923   0.310   5.998   2.853
 4494SOL    HW214924   0.405   6.113   2.827
 4495SOL     OW14925   1.141   5.956   3.556
 4495SOL    HW114926   1.093   6.012   3.617
 4495SOL    HW214927   1.227   5.996   3.549
 4496SOL     OW14928   1.170   5.780   3.344
 4496SOL    HW114929   1.160   5.843   3.415
 4496SOL    HW214930   1.214   5.828   3.274
 4497SOL     OW14931   7.979   6.882   2.044
 4497SOL    HW114932   7.891   6.902   2.075
 4497SOL    HW214933   7.998   6.795   2.081
 4498SOL     OW14934   0.109   7.357   2.822
 4498SOL    HW114935   0.104   7.266   2.796
 4498SOL    HW214936   0.190   7.389   2.783
 4499SOL     OW14937   0.479   7.180   2.776
 4499SOL    HW114938   0.557   7.211   2.822
 4499SOL    HW214939   0.512   7.113   2.715
 4500SOL     OW14940   0.980   6.450   3.119
 4500SOL    HW114941   1.018   6.383   3.174
 4500SOL    HW214942   1.004   6.424   3.030
 4501SOL     OW14943   0.075   6.082   2.992
 4501SOL    HW114944   0.159   6.084   2.947
 4501SOL    HW214945   0.049   6.174   2.999
 4502SOL     OW14946   0.222   6.091   3.556
 4502SOL    HW114947   0.317   6.100   3.545
 4502SOL    HW214948   0.187   6.177   3.532
 4503SOL     OW14949   1.335   6.527   3.508
 4503SOL    HW114950   1.353   6.621   3.499
 4503SOL    HW214951   1.341   6.494   3.418
 4504SOL     OW14952   0.830   6.153   2.208
 4504SOL    HW114953   0.827   6.074   2.155
 4504SOL    HW214954   0.754   6.203   2.180
 4505SOL     OW14955   1.640   6.183   3.033
 4505SOL    HW114956   1.631   6.123   3.106
 4505SOL    HW214957   1.729   6.168   3.000
 4506SOL     OW14958   0.298   7.120   3.591
 4506SOL    HW114959   0.253   7.189   3.639
 4506SOL    HW214960   0.286   7.042   3.645
 4507SOL     OW14961   0.688   6.052   3.115
 4507SOL    HW114962   0.658   5.975   3.067
 4507SOL    HW214963   0.697   6.119   3.048
 4508SOL     OW14964   0.914   7.256   3.338
 4508SOL    HW114965   0.906   7.206   3.257
 4508SOL    HW214966   0.885   7.344   3.314
 4509SOL     OW14967   0.467   6.080   2.029
 4509SOL    HW114968   0.528   6.146   2.060
 4509SOL    HW214969   0.391   6.130   1.998
 4510SOL     OW14970   0.154   6.719   3.331
 4510SOL    HW114971   0.128   6.669   3.408
 4510SOL    HW214972   0.168   6.653   3.263
 4511SOL     OW14973   1.318   6.637   3.077
 4511SOL    HW114974   1.338   6.571   3.009
 4511SOL    HW214975   1.252   6.693   3.037
 4512SOL     OW14976   1.796   7.312   3.039
 4512SOL    HW114977   1.851   7.338   2.965
 4512SOL    HW214978   1.751   7.233   3.010
 4513SOL     OW14979   1.243   7.322   2.985
 4513SOL    HW114980   1.323   7.344   2.938
 4513SOL    HW214981   1.248   7.227   2.997
 4514SOL     OW14982   0.069   6.852   2.878
 4514SOL    HW114983   0.067   6.867   2.972
 4514SOL    HW214984   0.001   6.786   2.862
 4515SOL     OW14985   0.700   7.293   3.589
 4515SOL    HW114986   0.608   7.295   3.562
 4515SOL    HW214987   0.746   7.255   3.514
 4516SOL     OW14988   1.746   5.752   2.368
 4516SOL    HW114989   1.811   5.734   2.300
 4516SOL    HW214990   1.721   5.666   2.401
 4517SOL     OW14991   1.401   7.153   2.362
 4517SOL    HW114992   1.456   7.184   2.290
 4517SOL    HW214993   1.346   7.229   2.384
 4518SOL     OW14994   0.168   7.333   3.696
 4518SOL    HW114995   0.107   7.284   3.751
 4518SOL    HW214996   0.220   7.385   3.758
 4519SOL     OW14997   1.291   6.481   2.450
 4519SOL    HW114998   1.359   6.443   2.506
 4519SOL    HW214999   1.319   6.572   2.437
 4520SOL     OW15000   0.798   6.872   3.267
 4520SOL    HW115001   0.765   6.916   3.345
 4520SOL    HW215002   0.724   6.870   3.207
 4521SOL     OW15003   0.661   7.228   2.009
 4521SOL    HW115004   0.667   7.231   1.914
 4521SOL    HW215005   0.616   7.145   2.028
 4522SOL     OW15006   1.629   7.320   3.267
 4522SOL    HW115007   1.683   7.318   3.188
 4522SOL    HW215008   1.609   7.413   3.280
 4523SOL     OW15009   1.839   5.750   2.829
 4523SOL    HW115010   1.868   5.662   2.803
 4523SOL    HW215011   1.753   5.759   2.789
 4524SOL     OW15012   0.268   5.899   2.568
 4524SOL    HW115013   0.176   5.919   2.550
 4524SOL    HW215014   0.273   5.894   2.663
 4525SOL     OW15015   0.798   6.592   3.255
 4525SOL    HW115016   0.859   6.556   3.191
 4525SOL    HW215017   0.811   6.687   3.250
 4526SOL     OW15018   0.897   6.493   2.154
 4526SOL    HW115019   0.960   6.521   2.088
 4526SOL    HW215020   0.946   6.431   2.209
 4527SOL     OW15021   1.478   7.240   1.912
 4527SOL    HW115022   1.390   7.208   1.893
 4527SOL    HW215023   1.523   7.240   1.827
 4528SOL     OW15024   0.369   6.891   3.351
 4528SOL    HW115025   0.345   6.972   3.307
 4528SOL    HW215026   0.294   6.833   3.340
 4529SOL     OW15027   1.601   6.868   3.133
 4529SOL    HW115028   1.689   6.869   3.172
 4529SOL    HW215029   1.550   6.928   3.187
 4530SOL     OW15030   1.075   6.689   2.574
 4530SOL    HW115031   0.999   6.651   2.618
 4530SOL    HW215032   1.113   6.616   2.525
 4531SOL     OW15033   1.045   5.817   2.820
 4531SOL    HW115034   1.026   5.758   2.746
 4531SOL    HW215035   1.031   5.762   2.897
 4532SOL     OW15036   0.612   7.134   2.306
 4532SOL    HW115037   0.667   7.059   2.282
 4532SOL    HW215038   0.552   7.100   2.373
 4533SOL     OW15039   1.722   5.979   3.224
 4533SOL    HW115040   1.797   6.037   3.238
 4533SOL    HW215041   1.758   5.906   3.173
 4534SOL     OW15042   0.246   6.943   2.111
 4534SOL    HW115043   0.152   6.929   2.114
 4534SOL    HW215044   0.269   6.972   2.199
 4535SOL     OW15045   0.100   6.585   3.579
 4535SOL    HW115046   0.062   6.669   3.604
 4535SOL    HW215047   0.184   6.582   3.624
 4536SOL     OW15048   0.680   5.747   3.350
 4536SOL    HW115049   0.775   5.751   3.338
 4536SOL    HW215050   0.661   5.816   3.413
 4537SOL     OW15051   0.087   5.922   1.894
 4537SOL    HW115052   0.025   5.963   1.955
 4537SOL    HW215053   0.099   5.986   1.824
 4538SOL     OW15054   1.418   6.447   3.259
 4538SOL    HW115055   1.368   6.504   3.200
 4538SOL    HW215056   1.505   6.444   3.220
 4539SOL     OW15057   0.089   5.795   2.246
 4539SOL    HW115058   0.097   5.884   2.213
 4539SOL    HW215059   0.167   5.750   2.213
 4540SOL     OW15060   1.192   6.864   2.007
 4540SOL    HW115061   1.148   6.943   1.976
 4540SOL    HW215062   1.212   6.882   2.099
 4541SOL     OW15063   0.621   6.394   3.304
 4541SOL    HW115064   0.672   6.474   3.290
 4541SOL    HW215065   0.687   6.325   3.315
 4542SOL     OW15066   1.491   7.390   2.860
 4542SOL    HW115067   1.508   7.414   2.768
 4542SOL    HW215068   1.558   7.325   2.880
 4543SOL     OW15069   1.460   6.784   3.494
 4543SOL    HW115070   1.440   6.794   3.587
 4543SOL    HW215071   1.545   6.740   3.492
 4544SOL     OW15072   0.392   7.326   3.441
 4544SOL    HW115073   0.305   7.357   3.413
 4544SOL    HW215074   0.375   7.242   3.483
 4545SOL     OW15075   1.654   6.452   3.115
 4545SOL    HW115076   1.655   6.366   3.074
 4545SOL    HW215077   1.648   6.513   3.041
 4546SOL     OW15078   1.221   5.914   2.320
 4546SOL    HW115079   1.285   5.844   2.304
 4546SOL    HW215080   1.247   5.952   2.404
 4547SOL     OW15081   0.601   6.306   2.532
 4547SOL    HW115082   0.645   6.391   2.530
 4547SOL    HW215083   0.538   6.310   2.460
 4548SOL     OW15084   1.821   5.902   3.477
 4548SOL    HW115085   1.765   5.926   3.403
 4548SOL    HW215086   1.795   5.962   3.547
 4549SOL     OW15087   1.750   6.539   3.356
 4549SOL    HW115088   1.766   6.628   3.326
 4549SOL    HW215089   1.735   6.489   3.275
 4550SOL     OW15090   0.827   6.944   1.888
 4550SOL    HW115091   0.828   6.956   1.983
 4550SOL    HW215092   0.866   7.024   1.853
 4551SOL     OW15093   0.682   7.407   2.840
 4551SOL    HW115094   0.664   7.475   2.775
 4551SOL    HW215095   0.762   7.364   2.809
 4552SOL     OW15096   0.868   6.574   2.713
 4552SOL    HW115097   0.922   6.504   2.749
 4552SOL    HW215098   0.824   6.613   2.788
 4553SOL     OW15099   1.072   6.547   1.961
 4553SOL    HW115100   1.071   6.626   1.907
 4553SOL    HW215101   1.156   6.505   1.941
 4554SOL     OW15102   1.851   7.137   2.717
 4554SOL    HW115103   1.777   7.120   2.659
 4554SOL    HW215104   1.869   7.052   2.758
 4555SOL     OW15105   0.216   6.884   3.717
 4555SOL    HW115106   0.124   6.872   3.696
 4555SOL    HW215107   0.219   6.888   3.813
 4556SOL     OW15108   0.118   6.840   2.494
 4556SOL    HW115109   0.049   6.809   2.553
 4556SOL    HW215110   0.184   6.770   2.495
 4557SOL     OW15111   0.680   7.005   3.481
 4557SOL    HW115112   0.596   6.963   3.500
 4557SOL    HW215113   0.719   7.020   3.566
 4558SOL     OW15114   1.824   5.762   3.100
 4558SOL    HW115115   1.819   5.667   3.111
 4558SOL    HW215116   1.831   5.774   3.005
 4559SOL     OW15117   0.427   6.030   2.380
 4559SOL    HW115118   0.467   5.962   2.325
 4559SOL    HW215119   0.388   5.982   2.453
 4560SOL     OW15120   1.664   7.089   2.966
 4560SOL    HW115121   1.601   7.066   2.898
 4560SOL    HW215122   1.669   7.010   3.021
 4561SOL     OW15123   0.339   6.144   3.148
 4561SOL    HW115124   0.395   6.080   3.192
 4561SOL    HW215125   0.350   6.125   3.055
 4562SOL     OW15126   0.832   7.169   2.531
 4562SOL    HW115127   0.795   7.226   2.464
 4562SOL    HW215128   0.764   7.103   2.546
 4563SOL     OW15129   1.431   5.816   2.982
 4563SOL    HW115130   1.464   5.740   3.030
 4563SOL    HW215131   1.378   5.863   3.046
 4564SOL     OW15132   0.989   5.556   2.990
 4564SOL    HW115133   0.970   5.512   2.907
 4564SOL    HW215134   1.081   5.535   3.007
 4565SOL     OW15135   0.799   6.915   2.170
 4565SOL    HW115136   0.763   6.829   2.191
 4565SOL    HW215137   0.874   6.925   2.229
 4566SOL     OW15138   0.624   7.144   3.147
 4566SOL    HW115139   0.629   7.216   3.209
 4566SOL    HW215140   0.712   7.137   3.110
 4567SOL     OW15141   1.357   5.632   2.023
 4567SOL    HW115142   1.380   5.574   1.950
 4567SOL    HW215143   1.273   5.599   2.054
 4568SOL     OW15144   1.310   6.053   2.543
 4568SOL    HW115145   1.249   6.127   2.548
 4568SOL    HW215146   1.301   6.010   2.628
 4569SOL     OW15147   1.581   5.778   2.744
 4569SOL    HW115148   1.527   5.805   2.818
 4569SOL    HW215149   1.578   5.852   2.684
 4570SOL     OW15150   0.046   6.643   2.169
 4570SOL    HW115151   0.116   6.599   2.121
 4570SOL    HW215152   0.082   6.661   2.255
 4571SOL     OW15153   0.891   7.253   2.202
 4571SOL    HW115154   0.811   7.230   2.153
 4571SOL    HW215155   0.862   7.318   2.265
 4572SOL     OW15156   0.223   6.281   3.841
 4572SOL    HW115157   0.214   6.208   3.902
 4572SOL    HW215158   0.266   6.243   3.764
 4573SOL     OW15159   0.234   5.837   4.703
 4573SOL    HW115160   0.251   5.815   4.794
 4573SOL    HW215161   0.150   5.797   4.683
 4574SOL     OW15162   7.995   5.919   4.364
 4574SOL    HW115163   7.909   5.961   4.377
 4574SOL    HW215164   8.009   5.923   4.269
 4575SOL     OW15165   0.569   6.885   4.913
 4575SOL    HW115166   0.485   6.892   4.867
 4575SOL    HW215167   0.585   6.973   4.948
 4576SOL     OW15168   1.568   7.104   4.442
 4576SOL    HW115169   1.518   7.089   4.523
 4576SOL    HW215170   1.502   7.104   4.373
 4577SOL     OW15171   1.119   6.291   4.422
 4577SOL    HW115172   1.172   6.367   4.401
 4577SOL    HW215173   1.080   6.311   4.507
 4578SOL     OW15174   1.720   6.198   3.986
 4578SOL    HW115175   1.734   6.196   3.891
 4578SOL    HW215176   1.706   6.107   4.011
 4579SOL     OW15177   0.744   6.721   4.781
 4579SOL    HW115178   0.676   6.760   4.836
 4579SOL    HW215179   0.784   6.795   4.736
 4580SOL     OW15180   0.870   6.343   5.543
 4580SOL    HW115181   0.870   6.405   5.616
 4580SOL    HW215182   0.894   6.395   5.467
 4581SOL     OW15183   0.684   6.589   4.378
 4581SOL    HW115184   0.752   6.588   4.445
 4581SOL    HW215185   0.618   6.649   4.412
 4582SOL     OW15186   0.730   6.744   5.540
 4582SOL    HW115187   0.763   6.827   5.574
 4582SOL    HW215188   0.651   6.768   5.490
 4583SOL     OW15189   0.340   6.995   4.789
 4583SOL    HW115190   0.251   6.986   4.753
 4583SOL    HW215191   0.383   7.056   4.729
 4584SOL     OW15192   1.452   7.099   5.089
 4584SOL    HW115193   1.503   7.178   5.102
 4584SOL    HW215194   1.376   7.109   5.146
 4585SOL     OW15195   0.477   5.929   5.238
 4585SOL    HW115196   0.476   5.948   5.332
 4585SOL    HW215197   0.386   5.905   5.218
 4586SOL     OW15198   1.611   6.022   4.471
 4586SOL    HW115199   1.574   6.062   4.393
 4586SOL    HW215200   1.629   6.096   4.530
 4587SOL     OW15201   0.226   7.282   4.214
 4587SOL    HW115202   0.200   7.368   4.246
 4587SOL    HW215203   0.297   7.299   4.152
 4588SOL     OW15204   1.137   6.925   5.413
 4588SOL    HW115205   1.170   6.926   5.503
 4588SOL    HW215206   1.084   6.846   5.408
 4589SOL     OW15207   0.289   7.017   4.241
 4589SOL    HW115208   0.266   7.110   4.248
 4589SOL    HW215209   0.237   6.974   4.309
 4590SOL     OW15210   0.256   6.662   4.635
 4590SOL    HW115211   0.211   6.590   4.680
 4590SOL    HW215212   0.200   6.738   4.649
 4591SOL     OW15213   0.610   7.382   5.134
 4591SOL    HW115214   0.531   7.362   5.184
 4591SOL    HW215215   0.636   7.470   5.163
 4592SOL     OW15216   0.568   6.574   3.850
 4592SOL    HW115217   0.624   6.624   3.790
 4592SOL    HW215218   0.605   6.589   3.936
 4593SOL     OW15219   1.541   5.692   5.211
 4593SOL    HW115220   1.592   5.719   5.134
 4593SOL    HW215221   1.553   5.764   5.274
 4594SOL     OW15222   0.157   6.249   4.323
 4594SOL    HW115223   0.118   6.191   4.258
 4594SOL    HW215224   0.082   6.293   4.364
 4595SOL     OW15225   1.842   7.337   4.064
 4595SOL    HW115226   1.918   7.312   4.116
 4595SOL    HW215227   1.861   7.425   4.034
 4596SOL     OW15228   0.027   7.172   3.864
 4596SOL    HW115229   0.005   7.080   3.849
 4596SOL    HW215230   0.009   7.186   3.957
 4597SOL     OW15231   1.700   6.503   4.376
 4597SOL    HW115232   1.773   6.448   4.346
 4597SOL    HW215233   1.672   6.550   4.297
 4598SOL     OW15234   1.652   6.684   4.158
 4598SOL    HW115235   1.738   6.679   4.115
 4598SOL    HW215236   1.662   6.752   4.224
 4599SOL     OW15237   0.145   6.366   5.320
 4599SOL    HW115238   0.240   6.375   5.317
 4599SOL    HW215239   0.114   6.444   5.366
 4600SOL     OW15240   0.618   6.972   4.470
 4600SOL    HW115241   0.567   6.892   4.476
 4600SOL    HW215242   0.605   7.002   4.380
 4601SOL     OW15243   1.286   6.823   5.140
 4601SOL    HW115244   1.321   6.755   5.083
 4601SOL    HW215245   1.338   6.817   5.220
 4602SOL     OW15246   0.827   5.594   4.242
 4602SOL    HW115247   0.866   5.676   4.214
 4602SOL    HW215248   0.733   5.613   4.249
 4603SOL     OW15249   0.175   6.503   5.028
 4603SOL    HW115250   0.265   6.481   5.003
 4603SOL    HW215251   0.132   6.522   4.945
 4604SOL     OW15252   1.533   6.593   3.926
 4604SOL    HW115253   1.468   6.527   3.949
 4604SOL    HW215254   1.573   6.618   4.009
 4605SOL     OW15255   1.229   7.420   5.360
 4605SOL    HW115256   1.206   7.476   5.286
 4605SOL    HW215257   1.212   7.331   5.329
 4606SOL     OW15258   0.370   5.867   5.517
 4606SOL    HW115259   0.407   5.934   5.574
 4606SOL    HW215260   0.277   5.862   5.542
 4607SOL     OW15261   1.513   6.975   4.709
 4607SOL    HW115262   1.435   7.011   4.751
 4607SOL    HW215263   1.479   6.903   4.655
 4608SOL     OW15264   1.632   7.344   4.299
 4608SOL    HW115265   1.676   7.289   4.234
 4608SOL    HW215266   1.610   7.284   4.370
 4609SOL     OW15267   0.594   6.302   3.990
 4609SOL    HW115268   0.608   6.383   3.941
 4609SOL    HW215269   0.536   6.328   4.061
 4610SOL     OW15270   1.281   5.961   4.668
 4610SOL    HW115271   1.197   5.916   4.679
 4610SOL    HW215272   1.343   5.911   4.720
 4611SOL     OW15273   1.570   7.292   4.020
 4611SOL    HW115274   1.666   7.294   4.019
 4611SOL    HW215275   1.546   7.262   3.932
 4612SOL     OW15276   0.779   6.215   5.158
 4612SOL    HW115277   0.762   6.186   5.248
 4612SOL    HW215278   0.746   6.143   5.103
 4613SOL     OW15279   1.394   6.062   5.410
 4613SOL    HW115280   1.408   6.104   5.495
 4613SOL    HW215281   1.451   5.986   5.411
 4614SOL     OW15282   0.943   6.473   5.305
 4614SOL    HW115283   1.000   6.405   5.268
 4614SOL    HW215284   0.899   6.512   5.229
 4615SOL     OW15285   0.989   5.998   4.950
 4615SOL    HW115286   0.897   6.021   4.958
 4615SOL    HW215287   0.994   5.948   4.868
 4616SOL     OW15288   1.059   6.282   4.143
 4616SOL    HW115289   1.072   6.279   4.238
 4616SOL    HW215290   0.973   6.243   4.129
 4617SOL     OW15291   0.037   6.403   4.526
 4617SOL    HW115292   0.129   6.413   4.551
 4617SOL    HW215293   0.010   6.491   4.498
 4618SOL     OW15294   0.137   7.418   5.293
 4618SOL    HW115295   0.136   7.403   5.387
 4618SOL    HW215296   0.046   7.403   5.265
 4619SOL     OW15297   0.900   5.942   3.926
 4619SOL    HW115298   0.950   6.003   3.872
 4619SOL    HW215299   0.860   5.881   3.864
 4620SOL     OW15300   1.671   6.153   5.546
 4620SOL    HW115301   1.660   6.228   5.488
 4620SOL    HW215302   1.719   6.089   5.494
 4621SOL     OW15303   1.390   6.726   4.273
 4621SOL    HW115304   1.466   6.706   4.217
 4621SOL    HW215305   1.333   6.778   4.217
 4622SOL     OW15306   0.543   5.742   4.623
 4622SOL    HW115307   0.545   5.793   4.705
 4622SOL    HW215308   0.523   5.807   4.555
 4623SOL     OW15309   1.062   7.079   4.254
 4623SOL    HW115310   1.008   7.059   4.177
 4623SOL    HW215311   0.998   7.092   4.324
 4624SOL     OW15312   0.357   7.397   4.565
 4624SOL    HW115313   0.396   7.312   4.586
 4624SOL    HW215314   0.415   7.461   4.607
 4625SOL     OW15315   1.798   6.643   4.593
 4625SOL    HW115316   1.759   6.606   4.514
 4625SOL    HW215317   1.727   6.645   4.657
 4626SOL     OW15318   1.220   7.133   5.227
 4626SOL    HW115319   1.202   7.060   5.287
 4626SOL    HW215320   1.133   7.165   5.202
 4627SOL     OW15321   0.302   6.535   3.966
 4627SOL    HW115322   0.386   6.563   3.928
 4627SOL    HW215323   0.278   6.456   3.917
 4628SOL     OW15324   1.476   6.353   4.462
 4628SOL    HW115325   1.481   6.298   4.539
 4628SOL    HW215326   1.563   6.392   4.454
 4629SOL     OW15327   0.455   6.764   5.464
 4629SOL    HW115328   0.427   6.809   5.385
 4629SOL    HW215329   0.453   6.832   5.532
 4630SOL     OW15330   1.161   7.354   3.979
 4630SOL    HW115331   1.067   7.351   3.999
 4630SOL    HW215332   1.172   7.294   3.906
 4631SOL     OW15333   0.193   5.871   5.214
 4631SOL    HW115334   0.106   5.909   5.199
 4631SOL    HW215335   0.177   5.798   5.275
 4632SOL     OW15336   1.625   6.969   3.793
 4632SOL    HW115337   1.577   7.052   3.790
 4632SOL    HW215338   1.558   6.902   3.784
 4633SOL     OW15339   0.447   7.338   4.050
 4633SOL    HW115340   0.500   7.384   4.115
 4633SOL    HW215341   0.510   7.297   3.992
 4634SOL     OW15342   1.404   5.693   4.173
 4634SOL    HW115343   1.401   5.672   4.080
 4634SOL    HW215344   1.498   5.699   4.193
 4635SOL     OW15345   0.239   7.384   4.963
 4635SOL    HW115346   0.287   7.304   4.980
 4635SOL    HW215347   0.200   7.371   4.876
 4636SOL     OW15348   0.939   7.282   4.622
 4636SOL    HW115349   0.955   7.215   4.687
 4636SOL    HW215350   0.899   7.235   4.548
 4637SOL     OW15351   0.395   6.271   4.198
 4637SOL    HW115352   0.367   6.203   4.136
 4637SOL    HW215353   0.319   6.285   4.254
 4638SOL     OW15354   1.541   5.827   5.456
 4638SOL    HW115355   1.534   5.851   5.549
 4638SOL    HW215356   1.521   5.734   5.454
 4639SOL     OW15357   0.615   5.647   3.847
 4639SOL    HW115358   0.679   5.707   3.811
 4639SOL    HW215359   0.563   5.619   3.772
 4640SOL     OW15360   0.765   5.852   5.440
 4640SOL    HW115361   0.852   5.813   5.449
 4640SOL    HW215362   0.718   5.826   5.519
 4641SOL     OW15363   0.880   7.109   4.901
 4641SOL    HW115364   0.853   7.057   4.825
 4641SOL    HW215365   0.944   7.054   4.946
 4642SOL     OW15366   1.336   6.177   5.163
 4642SOL    HW115367   1.374   6.139   5.242
 4642SOL    HW215368   1.383   6.260   5.151
 4643SOL     OW15369   0.822   6.966   4.670
 4643SOL    HW115370   0.905   6.957   4.623
 4643SOL    HW215371   0.756   6.975   4.602
 4644SOL     OW15372   0.930   6.087   4.615
 4644SOL    HW115373   0.934   6.080   4.520
 4644SOL    HW215374   0.965   6.003   4.646
 4645SOL     OW15375   0.556   5.648   4.236
 4645SOL    HW115376   0.469   5.651   4.278
 4645SOL    HW215377   0.557   5.723   4.177
 4646SOL     OW15378   1.422   6.787   3.766
 4646SOL    HW115379   1.457   6.712   3.814
 4646SOL    HW215380   1.332   6.796   3.798
 4647SOL     OW15381   0.301   5.638   3.912
 4647SOL    HW115382   0.347   5.717   3.882
 4647SOL    HW215383   0.369   5.586   3.953
 4648SOL     OW15384   0.943   5.838   4.182
 4648SOL    HW115385   0.920   5.871   4.094
 4648SOL    HW215386   1.037   5.850   4.188
 4649SOL     OW15387   1.084   6.273   5.183
 4649SOL    HW115388   1.027   6.197   5.187
 4649SOL    HW215389   1.173   6.237   5.178
 4650SOL     OW15390   1.267   7.136   4.533
 4650SOL    HW115391   1.217   7.180   4.465
 4650SOL    HW215392   1.257   7.191   4.611
 4651SOL     OW15393   0.465   6.736   4.462
 4651SOL    HW115394   0.398   6.716   4.528
 4651SOL    HW215395   0.420   6.724   4.378
 4652SOL     OW15396   1.260   7.438   4.262
 4652SOL    HW115397   1.190   7.419   4.199
 4652SOL    HW215398   1.213   7.467   4.341
 4653SOL     OW15399   1.027   6.118   3.754
 4653SOL    HW115400   0.980   6.198   3.731
 4653SOL    HW215401   1.100   6.147   3.809
 4654SOL     OW15402   0.107   6.182   5.113
 4654SOL    HW115403   0.199   6.167   5.092
 4654SOL    HW215404   0.108   6.259   5.170
 4655SOL     OW15405   0.558   5.799   4.914
 4655SOL    HW115406   0.584   5.708   4.931
 4655SOL    HW215407   0.464   5.800   4.931
 4656SOL     OW15408   0.833   6.045   4.345
 4656SOL    HW115409   0.827   6.097   4.264
 4656SOL    HW215410   0.870   5.961   4.317
 4657SOL     OW15411   0.990   5.665   4.491
 4657SOL    HW115412   0.955   5.650   4.403
 4657SOL    HW215413   0.984   5.579   4.534
 4658SOL     OW15414   1.431   6.749   4.568
 4658SOL    HW115415   1.351   6.698   4.578
 4658SOL    HW215416   1.445   6.753   4.474
 4659SOL     OW15417   1.462   6.198   4.694
 4659SOL    HW115418   1.411   6.117   4.691
 4659SOL    HW215419   1.520   6.188   4.769
 4660SOL     OW15420   1.840   6.406   4.117
 4660SOL    HW115421   1.899   6.351   4.169
 4660SOL    HW215422   1.796   6.344   4.058
 4661SOL     OW15423   0.483   7.016   3.871
 4661SOL    HW115424   0.404   6.985   3.915
 4661SOL    HW215425   0.493   6.957   3.796
 4662SOL     OW15426   1.692   6.863   4.351
 4662SOL    HW115427   1.784   6.859   4.377
 4662SOL    HW215428   1.661   6.945   4.389
 4663SOL     OW15429   1.402   6.167   3.788
 4663SOL    HW115430   1.352   6.134   3.862
 4663SOL    HW215431   1.492   6.141   3.805
 4664SOL     OW15432   0.550   5.832   4.045
 4664SOL    HW115433   0.583   5.775   3.974
 4664SOL    HW215434   0.530   5.915   4.001
 4665SOL     OW15435   1.742   6.838   5.286
 4665SOL    HW115436   1.826   6.793   5.291
 4665SOL    HW215437   1.761   6.928   5.312
 4666SOL     OW15438   1.044   6.924   5.038
 4666SOL    HW115439   0.970   6.901   5.094
 4666SOL    HW215440   1.121   6.902   5.091
 4667SOL     OW15441   1.613   7.220   5.377
 4667SOL    HW115442   1.602   7.254   5.288
 4667SOL    HW215443   1.695   7.170   5.374
 4668SOL     OW15444   1.147   6.795   4.822
 4668SOL    HW115445   1.090   6.831   4.890
 4668SOL    HW215446   1.113   6.832   4.740
 4669SOL     OW15447   1.600   6.692   4.797
 4669SOL    HW115448   1.553   6.683   4.880
 4669SOL    HW215449   1.532   6.692   4.730
 4670SOL     OW15450   0.906   5.720   5.109
 4670SOL    HW115451   0.925   5.676   5.026
 4670SOL    HW215452   0.991   5.743   5.145
 4671SOL     OW15453   0.983   6.701   5.446
 4671SOL    HW115454   0.894   6.722   5.474
 4671SOL    HW215455   0.973   6.624   5.390
 4672SOL     OW15456   0.680   6.583   4.095
 4672SOL    HW115457   0.684   6.600   4.189
 4672SOL    HW215458   0.770   6.564   4.070
 4673SOL     OW15459   0.424   6.397   4.965
 4673SOL    HW115460   0.484   6.421   5.035
 4673SOL    HW215461   0.399   6.307   4.986
 4674SOL     OW15462   1.260   5.959   5.012
 4674SOL    HW115463   1.298   6.037   5.053
 4674SOL    HW215464   1.171   5.986   4.987
 4675SOL     OW15465   0.075   7.154   5.094
 4675SOL    HW115466   0.061   7.240   5.053
 4675SOL    HW215467   0.169   7.139   5.086
 4676SOL     OW15468   0.329   6.692   4.219
 4676SOL    HW115469   0.341   6.772   4.167
 4676SOL    HW215470   0.333   6.621   4.155
 4677SOL     OW15471   1.257   6.923   4.121
 4677SOL    HW115472   1.318   6.986   4.161
 4677SOL    HW215473   1.172   6.946   4.158
 4678SOL     OW15474   1.298   7.047   4.866
 4678SOL    HW115475   1.341   7.055   4.951
 4678SOL    HW215476   1.238   6.973   4.876
 4679SOL     OW15477   1.576   6.188   4.235
 4679SOL    HW115478   1.516   6.257   4.262
 4679SOL    HW215479   1.618   6.222   4.156
 4680SOL     OW15480   0.343   7.110   5.035
 4680SOL    HW115481   0.332   7.064   4.952
 4680SOL    HW215482   0.436   7.130   5.039
 4681SOL     OW15483   0.433   6.372   5.377
 4681SOL    HW115484   0.487   6.406   5.306
 4681SOL    HW215485   0.467   6.284   5.392
 4682SOL     OW15486   1.599   6.387   5.421
 4682SOL    HW115487   1.516   6.411   5.380
 4682SOL    HW215488   1.666   6.417   5.359
 4683SOL     OW15489   0.999   5.722   5.455
 4683SOL    HW115490   1.063   5.793   5.450
 4683SOL    HW215491   1.048   5.644   5.429
 4684SOL     OW15492   0.512   5.636   5.449
 4684SOL    HW115493   0.458   5.579   5.395
 4684SOL    HW215494   0.456   5.710   5.471
 4685SOL     OW15495   0.609   6.450   4.762
 4685SOL    HW115496   0.635   6.542   4.752
 4685SOL    HW215497   0.543   6.451   4.831
 4686SOL     OW15498   1.346   6.445   4.747
 4686SOL    HW115499   1.268   6.435   4.693
 4686SOL    HW215500   1.393   6.362   4.737
 4687SOL     OW15501   1.214   6.107   3.990
 4687SOL    HW115502   1.216   6.027   4.043
 4687SOL    HW215503   1.168   6.171   4.044
 4688SOL     OW15504   0.291   5.778   4.970
 4688SOL    HW115505   0.256   5.808   5.053
 4688SOL    HW215506   0.276   5.684   4.970
 4689SOL     OW15507   0.086   6.886   4.992
 4689SOL    HW115508   0.098   6.841   5.076
 4689SOL    HW215509   0.062   6.976   5.017
 4690SOL     OW15510   0.683   6.188   4.708
 4690SOL    HW115511   0.778   6.187   4.703
 4690SOL    HW215512   0.660   6.279   4.727
 4691SOL     OW15513   1.753   6.567   5.577
 4691SOL    HW115514   1.705   6.499   5.528
 4691SOL    HW215515   1.720   6.560   5.666
 4692SOL     OW15516   0.304   5.655   4.338
 4692SOL    HW115517   0.275   5.744   4.356
 4692SOL    HW215518   0.305   5.612   4.423
 4693SOL     OW15519   1.616   5.956   4.090
 4693SOL    HW115520   1.653   5.885   4.143
 4693SOL    HW215521   1.591   6.023   4.154
 4694SOL     OW15522   1.020   6.340   4.681
 4694SOL    HW115523   1.014   6.356   4.775
 4694SOL    HW215524   1.001   6.247   4.671
 4695SOL     OW15525   1.012   7.176   5.443
 4695SOL    HW115526   0.944   7.209   5.384
 4695SOL    HW215527   1.018   7.082   5.422
 4696SOL     OW15528   1.849   7.090   5.322
 4696SOL    HW115529   1.874   7.118   5.235
 4696SOL    HW215530   1.928   7.101   5.375
 4697SOL     OW15531   1.522   5.858   3.850
 4697SOL    HW115532   1.463   5.790   3.881
 4697SOL    HW215533   1.559   5.896   3.930
 4698SOL     OW15534   1.292   6.417   3.756
 4698SOL    HW115535   1.336   6.332   3.757
 4698SOL    HW215536   1.309   6.452   3.669
 4699SOL     OW15537   1.077   6.928   4.582
 4699SOL    HW115538   1.077   6.853   4.523
 4699SOL    HW215539   1.150   6.983   4.551
 4700SOL     OW15540   0.328   6.352   4.665
 4700SOL    HW115541   0.392   6.406   4.619
 4700SOL    HW215542   0.331   6.384   4.756
 4701SOL     OW15543   0.333   6.090   4.763
 4701SOL    HW115544   0.307   6.014   4.712
 4701SOL    HW215545   0.333   6.163   4.701
 4702SOL     OW15546   1.137   5.964   5.412
 4702SOL    HW115547   1.091   6.016   5.478
 4702SOL    HW215548   1.225   6.001   5.409
 4703SOL     OW15549   1.157   5.789   5.198
 4703SOL    HW115550   1.154   5.855   5.268
 4703SOL    HW215551   1.209   5.830   5.129
 4704SOL     OW15552   7.978   6.896   3.912
 4704SOL    HW115553   7.892   6.916   3.949
 4704SOL    HW215554   7.991   6.803   3.931
 4705SOL     OW15555   0.125   7.343   4.726
 4705SOL    HW115556   0.065   7.270   4.713
 4705SOL    HW215557   0.172   7.351   4.642
 4706SOL     OW15558   0.493   7.162   4.633
 4706SOL    HW115559   0.560   7.229   4.651
 4706SOL    HW215560   0.536   7.101   4.573
 4707SOL     OW15561   0.970   6.364   4.947
 4707SOL    HW115562   1.034   6.341   5.014
 4707SOL    HW215563   0.887   6.370   4.995
 4708SOL     OW15564   0.072   6.093   4.859
 4708SOL    HW115565   0.164   6.096   4.835
 4708SOL    HW215566   0.068   6.135   4.945
 4709SOL     OW15567   0.192   6.116   5.418
 4709SOL    HW115568   0.209   6.061   5.342
 4709SOL    HW215569   0.161   6.199   5.382
 4710SOL     OW15570   1.358   6.519   5.421
 4710SOL    HW115571   1.388   6.609   5.406
 4710SOL    HW215572   1.326   6.490   5.336
 4711SOL     OW15573   0.812   6.156   4.096
 4711SOL    HW115574   0.827   6.087   4.032
 4711SOL    HW215575   0.743   6.210   4.058
 4712SOL     OW15576   1.637   6.197   4.904
 4712SOL    HW115577   1.633   6.141   4.981
 4712SOL    HW215578   1.723   6.179   4.865
 4713SOL     OW15579   0.329   7.121   5.448
 4713SOL    HW115580   0.289   7.190   5.500
 4713SOL    HW215581   0.256   7.064   5.424
 4714SOL     OW15582   0.699   6.027   4.967
 4714SOL    HW115583   0.650   5.949   4.943
 4714SOL    HW215584   0.684   6.088   4.894
 4715SOL     OW15585   0.967   7.257   5.163
 4715SOL    HW115586   0.907   7.219   5.099
 4715SOL    HW215587   0.939   7.348   5.171
 4716SOL     OW15588   0.488   6.056   3.915
 4716SOL    HW115589   0.526   6.144   3.921
 4716SOL    HW215590   0.399   6.066   3.947
 4717SOL     OW15591   0.164   6.717   5.197
 4717SOL    HW115592   0.150   6.677   5.283
 4717SOL    HW215593   0.164   6.644   5.136
 4718SOL     OW15594   1.336   6.632   4.939
 4718SOL    HW115595   1.344   6.560   4.876
 4718SOL    HW215596   1.268   6.688   4.903
 4719SOL     OW15597   1.319   6.440   4.030
 4719SOL    HW115598   1.243   6.404   4.076
 4719SOL    HW215599   1.298   6.430   3.937
 4720SOL     OW15600   1.749   7.347   4.847
 4720SOL    HW115601   1.825   7.376   4.797
 4720SOL    HW215602   1.746   7.252   4.834
 4721SOL     OW15603   1.242   7.312   4.806
 4721SOL    HW115604   1.331   7.337   4.780
 4721SOL    HW215605   1.252   7.223   4.840
 4722SOL     OW15606   0.038   6.815   4.739
 4722SOL    HW115607   0.057   6.837   4.830
 4722SOL    HW215608  -0.017   6.887   4.707
 4723SOL     OW15609   0.711   7.238   5.416
 4723SOL    HW115610   0.696   7.240   5.511
 4723SOL    HW215611   0.672   7.319   5.383
 4724SOL     OW15612   1.722   5.744   4.222
 4724SOL    HW115613   1.795   5.724   4.164
 4724SOL    HW215614   1.704   5.662   4.268
 4725SOL     OW15615   1.397   7.151   4.214
 4725SOL    HW115616   1.434   7.176   4.130
 4725SOL    HW215617   1.307   7.183   4.212
 4726SOL     OW15618   0.186   7.323   5.557
 4726SOL    HW115619   0.117   7.280   5.608
 4726SOL    HW215620   0.228   7.383   5.618
 4727SOL     OW15621   1.272   6.513   4.392
 4727SOL    HW115622   1.346   6.456   4.414
 4727SOL    HW215623   1.310   6.582   4.339
 4728SOL     OW15624   0.794   6.859   5.145
 4728SOL    HW115625   0.765   6.895   5.229
 4728SOL    HW215626   0.726   6.884   5.083
 4729SOL     OW15627   0.628   7.251   3.861
 4729SOL    HW115628   0.672   7.249   3.776
 4729SOL    HW215629   0.596   7.161   3.873
 4730SOL     OW15630   1.617   7.322   5.109
 4730SOL    HW115631   1.666   7.330   5.027
 4730SOL    HW215632   1.606   7.412   5.139
 4731SOL     OW15633   1.856   5.758   4.622
 4731SOL    HW115634   1.883   5.669   4.644
 4731SOL    HW215635   1.761   5.756   4.626
 4732SOL     OW15636   0.262   5.910   4.442
 4732SOL    HW115637   0.176   5.937   4.409
 4732SOL    HW215638   0.247   5.889   4.534
 4733SOL     OW15639   1.212   7.183   3.765
 4733SOL    HW115640   1.195   7.094   3.798
 4733SOL    HW215641   1.143   7.198   3.701
 4734SOL     OW15642   0.820   6.595   5.088
 4734SOL    HW115643   0.846   6.602   4.996
 4734SOL    HW215644   0.812   6.686   5.118
 4735SOL     OW15645   0.928   6.504   4.015
 4735SOL    HW115646   0.985   6.548   3.951
 4735SOL    HW215647   0.983   6.435   4.052
 4736SOL     OW15648   1.485   7.230   3.769
 4736SOL    HW115649   1.392   7.212   3.757
 4736SOL    HW215650   1.521   7.231   3.681
 4737SOL     OW15651   0.374   6.892   5.232
 4737SOL    HW115652   0.363   6.969   5.175
 4737SOL    HW215653   0.300   6.836   5.211
 4738SOL     OW15654   1.594   6.869   5.050
 4738SOL    HW115655   1.640   6.849   5.131
 4738SOL    HW215656   1.531   6.938   5.075
 4739SOL     OW15657   1.070   6.696   4.449
 4739SOL    HW115658   0.992   6.648   4.478
 4739SOL    HW215659   1.128   6.629   4.413
 4740SOL     OW15660   1.019   5.832   4.707
 4740SOL    HW115661   1.013   5.788   4.623
 4740SOL    HW215662   1.023   5.761   4.771
 4741SOL     OW15663   0.613   7.069   4.218
 4741SOL    HW115664   0.679   7.046   4.153
 4741SOL    HW215665   0.531   7.072   4.168
 4742SOL     OW15666   1.701   6.047   5.133
 4742SOL    HW115667   1.787   6.085   5.118
 4742SOL    HW215668   1.702   5.965   5.083
 4743SOL     OW15669   0.245   6.925   3.993
 4743SOL    HW115670   0.150   6.934   3.983
 4743SOL    HW215671   0.264   6.964   4.078
 4744SOL     OW15672   0.111   6.610   5.448
 4744SOL    HW115673   0.023   6.647   5.443
 4744SOL    HW215674   0.159   6.669   5.506
 4745SOL     OW15675   0.078   5.918   3.715
 4745SOL    HW115676   0.029   5.958   3.787
 4745SOL    HW215677   0.116   5.992   3.668
 4746SOL     OW15678   1.424   6.445   5.140
 4746SOL    HW115679   1.377   6.504   5.082
 4746SOL    HW215680   1.515   6.448   5.109
 4747SOL     OW15681   0.098   5.770   4.071
 4747SOL    HW115682   0.115   5.864   4.063
 4747SOL    HW215683   0.182   5.729   4.050
 4748SOL     OW15684   1.167   6.921   3.854
 4748SOL    HW115685   1.075   6.896   3.863
 4748SOL    HW215686   1.203   6.915   3.942
 4749SOL     OW15687   0.610   6.427   5.166
 4749SOL    HW115688   0.664   6.505   5.150
 4749SOL    HW215689   0.672   6.354   5.167
 4750SOL     OW15690   1.496   7.378   4.717
 4750SOL    HW115691   1.509   7.444   4.650
 4750SOL    HW215692   1.580   7.372   4.762
 4751SOL     OW15693   0.721   6.146   5.413
 4751SOL    HW115694   0.763   6.214   5.467
 4751SOL    HW215695   0.733   6.065   5.463
 4752SOL     OW15696   1.469   6.770   5.359
 4752SOL    HW115697   1.455   6.796   5.450
 4752SOL    HW215698   1.562   6.788   5.343
 4753SOL     OW15699   0.396   7.330   5.286
 4753SOL    HW115700   0.306   7.361   5.271
 4753SOL    HW215701   0.385   7.249   5.337
 4754SOL     OW15702   1.661   6.461   4.975
 4754SOL    HW115703   1.656   6.368   4.951
 4754SOL    HW215704   1.672   6.506   4.891
 4755SOL     OW15705   1.212   5.896   4.187
 4755SOL    HW115706   1.279   5.829   4.180
 4755SOL    HW215707   1.238   5.949   4.262
 4756SOL     OW15708   0.590   6.333   4.379
 4756SOL    HW115709   0.623   6.423   4.372
 4756SOL    HW215710   0.523   6.327   4.312
 4757SOL     OW15711   1.771   5.962   5.383
 4757SOL    HW115712   1.749   5.991   5.295
 4757SOL    HW215713   1.702   5.899   5.405
 4758SOL     OW15714   1.724   6.528   5.231
 4758SOL    HW115715   1.754   6.619   5.233
 4758SOL    HW215716   1.720   6.505   5.138
 4759SOL     OW15717   0.825   6.985   3.730
 4759SOL    HW115718   0.828   6.986   3.825
 4759SOL    HW215719   0.883   7.057   3.703
 4760SOL     OW15720   0.665   7.372   4.655
 4760SOL    HW115721   0.640   7.463   4.641
 4760SOL    HW215722   0.760   7.371   4.645
 4761SOL     OW15723   0.870   6.561   4.585
 4761SOL    HW115724   0.919   6.486   4.621
 4761SOL    HW215725   0.833   6.604   4.661
 4762SOL     OW15726   1.096   6.600   3.820
 4762SOL    HW115727   1.062   6.637   3.738
 4762SOL    HW215728   1.159   6.535   3.792
 4763SOL     OW15729   1.825   7.132   4.608
 4763SOL    HW115730   1.750   7.117   4.550
 4763SOL    HW215731   1.858   7.045   4.629
 4764SOL     OW15732   0.179   6.834   5.594
 4764SOL    HW115733   0.163   6.894   5.521
 4764SOL    HW215734   0.259   6.867   5.635
 4765SOL     OW15735   0.134   6.835   4.380
 4765SOL    HW115736   0.063   6.790   4.426
 4765SOL    HW215737   0.188   6.766   4.343
 4766SOL     OW15738   0.671   6.977   5.355
 4766SOL    HW115739   0.575   6.975   5.353
 4766SOL    HW215740   0.693   7.068   5.377
 4767SOL     OW15741   0.505   5.987   4.344
 4767SOL    HW115742   0.512   5.973   4.249
 4767SOL    HW215743   0.413   5.972   4.364
 4768SOL     OW15744   0.364   6.134   5.029
 4768SOL    HW115745   0.420   6.069   5.072
 4768SOL    HW215746   0.364   6.108   4.937
 4769SOL     OW15747   0.834   7.161   4.405
 4769SOL    HW115748   0.810   7.221   4.334
 4769SOL    HW215749   0.765   7.095   4.404
 4770SOL     OW15750   1.445   5.833   4.840
 4770SOL    HW115751   1.529   5.808   4.880
 4770SOL    HW215752   1.390   5.860   4.913
 4771SOL     OW15753   1.006   5.596   4.866
 4771SOL    HW115754   0.962   5.534   4.807
 4771SOL    HW215755   1.096   5.564   4.872
 4772SOL     OW15756   0.625   7.139   5.011
 4772SOL    HW115757   0.621   7.223   5.057
 4772SOL    HW215758   0.709   7.140   4.966
 4773SOL     OW15759   1.367   5.634   3.907
 4773SOL    HW115760   1.410   5.562   3.861
 4773SOL    HW215761   1.277   5.603   3.921
 4774SOL     OW15762   1.267   6.047   4.404
 4774SOL    HW115763   1.228   6.134   4.414
 4774SOL    HW215764   1.286   6.018   4.493
 4775SOL     OW15765   1.570   5.767   4.600
 4775SOL    HW115766   1.533   5.795   4.684
 4775SOL    HW215767   1.579   5.847   4.549
 4776SOL     OW15768   0.039   6.641   3.997
 4776SOL    HW115769   0.129   6.612   3.984
 4776SOL    HW215770   0.027   6.644   4.092
 4777SOL     OW15771   0.902   7.324   4.030
 4777SOL    HW115772   0.878   7.232   4.020
 4777SOL    HW215773   0.857   7.351   4.111
 4778SOL     OW15774   0.251   6.297   5.629
 4778SOL    HW115775   0.218   6.268   5.713
 4778SOL    HW215776   0.240   6.222   5.571
 4779SOL     OW15777   0.238   5.872   6.571
 4779SOL    HW115778   0.259   5.840   6.659
 4779SOL    HW215779   0.154   5.831   6.549
 4780SOL     OW15780   8.001   6.011   6.168
 4780SOL    HW115781   7.927   5.986   6.223
 4780SOL    HW215782   8.014   5.937   6.109
 4781SOL     OW15783   0.560   6.882   6.764
 4781SOL    HW115784   0.480   6.911   6.720
 4781SOL    HW215785   0.594   6.961   6.806
 4782SOL     OW15786   1.581   7.110   6.293
 4782SOL    HW115787   1.538   7.088   6.376
 4782SOL    HW215788   1.510   7.114   6.229
 4783SOL     OW15789   1.125   6.282   6.276
 4783SOL    HW115790   1.175   6.362   6.264
 4783SOL    HW215791   1.086   6.290   6.363
 4784SOL     OW15792   1.752   6.191   5.801
 4784SOL    HW115793   1.734   6.170   5.710
 4784SOL    HW215794   1.745   6.107   5.847
 4785SOL     OW15795   0.734   6.727   6.624
 4785SOL    HW115796   0.674   6.764   6.689
 4785SOL    HW215797   0.776   6.803   6.585
 4786SOL     OW15798   0.859   6.354   7.412
 4786SOL    HW115799   0.878   6.432   7.464
 4786SOL    HW215800   0.878   6.380   7.322
 4787SOL     OW15801   0.684   6.587   6.232
 4787SOL    HW115802   0.754   6.578   6.296
 4787SOL    HW215803   0.621   6.646   6.273
 4788SOL     OW15804   0.680   6.734   7.435
 4788SOL    HW115805   0.765   6.728   7.393
 4788SOL    HW215806   0.624   6.777   7.369
 4789SOL     OW15807   0.340   7.007   6.646
 4789SOL    HW115808   0.256   7.005   6.600
 4789SOL    HW215809   0.395   7.064   6.593
 4790SOL     OW15810   1.451   7.096   6.941
 4790SOL    HW115811   1.503   7.175   6.954
 4790SOL    HW215812   1.381   7.103   7.005
 4791SOL     OW15813   0.413   5.968   7.158
 4791SOL    HW115814   0.504   5.940   7.157
 4791SOL    HW215815   0.376   5.934   7.077
 4792SOL     OW15816   1.579   6.010   6.324
 4792SOL    HW115817   1.502   6.047   6.282
 4792SOL    HW215818   1.632   6.086   6.349
 4793SOL     OW15819   0.228   7.283   6.069
 4793SOL    HW115820   0.232   7.362   6.123
 4793SOL    HW215821   0.295   7.296   6.002
 4794SOL     OW15822   1.144   6.939   7.283
 4794SOL    HW115823   1.181   6.917   7.368
 4794SOL    HW215824   1.086   6.865   7.263
 4795SOL     OW15825   0.226   7.022   6.115
 4795SOL    HW115826   0.239   7.117   6.107
 4795SOL    HW215827   0.226   7.006   6.210
 4796SOL     OW15828   0.242   6.681   6.453
 4796SOL    HW115829   0.253   6.591   6.484
 4796SOL    HW215830   0.180   6.720   6.514
 4797SOL     OW15831   0.621   7.383   7.010
 4797SOL    HW115832   0.538   7.355   7.049
 4797SOL    HW215833   0.629   7.475   7.034
 4798SOL     OW15834   0.574   6.596   5.711
 4798SOL    HW115835   0.627   6.646   5.648
 4798SOL    HW215836   0.617   6.610   5.795
 4799SOL     OW15837   1.594   5.719   7.039
 4799SOL    HW115838   1.636   5.797   7.004
 4799SOL    HW215839   1.572   5.741   7.129
 4800SOL     OW15840   0.138   6.245   6.133
 4800SOL    HW115841   0.095   6.161   6.149
 4800SOL    HW215842   0.117   6.298   6.210
 4801SOL     OW15843   0.021   7.186   5.733
 4801SOL    HW115844   0.014   7.107   5.785
 4801SOL    HW215845   0.001   7.257   5.793
 4802SOL     OW15846   1.693   6.488   6.210
 4802SOL    HW115847   1.761   6.420   6.208
 4802SOL    HW215848   1.691   6.522   6.121
 4803SOL     OW15849   1.657   6.699   5.985
 4803SOL    HW115850   1.748   6.690   5.954
 4803SOL    HW215851   1.663   6.758   6.059
 4804SOL     OW15852   0.159   6.338   7.169
 4804SOL    HW115853   0.253   6.354   7.159
 4804SOL    HW215854   0.127   6.414   7.217
 4805SOL     OW15855   0.620   6.987   6.312
 4805SOL    HW115856   0.577   6.903   6.325
 4805SOL    HW215857   0.605   7.009   6.221
 4806SOL     OW15858   1.287   6.830   7.007
 4806SOL    HW115859   1.312   6.762   6.945
 4806SOL    HW215860   1.346   6.818   7.081
 4807SOL     OW15861   0.820   5.582   6.108
 4807SOL    HW115862   0.862   5.664   6.080
 4807SOL    HW215863   0.727   5.602   6.109
 4808SOL     OW15864   1.518   6.566   5.784
 4808SOL    HW115865   1.451   6.524   5.837
 4808SOL    HW215866   1.576   6.609   5.847
 4809SOL     OW15867   1.201   7.432   7.130
 4809SOL    HW115868   1.283   7.394   7.098
 4809SOL    HW215869   1.144   7.358   7.144
 4810SOL     OW15870   0.341   5.840   7.469
 4810SOL    HW115871   0.392   5.889   7.405
 4810SOL    HW215872   0.256   5.884   7.470
 4811SOL     OW15873   1.448   7.028   6.513
 4811SOL    HW115874   1.396   7.037   6.593
 4811SOL    HW215875   1.438   6.937   6.488
 4812SOL     OW15876   1.707   7.297   6.116
 4812SOL    HW115877   1.636   7.272   6.056
 4812SOL    HW215878   1.689   7.248   6.196
 4813SOL     OW15879   0.561   6.320   5.807
 4813SOL    HW115880   0.644   6.364   5.827
 4813SOL    HW215881   0.535   6.280   5.890
 4814SOL     OW15882   1.291   5.957   6.522
 4814SOL    HW115883   1.199   5.931   6.535
 4814SOL    HW215884   1.340   5.899   6.581
 4815SOL     OW15885   1.580   7.281   5.865
 4815SOL    HW115886   1.558   7.372   5.843
 4815SOL    HW215887   1.549   7.231   5.789
 4816SOL     OW15888   0.826   6.124   7.038
 4816SOL    HW115889   0.787   6.172   7.111
 4816SOL    HW215890   0.750   6.094   6.987
 4817SOL     OW15891   1.391   6.039   7.263
 4817SOL    HW115892   1.413   6.071   7.350
 4817SOL    HW215893   1.440   5.956   7.255
 4818SOL     OW15894   0.930   6.426   7.159
 4818SOL    HW115895   1.022   6.416   7.137
 4818SOL    HW215896   0.920   6.519   7.178
 4819SOL     OW15897   0.992   6.003   6.825
 4819SOL    HW115898   0.937   6.051   6.887
 4819SOL    HW215899   0.960   6.029   6.739
 4820SOL     OW15900   1.044   6.281   6.008
 4820SOL    HW115901   1.062   6.278   6.102
 4820SOL    HW215902   0.959   6.237   5.999
 4821SOL     OW15903   0.092   6.393   6.361
 4821SOL    HW115904   0.166   6.412   6.418
 4821SOL    HW215905   0.041   6.474   6.361
 4822SOL     OW15906   0.146   7.450   7.144
 4822SOL    HW115907   0.116   7.431   7.233
 4822SOL    HW215908   0.102   7.385   7.089
 4823SOL     OW15909   0.898   5.924   5.784
 4823SOL    HW115910   0.942   5.984   5.723
 4823SOL    HW215911   0.887   5.843   5.734
 4824SOL     OW15912   1.693   6.158   7.422
 4824SOL    HW115913   1.663   6.229   7.365
 4824SOL    HW215914   1.727   6.091   7.361
 4825SOL     OW15915   1.375   6.695   6.063
 4825SOL    HW115916   1.467   6.717   6.052
 4825SOL    HW215917   1.328   6.777   6.046
 4826SOL     OW15918   0.548   5.744   6.483
 4826SOL    HW115919   0.558   5.776   6.573
 4826SOL    HW215920   0.544   5.824   6.431
 4827SOL     OW15921   0.995   7.023   6.055
 4827SOL    HW115922   0.970   7.102   6.006
 4827SOL    HW215923   0.970   7.043   6.146
 4828SOL     OW15924   0.323   7.399   6.510
 4828SOL    HW115925   0.397   7.339   6.500
 4828SOL    HW215926   0.322   7.449   6.428
 4829SOL     OW15927   1.819   6.637   6.398
 4829SOL    HW115928   1.762   6.593   6.335
 4829SOL    HW215929   1.763   6.654   6.474
 4830SOL     OW15930   1.226   7.129   7.095
 4830SOL    HW115931   1.219   7.061   7.162
 4830SOL    HW215932   1.167   7.101   7.025
 4831SOL     OW15933   0.334   6.522   5.831
 4831SOL    HW115934   0.424   6.555   5.821
 4831SOL    HW215935   0.344   6.444   5.885
 4832SOL     OW15936   1.481   6.334   6.308
 4832SOL    HW115937   1.475   6.297   6.396
 4832SOL    HW215938   1.559   6.390   6.311
 4833SOL     OW15939   0.459   6.847   7.307
 4833SOL    HW115940   0.431   6.841   7.216
 4833SOL    HW215941   0.378   6.853   7.357
 4834SOL     OW15942   1.144   7.359   5.823
 4834SOL    HW115943   1.063   7.333   5.867
 4834SOL    HW215944   1.152   7.298   5.750
 4835SOL     OW15945   0.163   5.848   7.059
 4835SOL    HW115946   0.158   5.929   7.110
 4835SOL    HW215947   0.158   5.778   7.125
 4836SOL     OW15948   1.622   6.973   5.670
 4836SOL    HW115949   1.575   7.053   5.647
 4836SOL    HW215950   1.559   6.903   5.654
 4837SOL     OW15951   0.447   7.326   5.909
 4837SOL    HW115952   0.496   7.378   5.972
 4837SOL    HW215953   0.512   7.294   5.847
 4838SOL     OW15954   1.404   5.690   6.039
 4838SOL    HW115955   1.402   5.669   5.945
 4838SOL    HW215956   1.496   5.708   6.057
 4839SOL     OW15957   0.245   7.388   6.815
 4839SOL    HW115958   0.202   7.315   6.860
 4839SOL    HW215959   0.276   7.350   6.733
 4840SOL     OW15960   0.951   7.283   6.479
 4840SOL    HW115961   1.033   7.236   6.491
 4840SOL    HW215962   0.906   7.234   6.410
 4841SOL     OW15963   0.384   6.328   6.050
 4841SOL    HW115964   0.427   6.242   6.048
 4841SOL    HW215965   0.296   6.310   6.084
 4842SOL     OW15966   1.526   5.791   7.306
 4842SOL    HW115967   1.533   5.819   7.397
 4842SOL    HW215968   1.495   5.700   7.311
 4843SOL     OW15969   0.672   5.708   5.659
 4843SOL    HW115970   0.683   5.637   5.722
 4843SOL    HW215971   0.611   5.674   5.594
 4844SOL     OW15972   0.773   5.856   7.380
 4844SOL    HW115973   0.850   5.809   7.350
 4844SOL    HW215974   0.800   5.896   7.463
 4845SOL     OW15975   0.888   7.120   6.780
 4845SOL    HW115976   0.870   7.080   6.696
 4845SOL    HW215977   0.956   7.065   6.820
 4846SOL     OW15978   1.358   6.175   7.000
 4846SOL    HW115979   1.404   6.151   7.081
 4846SOL    HW215980   1.384   6.266   6.985
 4847SOL     OW15981   0.822   6.977   6.535
 4847SOL    HW115982   0.907   6.961   6.495
 4847SOL    HW215983   0.763   6.991   6.461
 4848SOL     OW15984   0.962   6.083   6.482
 4848SOL    HW115985   0.920   6.080   6.396
 4848SOL    HW215986   0.983   5.992   6.502
 4849SOL     OW15987   0.554   5.644   6.085
 4849SOL    HW115988   0.475   5.639   6.139
 4849SOL    HW215989   0.542   5.724   6.032
 4850SOL     OW15990   1.416   6.791   5.632
 4850SOL    HW115991   1.442   6.725   5.697
 4850SOL    HW215992   1.334   6.827   5.666
 4851SOL     OW15993   0.289   5.636   5.758
 4851SOL    HW115994   0.344   5.712   5.779
 4851SOL    HW215995   0.330   5.563   5.806
 4852SOL     OW15996   0.945   5.823   6.041
 4852SOL    HW115997   0.919   5.860   5.957
 4852SOL    HW215998   1.038   5.846   6.049
 4853SOL     OW15999   1.095   6.186   7.117
 4853SOL    HW116000   1.006   6.175   7.086
 4853SOL    HW216001   1.148   6.192   7.038
 4854SOL     OW16002   1.212   7.158   6.390
 4854SOL    HW116003   1.235   7.228   6.330
 4854SOL    HW216004   1.293   7.139   6.438
 4855SOL     OW16005   0.473   6.753   6.314
 4855SOL    HW116006   0.406   6.729   6.378
 4855SOL    HW216007   0.429   6.744   6.229
 4856SOL     OW16008   1.263   7.376   6.204
 4856SOL    HW116009   1.309   7.442   6.152
 4856SOL    HW216010   1.189   7.423   6.243
 4857SOL     OW16011   1.022   6.114   5.618
 4857SOL    HW116012   0.975   6.195   5.601
 4857SOL    HW216013   1.081   6.134   5.691
 4858SOL     OW16014   0.100   6.138   6.991
 4858SOL    HW116015   0.188   6.117   6.958
 4858SOL    HW216016   0.112   6.216   7.044
 4859SOL     OW16017   0.562   5.790   6.755
 4859SOL    HW116018   0.597   5.712   6.797
 4859SOL    HW216019   0.470   5.793   6.784
 4860SOL     OW16020   0.853   6.032   6.230
 4860SOL    HW116021   0.771   6.072   6.199
 4860SOL    HW216022   0.873   5.964   6.166
 4861SOL     OW16023   1.000   5.602   6.340
 4861SOL    HW116024   0.954   5.622   6.259
 4861SOL    HW216025   0.938   5.627   6.409
 4862SOL     OW16026   1.424   6.775   6.431
 4862SOL    HW116027   1.473   6.734   6.502
 4862SOL    HW216028   1.446   6.723   6.354
 4863SOL     OW16029   1.454   6.198   6.551
 4863SOL    HW116030   1.406   6.115   6.549
 4863SOL    HW216031   1.516   6.188   6.624
 4864SOL     OW16032   1.816   6.414   5.935
 4864SOL    HW116033   1.859   6.375   6.011
 4864SOL    HW216034   1.793   6.340   5.880
 4865SOL     OW16035   0.462   6.940   5.679
 4865SOL    HW116036   0.415   6.943   5.762
 4865SOL    HW216037   0.518   7.018   5.681
 4866SOL     OW16038   1.681   6.863   6.194
 4866SOL    HW116039   1.771   6.855   6.225
 4866SOL    HW216040   1.647   6.941   6.240
 4867SOL     OW16041   1.405   6.179   5.670
 4867SOL    HW116042   1.339   6.148   5.732
 4867SOL    HW216043   1.482   6.125   5.688
 4868SOL     OW16044   0.484   5.806   5.857
 4868SOL    HW116045   0.553   5.817   5.792
 4868SOL    HW216046   0.487   5.887   5.908
 4869SOL     OW16047   1.743   6.816   7.183
 4869SOL    HW116048   1.812   6.771   7.231
 4869SOL    HW216049   1.775   6.906   7.173
 4870SOL     OW16050   1.059   6.957   6.927
 4870SOL    HW116051   0.983   6.916   6.968
 4870SOL    HW216052   1.134   6.906   6.959
 4871SOL     OW16053   1.618   7.220   7.251
 4871SOL    HW116054   1.600   7.253   7.163
 4871SOL    HW216055   1.696   7.166   7.242
 4872SOL     OW16056   1.135   6.807   6.692
 4872SOL    HW116057   1.067   6.844   6.748
 4872SOL    HW216058   1.110   6.832   6.603
 4873SOL     OW16059   0.976   5.670   6.975
 4873SOL    HW116060   0.923   5.733   6.926
 4873SOL    HW216061   1.047   5.723   7.013
 4874SOL     OW16062   0.696   6.626   5.957
 4874SOL    HW116063   0.689   6.613   6.052
 4874SOL    HW216064   0.774   6.576   5.932
 4875SOL     OW16065   0.377   6.384   6.889
 4875SOL    HW116066   0.465   6.404   6.921
 4875SOL    HW216067   0.374   6.289   6.885
 4876SOL     OW16068   1.262   5.959   6.864
 4876SOL    HW116069   1.299   6.040   6.899
 4876SOL    HW216070   1.173   5.981   6.838
 4877SOL     OW16071   0.342   6.715   6.076
 4877SOL    HW116072   0.338   6.775   6.001
 4877SOL    HW216073   0.376   6.634   6.039
 4878SOL     OW16074   0.564   6.142   6.472
 4878SOL    HW116075   0.580   6.195   6.394
 4878SOL    HW216076   0.622   6.179   6.539
 4879SOL     OW16077   1.245   6.941   5.975
 4879SOL    HW116078   1.300   7.009   6.014
 4879SOL    HW216079   1.158   6.957   6.012
 4880SOL     OW16080   1.288   7.048   6.728
 4880SOL    HW116081   1.344   7.050   6.806
 4880SOL    HW216082   1.242   6.964   6.735
 4881SOL     OW16083   1.561   6.212   6.068
 4881SOL    HW116084   1.522   6.255   6.144
 4881SOL    HW216085   1.651   6.247   6.065
 4882SOL     OW16086   0.370   7.072   6.911
 4882SOL    HW116087   0.348   7.054   6.819
 4882SOL    HW216088   0.459   7.108   6.907
 4883SOL     OW16089   0.445   6.320   7.202
 4883SOL    HW116090   0.497   6.364   7.135
 4883SOL    HW216091   0.501   6.250   7.234
 4884SOL     OW16092   1.606   6.357   7.259
 4884SOL    HW116093   1.525   6.408   7.263
 4884SOL    HW216094   1.660   6.402   7.195
 4885SOL     OW16095   0.992   5.723   7.307
 4885SOL    HW116096   1.038   5.744   7.225
 4885SOL    HW216097   1.037   5.646   7.340
 4886SOL     OW16098   0.500   5.635   7.312
 4886SOL    HW116099   0.454   5.573   7.256
 4886SOL    HW216100   0.542   5.696   7.252
 4887SOL     OW16101   0.526   6.531   6.642
 4887SOL    HW116102   0.592   6.598   6.624
 4887SOL    HW216103   0.575   6.454   6.669
 4888SOL     OW16104   1.323   6.436   6.602
 4888SOL    HW116105   1.232   6.414   6.580
 4888SOL    HW216106   1.371   6.354   6.589
 4889SOL     OW16107   1.196   6.125   5.848
 4889SOL    HW116108   1.213   6.044   5.895
 4889SOL    HW216109   1.142   6.177   5.907
 4890SOL     OW16110   0.293   5.780   6.829
 4890SOL    HW116111   0.251   5.814   6.908
 4890SOL    HW216112   0.280   5.685   6.834
 4891SOL     OW16113   0.066   6.921   6.865
 4891SOL    HW116114   0.074   6.880   6.951
 4891SOL    HW216115   0.069   7.015   6.883
 4892SOL     OW16116   1.737   6.534   7.438
 4892SOL    HW116117   1.702   6.462   7.386
 4892SOL    HW216118   1.674   6.545   7.510
 4893SOL     OW16119   0.307   5.632   6.208
 4893SOL    HW116120   0.278   5.722   6.221
 4893SOL    HW216121   0.309   5.594   6.296
 4894SOL     OW16122   1.602   5.969   5.945
 4894SOL    HW116123   1.631   5.905   6.009
 4894SOL    HW216124   1.581   6.047   5.996
 4895SOL     OW16125   1.033   6.341   6.549
 4895SOL    HW116126   1.022   6.356   6.643
 4895SOL    HW216127   0.999   6.252   6.535
 4896SOL     OW16128   1.002   7.171   7.300
 4896SOL    HW116129   0.965   7.200   7.217
 4896SOL    HW216130   1.039   7.085   7.282
 4897SOL     OW16131   1.847   7.080   7.199
 4897SOL    HW116132   1.858   7.111   7.109
 4897SOL    HW216133   1.934   7.087   7.238
 4898SOL     OW16134   0.353   6.498   7.392
 4898SOL    HW116135   0.429   6.540   7.431
 4898SOL    HW216136   0.389   6.437   7.328
 4899SOL     OW16137   1.495   5.879   5.714
 4899SOL    HW116138   1.446   5.802   5.742
 4899SOL    HW216139   1.540   5.909   5.793
 4900SOL     OW16140   1.066   6.918   6.440
 4900SOL    HW116141   1.078   6.845   6.379
 4900SOL    HW216142   1.126   6.986   6.409
 4901SOL     OW16143   0.301   6.418   6.550
 4901SOL    HW116144   0.392   6.446   6.559
 4901SOL    HW216145   0.305   6.322   6.559
 4902SOL     OW16146   0.327   6.127   6.598
 4902SOL    HW116147   0.298   6.039   6.576
 4902SOL    HW216148   0.412   6.136   6.555
 4903SOL     OW16149   1.182   5.813   7.083
 4903SOL    HW116150   1.241   5.849   7.150
 4903SOL    HW216151   1.206   5.859   7.003
 4904SOL     OW16152   7.977   6.880   5.779
 4904SOL    HW116153   7.900   6.932   5.752
 4904SOL    HW216154   8.024   6.865   5.697
 4905SOL     OW16155   0.062   7.311   6.486
 4905SOL    HW116156   0.085   7.300   6.394
 4905SOL    HW216157   0.138   7.353   6.525
 4906SOL     OW16158   0.501   7.161   6.496
 4906SOL    HW116159   0.565   7.230   6.514
 4906SOL    HW216160   0.545   7.105   6.431
 4907SOL     OW16161   0.965   6.361   6.821
 4907SOL    HW116162   0.947   6.401   6.906
 4907SOL    HW216163   0.880   6.333   6.790
 4908SOL     OW16164   0.079   6.176   6.717
 4908SOL    HW116165   0.167   6.154   6.686
 4908SOL    HW216166   0.078   6.148   6.808
 4909SOL     OW16167   0.211   6.096   7.284
 4909SOL    HW116168   0.290   6.062   7.244
 4909SOL    HW216169   0.192   6.177   7.237
 4910SOL     OW16170   1.384   6.520   7.224
 4910SOL    HW116171   1.404   6.613   7.227
 4910SOL    HW216172   1.388   6.497   7.131
 4911SOL     OW16173   0.814   6.155   5.923
 4911SOL    HW116174   0.834   6.071   5.880
 4911SOL    HW216175   0.723   6.146   5.952
 4912SOL     OW16176   1.636   6.175   6.757
 4912SOL    HW116177   1.626   6.121   6.836
 4912SOL    HW216178   1.725   6.158   6.728
 4913SOL     OW16179   0.313   7.130   7.309
 4913SOL    HW116180   0.259   7.196   7.351
 4913SOL    HW216181   0.284   7.047   7.346
 4914SOL     OW16182   0.611   6.032   6.883
 4914SOL    HW116183   0.614   5.954   6.829
 4914SOL    HW216184   0.637   6.103   6.824
 4915SOL     OW16185   0.920   7.270   7.059
 4915SOL    HW116186   0.904   7.218   6.981
 4915SOL    HW216187   0.894   7.359   7.035
 4916SOL     OW16188   0.452   6.072   5.681
 4916SOL    HW116189   0.515   6.133   5.720
 4916SOL    HW216190   0.378   6.072   5.741
 4917SOL     OW16191   0.199   6.637   6.980
 4917SOL    HW116192   0.145   6.616   7.056
 4917SOL    HW216193   0.253   6.711   7.009
 4918SOL     OW16194   1.323   6.641   6.809
 4918SOL    HW116195   1.374   6.604   6.738
 4918SOL    HW216196   1.252   6.689   6.765
 4919SOL     OW16197   1.296   6.423   5.849
 4919SOL    HW116198   1.270   6.468   5.929
 4919SOL    HW216199   1.262   6.334   5.859
 4920SOL     OW16200   1.744   7.313   6.735
 4920SOL    HW116201   1.811   7.351   6.677
 4920SOL    HW216202   1.739   7.221   6.708
 4921SOL     OW16203   1.247   7.321   6.701
 4921SOL    HW116204   1.331   7.347   6.663
 4921SOL    HW216205   1.254   7.226   6.712
 4922SOL     OW16206   0.056   6.799   6.625
 4922SOL    HW116207   0.070   6.841   6.710
 4922SOL    HW216208  -0.022   6.840   6.590
 4923SOL     OW16209   0.683   7.265   7.326
 4923SOL    HW116210   0.615   7.332   7.321
 4923SOL    HW216211   0.737   7.279   7.248
 4924SOL     OW16212   1.691   5.732   6.075
 4924SOL    HW116213   1.770   5.734   6.022
 4924SOL    HW216214   1.699   5.653   6.128
 4925SOL     OW16215   1.395   7.163   6.078
 4925SOL    HW116216   1.427   7.203   5.997
 4925SOL    HW216217   1.339   7.230   6.117
 4926SOL     OW16218   0.163   7.321   7.427
 4926SOL    HW116219   0.096   7.285   7.484
 4926SOL    HW216220   0.221   7.370   7.485
 4927SOL     OW16221   1.274   6.505   6.232
 4927SOL    HW116222   1.349   6.454   6.263
 4927SOL    HW216223   1.312   6.573   6.177
 4928SOL     OW16224   0.821   6.865   7.019
 4928SOL    HW116225   0.835   6.845   7.112
 4928SOL    HW216226   0.743   6.921   7.019
 4929SOL     OW16227   1.605   7.316   6.984
 4929SOL    HW116228   1.660   7.312   6.905
 4929SOL    HW216229   1.588   7.409   6.996
 4930SOL     OW16230   1.851   5.752   6.544
 4930SOL    HW116231   1.876   5.667   6.507
 4930SOL    HW216232   1.764   5.769   6.506
 4931SOL     OW16233   0.239   5.878   6.291
 4931SOL    HW116234   0.177   5.947   6.265
 4931SOL    HW216235   0.247   5.888   6.386
 4932SOL     OW16236   1.214   7.183   5.620
 4932SOL    HW116237   1.197   7.094   5.652
 4932SOL    HW216238   1.146   7.198   5.554
 4933SOL     OW16239   0.798   6.605   6.933
 4933SOL    HW116240   0.840   6.608   6.847
 4933SOL    HW216241   0.810   6.693   6.969
 4934SOL     OW16242   0.905   6.483   5.866
 4934SOL    HW116243   0.967   6.514   5.800
 4934SOL    HW216244   0.955   6.420   5.918
 4935SOL     OW16245   1.485   7.206   5.618
 4935SOL    HW116246   1.390   7.200   5.607
 4935SOL    HW216247   1.519   7.217   5.529
 4936SOL     OW16248   0.324   6.859   7.070
 4936SOL    HW116249   0.357   6.925   7.011
 4936SOL    HW216250   0.250   6.900   7.114
 4937SOL     OW16251   1.683   6.950   6.916
 4937SOL    HW116252   1.674   6.861   6.951
 4937SOL    HW216253   1.596   6.988   6.925
 4938SOL     OW16254   1.064   6.689   6.289
 4938SOL    HW116255   0.995   6.640   6.334
 4938SOL    HW216256   1.134   6.625   6.276
 4939SOL     OW16257   1.042   5.823   6.535
 4939SOL    HW116258   1.066   5.768   6.461
 4939SOL    HW216259   1.022   5.761   6.605
 4940SOL     OW16260   0.603   7.067   6.053
 4940SOL    HW116261   0.657   7.025   5.986
 4940SOL    HW216262   0.556   7.136   6.006
 4941SOL     OW16263   1.734   5.969   6.975
 4941SOL    HW116264   1.800   6.038   6.977
 4941SOL    HW216265   1.767   5.906   6.911
 4942SOL     OW16266   0.259   6.903   5.878
 4942SOL    HW116267   0.169   6.907   5.846
 4942SOL    HW216268   0.258   6.954   5.959
 4943SOL     OW16269   0.092   6.562   7.322
 4943SOL    HW116270   0.066   6.653   7.330
 4943SOL    HW216271   0.183   6.560   7.354
 4944SOL     OW16272   0.629   5.792   7.132
 4944SOL    HW116273   0.659   5.734   7.062
 4944SOL    HW216274   0.709   5.816   7.179
 4945SOL     OW16275   0.095   5.926   5.582
 4945SOL    HW116276   0.036   5.963   5.648
 4945SOL    HW216277   0.124   6.001   5.531
 4946SOL     OW16278   1.422   6.442   6.968
 4946SOL    HW116279   1.371   6.503   6.915
 4946SOL    HW216280   1.511   6.446   6.931
 4947SOL     OW16281   0.073   5.812   5.979
 4947SOL    HW116282   0.040   5.816   5.889
 4947SOL    HW216283   0.168   5.804   5.969
 4948SOL     OW16284   1.166   6.918   5.704
 4948SOL    HW116285   1.071   6.920   5.698
 4948SOL    HW216286   1.185   6.923   5.798
 4949SOL     OW16287   0.620   6.411   7.011
 4949SOL    HW116288   0.677   6.488   7.010
 4949SOL    HW216289   0.657   6.353   6.944
 4950SOL     OW16290   1.496   7.387   6.595
 4950SOL    HW116291   1.523   7.434   6.516
 4950SOL    HW216292   1.577   7.356   6.633
 4951SOL     OW16293   0.684   6.167   7.294
 4951SOL    HW116294   0.737   6.233   7.339
 4951SOL    HW216295   0.723   6.083   7.319
 4952SOL     OW16296   1.472   6.781   7.217
 4952SOL    HW116297   1.458   6.796   7.310
 4952SOL    HW216298   1.566   6.793   7.204
 4953SOL     OW16299   0.393   7.327   7.140
 4953SOL    HW116300   0.308   7.365   7.119
 4953SOL    HW216301   0.373   7.244   7.183
 4954SOL     OW16302   1.667   6.458   6.843
 4954SOL    HW116303   1.660   6.378   6.791
 4954SOL    HW216304   1.660   6.529   6.779
 4955SOL     OW16305   1.216   5.905   6.036
 4955SOL    HW116306   1.281   5.834   6.036
 4955SOL    HW216307   1.239   5.957   6.113
 4956SOL     OW16308   0.587   6.327   6.268
 4956SOL    HW116309   0.630   6.412   6.254
 4956SOL    HW216310   0.526   6.319   6.195
 4957SOL     OW16311   1.752   5.944   7.252
 4957SOL    HW116312   1.747   5.960   7.158
 4957SOL    HW216313   1.678   5.885   7.271
 4958SOL     OW16314   1.759   6.516   7.094
 4958SOL    HW116315   1.748   6.610   7.106
 4958SOL    HW216316   1.732   6.500   7.004
 4959SOL     OW16317   0.879   6.966   5.654
 4959SOL    HW116318   0.835   6.954   5.739
 4959SOL    HW216319   0.850   7.051   5.623
 4960SOL     OW16320   0.666   7.373   6.521
 4960SOL    HW116321   0.645   7.465   6.501
 4960SOL    HW216322   0.761   7.368   6.512
 4961SOL     OW16323   0.869   6.555   6.438
 4961SOL    HW116324   0.913   6.479   6.476
 4961SOL    HW216325   0.828   6.599   6.513
 4962SOL     OW16326   1.069   6.559   5.664
 4962SOL    HW116327   1.043   6.616   5.591
 4962SOL    HW216328   1.158   6.587   5.684
 4963SOL     OW16329   1.845   7.121   6.414
 4963SOL    HW116330   1.756   7.116   6.380
 4963SOL    HW216331   1.843   7.069   6.494
 4964SOL     OW16332   0.228   6.882   7.444
 4964SOL    HW116333   0.134   6.887   7.425
 4964SOL    HW216334   0.233   6.890   7.539
 4965SOL     OW16335   0.105   6.769   6.230
 4965SOL    HW116336   0.158   6.742   6.305
 4965SOL    HW216337   0.167   6.772   6.157
 4966SOL     OW16338   0.672   7.003   7.224
 4966SOL    HW116339   0.593   6.959   7.255
 4966SOL    HW216340   0.668   7.090   7.266
 4967SOL     OW16341   1.817   5.768   6.815
 4967SOL    HW116342   1.811   5.673   6.823
 4967SOL    HW216343   1.829   5.784   6.721
 4968SOL     OW16344   1.702   7.055   6.660
 4968SOL    HW116345   1.623   7.023   6.617
 4968SOL    HW216346   1.707   7.005   6.742
 4969SOL     OW16347   0.349   6.111   6.874
 4969SOL    HW116348   0.437   6.083   6.899
 4969SOL    HW216349   0.351   6.112   6.778
 4970SOL     OW16350   0.837   7.172   6.258
 4970SOL    HW116351   0.818   7.249   6.204
 4970SOL    HW216352   0.757   7.120   6.255
 4971SOL     OW16353   1.431   5.810   6.709
 4971SOL    HW116354   1.472   5.743   6.764
 4971SOL    HW216355   1.377   5.860   6.769
 4972SOL     OW16356   1.001   5.597   6.691
 4972SOL    HW116357   0.969   5.584   6.780
 4972SOL    HW216358   1.084   5.548   6.688
 4973SOL     OW16359   0.784   6.897   5.907
 4973SOL    HW116360   0.756   6.809   5.930
 4973SOL    HW216361   0.857   6.915   5.966
 4974SOL     OW16362   0.633   7.141   6.873
 4974SOL    HW116363   0.631   7.226   6.918
 4974SOL    HW216364   0.721   7.137   6.834
 4975SOL     OW16365   1.364   5.636   5.767
 4975SOL    HW116366   1.407   5.560   5.728
 4975SOL    HW216367   1.274   5.607   5.783
 4976SOL     OW16368   1.280   6.047   6.260
 4976SOL    HW116369   1.229   6.128   6.266
 4976SOL    HW216370   1.287   6.016   6.351
 4977SOL     OW16371   1.583   5.776   6.471
 4977SOL    HW116372   1.531   5.804   6.547
 4977SOL    HW216373   1.580   5.850   6.411
 4978SOL     OW16374   0.070   6.614   5.918
 4978SOL    HW116375   0.145   6.645   5.869
 4978SOL    HW216376   0.101   6.534   5.961
 4979SOL     OW16377   0.909   7.252   5.930
 4979SOL    HW116378   0.839   7.240   5.866
 4979SOL    HW216379   0.876   7.317   5.991
 4980SOL     OW16380   0.237   6.216   7.536
 4980SOL    HW116381   0.154   6.261   7.548
 4980SOL    HW216382   0.237   6.188   7.445
 4981SOL     OW16383   0.230   5.853   8.443
 4981SOL    HW116384   0.286   5.827   8.516
 4981SOL    HW216385   0.141   5.830   8.471
 4982SOL     OW16386   8.009   5.912   8.094
 4982SOL    HW116387   7.919   5.945   8.093
 4982SOL    HW216388   8.026   5.887   8.003
 4983SOL     OW16389   0.574   6.878   8.631
 4983SOL    HW116390   0.491   6.897   8.588
 4983SOL    HW216391   0.596   6.959   8.678
 4984SOL     OW16392   1.563   7.125   8.175
 4984SOL    HW116393   1.517   7.088   8.250
 4984SOL    HW216394   1.502   7.117   8.102
 4985SOL     OW16395   1.127   6.281   8.151
 4985SOL    HW116396   1.177   6.358   8.126
 4985SOL    HW216397   1.083   6.306   8.233
 4986SOL     OW16398   1.762   6.184   7.682
 4986SOL    HW116399   1.739   6.186   7.589
 4986SOL    HW216400   1.738   6.096   7.711
 4987SOL     OW16401   0.776   6.737   8.512
 4987SOL    HW116402   0.703   6.767   8.565
 4987SOL    HW216403   0.796   6.811   8.454
 4988SOL     OW16404   0.677   6.577   8.104
 4988SOL    HW116405   0.748   6.573   8.168
 4988SOL    HW216406   0.614   6.639   8.141
 4989SOL     OW16407   0.713   6.749   9.265
 4989SOL    HW116408   0.760   6.828   9.293
 4989SOL    HW216409   0.632   6.782   9.225
 4990SOL     OW16410   0.346   6.998   8.519
 4990SOL    HW116411   0.257   7.000   8.483
 4990SOL    HW216412   0.396   7.058   8.463
 4991SOL     OW16413   1.463   7.082   8.817
 4991SOL    HW116414   1.518   7.160   8.816
 4991SOL    HW216415   1.405   7.095   8.892
 4992SOL     OW16416   0.450   5.971   8.925
 4992SOL    HW116417   0.540   5.939   8.931
 4992SOL    HW216418   0.396   5.895   8.946
 4993SOL     OW16419   1.610   6.038   8.187
 4993SOL    HW116420   1.567   6.077   8.111
 4993SOL    HW216421   1.614   6.110   8.251
 4994SOL     OW16422   1.122   6.916   9.132
 4994SOL    HW116423   1.193   6.923   9.195
 4994SOL    HW216424   1.059   6.856   9.173
 4995SOL     OW16425   0.235   7.037   7.971
 4995SOL    HW116426   0.205   7.126   7.952
 4995SOL    HW216427   0.234   7.031   8.066
 4996SOL     OW16428   0.230   6.671   8.317
 4996SOL    HW116429   0.263   6.599   8.371
 4996SOL    HW216430   0.178   6.724   8.377
 4997SOL     OW16431   0.619   7.373   8.875
 4997SOL    HW116432   0.535   7.356   8.918
 4997SOL    HW216433   0.638   7.464   8.895
 4998SOL     OW16434   0.555   6.579   7.610
 4998SOL    HW116435   0.601   6.628   7.542
 4998SOL    HW216436   0.603   6.600   7.690
 4999SOL     OW16437   1.581   5.697   8.900
 4999SOL    HW116438   1.536   5.751   8.835
 4999SOL    HW216439   1.565   5.742   8.983
 5000SOL     OW16440   0.053   6.214   8.030
 5000SOL    HW116441   0.114   6.168   7.972
 5000SOL    HW216442   0.105   6.282   8.072
 5001SOL     OW16443   1.797   7.345   7.773
 5001SOL    HW116444   1.863   7.319   7.837
 5001SOL    HW216445   1.824   7.433   7.745
 5002SOL     OW16446   0.000   7.204   7.614
 5002SOL    HW116447   0.011   7.109   7.621
 5002SOL    HW216448   0.018   7.237   7.702
 5003SOL     OW16449   1.660   6.445   8.074
 5003SOL    HW116450   1.752   6.447   8.100
 5003SOL    HW216451   1.650   6.521   8.018
 5004SOL     OW16452   1.634   6.673   7.922
 5004SOL    HW116453   1.657   6.659   7.830
 5004SOL    HW216454   1.684   6.751   7.947
 5005SOL     OW16455   0.132   6.366   9.024
 5005SOL    HW116456   0.224   6.342   9.033
 5005SOL    HW216457   0.120   6.440   9.082
 5006SOL     OW16458   0.602   6.974   8.193
 5006SOL    HW116459   0.559   6.889   8.190
 5006SOL    HW216460   0.598   7.006   8.102
 5007SOL     OW16461   1.279   6.820   8.878
 5007SOL    HW116462   1.311   6.769   8.804
 5007SOL    HW216463   1.352   6.822   8.940
 5008SOL     OW16464   0.791   5.617   8.031
 5008SOL    HW116465   0.851   5.644   7.962
 5008SOL    HW216466   0.705   5.620   7.991
 5009SOL     OW16467   0.169   6.512   8.713
 5009SOL    HW116468   0.264   6.524   8.714
 5009SOL    HW216469   0.157   6.424   8.677
 5010SOL     OW16470   1.183   7.401   9.088
 5010SOL    HW116471   1.187   7.463   9.015
 5010SOL    HW216472   1.208   7.317   9.050
 5011SOL     OW16473   0.325   5.841   9.274
 5011SOL    HW116474   0.377   5.921   9.275
 5011SOL    HW216475   0.234   5.871   9.281
 5012SOL     OW16476   1.443   7.019   8.397
 5012SOL    HW116477   1.380   7.020   8.469
 5012SOL    HW216478   1.436   6.932   8.360
 5013SOL     OW16479   1.697   7.338   8.054
 5013SOL    HW116480   1.647   7.336   7.972
 5013SOL    HW216481   1.657   7.269   8.108
 5014SOL     OW16482   0.604   6.298   7.713
 5014SOL    HW116483   0.626   6.374   7.659
 5014SOL    HW216484   0.561   6.334   7.790
 5015SOL     OW16485   1.305   5.959   8.418
 5015SOL    HW116486   1.211   5.942   8.417
 5015SOL    HW216487   1.343   5.886   8.467
 5016SOL     OW16488   0.774   6.213   8.886
 5016SOL    HW116489   0.756   6.181   8.975
 5016SOL    HW216490   0.747   6.141   8.829
 5017SOL     OW16491   1.399   6.039   9.137
 5017SOL    HW116492   1.381   6.091   9.216
 5017SOL    HW216493   1.481   6.076   9.103
 5018SOL     OW16494   0.999   6.519   8.973
 5018SOL    HW116495   1.045   6.435   8.966
 5018SOL    HW216496   0.916   6.504   8.926
 5019SOL     OW16497   0.977   6.018   8.667
 5019SOL    HW116498   0.885   6.020   8.691
 5019SOL    HW216499   0.980   5.967   8.585
 5020SOL     OW16500   1.008   6.306   7.897
 5020SOL    HW116501   1.049   6.283   7.981
 5020SOL    HW216502   0.949   6.233   7.879
 5021SOL     OW16503   0.117   6.410   8.223
 5021SOL    HW116504   0.198   6.408   8.273
 5021SOL    HW216505   0.103   6.503   8.203
 5022SOL     OW16506   0.137   7.427   9.018
 5022SOL    HW116507   0.134   7.407   9.112
 5022SOL    HW216508   0.054   7.394   8.984
 5023SOL     OW16509   0.892   5.931   7.617
 5023SOL    HW116510   0.967   5.977   7.580
 5023SOL    HW216511   0.925   5.843   7.637
 5024SOL     OW16512   1.754   6.155   9.291
 5024SOL    HW116513   1.699   6.220   9.247
 5024SOL    HW216514   1.761   6.083   9.228
 5025SOL     OW16515   1.380   6.728   7.996
 5025SOL    HW116516   1.466   6.704   7.963
 5025SOL    HW216517   1.334   6.764   7.920
 5026SOL     OW16518   0.610   5.741   8.346
 5026SOL    HW116519   0.598   5.762   8.438
 5026SOL    HW216520   0.587   5.821   8.299
 5027SOL     OW16521   1.014   7.050   7.927
 5027SOL    HW116522   0.981   7.113   7.863
 5027SOL    HW216523   0.966   7.070   8.007
 5028SOL     OW16524   0.340   7.400   8.348
 5028SOL    HW116525   0.396   7.323   8.353
 5028SOL    HW216526   0.395   7.468   8.311
 5029SOL     OW16527   1.238   7.140   8.975
 5029SOL    HW116528   1.213   7.058   9.017
 5029SOL    HW216529   1.188   7.140   8.893
 5030SOL     OW16530   0.296   6.522   7.676
 5030SOL    HW116531   0.383   6.559   7.666
 5030SOL    HW216532   0.287   6.459   7.605
 5031SOL     OW16533   1.447   6.345   8.203
 5031SOL    HW116534   1.469   6.293   8.280
 5031SOL    HW216535   1.532   6.377   8.171
 5032SOL     OW16536   0.466   6.856   9.191
 5032SOL    HW116537   0.440   6.864   9.099
 5032SOL    HW216538   0.384   6.842   9.238
 5033SOL     OW16539   1.152   7.337   7.690
 5033SOL    HW116540   1.065   7.320   7.727
 5033SOL    HW216541   1.158   7.277   7.615
 5034SOL     OW16542   0.162   5.853   8.926
 5034SOL    HW116543   0.174   5.922   8.991
 5034SOL    HW216544   0.157   5.772   8.977
 5035SOL     OW16545   1.615   6.997   7.533
 5035SOL    HW116546   1.629   7.002   7.438
 5035SOL    HW216547   1.550   6.928   7.544
 5036SOL     OW16548   0.474   7.324   7.752
 5036SOL    HW116549   0.514   7.377   7.821
 5036SOL    HW216550   0.548   7.294   7.699
 5037SOL     OW16551   1.397   5.688   7.888
 5037SOL    HW116552   1.385   5.664   7.796
 5037SOL    HW216553   1.491   5.701   7.897
 5038SOL     OW16554   0.267   7.378   8.680
 5038SOL    HW116555   0.302   7.301   8.723
 5038SOL    HW216556   0.215   7.343   8.607
 5039SOL     OW16557   0.942   7.282   8.338
 5039SOL    HW116558   1.032   7.251   8.332
 5039SOL    HW216559   0.895   7.234   8.269
 5040SOL     OW16560   0.398   6.290   7.930
 5040SOL    HW116561   0.415   6.197   7.945
 5040SOL    HW216562   0.325   6.291   7.869
 5041SOL     OW16563   1.532   5.795   9.174
 5041SOL    HW116564   1.544   5.808   9.268
 5041SOL    HW216565   1.459   5.852   9.151
 5042SOL     OW16566   0.664   5.681   7.573
 5042SOL    HW116567   0.745   5.654   7.617
 5042SOL    HW216568   0.694   5.721   7.491
 5043SOL     OW16569   0.761   5.856   9.194
 5043SOL    HW116570   0.845   5.809   9.198
 5043SOL    HW216571   0.729   5.853   9.285
 5044SOL     OW16572   0.879   7.081   8.630
 5044SOL    HW116573   0.844   7.061   8.543
 5044SOL    HW216574   0.973   7.067   8.621
 5045SOL     OW16575   1.346   6.203   8.891
 5045SOL    HW116576   1.388   6.186   8.975
 5045SOL    HW216577   1.376   6.291   8.867
 5046SOL     OW16578   0.814   6.974   8.379
 5046SOL    HW116579   0.900   6.968   8.337
 5046SOL    HW216580   0.753   6.985   8.307
 5047SOL     OW16581   0.917   6.093   8.351
 5047SOL    HW116582   0.895   6.087   8.258
 5047SOL    HW216583   0.952   6.006   8.372
 5048SOL     OW16584   0.540   5.642   7.937
 5048SOL    HW116585   0.457   5.644   7.985
 5048SOL    HW216586   0.537   5.720   7.882
 5049SOL     OW16587   1.426   6.807   7.490
 5049SOL    HW116588   1.446   6.721   7.528
 5049SOL    HW216589   1.337   6.826   7.517
 5050SOL     OW16590   0.959   5.850   7.937
 5050SOL    HW116591   0.933   5.809   7.855
 5050SOL    HW216592   1.051   5.876   7.924
 5051SOL     OW16593   1.086   6.270   8.902
 5051SOL    HW116594   1.037   6.188   8.905
 5051SOL    HW216595   1.178   6.244   8.901
 5052SOL     OW16596   1.203   7.178   8.255
 5052SOL    HW116597   1.223   7.241   8.186
 5052SOL    HW216598   1.284   7.172   8.306
 5053SOL     OW16599   0.459   6.739   8.173
 5053SOL    HW116600   0.389   6.717   8.234
 5053SOL    HW216601   0.420   6.727   8.086
 5054SOL     OW16602   1.273   7.380   8.072
 5054SOL    HW116603   1.325   7.433   8.011
 5054SOL    HW216604   1.200   7.437   8.096
 5055SOL     OW16605   1.036   6.145   7.481
 5055SOL    HW116606   0.973   6.218   7.481
 5055SOL    HW216607   1.077   6.149   7.567
 5056SOL     OW16608   0.079   6.188   8.825
 5056SOL    HW116609   0.167   6.154   8.808
 5056SOL    HW216610   0.089   6.243   8.902
 5057SOL     OW16611   0.567   5.796   8.617
 5057SOL    HW116612   0.616   5.747   8.682
 5057SOL    HW216613   0.477   5.796   8.648
 5058SOL     OW16614   0.843   6.039   8.093
 5058SOL    HW116615   0.808   6.097   8.026
 5058SOL    HW216616   0.887   5.969   8.045
 5059SOL     OW16617   1.029   5.662   8.198
 5059SOL    HW116618   1.024   5.702   8.111
 5059SOL    HW216619   1.093   5.591   8.188
 5060SOL     OW16620   1.416   6.781   8.275
 5060SOL    HW116621   1.443   6.697   8.313
 5060SOL    HW216622   1.404   6.763   8.182
 5061SOL     OW16623   1.465   6.192   8.429
 5061SOL    HW116624   1.413   6.111   8.433
 5061SOL    HW216625   1.525   6.186   8.504
 5062SOL     OW16626   1.865   6.404   7.818
 5062SOL    HW116627   1.908   6.349   7.884
 5062SOL    HW216628   1.822   6.341   7.760
 5063SOL     OW16629   0.498   7.004   7.592
 5063SOL    HW116630   0.420   6.976   7.638
 5063SOL    HW216631   0.506   6.944   7.518
 5064SOL     OW16632   1.707   6.890   8.086
 5064SOL    HW116633   1.732   6.828   8.155
 5064SOL    HW216634   1.653   6.955   8.131
 5065SOL     OW16635   1.386   6.134   7.511
 5065SOL    HW116636   1.332   6.124   7.589
 5065SOL    HW216637   1.472   6.160   7.544
 5066SOL     OW16638   0.519   5.842   7.757
 5066SOL    HW116639   0.592   5.812   7.701
 5066SOL    HW216640   0.491   5.924   7.717
 5067SOL     OW16641   1.734   6.845   9.001
 5067SOL    HW116642   1.800   6.776   9.000
 5067SOL    HW216643   1.781   6.922   9.035
 5068SOL     OW16644   1.620   7.225   9.114
 5068SOL    HW116645   1.603   7.255   9.025
 5068SOL    HW216646   1.696   7.167   9.106
 5069SOL     OW16647   1.080   6.818   8.564
 5069SOL    HW116648   0.997   6.771   8.560
 5069SOL    HW216649   1.091   6.855   8.476
 5070SOL     OW16650   1.600   6.656   8.542
 5070SOL    HW116651   1.610   6.735   8.595
 5070SOL    HW216652   1.664   6.666   8.471
 5071SOL     OW16653   0.916   5.679   8.841
 5071SOL    HW116654   0.938   5.664   8.749
 5071SOL    HW216655   0.996   5.716   8.879
 5072SOL     OW16656   0.965   6.694   9.174
 5072SOL    HW116657   0.875   6.704   9.204
 5072SOL    HW216658   0.966   6.610   9.128
 5073SOL     OW16659   0.692   6.636   7.835
 5073SOL    HW116660   0.691   6.617   7.929
 5073SOL    HW216661   0.770   6.591   7.802
 5074SOL     OW16662   0.426   6.401   8.702
 5074SOL    HW116663   0.489   6.416   8.773
 5074SOL    HW216664   0.394   6.311   8.717
 5075SOL     OW16665   1.233   5.976   8.779
 5075SOL    HW116666   1.283   6.055   8.800
 5075SOL    HW216667   1.158   6.008   8.727
 5076SOL     OW16668   0.071   7.146   8.724
 5076SOL    HW116669  -0.019   7.151   8.756
 5076SOL    HW216670   0.124   7.144   8.804
 5077SOL     OW16671   0.323   6.707   7.929
 5077SOL    HW116672   0.345   6.778   7.869
 5077SOL    HW216673   0.352   6.627   7.884
 5078SOL     OW16674   0.544   6.112   8.310
 5078SOL    HW116675   0.556   6.171   8.236
 5078SOL    HW216676   0.612   6.136   8.372
 5079SOL     OW16677   1.244   6.937   7.838
 5079SOL    HW116678   1.307   6.978   7.898
 5079SOL    HW216679   1.158   6.964   7.872
 5080SOL     OW16680   1.271   7.035   8.617
 5080SOL    HW116681   1.336   7.032   8.687
 5080SOL    HW216682   1.225   6.952   8.623
 5081SOL     OW16683   1.586   6.201   7.929
 5081SOL    HW116684   1.567   6.280   7.980
 5081SOL    HW216685   1.631   6.233   7.851
 5082SOL     OW16686   0.362   7.113   8.769
 5082SOL    HW116687   0.341   7.072   8.686
 5082SOL    HW216688   0.457   7.124   8.767
 5083SOL     OW16689   0.415   6.310   9.059
 5083SOL    HW116690   0.470   6.362   9.001
 5083SOL    HW216691   0.476   6.248   9.100
 5084SOL     OW16692   1.001   5.723   9.227
 5084SOL    HW116693   1.055   5.798   9.200
 5084SOL    HW216694   1.048   5.647   9.192
 5085SOL     OW16695   0.483   5.629   9.207
 5085SOL    HW116696   0.449   5.575   9.136
 5085SOL    HW216697   0.422   5.702   9.214
 5086SOL     OW16698   0.580   6.467   8.480
 5086SOL    HW116699   0.626   6.550   8.487
 5086SOL    HW216700   0.533   6.457   8.563
 5087SOL     OW16701   1.329   6.442   8.469
 5087SOL    HW116702   1.300   6.444   8.378
 5087SOL    HW216703   1.381   6.362   8.475
 5088SOL     OW16704   1.183   6.109   7.707
 5088SOL    HW116705   1.196   6.046   7.779
 5088SOL    HW216706   1.212   6.192   7.742
 5089SOL     OW16707   0.307   5.779   8.698
 5089SOL    HW116708   0.257   5.813   8.772
 5089SOL    HW216709   0.292   5.685   8.700
 5090SOL     OW16710   0.056   6.871   8.715
 5090SOL    HW116711   0.074   6.839   8.803
 5090SOL    HW216712   0.056   6.967   8.724
 5091SOL     OW16713   0.715   6.213   8.497
 5091SOL    HW116714   0.794   6.194   8.446
 5091SOL    HW216715   0.696   6.305   8.476
 5092SOL     OW16716   1.734   6.543   9.298
 5092SOL    HW116717   1.690   6.478   9.244
 5092SOL    HW216718   1.672   6.562   9.368
 5093SOL     OW16719   0.301   5.642   8.067
 5093SOL    HW116720   0.285   5.733   8.089
 5093SOL    HW216721   0.316   5.599   8.151
 5094SOL     OW16722   1.613   5.957   7.804
 5094SOL    HW116723   1.652   5.895   7.865
 5094SOL    HW216724   1.591   6.033   7.857
 5095SOL     OW16725   1.007   6.348   8.402
 5095SOL    HW116726   1.023   6.365   8.495
 5095SOL    HW216727   0.992   6.254   8.397
 5096SOL     OW16728   0.979   7.151   9.170
 5096SOL    HW116729   0.965   7.198   9.088
 5096SOL    HW216730   1.024   7.070   9.144
 5097SOL     OW16731   1.857   7.093   9.063
 5097SOL    HW116732   1.878   7.123   8.975
 5097SOL    HW216733   1.938   7.106   9.112
 5098SOL     OW16734   0.358   6.534   9.241
 5098SOL    HW116735   0.437   6.557   9.289
 5098SOL    HW216736   0.379   6.450   9.198
 5099SOL     OW16737   1.524   5.838   7.570
 5099SOL    HW116738   1.459   5.776   7.603
 5099SOL    HW216739   1.556   5.884   7.647
 5100SOL     OW16740   1.263   6.388   7.421
 5100SOL    HW116741   1.320   6.396   7.497
 5100SOL    HW216742   1.302   6.445   7.355
 5101SOL     OW16743   1.075   6.928   8.311
 5101SOL    HW116744   1.081   6.854   8.251
 5101SOL    HW216745   1.127   6.997   8.270
 5102SOL     OW16746   0.323   6.397   8.394
 5102SOL    HW116747   0.415   6.423   8.399
 5102SOL    HW216748   0.322   6.306   8.423
 5103SOL     OW16749   0.322   6.109   8.454
 5103SOL    HW116750   0.291   6.020   8.442
 5103SOL    HW216751   0.400   6.116   8.401
 5104SOL     OW16752   1.138   5.946   9.147
 5104SOL    HW116753   1.096   6.008   9.206
 5104SOL    HW216754   1.226   5.981   9.133
 5105SOL     OW16755   1.155   5.770   8.935
 5105SOL    HW116756   1.146   5.835   9.006
 5105SOL    HW216757   1.196   5.818   8.864
 5106SOL     OW16758   7.997   6.899   7.637
 5106SOL    HW116759   7.903   6.916   7.651
 5106SOL    HW216760   8.006   6.805   7.652
 5107SOL     OW16761   0.078   7.332   8.373
 5107SOL    HW116762   0.082   7.272   8.298
 5107SOL    HW216763   0.164   7.374   8.375
 5108SOL     OW16764   0.495   7.162   8.362
 5108SOL    HW116765   0.563   7.227   8.382
 5108SOL    HW216766   0.537   7.101   8.302
 5109SOL     OW16767   0.962   6.389   8.681
 5109SOL    HW116768   1.034   6.367   8.741
 5109SOL    HW216769   0.892   6.327   8.705
 5110SOL     OW16770   0.069   6.153   8.556
 5110SOL    HW116771   0.163   6.142   8.541
 5110SOL    HW216772   0.061   6.161   8.651
 5111SOL     OW16773   0.214   6.074   9.088
 5111SOL    HW116774   0.297   6.104   9.050
 5111SOL    HW216775   0.199   6.132   9.163
 5112SOL     OW16776   1.312   6.573   9.092
 5112SOL    HW116777   1.378   6.643   9.091
 5112SOL    HW216778   1.352   6.502   9.042
 5113SOL     OW16779   0.804   6.130   7.820
 5113SOL    HW116780   0.827   6.064   7.754
 5113SOL    HW216781   0.743   6.188   7.775
 5114SOL     OW16782   1.642   6.183   8.635
 5114SOL    HW116783   1.632   6.122   8.709
 5114SOL    HW216784   1.728   6.163   8.598
 5115SOL     OW16785   0.288   7.122   9.166
 5115SOL    HW116786   0.247   7.192   9.216
 5115SOL    HW216787   0.282   7.045   9.223
 5116SOL     OW16788   0.698   6.032   8.696
 5116SOL    HW116789   0.649   5.958   8.661
 5116SOL    HW216790   0.695   6.097   8.626
 5117SOL     OW16791   0.925   7.260   8.921
 5117SOL    HW116792   0.894   7.219   8.841
 5117SOL    HW216793   0.918   7.354   8.904
 5118SOL     OW16794   0.441   6.085   7.662
 5118SOL    HW116795   0.511   6.149   7.676
 5118SOL    HW216796   0.379   6.129   7.603
 5119SOL     OW16797   0.158   6.707   8.917
 5119SOL    HW116798   0.138   6.657   8.997
 5119SOL    HW216799   0.154   6.642   8.847
 5120SOL     OW16800   1.320   6.660   8.662
 5120SOL    HW116801   1.382   6.619   8.602
 5120SOL    HW216802   1.242   6.676   8.610
 5121SOL     OW16803   1.283   6.354   7.756
 5121SOL    HW116804   1.219   6.417   7.788
 5121SOL    HW216805   1.355   6.408   7.724
 5122SOL     OW16806   1.789   7.325   8.616
 5122SOL    HW116807   1.814   7.365   8.533
 5122SOL    HW216808   1.749   7.242   8.591
 5123SOL     OW16809   1.237   7.312   8.578
 5123SOL    HW116810   1.316   7.338   8.529
 5123SOL    HW216811   1.246   7.217   8.589
 5124SOL     OW16812   0.043   6.809   8.459
 5124SOL    HW116813   0.060   6.827   8.552
 5124SOL    HW216814  -0.028   6.868   8.436
 5125SOL     OW16815   0.683   7.255   9.187
 5125SOL    HW116816   0.615   7.320   9.169
 5125SOL    HW216817   0.751   7.274   9.123
 5126SOL     OW16818   1.729   5.748   7.948
 5126SOL    HW116819   1.797   5.730   7.884
 5126SOL    HW216820   1.712   5.664   7.990
 5127SOL     OW16821   1.394   7.173   7.933
 5127SOL    HW116822   1.347   7.171   7.850
 5127SOL    HW216823   1.352   7.243   7.982
 5128SOL     OW16824   0.164   7.328   9.292
 5128SOL    HW116825   0.100   7.280   9.346
 5128SOL    HW216826   0.214   7.380   9.354
 5129SOL     OW16827   1.263   6.517   8.118
 5129SOL    HW116828   1.335   6.457   8.140
 5129SOL    HW216829   1.304   6.586   8.066
 5130SOL     OW16830   0.862   6.858   8.881
 5130SOL    HW116831   0.808   6.894   8.951
 5130SOL    HW216832   0.839   6.910   8.804
 5131SOL     OW16833   0.675   7.211   7.599
 5131SOL    HW116834   0.689   7.227   7.506
 5131SOL    HW216835   0.618   7.134   7.602
 5132SOL     OW16836   1.616   7.312   8.845
 5132SOL    HW116837   1.672   7.316   8.767
 5132SOL    HW216838   1.598   7.404   8.866
 5133SOL     OW16839   1.853   5.757   8.423
 5133SOL    HW116840   1.877   5.667   8.397
 5133SOL    HW216841   1.767   5.771   8.382
 5134SOL     OW16842   0.271   5.890   8.170
 5134SOL    HW116843   0.182   5.912   8.142
 5134SOL    HW216844   0.266   5.880   8.265
 5135SOL     OW16845   1.217   7.182   7.474
 5135SOL    HW116846   1.212   7.092   7.505
 5135SOL    HW216847   1.145   7.190   7.411
 5136SOL     OW16848   0.790   6.593   8.803
 5136SOL    HW116849   0.843   6.568   8.727
 5136SOL    HW216850   0.801   6.688   8.809
 5137SOL     OW16851   0.899   6.500   7.742
 5137SOL    HW116852   0.961   6.523   7.674
 5137SOL    HW216853   0.945   6.435   7.795
 5138SOL     OW16854   1.480   7.270   7.483
 5138SOL    HW116855   1.392   7.233   7.475
 5138SOL    HW216856   1.519   7.256   7.396
 5139SOL     OW16857   0.369   6.889   8.944
 5139SOL    HW116858   0.358   6.966   8.888
 5139SOL    HW216859   0.294   6.833   8.924
 5140SOL     OW16860   1.618   6.874   8.727
 5140SOL    HW116861   1.666   6.843   8.804
 5140SOL    HW216862   1.559   6.941   8.760
 5141SOL     OW16863   1.060   6.698   8.170
 5141SOL    HW116864   0.986   6.643   8.196
 5141SOL    HW216865   1.129   6.636   8.144
 5142SOL     OW16866   1.001   5.835   8.421
 5142SOL    HW116867   1.034   5.792   8.342
 5142SOL    HW216868   1.009   5.769   8.489
 5143SOL     OW16869   0.607   7.077   7.942
 5143SOL    HW116870   0.657   7.022   7.881
 5143SOL    HW216871   0.549   7.128   7.885
 5144SOL     OW16872   1.735   5.978   8.845
 5144SOL    HW116873   1.806   6.042   8.833
 5144SOL    HW216874   1.760   5.904   8.789
 5145SOL     OW16875   0.257   6.922   7.728
 5145SOL    HW116876   0.163   6.931   7.708
 5145SOL    HW216877   0.268   6.969   7.810
 5146SOL     OW16878   0.098   6.586   9.174
 5146SOL    HW116879   0.068   6.675   9.194
 5146SOL    HW216880   0.185   6.581   9.213
 5147SOL     OW16881   0.679   5.780   8.940
 5147SOL    HW116882   0.765   5.759   8.903
 5147SOL    HW216883   0.698   5.807   9.030
 5148SOL     OW16884   0.081   5.941   7.468
 5148SOL    HW116885   0.016   5.990   7.517
 5148SOL    HW216886   0.108   6.000   7.398
 5149SOL     OW16887   1.412   6.460   8.837
 5149SOL    HW116888   1.376   6.525   8.776
 5149SOL    HW216889   1.505   6.456   8.816
 5150SOL     OW16890   0.068   5.824   7.831
 5150SOL    HW116891   0.105   5.911   7.813
 5150SOL    HW216892   0.079   5.776   7.749
 5151SOL     OW16893   1.183   6.925   7.567
 5151SOL    HW116894   1.087   6.930   7.563
 5151SOL    HW216895   1.202   6.916   7.661
 5152SOL     OW16896   0.606   6.422   8.898
 5152SOL    HW116897   0.660   6.498   8.874
 5152SOL    HW216898   0.667   6.348   8.898
 5153SOL     OW16899   1.469   7.369   8.441
 5153SOL    HW116900   1.489   7.429   8.369
 5153SOL    HW216901   1.539   7.304   8.439
 5154SOL     OW16902   0.693   6.126   9.130
 5154SOL    HW116903   0.714   6.178   9.207
 5154SOL    HW216904   0.723   6.038   9.151
 5155SOL     OW16905   1.471   6.809   9.075
 5155SOL    HW116906   1.473   6.811   9.170
 5155SOL    HW216907   1.563   6.819   9.049
 5156SOL     OW16908   0.391   7.327   9.014
 5156SOL    HW116909   0.306   7.363   8.990
 5156SOL    HW216910   0.372   7.240   9.049
 5157SOL     OW16911   1.665   6.454   8.721
 5157SOL    HW116912   1.661   6.368   8.681
 5157SOL    HW216913   1.647   6.515   8.649
 5158SOL     OW16914   1.222   5.911   7.906
 5158SOL    HW116915   1.284   5.839   7.897
 5158SOL    HW216916   1.247   5.955   7.987
 5159SOL     OW16917   0.577   6.320   8.136
 5159SOL    HW116918   0.626   6.402   8.125
 5159SOL    HW216919   0.517   6.317   8.062
 5160SOL     OW16920   1.756   5.939   9.118
 5160SOL    HW116921   1.749   5.959   9.024
 5160SOL    HW216922   1.683   5.879   9.134
 5161SOL     OW16923   1.792   6.521   8.960
 5161SOL    HW116924   1.716   6.500   9.015
 5161SOL    HW216925   1.763   6.503   8.871
 5162SOL     OW16926   0.919   6.999   7.541
 5162SOL    HW116927   0.830   6.973   7.562
 5162SOL    HW216928   0.913   7.041   7.455
 5163SOL     OW16929   0.668   7.368   8.393
 5163SOL    HW116930   0.642   7.456   8.366
 5163SOL    HW216931   0.761   7.363   8.373
 5164SOL     OW16932   0.860   6.559   8.306
 5164SOL    HW116933   0.911   6.484   8.337
 5164SOL    HW216934   0.840   6.608   8.385
 5165SOL     OW16935   1.061   6.552   7.534
 5165SOL    HW116936   1.036   6.612   7.464
 5165SOL    HW216937   1.138   6.507   7.500
 5166SOL     OW16938   1.881   7.153   8.285
 5166SOL    HW116939   1.792   7.134   8.254
 5166SOL    HW216940   1.899   7.085   8.349
 5167SOL     OW16941   0.217   6.889   9.309
 5167SOL    HW116942   0.124   6.873   9.291
 5167SOL    HW216943   0.222   6.896   9.404
 5168SOL     OW16944   0.095   6.759   8.079
 5168SOL    HW116945   0.133   6.753   8.167
 5168SOL    HW216946   0.171   6.758   8.021
 5169SOL     OW16947   0.697   6.986   9.066
 5169SOL    HW116948   0.610   6.950   9.086
 5169SOL    HW216949   0.695   7.074   9.105
 5170SOL     OW16950   1.845   5.774   8.696
 5170SOL    HW116951   1.804   5.688   8.709
 5170SOL    HW216952   1.847   5.786   8.601
 5171SOL     OW16953   0.426   6.025   7.973
 5171SOL    HW116954   0.477   5.961   7.923
 5171SOL    HW216955   0.390   5.974   8.047
 5172SOL     OW16956   1.667   7.096   8.546
 5172SOL    HW116957   1.596   7.066   8.490
 5172SOL    HW216958   1.692   7.019   8.598
 5173SOL     OW16959   0.337   6.139   8.743
 5173SOL    HW116960   0.384   6.085   8.806
 5173SOL    HW216961   0.366   6.107   8.658
 5174SOL     OW16962   0.826   7.178   8.109
 5174SOL    HW116963   0.827   7.262   8.063
 5174SOL    HW216964   0.750   7.132   8.074
 5175SOL     OW16965   0.997   5.613   8.587
 5175SOL    HW116966   0.964   5.529   8.553
 5175SOL    HW216967   1.092   5.601   8.592
 5176SOL     OW16968   0.755   6.911   7.789
 5176SOL    HW116969   0.736   6.817   7.789
 5176SOL    HW216970   0.851   6.916   7.780
 5177SOL     OW16971   0.633   7.135   8.740
 5177SOL    HW116972   0.635   7.220   8.784
 5177SOL    HW216973   0.717   7.129   8.695
 5178SOL     OW16974   1.342   5.624   7.629
 5178SOL    HW116975   1.376   5.550   7.580
 5178SOL    HW216976   1.247   5.614   7.625
 5179SOL     OW16977   1.271   6.034   8.141
 5179SOL    HW116978   1.233   6.123   8.143
 5179SOL    HW216979   1.303   6.021   8.230
 5180SOL     OW16980   1.599   5.776   8.320
 5180SOL    HW116981   1.529   5.769   8.386
 5180SOL    HW216982   1.582   5.859   8.276
 5181SOL     OW16983   0.045   6.630   7.735
 5181SOL    HW116984   0.132   6.612   7.700
 5181SOL    HW216985   0.060   6.644   7.829
 5182SOL     OW16986   0.899   7.244   7.771
 5182SOL    HW116987   0.827   7.225   7.711
 5182SOL    HW216988   0.862   7.306   7.834
 5183SOL     OW16989   0.247   5.859  10.301
 5183SOL    HW116990   0.264   5.815  10.385
 5183SOL    HW216991   0.156   5.837  10.281
 5184SOL     OW16992   8.015   5.958   9.933
 5184SOL    HW116993   7.922   5.978   9.944
 5184SOL    HW216994   8.019   5.907   9.852
 5185SOL     OW16995   0.576   6.885  10.501
 5185SOL    HW116996   0.491   6.888  10.458
 5185SOL    HW216997   0.594   6.976  10.525
 5186SOL     OW16998   1.569   7.101  10.018
 5186SOL    HW116999   1.524   7.065  10.095
 5186SOL    HW217000   1.503   7.101   9.949
 5187SOL     OW17001   1.130   6.281  10.006
 5187SOL    HW117002   1.179   6.358   9.980
 5187SOL    HW217003   1.085   6.307  10.086
 5188SOL     OW17004   1.749   6.191   9.557
 5188SOL    HW117005   1.747   6.193   9.461
 5188SOL    HW217006   1.736   6.099   9.579
 5189SOL     OW17007   0.760   6.726  10.371
 5189SOL    HW117008   0.690   6.761  10.426
 5189SOL    HW217009   0.789   6.800  10.319
 5190SOL     OW17010   0.875   6.360  11.140
 5190SOL    HW117011   0.908   6.431  11.195
 5190SOL    HW217012   0.887   6.392  11.050
 5191SOL     OW17013   0.667   6.560   9.969
 5191SOL    HW117014   0.740   6.551  10.031
 5191SOL    HW217015   0.612   6.628  10.008
 5192SOL     OW17016   0.706   6.740  11.119
 5192SOL    HW117017   0.750   6.817  11.154
 5192SOL    HW217018   0.623   6.773  11.084
 5193SOL     OW17019   0.345   7.001  10.377
 5193SOL    HW117020   0.274   6.966  10.323
 5193SOL    HW217021   0.388   7.065  10.320
 5194SOL     OW17022   1.452   7.081  10.703
 5194SOL    HW117023   1.389   7.149  10.728
 5194SOL    HW217024   1.408   6.998  10.725
 5195SOL     OW17025   0.435   5.981  10.811
 5195SOL    HW117026   0.529   5.963  10.816
 5195SOL    HW217027   0.394   5.895  10.798
 5196SOL     OW17028   1.577   6.023  10.073
 5196SOL    HW117029   1.509   6.051  10.011
 5196SOL    HW217030   1.655   6.072  10.046
 5197SOL     OW17031   0.225   7.270   9.785
 5197SOL    HW117032   0.215   7.354   9.830
 5197SOL    HW217033   0.293   7.287   9.720
 5198SOL     OW17034   1.139   6.934  11.004
 5198SOL    HW117035   1.165   6.915  11.094
 5198SOL    HW217036   1.082   6.861  10.979
 5199SOL     OW17037   0.299   7.008   9.838
 5199SOL    HW117038   0.270   7.099   9.840
 5199SOL    HW217039   0.222   6.958   9.865
 5200SOL     OW17040   0.298   6.672  10.233
 5200SOL    HW117041   0.284   6.578  10.249
 5200SOL    HW217042   0.222   6.714  10.273
 5201SOL     OW17043   0.636   7.377  10.750
 5201SOL    HW117044   0.547   7.364  10.782
 5201SOL    HW217045   0.652   7.471  10.760
 5202SOL     OW17046   0.554   6.606   9.437
 5202SOL    HW117047   0.615   6.643   9.373
 5202SOL    HW217048   0.606   6.595   9.516
 5203SOL     OW17049   1.577   5.723  10.759
 5203SOL    HW117050   1.636   5.791  10.726
 5203SOL    HW217051   1.560   5.747  10.850
 5204SOL     OW17052   0.136   6.222   9.893
 5204SOL    HW117053   0.100   6.135   9.908
 5204SOL    HW217054   0.061   6.281   9.901
 5205SOL     OW17055   1.877   7.415   9.617
 5205SOL    HW117056   1.931   7.382   9.689
 5205SOL    HW217057   1.872   7.341   9.556
 5206SOL     OW17058   0.008   7.176   9.458
 5206SOL    HW117059   0.001   7.082   9.439
 5206SOL    HW217060  -0.005   7.182   9.553
 5207SOL     OW17061   1.693   6.506   9.944
 5207SOL    HW117062   1.753   6.455   9.890
 5207SOL    HW217063   1.651   6.567   9.883
 5208SOL     OW17064   1.640   6.690   9.737
 5208SOL    HW117065   1.726   6.685   9.695
 5208SOL    HW217066   1.650   6.758   9.803
 5209SOL     OW17067   0.142   6.346  10.909
 5209SOL    HW117068   0.231   6.360  10.877
 5209SOL    HW217069   0.119   6.428  10.953
 5210SOL     OW17070   0.610   6.975  10.068
 5210SOL    HW117071   0.564   6.890  10.067
 5210SOL    HW217072   0.605   7.006   9.978
 5211SOL     OW17073   1.314   6.852  10.729
 5211SOL    HW117074   1.314   6.775  10.673
 5211SOL    HW217075   1.350   6.822  10.813
 5212SOL     OW17076   0.813   5.596   9.842
 5212SOL    HW117077   0.858   5.675   9.812
 5212SOL    HW217078   0.720   5.618   9.836
 5213SOL     OW17079   0.186   6.513  10.612
 5213SOL    HW117080   0.273   6.486  10.581
 5213SOL    HW217081   0.131   6.509  10.534
 5214SOL     OW17082   1.535   6.588   9.504
 5214SOL    HW117083   1.469   6.523   9.529
 5214SOL    HW217084   1.569   6.620   9.588
 5215SOL     OW17085   1.217   7.406  10.929
 5215SOL    HW117086   1.185   7.458  10.856
 5215SOL    HW217087   1.211   7.315  10.898
 5216SOL     OW17088   0.357   5.848  11.134
 5216SOL    HW117089   0.412   5.919  11.169
 5216SOL    HW217090   0.268   5.874  11.156
 5217SOL     OW17091   1.447   7.009  10.247
 5217SOL    HW117092   1.385   7.029  10.318
 5217SOL    HW217093   1.443   6.914  10.237
 5218SOL     OW17094   1.660   7.327   9.885
 5218SOL    HW117095   1.632   7.302   9.797
 5218SOL    HW217096   1.632   7.254   9.941
 5219SOL     OW17097   0.569   6.361   9.597
 5219SOL    HW117098   0.641   6.339   9.538
 5219SOL    HW217099   0.490   6.349   9.544
 5220SOL     OW17100   1.270   5.952  10.288
 5220SOL    HW117101   1.185   5.908  10.281
 5220SOL    HW217102   1.329   5.884  10.322
 5221SOL     OW17103   1.576   7.291   9.618
 5221SOL    HW117104   1.657   7.336   9.592
 5221SOL    HW217105   1.538   7.262   9.535
 5222SOL     OW17106   0.814   6.179  10.767
 5222SOL    HW117107   0.772   6.167  10.852
 5222SOL    HW217108   0.762   6.126  10.707
 5223SOL     OW17109   1.391   6.048  10.967
 5223SOL    HW117110   1.397   6.097  11.050
 5223SOL    HW217111   1.445   5.970  10.981
 5224SOL     OW17112   0.923   6.443  10.888
 5224SOL    HW117113   1.004   6.407  10.850
 5224SOL    HW217114   0.904   6.520  10.835
 5225SOL     OW17115   1.057   6.034  10.528
 5225SOL    HW117116   0.976   6.045  10.577
 5225SOL    HW217117   1.034   5.971  10.458
 5226SOL     OW17118   1.053   6.277   9.735
 5226SOL    HW117119   1.070   6.275   9.829
 5226SOL    HW217120   0.970   6.231   9.724
 5227SOL     OW17121   0.047   6.413  10.121
 5227SOL    HW117122   0.140   6.412  10.146
 5227SOL    HW217123   0.034   6.500  10.083
 5228SOL     OW17124   0.153   7.447  10.868
 5228SOL    HW117125   0.126   7.431  10.958
 5228SOL    HW217126   0.111   7.377  10.817
 5229SOL     OW17127   0.918   5.924   9.510
 5229SOL    HW117128   0.945   6.001   9.460
 5229SOL    HW217129   0.944   5.850   9.455
 5230SOL     OW17130   1.704   6.156  11.142
 5230SOL    HW117131   1.670   6.228  11.090
 5230SOL    HW217132   1.734   6.092  11.077
 5231SOL     OW17133   1.362   6.714   9.815
 5231SOL    HW117134   1.449   6.710   9.775
 5231SOL    HW217135   1.317   6.785   9.767
 5232SOL     OW17136   0.555   5.755  10.200
 5232SOL    HW117137   0.549   5.802  10.283
 5232SOL    HW217138   0.545   5.822  10.133
 5233SOL     OW17139   1.001   7.025   9.787
 5233SOL    HW117140   0.960   7.096   9.737
 5233SOL    HW217141   0.971   7.039   9.877
 5234SOL     OW17142   0.361   7.407  10.159
 5234SOL    HW117143   0.403   7.324  10.179
 5234SOL    HW217144   0.427   7.473  10.181
 5235SOL     OW17145   1.811   6.642  10.164
 5235SOL    HW117146   1.754   6.615  10.092
 5235SOL    HW217147   1.754   6.646  10.240
 5236SOL     OW17148   1.198   7.145  10.820
 5236SOL    HW117149   1.205   7.087  10.896
 5236SOL    HW217150   1.151   7.094  10.755
 5237SOL     OW17151   0.304   6.526   9.541
 5237SOL    HW117152   0.380   6.563   9.495
 5237SOL    HW217153   0.277   6.453   9.485
 5238SOL     OW17154   1.480   6.351  10.035
 5238SOL    HW117155   1.491   6.313  10.122
 5238SOL    HW217156   1.557   6.406  10.023
 5239SOL     OW17157   0.466   6.823  11.035
 5239SOL    HW117158   0.433   6.841  10.947
 5239SOL    HW217159   0.389   6.826  11.091
 5240SOL     OW17160   0.158   5.842  10.824
 5240SOL    HW117161   0.173   5.916  10.883
 5240SOL    HW217162   0.175   5.765  10.877
 5241SOL     OW17163   1.637   6.985   9.415
 5241SOL    HW117164   1.585   7.062   9.391
 5241SOL    HW217165   1.581   6.910   9.392
 5242SOL     OW17166   0.455   7.332   9.620
 5242SOL    HW117167   0.505   7.376   9.689
 5242SOL    HW217168   0.521   7.287   9.567
 5243SOL     OW17169   1.406   5.689   9.754
 5243SOL    HW117170   1.388   5.666   9.663
 5243SOL    HW217171   1.485   5.743   9.750
 5244SOL     OW17172   0.248   7.378  10.546
 5244SOL    HW117173   0.229   7.299  10.596
 5244SOL    HW217174   0.206   7.365  10.462
 5245SOL     OW17175   0.953   7.273  10.198
 5245SOL    HW117176   1.038   7.230  10.197
 5245SOL    HW217177   0.903   7.230  10.129
 5246SOL     OW17178   0.404   6.292   9.855
 5246SOL    HW117179   0.439   6.203   9.848
 5246SOL    HW217180   0.310   6.280   9.869
 5247SOL     OW17181   1.534   5.803  11.035
 5247SOL    HW117182   1.536   5.837  11.124
 5247SOL    HW217183   1.510   5.711  11.045
 5248SOL     OW17184   0.635   5.686   9.424
 5248SOL    HW117185   0.715   5.636   9.409
 5248SOL    HW217186   0.580   5.667   9.349
 5249SOL     OW17187   0.753   5.869  11.062
 5249SOL    HW117188   0.836   5.823  11.055
 5249SOL    HW217189   0.714   5.837  11.144
 5250SOL     OW17190   0.894   7.128  10.505
 5250SOL    HW117191   0.876   7.091  10.418
 5250SOL    HW217192   0.954   7.066  10.546
 5251SOL     OW17193   1.353   6.165  10.705
 5251SOL    HW117194   1.377   6.121  10.786
 5251SOL    HW217195   1.384   6.254  10.715
 5252SOL     OW17196   0.820   6.976  10.264
 5252SOL    HW117197   0.903   6.965  10.217
 5252SOL    HW217198   0.755   6.987  10.194
 5253SOL     OW17199   0.922   6.084  10.206
 5253SOL    HW117200   0.901   6.078  10.113
 5253SOL    HW217201   0.952   5.996  10.230
 5254SOL     OW17202   0.550   5.655   9.806
 5254SOL    HW117203   0.466   5.653   9.851
 5254SOL    HW217204   0.545   5.731   9.749
 5255SOL     OW17205   1.442   6.796   9.349
 5255SOL    HW117206   1.470   6.715   9.393
 5255SOL    HW217207   1.351   6.808   9.378
 5256SOL     OW17208   0.275   5.645   9.485
 5256SOL    HW117209   0.321   5.710   9.431
 5256SOL    HW217210   0.345   5.594   9.526
 5257SOL     OW17211   0.941   5.826   9.768
 5257SOL    HW117212   0.920   5.860   9.681
 5257SOL    HW217213   1.035   5.843   9.778
 5258SOL     OW17214   1.081   6.251  10.761
 5258SOL    HW117215   0.994   6.216  10.783
 5258SOL    HW217216   1.141   6.200  10.816
 5259SOL     OW17217   1.210   7.171  10.128
 5259SOL    HW117218   1.226   7.238  10.062
 5259SOL    HW217219   1.297   7.136  10.148
 5260SOL     OW17220   0.476   6.736  10.042
 5260SOL    HW117221   0.413   6.720  10.113
 5260SOL    HW217222   0.426   6.721   9.962
 5261SOL     OW17223   1.239   7.384   9.954
 5261SOL    HW117224   1.234   7.417   9.864
 5261SOL    HW217225   1.177   7.437  10.003
 5262SOL     OW17226   1.034   6.114   9.338
 5262SOL    HW117227   0.958   6.172   9.345
 5262SOL    HW217228   1.108   6.166   9.370
 5263SOL     OW17229   0.064   6.155  10.699
 5263SOL    HW117230   0.156   6.133  10.682
 5263SOL    HW217231   0.068   6.229  10.759
 5264SOL     OW17232   0.555   5.818  10.475
 5264SOL    HW117233   0.595   5.732  10.489
 5264SOL    HW217234   0.467   5.811  10.511
 5265SOL     OW17235   0.854   6.036   9.945
 5265SOL    HW117236   0.825   6.091   9.873
 5265SOL    HW217237   0.885   5.955   9.904
 5266SOL     OW17238   1.021   5.648  10.059
 5266SOL    HW117239   0.964   5.649   9.982
 5266SOL    HW217240   0.994   5.570  10.108
 5267SOL     OW17241   1.466   6.198  10.290
 5267SOL    HW117242   1.472   6.115  10.243
 5267SOL    HW217243   1.530   6.189  10.361
 5268SOL     OW17244   1.837   6.399   9.710
 5268SOL    HW117245   1.899   6.346   9.759
 5268SOL    HW217246   1.802   6.340   9.644
 5269SOL     OW17247   0.492   7.007   9.453
 5269SOL    HW117248   0.412   6.979   9.497
 5269SOL    HW217249   0.494   6.956   9.372
 5270SOL     OW17250   1.691   6.868   9.927
 5270SOL    HW117251   1.785   6.874   9.945
 5270SOL    HW217252   1.655   6.950   9.961
 5271SOL     OW17253   1.362   6.155   9.382
 5271SOL    HW117254   1.321   6.130   9.465
 5271SOL    HW217255   1.456   6.161   9.403
 5272SOL     OW17256   0.523   5.852   9.622
 5272SOL    HW117257   0.569   5.801   9.555
 5272SOL    HW217258   0.501   5.934   9.578
 5273SOL     OW17259   1.747   6.827  10.870
 5273SOL    HW117260   1.826   6.780  10.893
 5273SOL    HW217261   1.763   6.917  10.899
 5274SOL     OW17262   1.046   6.969  10.680
 5274SOL    HW117263   0.965   6.923  10.703
 5274SOL    HW217264   1.115   6.904  10.689
 5275SOL     OW17265   1.616   7.241  10.964
 5275SOL    HW117266   1.597   7.236  10.871
 5275SOL    HW217267   1.688   7.180  10.978
 5276SOL     OW17268   1.117   6.813  10.429
 5276SOL    HW117269   1.024   6.825  10.411
 5276SOL    HW217270   1.157   6.799  10.343
 5277SOL     OW17271   1.681   6.686  10.412
 5277SOL    HW117272   1.671   6.753  10.480
 5277SOL    HW217273   1.598   6.687  10.365
 5278SOL     OW17274   0.909   5.723  10.680
 5278SOL    HW117275   0.936   5.680  10.598
 5278SOL    HW217276   0.991   5.743  10.724
 5279SOL     OW17277   0.961   6.729  10.973
 5279SOL    HW117278   0.872   6.740  11.004
 5279SOL    HW217279   1.003   6.673  11.038
 5280SOL     OW17280   0.708   6.624   9.688
 5280SOL    HW117281   0.730   6.653   9.777
 5280SOL    HW217282   0.788   6.583   9.656
 5281SOL     OW17283   0.433   6.397  10.564
 5281SOL    HW117284   0.502   6.406  10.630
 5281SOL    HW217285   0.395   6.311  10.580
 5282SOL     OW17286   0.375   6.648   9.780
 5282SOL    HW117287   0.327   6.731   9.785
 5282SOL    HW217288   0.342   6.608   9.699
 5283SOL     OW17289   0.545   6.097  10.178
 5283SOL    HW117290   0.566   6.106  10.085
 5283SOL    HW217291   0.621   6.132  10.224
 5284SOL     OW17292   1.245   6.940   9.694
 5284SOL    HW117293   1.302   7.007   9.730
 5284SOL    HW217294   1.158   6.960   9.729
 5285SOL     OW17295   1.278   7.046  10.461
 5285SOL    HW117296   1.328   7.024  10.539
 5285SOL    HW217297   1.216   6.974  10.451
 5286SOL     OW17298   1.575   6.187   9.805
 5286SOL    HW117299   1.521   6.253   9.849
 5286SOL    HW217300   1.614   6.234   9.731
 5287SOL     OW17301   0.370   7.095  10.635
 5287SOL    HW117302   0.340   7.067  10.549
 5287SOL    HW217303   0.461   7.121  10.621
 5288SOL     OW17304   0.459   6.342  10.958
 5288SOL    HW117305   0.501   6.389  10.887
 5288SOL    HW217306   0.505   6.258  10.963
 5289SOL     OW17307   1.615   6.365  10.994
 5289SOL    HW117308   1.528   6.404  10.990
 5289SOL    HW217309   1.665   6.410  10.926
 5290SOL     OW17310   0.984   5.724  11.054
 5290SOL    HW117311   1.052   5.791  11.044
 5290SOL    HW217312   1.022   5.645  11.017
 5291SOL     OW17313   0.497   5.622  11.076
 5291SOL    HW117314   0.458   5.566  11.009
 5291SOL    HW217315   0.440   5.699  11.079
 5292SOL     OW17316   0.584   6.454  10.337
 5292SOL    HW117317   0.609   6.546  10.330
 5292SOL    HW217318   0.529   6.450  10.415
 5293SOL     OW17319   1.299   6.390  10.375
 5293SOL    HW117320   1.309   6.478  10.337
 5293SOL    HW217321   1.363   6.337  10.328
 5294SOL     OW17322   1.222   6.099   9.605
 5294SOL    HW117323   1.211   6.023   9.662
 5294SOL    HW217324   1.169   6.168   9.646
 5295SOL     OW17325   0.303   5.778  10.575
 5295SOL    HW117326   0.236   5.806  10.637
 5295SOL    HW217327   0.292   5.683  10.570
 5296SOL     OW17328   0.046   6.914  10.583
 5296SOL    HW117329   0.068   6.853  10.654
 5296SOL    HW217330   0.055   7.001  10.623
 5297SOL     OW17331   0.724   6.216  10.367
 5297SOL    HW117332   0.798   6.206  10.308
 5297SOL    HW217333   0.688   6.302  10.346
 5298SOL     OW17334   1.738   6.556  11.156
 5298SOL    HW117335   1.697   6.480  11.116
 5298SOL    HW217336   1.684   6.576  11.233
 5299SOL     OW17337   0.299   5.645   9.919
 5299SOL    HW117338   0.278   5.736   9.938
 5299SOL    HW217339   0.309   5.604  10.005
 5300SOL     OW17340   1.594   5.939   9.693
 5300SOL    HW117341   1.654   5.892   9.750
 5300SOL    HW217342   1.580   6.024   9.735
 5301SOL     OW17343   1.000   6.339  10.250
 5301SOL    HW117344   1.020   6.350  10.343
 5301SOL    HW217345   0.984   6.245  10.239
 5302SOL     OW17346   0.986   7.155  11.047
 5302SOL    HW117347   0.900   7.161  11.004
 5302SOL    HW217348   1.023   7.073  11.015
 5303SOL     OW17349   1.848   7.083  10.920
 5303SOL    HW117350   1.877   7.118  10.836
 5303SOL    HW217351   1.922   7.097  10.979
 5304SOL     OW17352   1.532   5.842   9.443
 5304SOL    HW117353   1.459   5.786   9.468
 5304SOL    HW217354   1.555   5.888   9.524
 5305SOL     OW17355   1.281   6.420   9.332
 5305SOL    HW117356   1.325   6.335   9.327
 5305SOL    HW217357   1.308   6.466   9.252
 5306SOL     OW17358   1.061   6.925  10.161
 5306SOL    HW117359   1.069   6.849  10.103
 5306SOL    HW217360   1.123   6.988  10.125
 5307SOL     OW17361   0.306   6.392  10.248
 5307SOL    HW117362   0.400   6.409  10.243
 5307SOL    HW217363   0.300   6.302  10.280
 5308SOL     OW17364   0.329   6.111  10.336
 5308SOL    HW117365   0.296   6.022  10.321
 5308SOL    HW217366   0.407   6.118  10.281
 5309SOL     OW17367   1.131   5.964  10.999
 5309SOL    HW117368   1.088   6.018  11.065
 5309SOL    HW217369   1.221   5.996  10.997
 5310SOL     OW17370   1.152   5.805  10.777
 5310SOL    HW117371   1.142   5.858  10.857
 5310SOL    HW217372   1.184   5.866  10.711
 5311SOL     OW17373   7.978   6.892   9.502
 5311SOL    HW117374   7.891   6.916   9.534
 5311SOL    HW217375   7.990   6.801   9.530
 5312SOL     OW17376   0.123   7.372  10.306
 5312SOL    HW117377   0.042   7.370  10.256
 5312SOL    HW217378   0.192   7.383  10.240
 5313SOL     OW17379   0.499   7.174  10.224
 5313SOL    HW117380   0.571   7.229  10.254
 5313SOL    HW217381   0.540   7.109  10.167
 5314SOL     OW17382   0.998   6.340  10.524
 5314SOL    HW117383   1.022   6.329  10.616
 5314SOL    HW217384   0.904   6.357  10.525
 5315SOL     OW17385   0.069   6.147  10.427
 5315SOL    HW117386   0.161   6.141  10.403
 5315SOL    HW217387   0.069   6.155  10.522
 5316SOL     OW17388   0.204   6.080  10.968
 5316SOL    HW117389   0.293   6.074  10.933
 5316SOL    HW217390   0.180   6.172  10.959
 5317SOL     OW17391   1.382   6.505  10.959
 5317SOL    HW117392   1.393   6.600  10.960
 5317SOL    HW217393   1.374   6.482  10.866
 5318SOL     OW17394   0.819   6.140   9.689
 5318SOL    HW117395   0.837   6.063   9.634
 5318SOL    HW217396   0.780   6.204   9.629
 5319SOL     OW17397   1.642   6.186  10.496
 5319SOL    HW117398   1.639   6.127  10.571
 5319SOL    HW217399   1.728   6.172  10.458
 5320SOL     OW17400   0.325   7.104  11.100
 5320SOL    HW117401   0.287   7.191  11.113
 5320SOL    HW217402   0.263   7.059  11.043
 5321SOL     OW17403   0.683   6.043  10.575
 5321SOL    HW117404   0.644   5.964  10.538
 5321SOL    HW217405   0.692   6.102  10.501
 5322SOL     OW17406   0.962   7.311  10.725
 5322SOL    HW117407   0.927   7.251  10.659
 5322SOL    HW217408   1.022   7.257  10.777
 5323SOL     OW17409   0.471   6.079   9.482
 5323SOL    HW117410   0.551   6.129   9.463
 5323SOL    HW217411   0.400   6.132   9.444
 5324SOL     OW17412   0.136   6.725  10.771
 5324SOL    HW117413   0.131   6.683  10.856
 5324SOL    HW217414   0.153   6.654  10.709
 5325SOL     OW17415   1.296   6.644  10.558
 5325SOL    HW117416   1.353   6.644  10.480
 5325SOL    HW217417   1.216   6.688  10.529
 5326SOL     OW17418   1.333   6.429   9.605
 5326SOL    HW117419   1.253   6.423   9.658
 5326SOL    HW217420   1.301   6.419   9.515
 5327SOL     OW17421   1.805   7.309  10.482
 5327SOL    HW117422   1.855   7.331  10.404
 5327SOL    HW217423   1.753   7.232  10.457
 5328SOL     OW17424   1.249   7.325  10.453
 5328SOL    HW117425   1.323   7.345  10.396
 5328SOL    HW217426   1.245   7.230  10.455
 5329SOL     OW17427   0.074   6.782  10.344
 5329SOL    HW117428   0.065   6.833  10.424
 5329SOL    HW217429   0.005   6.815  10.286
 5330SOL     OW17430   0.681   7.268  11.034
 5330SOL    HW117431   0.611   7.329  11.056
 5330SOL    HW217432   0.697   7.283  10.941
 5331SOL     OW17433   1.742   5.750   9.834
 5331SOL    HW117434   1.805   5.743   9.761
 5331SOL    HW217435   1.725   5.659   9.858
 5332SOL     OW17436   1.396   7.156   9.801
 5332SOL    HW117437   1.449   7.188   9.728
 5332SOL    HW217438   1.331   7.223   9.816
 5333SOL     OW17439   0.175   7.329  11.146
 5333SOL    HW117440   0.107   7.283  11.195
 5333SOL    HW217441   0.218   7.384  11.212
 5334SOL     OW17442   1.263   6.509   9.957
 5334SOL    HW117443   1.342   6.465   9.989
 5334SOL    HW217444   1.296   6.583   9.906
 5335SOL     OW17445   0.790   6.867  10.720
 5335SOL    HW117446   0.761   6.909  10.802
 5335SOL    HW217447   0.716   6.878  10.660
 5336SOL     OW17448   0.665   7.217   9.462
 5336SOL    HW117449   0.679   7.230   9.369
 5336SOL    HW217450   0.611   7.138   9.467
 5337SOL     OW17451   1.631   7.393  10.690
 5337SOL    HW117452   1.694   7.351  10.631
 5337SOL    HW217453   1.547   7.356  10.664
 5338SOL     OW17454   1.819   5.752  10.266
 5338SOL    HW117455   1.898   5.700  10.254
 5338SOL    HW217456   1.843   5.840  10.237
 5339SOL     OW17457   0.269   5.899  10.018
 5339SOL    HW117458   0.181   5.931   9.994
 5339SOL    HW217459   0.268   5.895  10.113
 5340SOL     OW17460   1.235   7.177   9.330
 5340SOL    HW117461   1.205   7.094   9.365
 5340SOL    HW217462   1.161   7.209   9.278
 5341SOL     OW17463   0.826   6.600  10.669
 5341SOL    HW117464   0.841   6.616  10.576
 5341SOL    HW217465   0.821   6.687  10.708
 5342SOL     OW17466   0.944   6.519   9.624
 5342SOL    HW117467   0.992   6.549   9.547
 5342SOL    HW217468   0.985   6.436   9.648
 5343SOL     OW17469   1.500   7.218   9.359
 5343SOL    HW117470   1.407   7.202   9.344
 5343SOL    HW217471   1.537   7.229   9.272
 5344SOL     OW17472   0.363   6.880  10.800
 5344SOL    HW117473   0.364   6.957  10.743
 5344SOL    HW217474   0.281   6.836  10.779
 5345SOL     OW17475   1.640   6.887  10.615
 5345SOL    HW117476   1.671   6.851  10.698
 5345SOL    HW217477   1.571   6.949  10.640
 5346SOL     OW17478   1.056   6.696  10.020
 5346SOL    HW117479   0.986   6.637  10.051
 5346SOL    HW217480   1.126   6.637   9.994
 5347SOL     OW17481   1.024   5.825  10.280
 5347SOL    HW117482   1.025   5.781  10.194
 5347SOL    HW217483   1.010   5.754  10.343
 5348SOL     OW17484   0.614   7.064   9.812
 5348SOL    HW117485   0.664   7.023   9.742
 5348SOL    HW217486   0.525   7.072   9.776
 5349SOL     OW17487   1.724   5.979  10.688
 5349SOL    HW117488   1.799   6.039  10.691
 5349SOL    HW217489   1.752   5.910  10.628
 5350SOL     OW17490   0.250   6.932   9.579
 5350SOL    HW117491   0.154   6.931   9.582
 5350SOL    HW217492   0.277   6.957   9.668
 5351SOL     OW17493   0.109   6.599  11.030
 5351SOL    HW117494   0.030   6.652  11.025
 5351SOL    HW217495   0.169   6.650  11.085
 5352SOL     OW17496   0.676   5.728  10.820
 5352SOL    HW117497   0.755   5.740  10.769
 5352SOL    HW217498   0.691   5.777  10.901
 5353SOL     OW17499   0.078   5.952   9.335
 5353SOL    HW117500   0.015   5.954   9.406
 5353SOL    HW217501   0.121   6.037   9.338
 5354SOL     OW17502   1.411   6.435  10.692
 5354SOL    HW117503   1.361   6.501  10.645
 5354SOL    HW217504   1.499   6.442  10.656
 5355SOL     OW17505   0.094   5.803   9.705
 5355SOL    HW117506   0.120   5.893   9.684
 5355SOL    HW217507   0.157   5.748   9.658
 5356SOL     OW17508   1.180   6.915   9.424
 5356SOL    HW117509   1.099   6.865   9.428
 5356SOL    HW217510   1.208   6.921   9.516
 5357SOL     OW17511   0.635   6.411  10.750
 5357SOL    HW117512   0.685   6.490  10.733
 5357SOL    HW217513   0.701   6.343  10.764
 5358SOL     OW17514   1.478   7.383  10.308
 5358SOL    HW117515   1.481   7.424  10.222
 5358SOL    HW217516   1.539   7.309  10.302
 5359SOL     OW17517   0.702   6.161  11.019
 5359SOL    HW117518   0.756   6.221  11.070
 5359SOL    HW217519   0.726   6.074  11.050
 5360SOL     OW17520   1.470   6.773  10.941
 5360SOL    HW117521   1.452   6.785  11.035
 5360SOL    HW217522   1.564   6.793  10.933
 5361SOL     OW17523   0.397   7.324  10.867
 5361SOL    HW117524   0.312   7.365  10.853
 5361SOL    HW217525   0.380   7.230  10.858
 5362SOL     OW17526   1.659   6.459  10.573
 5362SOL    HW117527   1.659   6.375  10.527
 5362SOL    HW217528   1.669   6.524  10.503
 5363SOL     OW17529   1.206   5.888   9.794
 5363SOL    HW117530   1.276   5.824   9.779
 5363SOL    HW217531   1.237   5.940   9.868
 5364SOL     OW17532   1.760   5.953  10.961
 5364SOL    HW117533   1.738   5.969  10.869
 5364SOL    HW217534   1.693   5.891  10.991
 5365SOL     OW17535   1.758   6.521  10.818
 5365SOL    HW117536   1.729   6.611  10.828
 5365SOL    HW217537   1.733   6.497  10.729
 5366SOL     OW17538   0.858   6.965   9.350
 5366SOL    HW117539   0.824   7.001   9.432
 5366SOL    HW217540   0.884   7.041   9.298
 5367SOL     OW17541   0.682   7.386  10.273
 5367SOL    HW117542   0.655   7.466  10.230
 5367SOL    HW217543   0.766   7.364  10.232
 5368SOL     OW17544   0.859   6.555  10.162
 5368SOL    HW117545   0.912   6.481  10.194
 5368SOL    HW217546   0.835   6.603  10.242
 5369SOL     OW17547   1.090   6.601   9.406
 5369SOL    HW117548   1.050   6.630   9.324
 5369SOL    HW217549   1.156   6.538   9.380
 5370SOL     OW17550   1.839   7.146  10.165
 5370SOL    HW117551   1.772   7.135  10.098
 5370SOL    HW217552   1.879   7.060  10.174
 5371SOL     OW17553   0.222   6.813  11.169
 5371SOL    HW117554   0.178   6.880  11.116
 5371SOL    HW217555   0.234   6.854  11.255
 5372SOL     OW17556   0.675   6.998  10.932
 5372SOL    HW117557   0.600   6.946  10.960
 5372SOL    HW217558   0.676   7.073  10.992
 5373SOL     OW17559   1.794   5.765  10.544
 5373SOL    HW117560   1.856   5.699  10.573
 5373SOL    HW217561   1.800   5.763  10.448
 5374SOL     OW17562   0.470   6.022   9.867
 5374SOL    HW117563   0.486   5.971   9.788
 5374SOL    HW217564   0.397   5.978   9.911
 5375SOL     OW17565   1.662   7.088  10.424
 5375SOL    HW117566   1.606   7.060  10.352
 5375SOL    HW217567   1.668   7.011  10.481
 5376SOL     OW17568   0.327   6.143  10.614
 5376SOL    HW117569   0.380   6.085  10.669
 5376SOL    HW217570   0.348   6.117  10.524
 5377SOL     OW17571   0.827   7.180   9.974
 5377SOL    HW117572   0.836   7.256   9.917
 5377SOL    HW217573   0.753   7.131   9.938
 5378SOL     OW17574   1.462   5.783  10.431
 5378SOL    HW117575   1.531   5.724  10.462
 5378SOL    HW217576   1.440   5.836  10.508
 5379SOL     OW17577   0.999   5.600  10.446
 5379SOL    HW117578   0.941   5.536  10.404
 5379SOL    HW217579   1.084   5.556  10.449
 5380SOL     OW17580   0.769   6.917   9.637
 5380SOL    HW117581   0.749   6.826   9.617
 5380SOL    HW217582   0.857   6.915   9.673
 5381SOL     OW17583   0.636   7.147  10.591
 5381SOL    HW117584   0.636   7.227  10.643
 5381SOL    HW217585   0.723   7.143  10.553
 5382SOL     OW17586   1.344   5.641   9.489
 5382SOL    HW117587   1.349   5.626   9.395
 5382SOL    HW217588   1.265   5.596   9.517
 5383SOL     OW17589   1.280   6.042  10.011
 5383SOL    HW117590   1.234   6.126  10.002
 5383SOL    HW217591   1.277   6.024  10.105
 5384SOL     OW17592   1.546   5.743  10.160
 5384SOL    HW117593   1.513   5.766  10.247
 5384SOL    HW217594   1.553   5.826  10.114
 5385SOL     OW17595   0.039   6.624   9.606
 5385SOL    HW117596   0.129   6.604   9.580
 5385SOL    HW217597   0.048   6.676   9.686
 5386SOL     OW17598   0.870   7.229   9.667
 5386SOL    HW117599   0.801   7.228   9.600
 5386SOL    HW217600   0.909   7.316   9.661
 5387SOL     OW17601   0.254   6.273  11.223
 5387SOL    HW117602   0.182   6.288  11.285
 5387SOL    HW217603   0.261   6.177  11.218
 5388SOL     OW17604   0.250   5.841  12.147
 5388SOL    HW117605   0.284   5.824  12.235
 5388SOL    HW217606   0.162   5.804  12.147
 5389SOL     OW17607   8.004   5.992  11.775
 5389SOL    HW117608   7.923   5.978  11.825
 5389SOL    HW217609   8.006   5.919  11.713
 5390SOL     OW17610   0.559   6.872  12.363
 5390SOL    HW117611   0.480   6.897  12.316
 5390SOL    HW217612   0.623   6.941  12.342
 5391SOL     OW17613   1.596   7.105  11.903
 5391SOL    HW117614   1.545   7.082  11.980
 5391SOL    HW217615   1.531   7.120  11.834
 5392SOL     OW17616   1.133   6.285  11.869
 5392SOL    HW117617   1.180   6.368  11.858
 5392SOL    HW217618   1.083   6.296  11.949
 5393SOL     OW17619   1.773   6.188  11.401
 5393SOL    HW117620   1.749   6.180  11.309
 5393SOL    HW217621   1.741   6.107  11.441
 5394SOL     OW17622   0.754   6.708  12.224
 5394SOL    HW117623   0.703   6.732  12.301
 5394SOL    HW217624   0.769   6.792  12.179
 5395SOL     OW17625   0.678   6.581  11.823
 5395SOL    HW117626   0.750   6.573  11.886
 5395SOL    HW217627   0.616   6.640  11.865
 5396SOL     OW17628   0.336   6.998  12.236
 5396SOL    HW117629   0.270   6.949  12.188
 5396SOL    HW217630   0.381   7.050  12.169
 5397SOL     OW17631   1.607   6.028  11.922
 5397SOL    HW117632   1.558   6.059  11.846
 5397SOL    HW217633   1.585   6.090  11.992
 5398SOL     OW17634   0.225   7.292  11.648
 5398SOL    HW117635   0.240   7.372  11.699
 5398SOL    HW217636   0.291   7.295  11.579
 5399SOL     OW17637   0.282   7.021  11.676
 5399SOL    HW117638   0.266   7.113  11.698
 5399SOL    HW217639   0.231   6.972  11.741
 5400SOL     OW17640   0.275   6.682  12.069
 5400SOL    HW117641   0.279   6.590  12.095
 5400SOL    HW217642   0.207   6.720  12.124
 5401SOL     OW17643   0.577   6.576  11.295
 5401SOL    HW117644   0.629   6.624  11.230
 5401SOL    HW217645   0.618   6.598  11.379
 5402SOL     OW17646   0.130   6.229  11.713
 5402SOL    HW117647   0.095   6.144  11.740
 5402SOL    HW217648   0.119   6.285  11.790
 5403SOL     OW17649   1.860   7.334  11.490
 5403SOL    HW117650   1.925   7.307  11.555
 5403SOL    HW217651   1.873   7.428  11.481
 5404SOL     OW17652   0.010   7.185  11.318
 5404SOL    HW117653   0.003   7.091  11.300
 5404SOL    HW217654  -0.004   7.192  11.412
 5405SOL     OW17655   1.704   6.512  11.835
 5405SOL    HW117656   1.778   6.461  11.803
 5405SOL    HW217657   1.673   6.560  11.759
 5406SOL     OW17658   1.644   6.681  11.614
 5406SOL    HW117659   1.726   6.684  11.565
 5406SOL    HW217660   1.654   6.750  11.680
 5407SOL     OW17661   0.117   6.395   0.331
 5407SOL    HW117662   0.128   6.327   0.397
 5407SOL    HW217663   0.201   6.400   0.286
 5408SOL     OW17664   0.609   6.987  11.900
 5408SOL    HW117665   0.566   6.902  11.908
 5408SOL    HW217666   0.599   7.010  11.808
 5409SOL     OW17667   0.823   5.598  11.678
 5409SOL    HW117668   0.862   5.682  11.656
 5409SOL    HW217669   0.729   5.616  11.685
 5410SOL     OW17670   0.161   6.601  12.395
 5410SOL    HW117671   0.246   6.557  12.393
 5410SOL    HW217672   0.107   6.546  12.453
 5411SOL     OW17673   1.552   6.589  11.359
 5411SOL    HW117674   1.488   6.519  11.348
 5411SOL    HW217675   1.561   6.600  11.453
 5412SOL     OW17676   1.459   7.003  12.126
 5412SOL    HW117677   1.395   7.011  12.197
 5412SOL    HW217678   1.445   6.916  12.090
 5413SOL     OW17679   1.640   7.355  11.735
 5413SOL    HW117680   1.575   7.316  11.677
 5413SOL    HW217681   1.650   7.292  11.806
 5414SOL     OW17682   0.591   6.298  11.428
 5414SOL    HW117683   0.659   6.366  11.424
 5414SOL    HW217684   0.547   6.313  11.512
 5415SOL     OW17685   1.293   5.965  12.131
 5415SOL    HW117686   1.198   5.952  12.127
 5415SOL    HW217687   1.326   5.885  12.172
 5416SOL     OW17688   1.580   7.361  11.434
 5416SOL    HW117689   1.670   7.343  11.462
 5416SOL    HW217690   1.550   7.279  11.395
 5417SOL     OW17691   0.959   5.939  12.388
 5417SOL    HW117692   0.982   6.005  12.453
 5417SOL    HW217693   0.864   5.950  12.375
 5418SOL     OW17694   1.050   6.280  11.600
 5418SOL    HW117695   1.075   6.275  11.692
 5418SOL    HW217696   0.970   6.228  11.594
 5419SOL     OW17697   0.098   6.368  11.947
 5419SOL    HW117698   0.183   6.375  11.991
 5419SOL    HW217699   0.041   6.428  11.995
 5420SOL     OW17700   0.030   7.329   0.293
 5420SOL    HW117701   0.099   7.341   0.358
 5420SOL    HW217702   0.037   7.406   0.237
 5421SOL     OW17703   0.904   5.937  11.366
 5421SOL    HW117704   0.942   6.001  11.306
 5421SOL    HW217705   0.925   5.852  11.327
 5422SOL     OW17706   1.380   6.728  11.716
 5422SOL    HW117707   1.458   6.711  11.664
 5422SOL    HW217708   1.329   6.789  11.664
 5423SOL     OW17709   0.626   5.742  12.066
 5423SOL    HW117710   0.598   5.756  12.157
 5423SOL    HW217711   0.595   5.819  12.019
 5424SOL     OW17712   0.996   7.024  11.631
 5424SOL    HW117713   0.970   7.102  11.583
 5424SOL    HW217714   1.026   7.057  11.716
 5425SOL     OW17715   0.358   7.407  12.042
 5425SOL    HW117716   0.410   7.328  12.052
 5425SOL    HW217717   0.418   7.479  12.063
 5426SOL     OW17718   1.795   6.644  12.071
 5426SOL    HW117719   1.773   6.616  11.982
 5426SOL    HW217720   1.713   6.676  12.107
 5427SOL     OW17721   0.320   6.517  11.389
 5427SOL    HW117722   0.404   6.563  11.387
 5427SOL    HW217723   0.331   6.449  11.455
 5428SOL     OW17724   1.483   6.345  11.899
 5428SOL    HW117725   1.483   6.294  11.980
 5428SOL    HW217726   1.566   6.392  11.900
 5429SOL     OW17727   1.129   7.374  11.379
 5429SOL    HW117728   1.059   7.337  11.434
 5429SOL    HW217729   1.158   7.300  11.325
 5430SOL     OW17730   1.627   6.966  11.251
 5430SOL    HW117731   1.582   7.050  11.247
 5430SOL    HW217732   1.557   6.901  11.239
 5431SOL     OW17733   0.455   7.330  11.483
 5431SOL    HW117734   0.506   7.374  11.552
 5431SOL    HW217735   0.521   7.289  11.428
 5432SOL     OW17736   1.402   5.694  11.610
 5432SOL    HW117737   1.400   5.667  11.518
 5432SOL    HW217738   1.493   5.682  11.637
 5433SOL     OW17739   0.222   7.379  12.405
 5433SOL    HW117740   0.264   7.302  12.442
 5433SOL    HW217741   0.220   7.361  12.311
 5434SOL     OW17742   0.959   7.279  12.077
 5434SOL    HW117743   1.045   7.239  12.066
 5434SOL    HW217744   0.905   7.240  12.009
 5435SOL     OW17745   0.398   6.296  11.640
 5435SOL    HW117746   0.420   6.203  11.651
 5435SOL    HW217747   0.308   6.303  11.670
 5436SOL     OW17748   0.649   5.706  11.279
 5436SOL    HW117749   0.698   5.630  11.309
 5436SOL    HW217750   0.595   5.674  11.207
 5437SOL     OW17751   0.796   6.950  12.108
 5437SOL    HW117752   0.887   6.958  12.079
 5437SOL    HW217753   0.744   6.972  12.031
 5438SOL     OW17754   0.932   6.109  12.063
 5438SOL    HW117755   0.907   6.096  11.972
 5438SOL    HW217756   0.949   6.021  12.096
 5439SOL     OW17757   0.555   5.653  11.668
 5439SOL    HW117758   0.474   5.650  11.719
 5439SOL    HW217759   0.545   5.729  11.611
 5440SOL     OW17760   1.427   6.781  11.208
 5440SOL    HW117761   1.463   6.710  11.261
 5440SOL    HW217762   1.338   6.792  11.241
 5441SOL     OW17763   0.275   5.637  11.350
 5441SOL    HW117764   0.335   5.703  11.316
 5441SOL    HW217765   0.331   5.576  11.399
 5442SOL     OW17766   0.948   5.839  11.626
 5442SOL    HW117767   0.925   5.877  11.541
 5442SOL    HW217768   1.042   5.852  11.634
 5443SOL     OW17769   1.204   7.171  11.999
 5443SOL    HW117770   1.207   7.237  11.929
 5443SOL    HW217771   1.296   7.150  12.015
 5444SOL     OW17772   0.473   6.750  11.901
 5444SOL    HW117773   0.412   6.728  11.972
 5444SOL    HW217774   0.423   6.736  11.821
 5445SOL     OW17775   1.231   7.397  11.834
 5445SOL    HW117776   1.282   7.337  11.779
 5445SOL    HW217777   1.236   7.481  11.788
 5446SOL     OW17778   1.025   6.125  11.200
 5446SOL    HW117779   0.986   6.212  11.188
 5446SOL    HW217780   1.089   6.138  11.271
 5447SOL     OW17781   0.578   5.758  12.326
 5447SOL    HW117782   0.627   5.809  12.390
 5447SOL    HW217783   0.487   5.766  12.354
 5448SOL     OW17784   0.864   6.043  11.807
 5448SOL    HW117785   0.821   6.094  11.739
 5448SOL    HW217786   0.893   5.963  11.763
 5449SOL     OW17787   0.981   5.633  11.922
 5449SOL    HW117788   0.953   5.631  11.830
 5449SOL    HW217789   1.009   5.543  11.940
 5450SOL     OW17790   1.441   6.747  12.022
 5450SOL    HW117791   1.374   6.679  12.016
 5450SOL    HW217792   1.467   6.764  11.932
 5451SOL     OW17793   1.468   6.188  12.134
 5451SOL    HW117794   1.412   6.110  12.142
 5451SOL    HW217795   1.531   6.179  12.206
 5452SOL     OW17796   1.844   6.396  11.559
 5452SOL    HW117797   1.899   6.344  11.618
 5452SOL    HW217798   1.812   6.333  11.495
 5453SOL     OW17799   0.477   7.028  11.321
 5453SOL    HW117800   0.407   6.978  11.363
 5453SOL    HW217801   0.442   7.048  11.234
 5454SOL     OW17802   1.685   6.853  11.817
 5454SOL    HW117803   1.779   6.853  11.834
 5454SOL    HW217804   1.658   6.943  11.836
 5455SOL     OW17805   1.387   6.138  11.229
 5455SOL    HW117806   1.324   6.128  11.300
 5455SOL    HW217807   1.465   6.092  11.259
 5456SOL     OW17808   0.524   5.849  11.479
 5456SOL    HW117809   0.577   5.801  11.415
 5456SOL    HW217810   0.500   5.930  11.434
 5457SOL     OW17811   1.096   6.809  12.279
 5457SOL    HW117812   1.008   6.797  12.315
 5457SOL    HW217813   1.081   6.844  12.191
 5458SOL     OW17814   1.597   6.727  12.257
 5458SOL    HW117815   1.537   6.712  12.330
 5458SOL    HW217816   1.540   6.739  12.181
 5459SOL     OW17817   0.681   6.625  11.549
 5459SOL    HW117818   0.680   6.619  11.645
 5459SOL    HW217819   0.759   6.577  11.523
 5460SOL     OW17820   1.241   5.958  12.463
 5460SOL    HW117821   1.297   6.035  12.469
 5460SOL    HW217822   1.177   5.980  12.396
 5461SOL     OW17823   0.340   6.698  11.665
 5461SOL    HW117824   0.343   6.768  11.600
 5461SOL    HW217825   0.405   6.635  11.635
 5462SOL     OW17826   0.550   6.110  12.032
 5462SOL    HW117827   0.569   6.171  11.961
 5462SOL    HW217828   0.608   6.136  12.103
 5463SOL     OW17829   1.244   6.921  11.556
 5463SOL    HW117830   1.296   6.994  11.589
 5463SOL    HW217831   1.154   6.941  11.584
 5464SOL     OW17832   1.278   7.004  12.349
 5464SOL    HW117833   1.336   6.960  12.411
 5464SOL    HW217834   1.212   6.937  12.328
 5465SOL     OW17835   1.566   6.200  11.667
 5465SOL    HW117836   1.514   6.254  11.727
 5465SOL    HW217837   1.595   6.261  11.599
 5466SOL     OW17838   0.345   7.145  12.468
 5466SOL    HW117839   0.344   7.089  12.390
 5466SOL    HW217840   0.394   7.095  12.533
 5467SOL     OW17841   0.588   6.459  12.202
 5467SOL    HW117842   0.621   6.547  12.218
 5467SOL    HW217843   0.532   6.440  12.277
 5468SOL     OW17844   1.337   6.433  12.189
 5468SOL    HW117845   1.251   6.416  12.152
 5468SOL    HW217846   1.385   6.351  12.177
 5469SOL     OW17847   1.192   6.110  11.427
 5469SOL    HW117848   1.206   6.034  11.484
 5469SOL    HW217849   1.161   6.179  11.485
 5470SOL     OW17850   0.319   5.777  12.403
 5470SOL    HW117851   0.300   5.808  12.492
 5470SOL    HW217852   0.294   5.684  12.404
 5471SOL     OW17853   0.052   6.873  12.469
 5471SOL    HW117854   0.126   6.814  12.457
 5471SOL    HW217855   0.093   6.959  12.483
 5472SOL     OW17856   0.723   6.218  12.220
 5472SOL    HW117857   0.794   6.210  12.156
 5472SOL    HW217858   0.688   6.306  12.205
 5473SOL     OW17859   0.309   5.652  11.787
 5473SOL    HW117860   0.283   5.741  11.813
 5473SOL    HW217861   0.317   5.604  11.869
 5474SOL     OW17862   1.629   5.971  11.525
 5474SOL    HW117863   1.661   5.901  11.582
 5474SOL    HW217864   1.601   6.040  11.585
 5475SOL     OW17865   1.032   6.351  12.142
 5475SOL    HW117866   1.014   6.367  12.235
 5475SOL    HW217867   1.002   6.261  12.127
 5476SOL     OW17868   1.517   5.871  11.295
 5476SOL    HW117869   1.466   5.794  11.323
 5476SOL    HW217870   1.560   5.901  11.375
 5477SOL     OW17871   1.367   6.416  11.233
 5477SOL    HW117872   1.375   6.322  11.218
 5477SOL    HW217873   1.341   6.452  11.149
 5478SOL     OW17874   1.063   6.929  12.036
 5478SOL    HW117875   1.071   6.859  11.971
 5478SOL    HW217876   1.116   7.000  12.001
 5479SOL     OW17877   0.322   6.409  12.102
 5479SOL    HW117878   0.417   6.423  12.102
 5479SOL    HW217879   0.306   6.351  12.176
 5480SOL     OW17880   0.308   6.110  12.158
 5480SOL    HW117881   0.292   6.015  12.158
 5480SOL    HW217882   0.393   6.120  12.114
 5481SOL     OW17883   1.156   5.804   0.158
 5481SOL    HW117884   1.165   5.859   0.236
 5481SOL    HW217885   1.191   5.857   0.087
 5482SOL     OW17886   7.981   6.900  11.380
 5482SOL    HW117887   7.888   6.916  11.400
 5482SOL    HW217888   7.987   6.805  11.369
 5483SOL     OW17889   0.095   7.334  12.055
 5483SOL    HW117890   0.101   7.243  12.084
 5483SOL    HW217891   0.186   7.364  12.051
 5484SOL     OW17892   0.496   7.169  12.076
 5484SOL    HW117893   0.568   7.226  12.103
 5484SOL    HW217894   0.537   7.107  12.015
 5485SOL     OW17895   0.966   6.395  12.413
 5485SOL    HW117896   1.024   6.408  12.488
 5485SOL    HW217897   0.895   6.340  12.447
 5486SOL     OW17898   0.082   6.179  12.293
 5486SOL    HW117899   0.172   6.173  12.262
 5486SOL    HW217900   0.080   6.126  12.372
 5487SOL     OW17901   0.815   6.139  11.541
 5487SOL    HW117902   0.836   6.068  11.480
 5487SOL    HW217903   0.742   6.186  11.499
 5488SOL     OW17904   1.657   6.190  12.334
 5488SOL    HW117905   1.657   6.137  12.414
 5488SOL    HW217906   1.747   6.185  12.302
 5489SOL     OW17907   0.694   6.019  12.405
 5489SOL    HW117908   0.624   6.043  12.466
 5489SOL    HW217909   0.698   6.092  12.343
 5490SOL     OW17910   0.970   7.246   0.025
 5490SOL    HW117911   0.917   7.233  -0.053
 5490SOL    HW217912   0.946   7.334   0.055
 5491SOL     OW17913   0.451   6.072  11.336
 5491SOL    HW117914   0.506   6.146  11.361
 5491SOL    HW217915   0.370   6.085  11.385
 5492SOL     OW17916   1.320   6.658  12.343
 5492SOL    HW117917   1.327   6.580  12.288
 5492SOL    HW217918   1.242   6.703  12.310
 5493SOL     OW17919   1.315   6.438  11.503
 5493SOL    HW117920   1.223   6.428  11.530
 5493SOL    HW217921   1.312   6.438  11.407
 5494SOL     OW17922   1.743   7.319  12.293
 5494SOL    HW117923   1.818   7.342  12.239
 5494SOL    HW217924   1.736   7.223  12.285
 5495SOL     OW17925   1.239   7.288  12.317
 5495SOL    HW117926   1.315   7.333  12.280
 5495SOL    HW217927   1.246   7.198  12.285
 5496SOL     OW17928   0.067   6.845  12.181
 5496SOL    HW117929   0.041   6.840  12.273
 5496SOL    HW217930   0.004   6.790  12.135
 5497SOL     OW17931   1.726   5.760  11.674
 5497SOL    HW117932   1.792   5.729  11.612
 5497SOL    HW217933   1.702   5.682  11.724
 5498SOL     OW17934   1.278   6.519  11.853
 5498SOL    HW117935   1.350   6.457  11.862
 5498SOL    HW217936   1.310   6.586  11.793
 5499SOL     OW17937   0.668   7.223  11.326
 5499SOL    HW117938   0.696   7.228  11.235
 5499SOL    HW217939   0.618   7.142  11.332
 5500SOL     OW17940   1.647   7.366   0.051
 5500SOL    HW117941   1.683   7.344  -0.035
 5500SOL    HW217942   1.664   7.460   0.061
 5501SOL     OW17943   1.847   5.756  12.139
 5501SOL    HW117944   1.879   5.668  12.118
 5501SOL    HW217945   1.759   5.759  12.101
 5502SOL     OW17946   0.261   5.906  11.876
 5502SOL    HW117947   0.176   5.948  11.862
 5502SOL    HW217948   0.266   5.894  11.970
 5503SOL     OW17949   1.207   7.171  11.211
 5503SOL    HW117950   1.198   7.081  11.242
 5503SOL    HW217951   1.135   7.182  11.150
 5504SOL     OW17952   0.800   6.626   0.021
 5504SOL    HW117953   0.838   6.575  -0.051
 5504SOL    HW217954   0.841   6.590   0.099
 5505SOL     OW17955   0.882   6.468  11.470
 5505SOL    HW117956   0.932   6.519  11.406
 5505SOL    HW217957   0.947   6.413  11.514
 5506SOL     OW17958   1.485   7.200  11.213
 5506SOL    HW117959   1.390   7.196  11.207
 5506SOL    HW217960   1.514   7.226  11.126
 5507SOL     OW17961   1.065   6.701  11.891
 5507SOL    HW117962   0.992   6.648  11.923
 5507SOL    HW217963   1.130   6.637  11.863
 5508SOL     OW17964   1.001   5.842  12.108
 5508SOL    HW117965   1.037   5.781  12.043
 5508SOL    HW217966   1.035   5.810  12.192
 5509SOL     OW17967   0.608   7.067  11.642
 5509SOL    HW117968   0.666   7.020  11.582
 5509SOL    HW217969   0.529   7.085  11.590
 5510SOL     OW17970   1.755   6.028   0.036
 5510SOL    HW117971   1.836   5.997  -0.006
 5510SOL    HW217972   1.700   5.951   0.042
 5511SOL     OW17973   0.249   6.912  11.435
 5511SOL    HW117974   0.155   6.921  11.422
 5511SOL    HW217975   0.266   6.956  11.519
 5512SOL     OW17976   0.114   5.953  11.194
 5512SOL    HW117977   0.039   5.989  11.240
 5512SOL    HW217978   0.121   6.006  11.114
 5513SOL     OW17979   0.102   5.830  11.526
 5513SOL    HW117980   0.055   5.815  11.444
 5513SOL    HW217981   0.179   5.772  11.521
 5514SOL     OW17982   1.170   6.898  11.285
 5514SOL    HW117983   1.120   6.816  11.281
 5514SOL    HW217984   1.197   6.904  11.377
 5515SOL     OW17985   1.475   7.363  12.186
 5515SOL    HW117986   1.484   7.414  12.105
 5515SOL    HW217987   1.564   7.355  12.220
 5516SOL     OW17988   1.644   6.460  12.376
 5516SOL    HW117989   1.653   6.365  12.375
 5516SOL    HW217990   1.589   6.480  12.300
 5517SOL     OW17991   1.218   5.906  11.626
 5517SOL    HW117992   1.282   5.835  11.619
 5517SOL    HW217993   1.244   5.954  11.705
 5518SOL     OW17994   0.596   6.313  11.846
 5518SOL    HW117995   0.633   6.401  11.842
 5518SOL    HW217996   0.525   6.313  11.782
 5519SOL     OW17997   1.818   6.559   0.063
 5519SOL    HW117998   1.804   6.564   0.158
 5519SOL    HW217999   1.747   6.503   0.032
 5520SOL     OW18000   0.816   6.973  11.213
 5520SOL    HW118001   0.813   6.961  11.308
 5520SOL    HW218002   0.891   7.031  11.199
 5521SOL     OW18003   0.665   7.389  12.122
 5521SOL    HW118004   0.648   7.476  12.087
 5521SOL    HW218005   0.758   7.373  12.103
 5522SOL     OW18006   0.871   6.554  12.023
 5522SOL    HW118007   0.921   6.483  12.062
 5522SOL    HW218008   0.830   6.599  12.097
 5523SOL     OW18009   1.842   7.134  12.029
 5523SOL    HW118010   1.770   7.128  11.967
 5523SOL    HW218011   1.810   7.090  12.107
 5524SOL     OW18012   0.126   6.848  11.816
 5524SOL    HW118013   0.052   6.813  11.866
 5524SOL    HW218014   0.186   6.775  11.807
 5525SOL     OW18015   1.824   5.760  12.418
 5525SOL    HW118016   1.832   5.665  12.416
 5525SOL    HW218017   1.825   5.786  12.326
 5526SOL     OW18018   0.430   6.031  11.687
 5526SOL    HW118019   0.469   5.957  11.641
 5526SOL    HW218020   0.384   5.992  11.761
 5527SOL     OW18021   1.705   7.048  12.252
 5527SOL    HW118022   1.623   7.028  12.207
 5527SOL    HW218023   1.687   7.029  12.344
 5528SOL     OW18024   0.819   7.189  11.864
 5528SOL    HW118025   0.814   7.249  11.790
 5528SOL    HW218026   0.753   7.122  11.846
 5529SOL     OW18027   0.991   5.609  12.289
 5529SOL    HW118028   1.039   5.528  12.271
 5529SOL    HW218029   1.050   5.660  12.345
 5530SOL     OW18030   0.781   6.915  11.490
 5530SOL    HW118031   0.766   6.820  11.496
 5530SOL    HW218032   0.862   6.929  11.540
 5531SOL     OW18033   1.370   5.635  11.344
 5531SOL    HW118034   1.412   5.558  11.305
 5531SOL    HW218035   1.279   5.608  11.358
 5532SOL     OW18036   1.282   6.043  11.854
 5532SOL    HW118037   1.234   6.126  11.860
 5532SOL    HW218038   1.295   6.017  11.945
 5533SOL     OW18039   1.593   5.762  12.045
 5533SOL    HW118040   1.518   5.753  12.105
 5533SOL    HW218041   1.578   5.846  12.002
 5534SOL     OW18042   0.039   6.615  11.447
 5534SOL    HW118043   0.130   6.610  11.416
 5534SOL    HW218044   0.046   6.633  11.540
 5535SOL     OW18045   0.896   7.247  11.503
 5535SOL    HW118046   0.819   7.234  11.447
 5535SOL    HW218047   0.869   7.315  11.565
 5536SOL     OW18048   7.977   7.815   0.602
 5536SOL    HW118049   7.922   7.883   0.642
 5536SOL    HW218050   7.953   7.815   0.510
 5537SOL     OW18051   1.627   8.027   0.219
 5537SOL    HW118052   1.671   7.979   0.149
 5537SOL    HW218053   1.628   7.967   0.293
 5538SOL     OW18054   0.469   7.853   1.534
 5538SOL    HW118055   0.545   7.805   1.501
 5538SOL    HW218056   0.396   7.792   1.523
 5539SOL     OW18057   1.583   7.947   0.704
 5539SOL    HW118058   1.491   7.934   0.680
 5539SOL    HW218059   1.580   7.972   0.796
 5540SOL     OW18060   1.604   7.572   1.460
 5540SOL    HW118061   1.569   7.654   1.424
 5540SOL    HW218062   1.582   7.576   1.553
 5541SOL     OW18063   0.093   0.094   0.535
 5541SOL    HW118064   0.121   0.022   0.591
 5541SOL    HW218065   0.084   0.168   0.594
 5542SOL     OW18066   0.813   7.446   0.490
 5542SOL    HW118067   0.860   7.529   0.478
 5542SOL    HW218068   0.722   7.471   0.505
 5543SOL     OW18069   0.329   7.701   1.788
 5543SOL    HW118070   0.386   7.779   1.793
 5543SOL    HW218071   0.242   7.733   1.813
 5544SOL     OW18072   1.289   7.783   0.920
 5544SOL    HW118073   1.195   7.772   0.934
 5544SOL    HW218074   1.330   7.728   0.987
 5545SOL     OW18075   1.412   7.933   1.700
 5545SOL    HW118076   1.384   7.957   1.789
 5545SOL    HW218077   1.453   7.847   1.710
 5546SOL     OW18078   0.973   0.366   1.546
 5546SOL    HW118079   0.944   0.296   1.488
 5546SOL    HW218080   0.904   0.432   1.539
 5547SOL     OW18081   1.031   7.779   1.262
 5547SOL    HW118082   0.995   7.868   1.255
 5547SOL    HW218083   1.014   7.738   1.178
 5548SOL     OW18084   0.869   7.787   0.194
 5548SOL    HW118085   0.926   7.795   0.118
 5548SOL    HW218086   0.862   7.692   0.208
 5549SOL     OW18087   1.777   0.012   1.813
 5549SOL    HW118088   1.732   0.085   1.769
 5549SOL    HW218089   1.768  -0.061   1.752
 5550SOL     OW18090   0.475   7.666   0.932
 5550SOL    HW118091   0.524   7.663   1.014
 5550SOL    HW218092   0.517   7.735   0.881
 5551SOL     OW18093   0.194   7.718   1.503
 5551SOL    HW118094   0.192   7.797   1.558
 5551SOL    HW218095   0.190   7.646   1.566
 5552SOL     OW18096   1.422   7.554   0.436
 5552SOL    HW118097   1.416   7.503   0.356
 5552SOL    HW218098   1.512   7.542   0.466
 5553SOL     OW18099   1.517   7.665   1.732
 5553SOL    HW118100   1.522   7.688   1.825
 5553SOL    HW218101   1.466   7.584   1.731
 5554SOL     OW18102   0.641   7.569   0.119
 5554SOL    HW118103   0.729   7.532   0.119
 5554SOL    HW218104   0.628   7.602   0.031
 5555SOL     OW18105   0.763   7.727   1.759
 5555SOL    HW118106   0.844   7.678   1.753
 5555SOL    HW218107   0.717   7.689   1.833
 5556SOL     OW18108   1.395   0.031   1.439
 5556SOL    HW118109   1.402  -0.016   1.522
 5556SOL    HW218110   1.324   0.094   1.452
 5557SOL     OW18111   0.550   7.517   0.495
 5557SOL    HW118112   0.473   7.518   0.551
 5557SOL    HW218113   0.544   7.598   0.445
 5558SOL     OW18114   0.308   7.528   0.203
 5558SOL    HW118115   0.381   7.590   0.192
 5558SOL    HW218116   0.350   7.447   0.231
 5559SOL     OW18117   0.951   7.675   0.463
 5559SOL    HW118118   0.908   7.760   0.453
 5559SOL    HW218119   1.045   7.695   0.461
 5560SOL     OW18120   0.124   0.021   1.370
 5560SOL    HW118121   0.163  -0.031   1.441
 5560SOL    HW218122   0.094   0.101   1.413
 5561SOL     OW18123   0.573   7.653   1.185
 5561SOL    HW118124   0.613   7.584   1.238
 5561SOL    HW218125   0.484   7.661   1.220
 5562SOL     OW18126   1.040   7.502   0.731
 5562SOL    HW118127   0.972   7.527   0.668
 5562SOL    HW218128   1.007   7.422   0.772
 5563SOL     OW18129   1.496   7.964   0.973
 5563SOL    HW118130   1.420   7.907   0.962
 5563SOL    HW218131   1.467   8.033   1.032
 5564SOL     OW18132   0.531   7.724   0.319
 5564SOL    HW118133   0.578   7.681   0.247
 5564SOL    HW218134   0.552   7.817   0.309
 5565SOL     OW18135   0.916   7.525   1.418
 5565SOL    HW118136   0.949   7.523   1.328
 5565SOL    HW218137   0.995   7.532   1.472
 5566SOL     OW18138   1.303   7.863   1.230
 5566SOL    HW118139   1.328   7.920   1.304
 5566SOL    HW218140   1.211   7.842   1.247
 5567SOL     OW18141   0.567   7.942   0.862
 5567SOL    HW118142   0.562   8.012   0.797
 5567SOL    HW218143   0.643   7.964   0.916
 5568SOL     OW18144   0.995   7.596   1.752
 5568SOL    HW118145   1.065   7.659   1.731
 5568SOL    HW218146   1.032   7.511   1.728
 5569SOL     OW18147   0.509   7.497   1.745
 5569SOL    HW118148   0.472   7.430   1.688
 5569SOL    HW218149   0.441   7.565   1.750
 5570SOL     OW18150   0.294   7.654   1.240
 5570SOL    HW118151   0.263   7.685   1.325
 5570SOL    HW218152   0.294   7.559   1.247
 5571SOL     OW18153   0.768   0.076   1.014
 5571SOL    HW118154   0.837   0.126   0.971
 5571SOL    HW218155   0.707   0.141   1.047
 5572SOL     OW18156   0.309   7.513   0.629
 5572SOL    HW118157   0.304   7.608   0.628
 5572SOL    HW218158   0.316   7.490   0.722
 5573SOL     OW18159   1.610   7.823   0.399
 5573SOL    HW118160   1.655   7.745   0.429
 5573SOL    HW218161   1.542   7.838   0.464
 5574SOL     OW18162   1.490   7.691   0.110
 5574SOL    HW118163   1.477   7.648   0.195
 5574SOL    HW218164   1.549   7.764   0.129
 5575SOL     OW18165   0.329   7.918   1.023
 5575SOL    HW118166   0.379   7.898   0.944
 5575SOL    HW218167   0.385   7.980   1.071
 5576SOL     OW18168   1.148   7.831   1.676
 5576SOL    HW118169   1.100   7.909   1.705
 5576SOL    HW218170   1.240   7.858   1.675
 5577SOL     OW18171   1.188   7.669   1.455
 5577SOL    HW118172   1.167   7.718   1.534
 5577SOL    HW218173   1.127   7.702   1.389
 5578SOL     OW18174   0.073   7.964   1.114
 5578SOL    HW118175   0.166   7.960   1.092
 5578SOL    HW218176   0.071   7.980   1.209
 5579SOL     OW18177   0.196   7.966   1.627
 5579SOL    HW118178   0.261   8.009   1.682
 5579SOL    HW218179   0.114   8.011   1.648
 5580SOL     OW18180   0.803   0.031   0.273
 5580SOL    HW118181   0.824  -0.060   0.254
 5580SOL    HW218182   0.797   0.035   0.368
 5581SOL     OW18183   1.660   0.043   1.197
 5581SOL    HW118184   1.650  -0.019   1.269
 5581SOL    HW218185   1.645  -0.010   1.118
 5582SOL     OW18186   0.629   7.940   1.220
 5582SOL    HW118187   0.628   7.845   1.232
 5582SOL    HW218188   0.697   7.955   1.154
 5583SOL     OW18189   0.922   7.508   0.114
 5583SOL    HW118190   0.956   7.546   0.033
 5583SOL    HW218191   0.989   7.526   0.180
 5584SOL     OW18192   1.724   7.596   0.507
 5584SOL    HW118193   1.795   7.577   0.447
 5584SOL    HW218194   1.705   7.513   0.550
 5585SOL     OW18195   1.855   7.620   0.954
 5585SOL    HW118196   1.875   7.528   0.936
 5585SOL    HW218197   1.765   7.631   0.925
 5586SOL     OW18198   0.224   7.778   0.786
 5586SOL    HW118199   0.249   7.780   0.694
 5586SOL    HW218200   0.155   7.844   0.795
 5587SOL     OW18201   1.037   7.670   0.975
 5587SOL    HW118202   1.035   7.628   0.889
 5587SOL    HW218203   1.028   7.598   1.037
 5588SOL     OW18204   1.722   7.844   1.379
 5588SOL    HW118205   1.797   7.902   1.392
 5588SOL    HW218206   1.757   7.769   1.330
 5589SOL     OW18207   0.687   7.669   1.493
 5589SOL    HW118208   0.770   7.632   1.462
 5589SOL    HW218209   0.703   7.688   1.586
 5590SOL     OW18210   0.105   7.781   0.015
 5590SOL    HW118211   0.037   7.805  -0.048
 5590SOL    HW218212   0.137   7.865   0.048
 5591SOL     OW18213   0.104   7.627   0.353
 5591SOL    HW118214   0.121   7.721   0.365
 5591SOL    HW218215   0.183   7.594   0.312
 5592SOL     OW18216   0.782   8.006   1.724
 5592SOL    HW118217   0.688   8.021   1.719
 5592SOL    HW218218   0.791   7.911   1.730
 5593SOL     OW18219   1.221   7.744   0.443
 5593SOL    HW118220   1.292   7.680   0.446
 5593SOL    HW218221   1.241   7.805   0.515
 5594SOL     OW18222   0.630   0.215   0.641
 5594SOL    HW118223   0.672   0.299   0.622
 5594SOL    HW218224   0.584   0.229   0.723
 5595SOL     OW18225   1.743   7.802   1.651
 5595SOL    HW118226   1.731   7.807   1.556
 5595SOL    HW218227   1.676   7.741   1.680
 5596SOL     OW18228   1.838   7.652   1.227
 5596SOL    HW118229   1.816   7.567   1.265
 5596SOL    HW218230   1.836   7.638   1.132
 5597SOL     OW18231   0.348   7.781   0.535
 5597SOL    HW118232   0.400   7.771   0.455
 5597SOL    HW218233   0.362   7.873   0.561
 5598SOL     OW18234   1.432   7.654   1.118
 5598SOL    HW118235   1.411   7.575   1.168
 5598SOL    HW218236   1.394   7.725   1.170
 5599SOL     OW18237   1.018   7.468   1.154
 5599SOL    HW118238   0.957   7.395   1.149
 5599SOL    HW218239   1.104   7.428   1.144
 5600SOL     OW18240   1.367   7.447   0.188
 5600SOL    HW118241   1.352   7.511   0.118
 5600SOL    HW218242   1.282   7.408   0.203
 5601SOL     OW18243   1.307   7.895   0.671
 5601SOL    HW118244   1.230   7.952   0.673
 5601SOL    HW218245   1.304   7.847   0.754
 5602SOL     OW18246   1.591   7.650   0.897
 5602SOL    HW118247   1.540   7.651   0.978
 5602SOL    HW218248   1.555   7.722   0.845
 5603SOL     OW18249   0.229   7.714   2.862
 5603SOL    HW118250   0.287   7.682   2.931
 5603SOL    HW218251   0.141   7.696   2.894
 5604SOL     OW18252   8.008   7.813   2.450
 5604SOL    HW118253   7.918   7.807   2.482
 5604SOL    HW218254   8.008   7.765   2.367
 5605SOL     OW18255   1.616   0.025   2.040
 5605SOL    HW118256   1.686   0.015   1.975
 5605SOL    HW218257   1.650  -0.018   2.118
 5606SOL     OW18258   0.459   7.846   3.398
 5606SOL    HW118259   0.522   7.779   3.371
 5606SOL    HW218260   0.374   7.809   3.377
 5607SOL     OW18261   1.598   7.921   2.560
 5607SOL    HW118262   1.507   7.912   2.531
 5607SOL    HW218263   1.592   7.966   2.645
 5608SOL     OW18264   1.587   7.584   3.314
 5608SOL    HW118265   1.636   7.658   3.277
 5608SOL    HW218266   1.558   7.616   3.400
 5609SOL     OW18267   0.103   0.078   2.418
 5609SOL    HW118268   0.063  -0.009   2.419
 5609SOL    HW218269   0.064   0.124   2.492
 5610SOL     OW18270   0.828   7.453   2.386
 5610SOL    HW118271   0.869   7.535   2.358
 5610SOL    HW218272   0.734   7.471   2.385
 5611SOL     OW18273   0.364   7.732   3.683
 5611SOL    HW118274   0.392   7.823   3.681
 5611SOL    HW218275   0.268   7.736   3.682
 5612SOL     OW18276   1.249   7.812   2.900
 5612SOL    HW118277   1.173   7.766   2.863
 5612SOL    HW218278   1.310   7.741   2.923
 5613SOL     OW18279   1.411   7.932   3.558
 5613SOL    HW118280   1.411   7.958   3.650
 5613SOL    HW218281   1.461   7.851   3.555
 5614SOL     OW18282   0.955   0.387   3.386
 5614SOL    HW118283   0.954   0.315   3.323
 5614SOL    HW218284   0.864   0.395   3.415
 5615SOL     OW18285   1.017   7.803   3.133
 5615SOL    HW118286   0.929   7.836   3.152
 5615SOL    HW218287   1.004   7.735   3.067
 5616SOL     OW18288   0.901   7.776   2.053
 5616SOL    HW118289   0.950   7.794   1.973
 5616SOL    HW218290   0.895   7.681   2.056
 5617SOL     OW18291   1.710   0.011   3.686
 5617SOL    HW118292   1.717   0.090   3.633
 5617SOL    HW218293   1.737  -0.060   3.626
 5618SOL     OW18294   0.548   7.652   2.750
 5618SOL    HW118295   0.560   7.663   2.844
 5618SOL    HW218296   0.555   7.741   2.715
 5619SOL     OW18297   0.199   7.720   3.349
 5619SOL    HW118298   0.121   7.775   3.340
 5619SOL    HW218299   0.171   7.648   3.405
 5620SOL     OW18300   1.399   7.545   2.298
 5620SOL    HW118301   1.385   7.518   2.207
 5620SOL    HW218302   1.488   7.518   2.318
 5621SOL     OW18303   1.512   7.667   3.580
 5621SOL    HW118304   1.512   7.689   3.673
 5621SOL    HW218305   1.445   7.598   3.572
 5622SOL     OW18306   0.640   7.569   1.971
 5622SOL    HW118307   0.671   7.490   2.014
 5622SOL    HW218308   0.593   7.538   1.893
 5623SOL     OW18309   1.327   7.971   3.279
 5623SOL    HW118310   1.381   7.949   3.354
 5623SOL    HW218311   1.288   8.056   3.301
 5624SOL     OW18312   0.565   7.517   2.358
 5624SOL    HW118313   0.484   7.500   2.404
 5624SOL    HW218314   0.546   7.592   2.302
 5625SOL     OW18315   0.281   7.500   2.026
 5625SOL    HW118316   0.341   7.568   1.996
 5625SOL    HW218317   0.335   7.442   2.079
 5626SOL     OW18318   0.952   7.685   2.319
 5626SOL    HW118319   0.926   7.744   2.248
 5626SOL    HW218320   1.045   7.703   2.332
 5627SOL     OW18321   0.119   0.020   3.242
 5627SOL    HW118322   0.173   0.009   3.320
 5627SOL    HW218323   0.030   0.030   3.276
 5628SOL     OW18324   0.580   7.661   3.024
 5628SOL    HW118325   0.602   7.569   3.014
 5628SOL    HW218326   0.492   7.662   3.061
 5629SOL     OW18327   1.017   7.497   2.600
 5629SOL    HW118328   0.957   7.491   2.525
 5629SOL    HW218329   0.993   7.423   2.656
 5630SOL     OW18330   1.478   7.944   2.815
 5630SOL    HW118331   1.398   7.910   2.855
 5630SOL    HW218332   1.523   7.989   2.886
 5631SOL     OW18333   0.512   7.723   2.183
 5631SOL    HW118334   0.564   7.689   2.110
 5631SOL    HW218335   0.544   7.813   2.194
 5632SOL     OW18336   0.908   7.528   3.257
 5632SOL    HW118337   0.933   7.506   3.167
 5632SOL    HW218338   0.990   7.556   3.298
 5633SOL     OW18339   0.551   7.934   2.709
 5633SOL    HW118340   0.516   8.003   2.652
 5633SOL    HW218341   0.620   7.977   2.759
 5634SOL     OW18342   1.002   7.573   3.596
 5634SOL    HW118343   1.056   7.651   3.588
 5634SOL    HW218344   1.059   7.501   3.568
 5635SOL     OW18345   0.513   7.531   3.582
 5635SOL    HW118346   0.456   7.464   3.543
 5635SOL    HW218347   0.452   7.599   3.613
 5636SOL     OW18348   0.329   7.639   3.116
 5636SOL    HW118349   0.279   7.674   3.190
 5636SOL    HW218350   0.302   7.547   3.111
 5637SOL     OW18351   0.751   0.076   2.890
 5637SOL    HW118352   0.776   0.117   2.807
 5637SOL    HW218353   0.687   0.136   2.928
 5638SOL     OW18354   0.313   7.497   2.462
 5638SOL    HW118355   0.315   7.592   2.478
 5638SOL    HW218356   0.318   7.458   2.549
 5639SOL     OW18357   1.609   7.820   2.247
 5639SOL    HW118358   1.655   7.740   2.271
 5639SOL    HW218359   1.601   7.868   2.330
 5640SOL     OW18360   1.495   7.733   1.994
 5640SOL    HW118361   1.448   7.653   2.016
 5640SOL    HW218362   1.538   7.759   2.076
 5641SOL     OW18363   0.340   7.960   2.895
 5641SOL    HW118364   0.304   7.872   2.886
 5641SOL    HW218365   0.412   7.964   2.833
 5642SOL     OW18366   1.153   7.821   3.542
 5642SOL    HW118367   1.099   7.897   3.562
 5642SOL    HW218368   1.242   7.855   3.541
 5643SOL     OW18369   1.150   7.655   3.322
 5643SOL    HW118370   1.155   7.710   3.401
 5643SOL    HW218371   1.108   7.711   3.257
 5644SOL     OW18372   0.073   0.005   2.966
 5644SOL    HW118373   0.168  -0.009   2.963
 5644SOL    HW218374   0.054   0.015   3.059
 5645SOL     OW18375   0.212   8.002   3.499
 5645SOL    HW118376   0.207   7.913   3.533
 5645SOL    HW218377   0.137   8.048   3.538
 5646SOL     OW18378   0.784   8.012   2.126
 5646SOL    HW118379   0.826   7.930   2.103
 5646SOL    HW218380   0.790   8.017   2.222
 5647SOL     OW18381   1.620   8.020   3.051
 5647SOL    HW118382   1.607   8.006   3.145
 5647SOL    HW218383   1.698   7.968   3.030
 5648SOL     OW18384   0.754   7.875   3.089
 5648SOL    HW118385   0.690   7.804   3.080
 5648SOL    HW218386   0.727   7.941   3.025
 5649SOL     OW18387   1.739   7.608   2.368
 5649SOL    HW118388   1.802   7.581   2.302
 5649SOL    HW218389   1.712   7.527   2.411
 5650SOL     OW18390   1.878   7.635   2.825
 5650SOL    HW118391   1.899   7.544   2.804
 5650SOL    HW218392   1.792   7.650   2.785
 5651SOL     OW18393   1.033   7.666   2.824
 5651SOL    HW118394   1.026   7.626   2.738
 5651SOL    HW218395   1.015   7.596   2.886
 5652SOL     OW18396   1.754   7.818   3.257
 5652SOL    HW118397   1.814   7.891   3.244
 5652SOL    HW218398   1.780   7.753   3.191
 5653SOL     OW18399   0.726   7.640   3.438
 5653SOL    HW118400   0.779   7.603   3.367
 5653SOL    HW218401   0.650   7.581   3.443
 5654SOL     OW18402   0.093   7.817   1.863
 5654SOL    HW118403   0.041   7.769   1.928
 5654SOL    HW218404   0.075   7.909   1.882
 5655SOL     OW18405   0.077   7.663   2.223
 5655SOL    HW118406   0.044   7.639   2.136
 5655SOL    HW218407   0.164   7.625   2.227
 5656SOL     OW18408   0.773   0.033   3.571
 5656SOL    HW118409   0.678   0.037   3.576
 5656SOL    HW218410   0.794  -0.061   3.573
 5657SOL     OW18411   1.220   7.757   2.334
 5657SOL    HW118412   1.281   7.686   2.317
 5657SOL    HW218413   1.258   7.805   2.407
 5658SOL     OW18414   0.639   0.224   2.496
 5658SOL    HW118415   0.676   0.312   2.489
 5658SOL    HW218416   0.591   0.225   2.579
 5659SOL     OW18417   1.752   7.791   3.528
 5659SOL    HW118418   1.752   7.807   3.434
 5659SOL    HW218419   1.674   7.738   3.543
 5660SOL     OW18420   1.813   7.613   3.091
 5660SOL    HW118421   1.809   7.517   3.094
 5660SOL    HW218422   1.835   7.633   3.000
 5661SOL     OW18423   0.342   7.771   2.479
 5661SOL    HW118424   0.354   7.783   2.385
 5661SOL    HW218425   0.415   7.820   2.518
 5662SOL     OW18426   1.427   7.629   2.983
 5662SOL    HW118427   1.448   7.545   2.942
 5662SOL    HW218428   1.433   7.611   3.077
 5663SOL     OW18429   1.005   7.458   3.006
 5663SOL    HW118430   0.946   7.392   2.969
 5663SOL    HW218431   1.091   7.416   3.007
 5664SOL     OW18432   1.363   7.489   2.028
 5664SOL    HW118433   1.405   7.411   1.991
 5664SOL    HW218434   1.272   7.462   2.042
 5665SOL     OW18435   1.320   7.910   2.549
 5665SOL    HW118436   1.278   7.995   2.535
 5665SOL    HW218437   1.326   7.902   2.644
 5666SOL     OW18438   1.619   7.678   2.743
 5666SOL    HW118439   1.552   7.694   2.809
 5666SOL    HW218440   1.601   7.743   2.674
 5667SOL     OW18441   0.257   7.715   4.721
 5667SOL    HW118442   0.265   7.686   4.811
 5667SOL    HW218443   0.173   7.680   4.692
 5668SOL     OW18444   7.985   7.786   4.303
 5668SOL    HW118445   7.926   7.860   4.319
 5668SOL    HW218446   7.947   7.714   4.353
 5669SOL     OW18447   1.681  -0.014   3.957
 5669SOL    HW118448   1.686  -0.013   3.861
 5669SOL    HW218449   1.754   0.040   3.986
 5670SOL     OW18450   0.458   7.826   5.273
 5670SOL    HW118451   0.519   7.767   5.229
 5670SOL    HW218452   0.371   7.800   5.240
 5671SOL     OW18453   1.595   7.936   4.426
 5671SOL    HW118454   1.507   7.930   4.390
 5671SOL    HW218455   1.582   7.962   4.518
 5672SOL     OW18456   1.609   7.583   5.188
 5672SOL    HW118457   1.633   7.670   5.157
 5672SOL    HW218458   1.569   7.598   5.274
 5673SOL     OW18459   0.116   0.075   4.261
 5673SOL    HW118460   0.027   0.067   4.294
 5673SOL    HW218461   0.152   0.151   4.306
 5674SOL     OW18462   0.828   7.470   4.262
 5674SOL    HW118463   0.858   7.545   4.211
 5674SOL    HW218464   0.733   7.479   4.265
 5675SOL     OW18465   0.337   7.714   5.540
 5675SOL    HW118466   0.368   7.792   5.495
 5675SOL    HW218467   0.245   7.733   5.561
 5676SOL     OW18468   1.279   7.787   4.655
 5676SOL    HW118469   1.187   7.758   4.663
 5676SOL    HW218470   1.326   7.732   4.719
 5677SOL     OW18471   1.406   7.929   5.413
 5677SOL    HW118472   1.400   7.965   5.501
 5677SOL    HW218473   1.455   7.848   5.423
 5678SOL     OW18474   0.935   0.392   5.214
 5678SOL    HW118475   0.937   0.300   5.188
 5678SOL    HW218476   0.851   0.402   5.258
 5679SOL     OW18477   1.003   7.821   4.971
 5679SOL    HW118478   0.922   7.847   5.013
 5679SOL    HW218479   0.977   7.756   4.905
 5680SOL     OW18480   0.857   7.755   3.833
 5680SOL    HW118481   0.844   7.844   3.865
 5680SOL    HW218482   0.885   7.706   3.911
 5681SOL     OW18483   1.722   0.012   5.586
 5681SOL    HW118484   1.677   0.081   5.538
 5681SOL    HW218485   1.737  -0.057   5.521
 5682SOL     OW18486   0.573   7.631   4.628
 5682SOL    HW118487   0.562   7.651   4.721
 5682SOL    HW218488   0.578   7.716   4.585
 5683SOL     OW18489   0.166   7.728   5.228
 5683SOL    HW118490   0.076   7.762   5.225
 5683SOL    HW218491   0.158   7.646   5.277
 5684SOL     OW18492   1.509   7.664   5.446
 5684SOL    HW118493   1.510   7.685   5.539
 5684SOL    HW218494   1.435   7.604   5.436
 5685SOL     OW18495   0.634   7.528   3.839
 5685SOL    HW118496   0.651   7.442   3.878
 5685SOL    HW218497   0.557   7.515   3.784
 5686SOL     OW18498   0.778   7.722   5.482
 5686SOL    HW118499   0.857   7.668   5.475
 5686SOL    HW218500   0.722   7.674   5.543
 5687SOL     OW18501   1.355   0.007   5.149
 5687SOL    HW118502   1.384  -0.015   5.238
 5687SOL    HW218503   1.296   0.082   5.161
 5688SOL     OW18504   0.560   7.516   4.230
 5688SOL    HW118505   0.479   7.517   4.282
 5688SOL    HW218506   0.550   7.590   4.169
 5689SOL     OW18507   0.299   7.488   3.878
 5689SOL    HW118508   0.325   7.576   3.904
 5689SOL    HW218509   0.344   7.431   3.940
 5690SOL     OW18510   0.938   7.712   4.147
 5690SOL    HW118511   0.898   7.778   4.203
 5690SOL    HW218512   1.032   7.726   4.156
 5691SOL     OW18513   0.113   0.023   5.111
 5691SOL    HW118514   0.180  -0.012   5.171
 5691SOL    HW218515   0.040   0.046   5.168
 5692SOL     OW18516   0.557   7.666   4.904
 5692SOL    HW118517   0.591   7.596   4.960
 5692SOL    HW218518   0.465   7.674   4.928
 5693SOL     OW18519   1.032   7.480   4.454
 5693SOL    HW118520   0.962   7.480   4.389
 5693SOL    HW218521   1.007   7.414   4.517
 5694SOL     OW18522   1.508   7.944   4.685
 5694SOL    HW118523   1.418   7.914   4.687
 5694SOL    HW218524   1.512   8.012   4.752
 5695SOL     OW18525   0.526   7.709   4.044
 5695SOL    HW118526   0.571   7.682   3.963
 5695SOL    HW218527   0.525   7.805   4.039
 5696SOL     OW18528   0.925   7.537   5.120
 5696SOL    HW118529   0.947   7.519   5.028
 5696SOL    HW218530   1.004   7.577   5.156
 5697SOL     OW18531   1.273   7.806   4.994
 5697SOL    HW118532   1.305   7.882   5.042
 5697SOL    HW218533   1.180   7.822   4.981
 5698SOL     OW18534   0.595   7.914   4.561
 5698SOL    HW118535   0.549   7.978   4.507
 5698SOL    HW218536   0.620   7.962   4.640
 5699SOL     OW18537   1.011   7.586   5.474
 5699SOL    HW118538   1.071   7.658   5.455
 5699SOL    HW218539   1.063   7.507   5.460
 5700SOL     OW18540   0.504   7.511   5.465
 5700SOL    HW118541   0.461   7.451   5.404
 5700SOL    HW218542   0.439   7.580   5.481
 5701SOL     OW18543   0.298   7.648   4.989
 5701SOL    HW118544   0.248   7.683   5.063
 5701SOL    HW218545   0.278   7.554   4.990
 5702SOL     OW18546   0.738   0.086   4.765
 5702SOL    HW118547   0.732   0.134   4.682
 5702SOL    HW218548   0.679   0.132   4.824
 5703SOL     OW18549   0.307   7.535   4.340
 5703SOL    HW118550   0.260   7.611   4.375
 5703SOL    HW218551   0.316   7.476   4.415
 5704SOL     OW18552   1.547   7.771   4.115
 5704SOL    HW118553   1.614   7.726   4.166
 5704SOL    HW218554   1.584   7.858   4.098
 5705SOL     OW18555   1.485   7.738   3.843
 5705SOL    HW118556   1.436   7.664   3.877
 5705SOL    HW218557   1.540   7.766   3.917
 5706SOL     OW18558   1.211   0.272   3.811
 5706SOL    HW118559   1.298   0.234   3.820
 5706SOL    HW218560   1.210   0.309   3.723
 5707SOL     OW18561   0.378   7.961   4.756
 5707SOL    HW118562   0.337   7.874   4.751
 5707SOL    HW218563   0.397   7.983   4.665
 5708SOL     OW18564   1.151   7.822   5.398
 5708SOL    HW118565   1.094   7.896   5.421
 5708SOL    HW218566   1.239   7.859   5.396
 5709SOL     OW18567   1.170   7.639   5.195
 5709SOL    HW118568   1.155   7.704   5.263
 5709SOL    HW218569   1.209   7.687   5.122
 5710SOL     OW18570   0.075   8.009   4.841
 5710SOL    HW118571   0.121   7.926   4.834
 5710SOL    HW218572   0.063   8.023   4.934
 5711SOL     OW18573   0.216   7.982   5.384
 5711SOL    HW118574   0.183   7.892   5.383
 5711SOL    HW218575   0.139   8.035   5.405
 5712SOL     OW18576   0.777  -0.001   3.994
 5712SOL    HW118577   0.811  -0.039   4.075
 5712SOL    HW218578   0.740   0.083   4.020
 5713SOL     OW18579   1.623   0.033   4.937
 5713SOL    HW118580   1.609   0.032   5.032
 5713SOL    HW218581   1.651  -0.056   4.915
 5714SOL     OW18582   0.735   7.875   4.959
 5714SOL    HW118583   0.666   7.810   4.950
 5714SOL    HW218584   0.713   7.943   4.896
 5715SOL     OW18585   1.732   7.599   4.226
 5715SOL    HW118586   1.803   7.591   4.162
 5715SOL    HW218587   1.728   7.514   4.269
 5716SOL     OW18588   1.873   7.636   4.655
 5716SOL    HW118589   1.892   7.544   4.639
 5716SOL    HW218590   1.781   7.647   4.632
 5717SOL     OW18591   0.244   7.796   4.450
 5717SOL    HW118592   0.163   7.833   4.485
 5717SOL    HW218593   0.287   7.758   4.527
 5718SOL     OW18594   1.036   7.667   4.679
 5718SOL    HW118595   1.022   7.621   4.596
 5718SOL    HW218596   1.022   7.600   4.746
 5719SOL     OW18597   1.747   7.822   5.124
 5719SOL    HW118598   1.802   7.901   5.125
 5719SOL    HW218599   1.789   7.764   5.060
 5720SOL     OW18600   0.680   7.636   5.216
 5720SOL    HW118601   0.768   7.617   5.184
 5720SOL    HW218602   0.694   7.669   5.305
 5721SOL     OW18603   0.102   7.800   3.666
 5721SOL    HW118604   0.036   7.744   3.705
 5721SOL    HW218605   0.088   7.886   3.706
 5722SOL     OW18606   0.163   7.689   4.063
 5722SOL    HW118607   0.110   7.678   3.983
 5722SOL    HW218608   0.154   7.606   4.109
 5723SOL     OW18609   0.777   8.000   5.452
 5723SOL    HW118610   0.684   8.015   5.436
 5723SOL    HW218611   0.786   7.905   5.456
 5724SOL     OW18612   1.214   7.771   4.189
 5724SOL    HW118613   1.301   7.765   4.149
 5724SOL    HW218614   1.229   7.823   4.268
 5725SOL     OW18615   0.638   0.194   4.350
 5725SOL    HW118616   0.599   0.262   4.296
 5725SOL    HW218617   0.602   0.209   4.438
 5726SOL     OW18618   1.746   7.808   5.405
 5726SOL    HW118619   1.749   7.822   5.310
 5726SOL    HW218620   1.673   7.747   5.417
 5727SOL     OW18621   1.838   7.630   4.948
 5727SOL    HW118622   1.847   7.558   5.010
 5727SOL    HW218623   1.772   7.599   4.886
 5728SOL     OW18624   1.439   7.655   4.847
 5728SOL    HW118625   1.426   7.569   4.888
 5728SOL    HW218626   1.390   7.715   4.903
 5729SOL     OW18627   1.013   7.462   4.863
 5729SOL    HW118628   0.948   7.397   4.835
 5729SOL    HW218629   1.097   7.417   4.854
 5730SOL     OW18630   1.381   7.501   3.939
 5730SOL    HW118631   1.416   7.439   3.875
 5730SOL    HW218632   1.290   7.473   3.953
 5731SOL     OW18633   1.304   7.912   4.413
 5731SOL    HW118634   1.245   7.987   4.421
 5731SOL    HW218635   1.294   7.865   4.496
 5732SOL     OW18636   1.598   7.659   4.623
 5732SOL    HW118637   1.545   7.661   4.704
 5732SOL    HW218638   1.576   7.740   4.578
 5733SOL     OW18639   0.248   7.722   6.569
 5733SOL    HW118640   0.265   7.695   6.659
 5733SOL    HW218641   0.215   7.643   6.527
 5734SOL     OW18642   7.994   7.805   6.181
 5734SOL    HW118643   7.910   7.772   6.213
 5734SOL    HW218644   8.014   7.749   6.106
 5735SOL     OW18645   0.447   7.830   7.156
 5735SOL    HW118646   0.523   7.793   7.112
 5735SOL    HW218647   0.372   7.783   7.118
 5736SOL     OW18648   1.589   7.937   6.277
 5736SOL    HW118649   1.497   7.918   6.259
 5736SOL    HW218650   1.587   7.984   6.361
 5737SOL     OW18651   1.562   7.579   7.032
 5737SOL    HW118652   1.634   7.612   6.978
 5737SOL    HW218653   1.560   7.638   7.107
 5738SOL     OW18654   0.061   0.068   6.201
 5738SOL    HW118655   0.069  -0.023   6.174
 5738SOL    HW218656   0.088   0.118   6.123
 5739SOL     OW18657   0.827   7.438   6.119
 5739SOL    HW118658   0.869   7.518   6.087
 5739SOL    HW218659   0.733   7.459   6.118
 5740SOL     OW18660   0.355   7.703   7.409
 5740SOL    HW118661   0.398   7.759   7.343
 5740SOL    HW218662   0.278   7.752   7.435
 5741SOL     OW18663   1.254   7.806   6.537
 5741SOL    HW118664   1.171   7.759   6.544
 5741SOL    HW218665   1.317   7.750   6.582
 5742SOL     OW18666   1.384   7.918   7.286
 5742SOL    HW118667   1.407   7.974   7.360
 5742SOL    HW218668   1.447   7.846   7.290
 5743SOL     OW18669   0.900   0.387   7.115
 5743SOL    HW118670   0.978   0.336   7.093
 5743SOL    HW218671   0.827   0.333   7.085
 5744SOL     OW18672   0.964   7.783   6.855
 5744SOL    HW118673   0.888   7.840   6.868
 5744SOL    HW218674   0.969   7.769   6.760
 5745SOL     OW18675   0.886   7.766   5.786
 5745SOL    HW118676   0.897   7.812   5.703
 5745SOL    HW218677   0.863   7.677   5.760
 5746SOL     OW18678   1.718   0.021   7.387
 5746SOL    HW118679   1.800   0.068   7.372
 5746SOL    HW218680   1.732  -0.065   7.347
 5747SOL     OW18681   0.613   7.642   6.487
 5747SOL    HW118682   0.589   7.667   6.576
 5747SOL    HW218683   0.588   7.717   6.433
 5748SOL     OW18684   0.214   7.707   7.079
 5748SOL    HW118685   0.135   7.758   7.098
 5748SOL    HW218686   0.191   7.617   7.105
 5749SOL     OW18687   1.408   7.548   6.033
 5749SOL    HW118688   1.399   7.529   5.940
 5749SOL    HW218689   1.500   7.573   6.043
 5750SOL     OW18690   1.513   7.668   7.317
 5750SOL    HW118691   1.511   7.692   7.410
 5750SOL    HW218692   1.476   7.580   7.314
 5751SOL     OW18693   0.662   7.545   5.678
 5751SOL    HW118694   0.684   7.456   5.707
 5751SOL    HW218695   0.603   7.532   5.604
 5752SOL     OW18696   0.773   7.729   7.338
 5752SOL    HW118697   0.849   7.672   7.334
 5752SOL    HW218698   0.736   7.715   7.425
 5753SOL     OW18699   1.361  -0.007   7.020
 5753SOL    HW118700   1.359  -0.021   7.115
 5753SOL    HW218701   1.432   0.055   7.006
 5754SOL     OW18702   0.563   7.497   6.089
 5754SOL    HW118703   0.487   7.507   6.146
 5754SOL    HW218704   0.556   7.570   6.027
 5755SOL     OW18705   0.290   7.492   5.748
 5755SOL    HW118706   0.345   7.566   5.719
 5755SOL    HW218707   0.346   7.441   5.806
 5756SOL     OW18708   0.959   7.665   6.040
 5756SOL    HW118709   0.925   7.714   5.966
 5756SOL    HW218710   1.048   7.698   6.052
 5757SOL     OW18711   0.105  -0.005   6.984
 5757SOL    HW118712   0.196   0.002   6.955
 5757SOL    HW218713   0.073   0.085   6.988
 5758SOL     OW18714   0.570   7.670   6.759
 5758SOL    HW118715   0.594   7.578   6.771
 5758SOL    HW218716   0.477   7.674   6.783
 5759SOL     OW18717   1.028   7.501   6.332
 5759SOL    HW118718   0.965   7.504   6.260
 5759SOL    HW218719   1.001   7.426   6.385
 5760SOL     OW18720   1.485   7.963   6.533
 5760SOL    HW118721   1.399   7.925   6.552
 5760SOL    HW218722   1.525   7.975   6.619
 5761SOL     OW18723   0.544   7.682   5.889
 5761SOL    HW118724   0.587   7.643   5.813
 5761SOL    HW218725   0.566   7.775   5.884
 5762SOL     OW18726   0.933   7.546   6.965
 5762SOL    HW118727   0.951   7.489   6.890
 5762SOL    HW218728   0.921   7.633   6.927
 5763SOL     OW18729   1.257   7.779   6.898
 5763SOL    HW118730   1.302   7.855   6.935
 5763SOL    HW218731   1.194   7.817   6.837
 5764SOL     OW18732   0.559   7.947   6.438
 5764SOL    HW118733   0.525   7.957   6.350
 5764SOL    HW218734   0.568   8.036   6.471
 5765SOL     OW18735   0.993   7.573   7.321
 5765SOL    HW118736   1.071   7.628   7.326
 5765SOL    HW218737   1.026   7.483   7.323
 5766SOL     OW18738   0.498   7.479   7.336
 5766SOL    HW118739   0.455   7.432   7.265
 5766SOL    HW218740   0.441   7.554   7.353
 5767SOL     OW18741   0.311   7.646   6.830
 5767SOL    HW118742   0.276   7.676   6.915
 5767SOL    HW218743   0.291   7.553   6.828
 5768SOL     OW18744   0.770   0.060   6.613
 5768SOL    HW118745   0.777   0.021   6.526
 5768SOL    HW218746   0.703   0.128   6.604
 5769SOL     OW18747   1.609   7.826   5.935
 5769SOL    HW118748   1.639   7.753   5.989
 5769SOL    HW218749   1.601   7.899   5.996
 5770SOL     OW18750   1.481   7.738   5.708
 5770SOL    HW118751   1.437   7.658   5.738
 5770SOL    HW218752   1.533   7.767   5.784
 5771SOL     OW18753   1.329   0.243   5.626
 5771SOL    HW118754   1.282   0.171   5.668
 5771SOL    HW218755   1.263   0.289   5.575
 5772SOL     OW18756   0.310   7.987   6.584
 5772SOL    HW118757   0.287   7.894   6.577
 5772SOL    HW218758   0.396   7.993   6.544
 5773SOL     OW18759   1.145   7.799   7.235
 5773SOL    HW118760   1.081   7.862   7.268
 5773SOL    HW218761   1.230   7.840   7.251
 5774SOL     OW18762   0.062   0.008   6.695
 5774SOL    HW118763   0.154   0.007   6.670
 5774SOL    HW218764   0.062  -0.014   6.788
 5775SOL     OW18765   0.190   7.928   7.291
 5775SOL    HW118766   0.242   7.931   7.210
 5775SOL    HW218767   0.121   7.992   7.277
 5776SOL     OW18768   0.789   0.025   5.832
 5776SOL    HW118769   0.837  -0.056   5.848
 5776SOL    HW218770   0.734   0.036   5.909
 5777SOL     OW18771   1.610   7.996   6.770
 5777SOL    HW118772   1.611   7.969   6.861
 5777SOL    HW218773   1.698   7.978   6.738
 5778SOL     OW18774   0.717   7.892   6.827
 5778SOL    HW118775   0.658   7.820   6.803
 5778SOL    HW218776   0.720   7.947   6.749
 5779SOL     OW18777   1.698   7.604   6.076
 5779SOL    HW118778   1.781   7.584   6.032
 5779SOL    HW218779   1.694   7.541   6.148
 5780SOL     OW18780   1.772   7.604   6.596
 5780SOL    HW118781   1.862   7.586   6.569
 5780SOL    HW218782   1.725   7.619   6.514
 5781SOL     OW18783   0.243   7.852   6.310
 5781SOL    HW118784   0.173   7.804   6.266
 5781SOL    HW218785   0.273   7.793   6.379
 5782SOL     OW18786   1.024   7.666   6.572
 5782SOL    HW118787   1.014   7.632   6.483
 5782SOL    HW218788   1.015   7.589   6.628
 5783SOL     OW18789   1.737   7.836   6.995
 5783SOL    HW118790   1.805   7.902   6.981
 5783SOL    HW218791   1.763   7.763   6.939
 5784SOL     OW18792   0.671   7.644   7.095
 5784SOL    HW118793   0.755   7.627   7.053
 5784SOL    HW218794   0.693   7.672   7.184
 5785SOL     OW18795   0.079   7.789   5.586
 5785SOL    HW118796  -0.008   7.749   5.586
 5785SOL    HW218797   0.064   7.879   5.615
 5786SOL     OW18798   0.066   7.651   5.972
 5786SOL    HW118799   0.054   7.629   5.880
 5786SOL    HW218800   0.158   7.631   5.990
 5787SOL     OW18801   0.750   8.009   7.281
 5787SOL    HW118802   0.668   8.004   7.330
 5787SOL    HW218803   0.783   7.919   7.278
 5788SOL     OW18804   1.224   7.759   6.048
 5788SOL    HW118805   1.284   7.684   6.049
 5788SOL    HW218806   1.253   7.813   6.121
 5789SOL     OW18807   0.632   0.237   6.267
 5789SOL    HW118808   0.604   0.319   6.226
 5789SOL    HW218809   0.564   0.174   6.244
 5790SOL     OW18810   1.756   7.773   7.265
 5790SOL    HW118811   1.758   7.798   7.172
 5790SOL    HW218812   1.673   7.727   7.275
 5791SOL     OW18813   1.797   7.610   6.862
 5791SOL    HW118814   1.868   7.545   6.870
 5791SOL    HW218815   1.781   7.617   6.768
 5792SOL     OW18816   0.394   7.847   6.070
 5792SOL    HW118817   0.413   7.760   6.037
 5792SOL    HW218818   0.347   7.832   6.153
 5793SOL     OW18819   1.435   7.668   6.687
 5793SOL    HW118820   1.478   7.584   6.704
 5793SOL    HW218821   1.405   7.697   6.773
 5794SOL     OW18822   1.005   7.436   6.727
 5794SOL    HW118823   0.954   7.373   6.677
 5794SOL    HW218824   1.095   7.401   6.724
 5795SOL     OW18825   1.373   7.486   5.762
 5795SOL    HW118826   1.385   7.435   5.682
 5795SOL    HW218827   1.286   7.462   5.793
 5796SOL     OW18828   1.313   7.897   6.273
 5796SOL    HW118829   1.275   7.985   6.270
 5796SOL    HW218830   1.294   7.865   6.361
 5797SOL     OW18831   1.561   7.663   6.427
 5797SOL    HW118832   1.522   7.672   6.514
 5797SOL    HW218833   1.561   7.752   6.391
 5798SOL     OW18834   0.237   7.724   8.435
 5798SOL    HW118835   0.265   7.696   8.522
 5798SOL    HW218836   0.164   7.666   8.414
 5799SOL     OW18837   8.005   7.848   8.029
 5799SOL    HW118838   7.936   7.797   8.070
 5799SOL    HW218839   8.042   7.789   7.962
 5800SOL     OW18840   1.661   0.038   7.667
 5800SOL    HW118841   1.699   0.024   7.580
 5800SOL    HW218842   1.669  -0.047   7.711
 5801SOL     OW18843   0.451   7.841   8.983
 5801SOL    HW118844   0.532   7.815   8.939
 5801SOL    HW218845   0.384   7.782   8.947
 5802SOL     OW18846   1.598   7.908   8.180
 5802SOL    HW118847   1.512   7.912   8.139
 5802SOL    HW218848   1.590   7.964   8.258
 5803SOL     OW18849   1.589   7.573   8.915
 5803SOL    HW118850   1.633   7.649   8.879
 5803SOL    HW218851   1.558   7.600   9.001
 5804SOL     OW18852   0.082   0.119   7.951
 5804SOL    HW118853   0.036   0.035   7.958
 5804SOL    HW218854   0.157   0.110   8.010
 5805SOL     OW18855   0.815   7.412   7.972
 5805SOL    HW118856   0.871   7.487   7.950
 5805SOL    HW218857   0.726   7.448   7.969
 5806SOL     OW18858   0.356   7.711   9.291
 5806SOL    HW118859   0.397   7.790   9.256
 5806SOL    HW218860   0.267   7.738   9.314
 5807SOL     OW18861   1.267   7.812   8.393
 5807SOL    HW118862   1.177   7.779   8.399
 5807SOL    HW218863   1.319   7.751   8.445
 5808SOL     OW18864   1.449   7.913   9.108
 5808SOL    HW118865   1.384   7.940   9.173
 5808SOL    HW218866   1.464   7.820   9.126
 5809SOL     OW18867   0.976   0.363   9.002
 5809SOL    HW118868   1.036   0.291   8.979
 5809SOL    HW218869   0.931   0.384   8.920
 5810SOL     OW18870   0.984   7.822   8.692
 5810SOL    HW118871   0.900   7.847   8.731
 5810SOL    HW218872   0.960   7.763   8.621
 5811SOL     OW18873   0.876   7.775   7.660
 5811SOL    HW118874   0.954   7.783   7.605
 5811SOL    HW218875   0.907   7.728   7.738
 5812SOL     OW18876   1.723   0.025   9.284
 5812SOL    HW118877   1.665   0.086   9.239
 5812SOL    HW218878   1.733  -0.048   9.224
 5813SOL     OW18879   0.564   7.621   8.338
 5813SOL    HW118880   0.562   7.655   8.427
 5813SOL    HW218881   0.555   7.698   8.282
 5814SOL     OW18882   0.192   7.699   8.936
 5814SOL    HW118883   0.179   7.761   9.007
 5814SOL    HW218884   0.169   7.614   8.974
 5815SOL     OW18885   1.428   7.515   7.883
 5815SOL    HW118886   1.409   7.497   7.791
 5815SOL    HW218887   1.394   7.604   7.897
 5816SOL     OW18888   1.512   7.653   9.178
 5816SOL    HW118889   1.518   7.683   9.269
 5816SOL    HW218890   1.450   7.581   9.180
 5817SOL     OW18891   0.641   7.559   7.551
 5817SOL    HW118892   0.717   7.501   7.560
 5817SOL    HW218893   0.595   7.525   7.474
 5818SOL     OW18894   0.773   7.726   9.206
 5818SOL    HW118895   0.854   7.675   9.200
 5818SOL    HW218896   0.723   7.683   9.276
 5819SOL     OW18897   1.426   0.015   8.852
 5819SOL    HW118898   1.443  -0.029   8.935
 5819SOL    HW218899   1.351   0.072   8.870
 5820SOL     OW18900   0.561   7.502   7.941
 5820SOL    HW118901   0.482   7.506   7.994
 5820SOL    HW218902   0.557   7.580   7.886
 5821SOL     OW18903   0.295   7.477   7.611
 5821SOL    HW118904   0.356   7.543   7.578
 5821SOL    HW218905   0.349   7.420   7.666
 5822SOL     OW18906   0.104   0.015   8.829
 5822SOL    HW118907   0.157  -0.046   8.880
 5822SOL    HW218908   0.104   0.096   8.880
 5823SOL     OW18909   0.566   7.674   8.612
 5823SOL    HW118910   0.602   7.589   8.639
 5823SOL    HW218911   0.475   7.670   8.641
 5824SOL     OW18912   1.039   7.527   8.194
 5824SOL    HW118913   1.021   7.568   8.109
 5824SOL    HW218914   0.979   7.453   8.198
 5825SOL     OW18915   1.492   7.968   8.436
 5825SOL    HW118916   1.412   7.919   8.418
 5825SOL    HW218917   1.462   8.054   8.464
 5826SOL     OW18918   0.549   7.707   7.758
 5826SOL    HW118919   0.570   7.652   7.682
 5826SOL    HW218920   0.618   7.772   7.760
 5827SOL     OW18921   0.923   7.531   8.840
 5827SOL    HW118922   0.941   7.509   8.749
 5827SOL    HW218923   1.005   7.571   8.872
 5828SOL     OW18924   1.262   7.805   8.737
 5828SOL    HW118925   1.300   7.887   8.768
 5828SOL    HW218926   1.170   7.826   8.721
 5829SOL     OW18927   0.544   7.971   8.299
 5829SOL    HW118928   0.574   8.016   8.220
 5829SOL    HW218929   0.615   7.984   8.362
 5830SOL     OW18930   1.008   7.591   9.207
 5830SOL    HW118931   1.074   7.657   9.185
 5830SOL    HW218932   1.049   7.508   9.182
 5831SOL     OW18933   0.491   7.485   9.209
 5831SOL    HW118934   0.450   7.437   9.138
 5831SOL    HW218935   0.437   7.564   9.218
 5832SOL     OW18936   0.308   7.644   8.693
 5832SOL    HW118937   0.261   7.670   8.772
 5832SOL    HW218938   0.298   7.548   8.690
 5833SOL     OW18939   0.749   0.052   8.459
 5833SOL    HW118940   0.825   0.080   8.408
 5833SOL    HW218941   0.720   0.131   8.504
 5834SOL     OW18942   0.322   7.527   8.061
 5834SOL    HW118943   0.294   7.610   8.100
 5834SOL    HW218944   0.242   7.474   8.059
 5835SOL     OW18945   1.605   7.801   7.823
 5835SOL    HW118946   1.649   7.740   7.881
 5835SOL    HW218947   1.523   7.823   7.867
 5836SOL     OW18948   1.487   7.738   7.580
 5836SOL    HW118949   1.435   7.661   7.603
 5836SOL    HW218950   1.539   7.756   7.659
 5837SOL     OW18951   1.258   0.251   7.477
 5837SOL    HW118952   1.287   0.176   7.529
 5837SOL    HW218953   1.334   0.309   7.475
 5838SOL     OW18954   0.321   7.981   8.478
 5838SOL    HW118955   0.299   7.890   8.461
 5838SOL    HW218956   0.396   7.999   8.421
 5839SOL     OW18957   1.145   7.832   9.123
 5839SOL    HW118958   1.071   7.876   9.164
 5839SOL    HW218959   1.188   7.901   9.072
 5840SOL     OW18960   1.166   7.633   8.928
 5840SOL    HW118961   1.159   7.701   8.996
 5840SOL    HW218962   1.208   7.677   8.854
 5841SOL     OW18963   0.061   0.012   8.557
 5841SOL    HW118964   0.153   0.003   8.532
 5841SOL    HW218965   0.062   0.004   8.653
 5842SOL     OW18966   0.178   7.923   9.097
 5842SOL    HW118967   0.268   7.944   9.122
 5842SOL    HW218968   0.127   7.999   9.123
 5843SOL     OW18969   0.760   8.011   7.714
 5843SOL    HW118970   0.809   7.930   7.696
 5843SOL    HW218971   0.753   8.014   7.809
 5844SOL     OW18972   1.648   8.008   8.659
 5844SOL    HW118973   1.588   7.964   8.719
 5844SOL    HW218974   1.616   7.985   8.572
 5845SOL     OW18975   0.693   7.906   8.684
 5845SOL    HW118976   0.644   7.827   8.661
 5845SOL    HW218977   0.712   7.949   8.601
 5846SOL     OW18978   1.762   7.609   7.970
 5846SOL    HW118979   1.812   7.591   7.891
 5846SOL    HW218980   1.732   7.523   7.999
 5847SOL     OW18981   1.843   7.591   8.392
 5847SOL    HW118982   1.877   7.590   8.303
 5847SOL    HW218983   1.750   7.612   8.382
 5848SOL     OW18984   0.252   7.771   8.158
 5848SOL    HW118985   0.166   7.805   8.135
 5848SOL    HW218986   0.250   7.765   8.254
 5849SOL     OW18987   1.031   7.673   8.428
 5849SOL    HW118988   1.030   7.634   8.340
 5849SOL    HW218989   1.022   7.598   8.487
 5850SOL     OW18990   1.748   7.794   8.852
 5850SOL    HW118991   1.775   7.881   8.823
 5850SOL    HW218992   1.778   7.736   8.782
 5851SOL     OW18993   0.686   7.633   8.947
 5851SOL    HW118994   0.770   7.611   8.907
 5851SOL    HW218995   0.709   7.672   9.032
 5852SOL     OW18996   0.038   7.828   7.496
 5852SOL    HW118997   0.046   7.734   7.505
 5852SOL    HW218998   0.088   7.849   7.416
 5853SOL     OW18999   0.124   7.699   7.801
 5853SOL    HW119000   0.077   7.674   7.722
 5853SOL    HW219001   0.174   7.621   7.825
 5854SOL     OW19002   0.724   8.003   9.170
 5854SOL    HW119003   0.812   8.037   9.187
 5854SOL    HW219004   0.735   7.908   9.171
 5855SOL     OW19005   1.304   7.760   7.896
 5855SOL    HW119006   1.214   7.728   7.888
 5855SOL    HW219007   1.302   7.818   7.972
 5856SOL     OW19008   0.603   0.248   8.152
 5856SOL    HW119009   0.669   0.317   8.141
 5856SOL    HW219010   0.604   0.201   8.069
 5857SOL     OW19011   1.749   7.795   9.127
 5857SOL    HW119012   1.753   7.808   9.032
 5857SOL    HW219013   1.670   7.743   9.140
 5858SOL     OW19014   1.822   7.607   8.673
 5858SOL    HW119015   1.814   7.512   8.684
 5858SOL    HW219016   1.828   7.620   8.579
 5859SOL     OW19017   0.408   7.865   7.943
 5859SOL    HW119018   0.431   7.793   7.884
 5859SOL    HW219019   0.352   7.825   8.010
 5860SOL     OW19020   1.420   7.662   8.563
 5860SOL    HW119021   1.425   7.571   8.589
 5860SOL    HW219022   1.374   7.706   8.634
 5861SOL     OW19023   1.001   7.446   8.584
 5861SOL    HW119024   0.955   7.391   8.520
 5861SOL    HW219025   1.088   7.407   8.591
 5862SOL     OW19026   1.361   7.493   7.613
 5862SOL    HW119027   1.397   7.421   7.561
 5862SOL    HW219028   1.276   7.460   7.643
 5863SOL     OW19029   1.322   7.909   8.135
 5863SOL    HW119030   1.270   7.988   8.124
 5863SOL    HW219031   1.293   7.872   8.219
 5864SOL     OW19032   1.591   7.663   8.345
 5864SOL    HW119033   1.530   7.677   8.417
 5864SOL    HW219034   1.579   7.738   8.287
 5865SOL     OW19035   0.245   7.720  10.296
 5865SOL    HW119036   0.267   7.689  10.384
 5865SOL    HW219037   0.163   7.676  10.275
 5866SOL     OW19038   8.008   7.832   9.896
 5866SOL    HW119039   7.921   7.809   9.929
 5866SOL    HW219040   8.021   7.773   9.822
 5867SOL     OW19041   1.722   0.037   9.569
 5867SOL    HW119042   1.729   0.041   9.474
 5867SOL    HW219043   1.691  -0.052   9.588
 5868SOL     OW19044   0.422   7.868  10.857
 5868SOL    HW119045   0.486   7.863  10.786
 5868SOL    HW219046   0.357   7.801  10.835
 5869SOL     OW19047   1.604   7.925  10.022
 5869SOL    HW119048   1.521   7.920   9.974
 5869SOL    HW219049   1.579   7.953  10.110
 5870SOL     OW19050   0.114   0.084   9.902
 5870SOL    HW119051   0.085  -0.005   9.883
 5870SOL    HW219052   0.056   0.113   9.973
 5871SOL     OW19053   0.818   7.464   9.886
 5871SOL    HW119054   0.855   7.539   9.841
 5871SOL    HW219055   0.724   7.468   9.866
 5872SOL     OW19056   0.356   7.706  11.152
 5872SOL    HW119057   0.389   7.786  11.111
 5872SOL    HW219058   0.267   7.728  11.180
 5873SOL     OW19059   1.263   7.822  10.258
 5873SOL    HW119060   1.178   7.777  10.261
 5873SOL    HW219061   1.322   7.765  10.306
 5874SOL     OW19062   1.396   7.921  11.000
 5874SOL    HW119063   1.405   7.968  11.083
 5874SOL    HW219064   1.442   7.838  11.014
 5875SOL     OW19065   0.884   0.365  10.914
 5875SOL    HW119066   0.978   0.371  10.897
 5875SOL    HW219067   0.849   0.314  10.841
 5876SOL     OW19068   0.950   7.750  10.556
 5876SOL    HW119069   0.876   7.808  10.576
 5876SOL    HW219070   0.957   7.752  10.461
 5877SOL     OW19071   0.902   7.781   9.509
 5877SOL    HW119072   0.918   7.815   9.420
 5877SOL    HW219073   0.921   7.688   9.502
 5878SOL     OW19074   1.734   0.000  11.134
 5878SOL    HW119075   1.675   0.068  11.102
 5878SOL    HW219076   1.817   0.017  11.089
 5879SOL     OW19077   0.557   7.627  10.199
 5879SOL    HW119078   0.554   7.660  10.289
 5879SOL    HW219079   0.557   7.705  10.144
 5880SOL     OW19080   0.208   7.705  10.803
 5880SOL    HW119081   0.129   7.751  10.830
 5880SOL    HW219082   0.191   7.613  10.827
 5881SOL     OW19083   1.480   7.551   9.727
 5881SOL    HW119084   1.386   7.556   9.716
 5881SOL    HW219085   1.504   7.462   9.700
 5882SOL     OW19086   1.506   7.664  11.040
 5882SOL    HW119087   1.510   7.684  11.133
 5882SOL    HW219088   1.446   7.589  11.034
 5883SOL     OW19089   0.654   7.558   9.409
 5883SOL    HW119090   0.706   7.479   9.428
 5883SOL    HW219091   0.595   7.531   9.338
 5884SOL     OW19092   0.774   7.706  11.050
 5884SOL    HW119093   0.855   7.655  11.052
 5884SOL    HW219094   0.727   7.680  11.129
 5885SOL     OW19095   1.355   0.009  10.739
 5885SOL    HW119096   1.377  -0.020  10.827
 5885SOL    HW219097   1.294   0.082  10.752
 5886SOL     OW19098   0.558   7.505   9.807
 5886SOL    HW119099   0.473   7.508   9.852
 5886SOL    HW219100   0.556   7.580   9.747
 5887SOL     OW19101   0.282   7.496   9.479
 5887SOL    HW119102   0.337   7.560   9.434
 5887SOL    HW219103   0.345   7.441   9.527
 5888SOL     OW19104   0.936   7.676   9.771
 5888SOL    HW119105   0.926   7.742   9.702
 5888SOL    HW219106   1.015   7.628   9.747
 5889SOL     OW19107   0.099   0.026  10.714
 5889SOL    HW119108   0.177   0.046  10.662
 5889SOL    HW219109   0.089   0.101  10.773
 5890SOL     OW19110   0.572   7.652  10.479
 5890SOL    HW119111   0.592   7.559  10.467
 5890SOL    HW219112   0.480   7.653  10.506
 5891SOL     OW19113   1.017   7.508  10.077
 5891SOL    HW119114   0.959   7.511  10.001
 5891SOL    HW219115   0.994   7.426  10.121
 5892SOL     OW19116   1.497   7.984  10.261
 5892SOL    HW119117   1.409   7.947  10.269
 5892SOL    HW219118   1.523   8.002  10.352
 5893SOL     OW19119   0.542   7.704   9.616
 5893SOL    HW119120   0.575   7.652   9.543
 5893SOL    HW219121   0.584   7.789   9.605
 5894SOL     OW19122   1.257   7.797  10.594
 5894SOL    HW119123   1.295   7.874  10.636
 5894SOL    HW219124   1.169   7.825  10.568
 5895SOL     OW19125   0.547   7.927  10.158
 5895SOL    HW119126   0.514   7.951  10.071
 5895SOL    HW219127   0.551   8.010  10.206
 5896SOL     OW19128   1.008   7.572  11.056
 5896SOL    HW119129   1.071   7.643  11.044
 5896SOL    HW219130   1.060   7.492  11.048
 5897SOL     OW19131   0.493   7.482  11.067
 5897SOL    HW119132   0.448   7.432  10.999
 5897SOL    HW219133   0.437   7.559  11.080
 5898SOL     OW19134   0.315   7.637  10.556
 5898SOL    HW119135   0.271   7.670  10.635
 5898SOL    HW219136   0.294   7.543  10.554
 5899SOL     OW19137   0.783   0.070  10.353
 5899SOL    HW119138   0.749   0.076  10.264
 5899SOL    HW219139   0.720   0.120  10.406
 5900SOL     OW19140   0.306   7.517   9.917
 5900SOL    HW119141   0.274   7.603   9.947
 5900SOL    HW219142   0.317   7.466   9.997
 5901SOL     OW19143   1.601   7.807   9.688
 5901SOL    HW119144   1.624   7.724   9.730
 5901SOL    HW219145   1.508   7.819   9.708
 5902SOL     OW19146   1.502   7.735   9.437
 5902SOL    HW119147   1.451   7.655   9.449
 5902SOL    HW219148   1.544   7.750   9.522
 5903SOL     OW19149   1.310   0.271   9.386
 5903SOL    HW119150   1.275   0.183   9.400
 5903SOL    HW219151   1.243   0.316   9.335
 5904SOL     OW19152   0.303   7.985  10.341
 5904SOL    HW119153   0.297   7.892  10.317
 5904SOL    HW219154   0.369   8.021  10.282
 5905SOL     OW19155   1.143   7.808  10.982
 5905SOL    HW119156   1.085   7.883  10.999
 5905SOL    HW219157   1.231   7.845  10.985
 5906SOL     OW19158   1.132   7.624  10.770
 5906SOL    HW119159   1.127   7.682  10.846
 5906SOL    HW219160   1.181   7.674  10.704
 5907SOL     OW19161   0.052   0.032  10.433
 5907SOL    HW119162   0.142   0.012  10.407
 5907SOL    HW219163   0.046   0.000  10.524
 5908SOL     OW19164   0.179   7.953  11.004
 5908SOL    HW119165   0.237   7.946  10.928
 5908SOL    HW219166   0.106   8.007  10.974
 5909SOL     OW19167   0.787   0.029   9.557
 5909SOL    HW119168   0.836  -0.053   9.558
 5909SOL    HW219169   0.734   0.027   9.637
 5910SOL     OW19170   1.626   8.022  10.509
 5910SOL    HW119171   1.605   7.966  10.584
 5910SOL    HW219172   1.700   7.979  10.467
 5911SOL     OW19173   0.698   7.863  10.602
 5911SOL    HW119174   0.651   7.803  10.545
 5911SOL    HW219175   0.675   7.950  10.569
 5912SOL     OW19176   1.765   7.581   9.828
 5912SOL    HW119177   1.795   7.535   9.750
 5912SOL    HW219178   1.707   7.518   9.872
 5913SOL     OW19179   1.861   7.621  10.285
 5913SOL    HW119180   1.878   7.532  10.254
 5913SOL    HW219181   1.777   7.645  10.245
 5914SOL     OW19182   0.249   7.765  10.020
 5914SOL    HW119183   0.159   7.794  10.002
 5914SOL    HW219184   0.253   7.757  10.115
 5915SOL     OW19185   1.033   7.675  10.293
 5915SOL    HW119186   1.022   7.637  10.205
 5915SOL    HW219187   1.026   7.600  10.352
 5916SOL     OW19188   1.723   7.811  10.680
 5916SOL    HW119189   1.783   7.886  10.691
 5916SOL    HW219190   1.761   7.761  10.607
 5917SOL     OW19191   0.749   7.643  10.778
 5917SOL    HW119192   0.725   7.724  10.732
 5917SOL    HW219193   0.747   7.667  10.871
 5918SOL     OW19194   0.106   7.804   9.340
 5918SOL    HW119195   0.034   7.742   9.348
 5918SOL    HW219196   0.095   7.842   9.253
 5919SOL     OW19197   0.075   7.661   9.690
 5919SOL    HW119198   0.038   7.652   9.602
 5919SOL    HW219199   0.162   7.621   9.684
 5920SOL     OW19200   0.769   7.985  11.049
 5920SOL    HW119201   0.862   8.008  11.039
 5920SOL    HW219202   0.767   7.890  11.039
 5921SOL     OW19203   1.296   7.815   9.722
 5921SOL    HW119204   1.252   7.731   9.708
 5921SOL    HW219205   1.292   7.828   9.817
 5922SOL     OW19206   0.624   0.259  10.006
 5922SOL    HW119207   0.597   0.335   9.955
 5922SOL    HW219208   0.561   0.191   9.984
 5923SOL     OW19209   1.764   7.754  10.955
 5923SOL    HW119210   1.765   7.842  10.919
 5923SOL    HW219211   1.695   7.755  11.021
 5924SOL     OW19212   1.810   7.587  10.552
 5924SOL    HW119213   1.806   7.492  10.539
 5924SOL    HW219214   1.826   7.622  10.464
 5925SOL     OW19215   0.402   7.853   9.814
 5925SOL    HW119216   0.425   7.781   9.755
 5925SOL    HW219217   0.350   7.812   9.883
 5926SOL     OW19218   1.425   7.665  10.411
 5926SOL    HW119219   1.424   7.570  10.416
 5926SOL    HW219220   1.374   7.695  10.486
 5927SOL     OW19221   1.005   7.448  10.454
 5927SOL    HW119222   0.953   7.385  10.403
 5927SOL    HW219223   1.092   7.408  10.460
 5928SOL     OW19224   1.365   7.499   9.429
 5928SOL    HW119225   1.355   7.413   9.389
 5928SOL    HW219226   1.297   7.502   9.496
 5929SOL     OW19227   1.317   7.907   9.996
 5929SOL    HW119228   1.251   7.974   9.977
 5929SOL    HW219229   1.294   7.874  10.083
 5930SOL     OW19230   1.610   7.671  10.196
 5930SOL    HW119231   1.543   7.682  10.263
 5930SOL    HW219232   1.583   7.730  10.125
 5931SOL     OW19233   0.239   7.707  12.155
 5931SOL    HW119234   0.282   7.684  12.237
 5931SOL    HW219235   0.147   7.685  12.170
 5932SOL     OW19236   8.017   7.845  11.756
 5932SOL    HW119237   7.923   7.853  11.769
 5932SOL    HW219238   8.027   7.790  11.678
 5933SOL     OW19239   1.686   0.036  11.426
 5933SOL    HW119240   1.720   0.018  11.338
 5933SOL    HW219241   1.666  -0.050  11.462
 5934SOL     OW19242   1.598   7.950  11.859
 5934SOL    HW119243   1.509   7.927  11.834
 5934SOL    HW219244   1.591   7.979  11.949
 5935SOL     OW19245   0.083   0.123  11.720
 5935SOL    HW119246   0.057   0.032  11.737
 5935SOL    HW219247   0.129   0.150  11.799
 5936SOL     OW19248   0.824   7.442  11.685
 5936SOL    HW119249   0.865   7.523  11.656
 5936SOL    HW219250   0.731   7.463  11.691
 5937SOL     OW19251   1.262   7.795  12.107
 5937SOL    HW119252   1.173   7.762  12.123
 5937SOL    HW219253   1.317   7.743  12.165
 5938SOL     OW19254   0.965   7.813  12.421
 5938SOL    HW119255   0.875   7.846  12.426
 5938SOL    HW219256   0.972   7.774  12.334
 5939SOL     OW19257   0.886   7.800  11.360
 5939SOL    HW119258   0.961   7.793  11.301
 5939SOL    HW219259   0.894   7.724  11.418
 5940SOL     OW19260   0.551   7.642  12.067
 5940SOL    HW119261   0.550   7.686  12.152
 5940SOL    HW219262   0.563   7.713  12.004
 5941SOL     OW19263   1.414   7.573  11.598
 5941SOL    HW119264   1.398   7.527  11.515
 5941SOL    HW219265   1.483   7.523  11.640
 5942SOL     OW19266   0.651   7.560  11.272
 5942SOL    HW119267   0.704   7.484  11.291
 5942SOL    HW219268   0.594   7.533  11.200
 5943SOL     OW19269   0.557   7.502  11.674
 5943SOL    HW119270   0.475   7.508  11.724
 5943SOL    HW219271   0.555   7.577  11.615
 5944SOL     OW19272   0.286   7.496  11.341
 5944SOL    HW119273   0.340   7.562  11.296
 5944SOL    HW219274   0.349   7.442  11.388
 5945SOL     OW19275   0.942   7.684  11.619
 5945SOL    HW119276   0.907   7.770  11.644
 5945SOL    HW219277   1.037   7.695  11.623
 5946SOL     OW19278   0.089   0.048   0.056
 5946SOL    HW119279   0.176   0.081   0.031
 5946SOL    HW219280   0.069   0.093   0.138
 5947SOL     OW19281   0.583   7.648  12.358
 5947SOL    HW119282   0.590   7.565  12.312
 5947SOL    HW219283   0.490   7.658  12.376
 5948SOL     OW19284   0.957   7.531  11.943
 5948SOL    HW119285   0.932   7.516  11.852
 5948SOL    HW219286   0.992   7.447  11.973
 5949SOL     OW19287   1.498   7.951  12.118
 5949SOL    HW119288   1.410   7.918  12.132
 5949SOL    HW219289   1.526   7.984  12.203
 5950SOL     OW19290   0.548   7.699  11.488
 5950SOL    HW119291   0.582   7.654  11.411
 5950SOL    HW219292   0.570   7.791  11.474
 5951SOL     OW19293   1.242   7.825  12.442
 5951SOL    HW119294   1.273   7.886  12.509
 5951SOL    HW219295   1.147   7.826  12.450
 5952SOL     OW19296   0.595   7.914  11.982
 5952SOL    HW119297   0.535   7.976  11.939
 5952SOL    HW219298   0.618   7.958  12.064
 5953SOL     OW19299   0.318   7.638  12.408
 5953SOL    HW119300   0.262   7.695  12.460
 5953SOL    HW219301   0.289   7.550  12.430
 5954SOL     OW19302   0.742   0.069  12.187
 5954SOL    HW119303   0.811   0.071  12.121
 5954SOL    HW219304   0.689   0.146  12.169
 5955SOL     OW19305   0.305   7.515  11.795
 5955SOL    HW119306   0.283   7.605  11.819
 5955SOL    HW219307   0.321   7.472  11.879
 5956SOL     OW19308   1.611   7.804  11.547
 5956SOL    HW119309   1.660   7.734  11.589
 5956SOL    HW219310   1.536   7.819  11.604
 5957SOL     OW19311   1.492   7.743  11.303
 5957SOL    HW119312   1.441   7.663  11.315
 5957SOL    HW219313   1.543   7.751  11.384
 5958SOL     OW19314   1.271   0.221  11.165
 5958SOL    HW119315   1.322   0.188  11.239
 5958SOL    HW219316   1.265   0.315  11.181
 5959SOL     OW19317   0.406   7.929  12.221
 5959SOL    HW119318   0.339   7.867  12.192
 5959SOL    HW219319   0.369   8.015  12.200
 5960SOL     OW19320   1.158   7.665   0.175
 5960SOL    HW119321   1.173   7.705   0.261
 5960SOL    HW219322   1.215   7.714   0.116
 5961SOL     OW19323   0.076  -0.012  12.290
 5961SOL    HW119324   0.137   0.053  12.257
 5961SOL    HW219325   0.061   0.013  12.381
 5962SOL     OW19326   0.747   0.030  11.400
 5962SOL    HW119327   0.804  -0.047  11.399
 5962SOL    HW219328   0.702   0.026  11.484
 5963SOL     OW19329   1.638   8.018  12.353
 5963SOL    HW119330   1.636   7.958  12.428
 5963SOL    HW219331   1.719   7.996  12.307
 5964SOL     OW19332   0.706   7.906  12.407
 5964SOL    HW119333   0.649   7.833  12.384
 5964SOL    HW219334   0.710   7.959  12.328
 5965SOL     OW19335   1.748   7.607  11.681
 5965SOL    HW119336   1.814   7.588  11.614
 5965SOL    HW219337   1.716   7.521  11.708
 5966SOL     OW19338   1.840   7.614  12.146
 5966SOL    HW119339   1.865   7.526  12.116
 5966SOL    HW219340   1.754   7.628  12.106
 5967SOL     OW19341   0.252   7.768  11.883
 5967SOL    HW119342   0.165   7.801  11.862
 5967SOL    HW219343   0.252   7.756  11.977
 5968SOL     OW19344   1.015   7.683  12.167
 5968SOL    HW119345   0.988   7.651  12.080
 5968SOL    HW219346   1.016   7.604  12.221
 5969SOL     OW19347   1.739   7.844   0.047
 5969SOL    HW119348   1.826   7.881   0.057
 5969SOL    HW219349   1.753   7.759   0.007
 5970SOL     OW19350   0.099   7.785  11.199
 5970SOL    HW119351   0.034   7.730  11.156
 5970SOL    HW219352   0.120   7.852  11.135
 5971SOL     OW19353   0.080   7.669  11.545
 5971SOL    HW119354   0.042   7.655  11.459
 5971SOL    HW219355   0.174   7.661  11.532
 5972SOL     OW19356   1.211   7.750  11.638
 5972SOL    HW119357   1.280   7.687  11.618
 5972SOL    HW219358   1.247   7.804  11.708
 5973SOL     OW19359   0.615   0.261  11.765
 5973SOL    HW119360   0.684   0.321  11.792
 5973SOL    HW219361   0.580   0.226  11.847
 5974SOL     OW19362   1.807   7.611  12.420
 5974SOL    HW119363   1.857   7.531  12.432
 5974SOL    HW219364   1.812   7.628  12.326
 5975SOL     OW19365   0.366   7.850  11.641
 5975SOL    HW119366   0.415   7.774  11.609
 5975SOL    HW219367   0.333   7.822  11.726
 5976SOL     OW19368   1.432   7.688  12.302
 5976SOL    HW119369   1.490   7.646  12.366
 5976SOL    HW219370   1.368   7.735  12.355
 5977SOL     OW19371   1.010   7.441  12.296
 5977SOL    HW119372   0.976   7.389  12.223
 5977SOL    HW219373   1.095   7.401  12.316
 5978SOL     OW19374   1.362   7.507  11.317
 5978SOL    HW119375   1.423   7.434  11.330
 5978SOL    HW219376   1.275   7.469  11.333
 5979SOL     OW19377   1.320   7.893  11.851
 5979SOL    HW119378   1.280   7.980  11.854
 5979SOL    HW219379   1.301   7.855  11.937
 5980SOL     OW19380   1.583   7.658  12.067
 5980SOL    HW119381   1.529   7.668  12.146
 5980SOL    HW219382   1.566   7.737  12.017
 5981SOL     OW19383   2.130   0.560   0.087
 5981SOL    HW119384   2.082   0.620   0.145
 5981SOL    HW219385   2.079   0.561   0.005
 5982SOL     OW19386   2.090   0.291   0.982
 5982SOL    HW119387   2.115   0.256   1.067
 5982SOL    HW219388   1.999   0.266   0.971
 5983SOL     OW19389   1.837   0.364   0.624
 5983SOL    HW119390   1.816   0.366   0.717
 5983SOL    HW219391   1.886   0.283   0.611
 5984SOL     OW19392   2.440   1.303   1.190
 5984SOL    HW119393   2.354   1.303   1.148
 5984SOL    HW219394   2.453   1.393   1.219
 5985SOL     OW19395   3.434   1.514   0.708
 5985SOL    HW119396   3.390   1.492   0.791
 5985SOL    HW219397   3.363   1.518   0.644
 5986SOL     OW19398   2.948   0.740   0.678
 5986SOL    HW119399   3.014   0.809   0.678
 5986SOL    HW219400   2.926   0.728   0.771
 5987SOL     OW19401   3.612   0.570   0.231
 5987SOL    HW119402   3.627   0.663   0.213
 5987SOL    HW219403   3.560   0.569   0.312
 5988SOL     OW19404   2.611   1.143   1.041
 5988SOL    HW119405   2.547   1.171   1.107
 5988SOL    HW219406   2.649   1.225   1.009
 5989SOL     OW19407   2.714   0.760   1.830
 5989SOL    HW119408   2.651   0.818   1.873
 5989SOL    HW219409   2.745   0.810   1.755
 5990SOL     OW19410   2.546   0.985   0.645
 5990SOL    HW119411   2.614   0.981   0.712
 5990SOL    HW219412   2.480   1.044   0.682
 5991SOL     OW19413   2.615   1.163   1.778
 5991SOL    HW119414   2.624   1.238   1.837
 5991SOL    HW219415   2.549   1.107   1.819
 5992SOL     OW19416   2.198   1.412   1.068
 5992SOL    HW119417   2.121   1.381   1.021
 5992SOL    HW219418   2.244   1.467   1.004
 5993SOL     OW19419   3.321   1.504   1.364
 5993SOL    HW119420   3.373   1.583   1.377
 5993SOL    HW219421   3.247   1.514   1.425
 5994SOL     OW19422   2.285   0.343   1.452
 5994SOL    HW119423   2.380   0.330   1.450
 5994SOL    HW219424   2.261   0.333   1.544
 5995SOL     OW19425   3.509   0.495   0.745
 5995SOL    HW119426   3.431   0.455   0.706
 5995SOL    HW219427   3.478   0.530   0.829
 5996SOL     OW19428   3.005   1.347   1.692
 5996SOL    HW119429   3.042   1.341   1.780
 5996SOL    HW219430   2.959   1.264   1.679
 5997SOL     OW19431   2.090   1.447   0.542
 5997SOL    HW119432   2.060   1.537   0.556
 5997SOL    HW219433   2.039   1.394   0.603
 5998SOL     OW19434   2.116   1.099   0.865
 5998SOL    HW119435   2.128   1.015   0.908
 5998SOL    HW219436   2.071   1.153   0.930
 5999SOL     OW19437   2.456   1.797   1.416
 5999SOL    HW119438   2.382   1.776   1.473
 5999SOL    HW219439   2.488   1.881   1.449
 6000SOL     OW19440   2.439   0.998   0.135
 6000SOL    HW119441   2.442   1.077   0.081
 6000SOL    HW219442   2.481   1.023   0.217
 6001SOL     OW19443   3.515   0.133   1.426
 6001SOL    HW119444   3.512   0.228   1.414
 6001SOL    HW219445   3.471   0.119   1.510
 6002SOL     OW19446   2.006   0.630   0.591
 6002SOL    HW119447   1.928   0.576   0.589
 6002SOL    HW219448   1.986   0.698   0.657
 6003SOL     OW19449   3.718   1.733   0.320
 6003SOL    HW119450   3.790   1.712   0.379
 6003SOL    HW219451   3.728   1.827   0.302
 6004SOL     OW19452   1.893   1.560   0.115
 6004SOL    HW119453   1.812   1.508   0.115
 6004SOL    HW219454   1.882   1.622   0.186
 6005SOL     OW19455   3.573   0.934   0.646
 6005SOL    HW119456   3.608   0.880   0.576
 6005SOL    HW219457   3.527   1.005   0.601
 6006SOL     OW19458   3.499   1.120   0.421
 6006SOL    HW119459   3.585   1.112   0.380
 6006SOL    HW219460   3.513   1.180   0.494
 6007SOL     OW19461   1.984   0.754   1.574
 6007SOL    HW119462   2.074   0.786   1.576
 6007SOL    HW219463   1.931   0.833   1.584
 6008SOL     OW19464   2.489   1.396   0.727
 6008SOL    HW119465   2.444   1.313   0.738
 6008SOL    HW219466   2.467   1.425   0.638
 6009SOL     OW19467   3.142   1.229   1.416
 6009SOL    HW119468   3.172   1.161   1.356
 6009SOL    HW219469   3.202   1.224   1.490
 6010SOL     OW19470   2.696   0.037   0.586
 6010SOL    HW119471   2.738   0.108   0.536
 6010SOL    HW219472   2.604   0.061   0.588
 6011SOL     OW19473   2.036   0.970   1.272
 6011SOL    HW119474   2.121   0.926   1.279
 6011SOL    HW219475   1.995   0.930   1.195
 6012SOL     OW19476   3.346   1.026   0.210
 6012SOL    HW119477   3.291   0.958   0.247
 6012SOL    HW219478   3.404   1.052   0.281
 6013SOL     OW19479   3.132   1.811   1.621
 6013SOL    HW119480   3.083   1.876   1.571
 6013SOL    HW219481   3.113   1.728   1.576
 6014SOL     OW19482   2.206   0.266   1.766
 6014SOL    HW119483   2.267   0.313   1.823
 6014SOL    HW219484   2.122   0.269   1.812
 6015SOL     OW19485   3.329   1.415   0.944
 6015SOL    HW119486   3.265   1.433   1.014
 6015SOL    HW219487   3.312   1.324   0.920
 6016SOL     OW19488   3.515   1.759   0.579
 6016SOL    HW119489   3.493   1.724   0.492
 6016SOL    HW219490   3.495   1.688   0.640
 6017SOL     OW19491   2.459   0.723   0.261
 6017SOL    HW119492   2.480   0.808   0.222
 6017SOL    HW219493   2.399   0.742   0.332
 6018SOL     OW19494   3.147   0.405   0.969
 6018SOL    HW119495   3.149   0.394   0.874
 6018SOL    HW219496   3.177   0.320   1.004
 6019SOL     OW19497   3.454   1.675   0.315
 6019SOL    HW119498   3.549   1.682   0.317
 6019SOL    HW219499   3.429   1.710   0.229
 6020SOL     OW19500   2.692   0.545   1.473
 6020SOL    HW119501   2.643   0.574   1.551
 6020SOL    HW219502   2.625   0.521   1.410
 6021SOL     OW19503   3.268   0.474   1.676
 6021SOL    HW119504   3.278   0.512   1.763
 6021SOL    HW219505   3.309   0.388   1.682
 6022SOL     OW19506   2.813   0.877   1.593
 6022SOL    HW119507   2.865   0.814   1.544
 6022SOL    HW219508   2.760   0.921   1.527
 6023SOL     OW19509   2.825   0.379   1.200
 6023SOL    HW119510   2.779   0.448   1.248
 6023SOL    HW219511   2.831   0.412   1.110
 6024SOL     OW19512   2.915   0.699   0.418
 6024SOL    HW119513   2.927   0.711   0.512
 6024SOL    HW219514   2.830   0.654   0.410
 6025SOL     OW19515   1.941   0.811   0.787
 6025SOL    HW119516   2.022   0.812   0.838
 6025SOL    HW219517   1.894   0.890   0.815
 6026SOL     OW19518   1.970   1.866   1.583
 6026SOL    HW119519   1.975   1.853   1.677
 6026SOL    HW219520   1.919   1.791   1.551
 6027SOL     OW19521   2.733   0.352   0.202
 6027SOL    HW119522   2.780   0.421   0.156
 6027SOL    HW219523   2.733   0.278   0.141
 6028SOL     OW19524   3.594   0.576   1.824
 6028SOL    HW119525   3.549   0.648   1.779
 6028SOL    HW219526   3.597   0.506   1.760
 6029SOL     OW19527   3.244   1.144   0.536
 6029SOL    HW119528   3.323   1.137   0.483
 6029SOL    HW219529   3.189   1.206   0.489
 6030SOL     OW19530   2.401   0.267   0.879
 6030SOL    HW119531   2.396   0.249   0.972
 6030SOL    HW219532   2.420   0.361   0.874
 6031SOL     OW19533   2.855   1.438   0.465
 6031SOL    HW119534   2.818   1.511   0.416
 6031SOL    HW219535   2.823   1.449   0.554
 6032SOL     OW19536   2.201   1.798   0.925
 6032SOL    HW119537   2.252   1.718   0.914
 6032SOL    HW219538   2.221   1.851   0.848
 6033SOL     OW19539   3.658   1.014   0.894
 6033SOL    HW119540   3.603   1.009   0.816
 6033SOL    HW219541   3.598   1.043   0.964
 6034SOL     OW19542   3.088   1.540   1.507
 6034SOL    HW119543   3.074   1.467   1.568
 6034SOL    HW219544   3.006   1.545   1.457
 6035SOL     OW19545   2.194   0.944   0.263
 6035SOL    HW119546   2.264   0.983   0.212
 6035SOL    HW219547   2.120   1.004   0.253
 6036SOL     OW19548   3.335   0.750   0.703
 6036SOL    HW119549   3.316   0.686   0.772
 6036SOL    HW219550   3.419   0.788   0.727
 6037SOL     OW19551   2.327   1.300   1.751
 6037SOL    HW119552   2.309   1.296   1.657
 6037SOL    HW219553   2.244   1.277   1.793
 6038SOL     OW19554   2.991   1.721   0.315
 6038SOL    HW119555   2.898   1.701   0.311
 6038SOL    HW219556   3.013   1.753   0.228
 6039SOL     OW19557   1.996   0.264   1.510
 6039SOL    HW119558   1.976   0.357   1.519
 6039SOL    HW219559   2.042   0.241   1.591
 6040SOL     OW19560   3.507   1.407   0.089
 6040SOL    HW119561   3.438   1.469   0.067
 6040SOL    HW219562   3.461   1.323   0.099
 6041SOL     OW19563   2.363   1.745   0.307
 6041SOL    HW119564   2.376   1.794   0.389
 6041SOL    HW219565   2.407   1.798   0.241
 6042SOL     OW19566   3.327   0.060   0.413
 6042SOL    HW119567   3.278   0.061   0.331
 6042SOL    HW219568   3.325   0.151   0.443
 6043SOL     OW19569   2.122   1.786   1.211
 6043SOL    HW119570   2.172   1.713   1.248
 6043SOL    HW219571   2.143   1.784   1.117
 6044SOL     OW19572   2.829   1.723   0.857
 6044SOL    HW119573   2.892   1.692   0.922
 6044SOL    HW219574   2.768   1.650   0.845
 6045SOL     OW19575   2.257   0.671   0.447
 6045SOL    HW119576   2.265   0.578   0.469
 6045SOL    HW219577   2.167   0.693   0.469
 6046SOL     OW19578   2.460   0.100   0.091
 6046SOL    HW119579   2.531   0.097   0.155
 6046SOL    HW219580   2.467   0.016   0.044
 6047SOL     OW19581   2.582   0.296   1.760
 6047SOL    HW119582   2.673   0.264   1.758
 6047SOL    HW219583   2.542   0.248   1.833
 6048SOL     OW19584   2.744   1.536   1.186
 6048SOL    HW119585   2.720   1.491   1.105
 6048SOL    HW219586   2.806   1.478   1.229
 6049SOL     OW19587   3.197   0.590   1.435
 6049SOL    HW119588   3.234   0.559   1.518
 6049SOL    HW219589   3.231   0.679   1.425
 6050SOL     OW19590   2.684   1.402   0.945
 6050SOL    HW119591   2.767   1.380   0.903
 6050SOL    HW219592   2.619   1.393   0.876
 6051SOL     OW19593   2.810   0.496   0.890
 6051SOL    HW119594   2.755   0.500   0.812
 6051SOL    HW219595   2.831   0.403   0.899
 6052SOL     OW19596   2.414   0.045   0.443
 6052SOL    HW119597   2.334   0.000   0.472
 6052SOL    HW219598   2.422   0.120   0.502
 6053SOL     OW19599   3.278   1.231   0.047
 6053SOL    HW119600   3.314   1.151   0.086
 6053SOL    HW219601   3.199   1.249   0.098
 6054SOL     OW19602   2.204   0.027   0.196
 6054SOL    HW119603   2.288   0.059   0.162
 6054SOL    HW219604   2.225  -0.016   0.278
 6055SOL     OW19605   2.806   0.257   0.456
 6055SOL    HW119606   2.778   0.282   0.367
 6055SOL    HW219607   2.901   0.270   0.456
 6056SOL     OW19608   2.931   0.685   1.438
 6056SOL    HW119609   2.865   0.619   1.459
 6056SOL    HW219610   3.014   0.638   1.443
 6057SOL     OW19611   3.091   1.565   0.784
 6057SOL    HW119612   3.125   1.634   0.726
 6057SOL    HW219613   3.134   1.582   0.868
 6058SOL     OW19614   2.346   1.161   0.726
 6058SOL    HW119615   2.276   1.139   0.788
 6058SOL    HW219616   2.307   1.147   0.640
 6059SOL     OW19617   3.103   1.837   0.636
 6059SOL    HW119618   3.148   1.871   0.558
 6059SOL    HW219619   3.148   1.879   0.709
 6060SOL     OW19620   2.871   0.549   0.076
 6060SOL    HW119621   2.862   0.632   0.031
 6060SOL    HW219622   2.944   0.562   0.137
 6061SOL     OW19623   1.946   0.539   1.406
 6061SOL    HW119624   2.036   0.542   1.373
 6061SOL    HW219625   1.939   0.616   1.463
 6062SOL     OW19626   2.420   0.206   1.198
 6062SOL    HW119627   2.454   0.191   1.286
 6062SOL    HW219628   2.334   0.246   1.212
 6063SOL     OW19629   2.677   0.430   0.630
 6063SOL    HW119630   2.667   0.510   0.578
 6063SOL    HW219631   2.739   0.376   0.580
 6064SOL     OW19632   2.909   8.005   0.753
 6064SOL    HW119633   2.835   8.009   0.692
 6064SOL    HW219634   2.881   7.942   0.820
 6065SOL     OW19635   3.299   1.154   0.859
 6065SOL    HW119636   3.230   1.088   0.864
 6065SOL    HW219637   3.316   1.163   0.765
 6066SOL     OW19638   3.332   0.609   0.954
 6066SOL    HW119639   3.265   0.542   0.964
 6066SOL    HW219640   3.384   0.605   1.035
 6067SOL     OW19641   3.666   0.794   0.437
 6067SOL    HW119642   3.746   0.741   0.442
 6067SOL    HW219643   3.663   0.823   0.345
 6068SOL     OW19644   2.364   1.389   0.180
 6068SOL    HW119645   2.289   1.356   0.229
 6068SOL    HW219646   2.325   1.439   0.108
 6069SOL     OW19647   3.542   1.256   0.648
 6069SOL    HW119648   3.635   1.248   0.668
 6069SOL    HW219649   3.520   1.345   0.673
 6070SOL     OW19650   3.259   0.563   0.086
 6070SOL    HW119651   3.205   0.554   0.165
 6070SOL    HW219652   3.348   0.547   0.116
 6071SOL     OW19653   2.426   0.332   0.249
 6071SOL    HW119654   2.421   0.256   0.190
 6071SOL    HW219655   2.505   0.316   0.301
 6072SOL     OW19656   3.612   1.242   1.552
 6072SOL    HW119657   3.700   1.207   1.537
 6072SOL    HW219658   3.627   1.332   1.581
 6073SOL     OW19659   2.909   1.350   1.322
 6073SOL    HW119660   2.832   1.320   1.370
 6073SOL    HW219661   2.983   1.312   1.369
 6074SOL     OW19662   3.478   1.623   1.662
 6074SOL    HW119663   3.459   1.664   1.577
 6074SOL    HW219664   3.558   1.573   1.648
 6075SOL     OW19665   3.005   1.213   1.098
 6075SOL    HW119666   2.945   1.247   1.165
 6075SOL    HW219667   2.969   1.246   1.015
 6076SOL     OW19668   3.479   1.099   1.080
 6076SOL    HW119669   3.473   1.165   1.149
 6076SOL    HW219670   3.403   1.116   1.024
 6077SOL     OW19671   2.785   0.093   1.346
 6077SOL    HW119672   2.792   0.159   1.277
 6077SOL    HW219673   2.814   0.138   1.425
 6078SOL     OW19674   2.869   1.112   1.716
 6078SOL    HW119675   2.778   1.138   1.733
 6078SOL    HW219676   2.861   1.029   1.668
 6079SOL     OW19677   2.569   1.051   0.371
 6079SOL    HW119678   2.551   1.034   0.463
 6079SOL    HW219679   2.647   1.000   0.352
 6080SOL     OW19680   2.251   0.815   1.288
 6080SOL    HW119681   2.341   0.827   1.318
 6080SOL    HW219682   2.237   0.720   1.292
 6081SOL     OW19683   3.140   0.372   1.277
 6081SOL    HW119684   3.167   0.450   1.327
 6081SOL    HW219685   3.074   0.405   1.216
 6082SOL     OW19686   1.946   1.572   1.356
 6082SOL    HW119687   1.921   1.636   1.289
 6082SOL    HW219688   2.041   1.565   1.348
 6083SOL     OW19689   2.229   1.112   0.490
 6083SOL    HW119690   2.206   1.186   0.435
 6083SOL    HW219691   2.211   1.035   0.437
 6084SOL     OW19692   2.437   0.541   0.875
 6084SOL    HW119693   2.445   0.596   0.797
 6084SOL    HW219694   2.491   0.585   0.941
 6085SOL     OW19695   3.107   1.350   0.400
 6085SOL    HW119696   3.162   1.423   0.429
 6085SOL    HW219697   3.019   1.372   0.431
 6086SOL     OW19698   3.157   1.463   1.149
 6086SOL    HW119699   3.210   1.472   1.228
 6086SOL    HW219700   3.099   1.389   1.167
 6087SOL     OW19701   3.443   0.625   0.456
 6087SOL    HW119702   3.383   0.643   0.528
 6087SOL    HW219703   3.507   0.696   0.460
 6088SOL     OW19704   2.211   1.526   1.310
 6088SOL    HW119705   2.202   1.481   1.226
 6088SOL    HW219706   2.306   1.540   1.319
 6089SOL     OW19707   2.301   0.716   1.615
 6089SOL    HW119708   2.345   0.764   1.545
 6089SOL    HW219709   2.371   0.666   1.657
 6090SOL     OW19710   3.479   0.787   1.693
 6090SOL    HW119711   3.391   0.823   1.686
 6090SOL    HW219712   3.527   0.829   1.621
 6091SOL     OW19713   2.868   0.106   1.750
 6091SOL    HW119714   2.937   0.147   1.803
 6091SOL    HW219715   2.875   0.148   1.664
 6092SOL     OW19716   2.314   0.010   1.719
 6092SOL    HW119717   2.409   0.013   1.704
 6092SOL    HW219718   2.289   0.101   1.733
 6093SOL     OW19719   2.400   0.923   1.009
 6093SOL    HW119720   2.467   0.991   1.003
 6093SOL    HW219721   2.444   0.850   1.054
 6094SOL     OW19722   3.196   0.851   1.011
 6094SOL    HW119723   3.106   0.828   0.987
 6094SOL    HW219724   3.247   0.772   0.991
 6095SOL     OW19725   3.069   0.523   0.279
 6095SOL    HW119726   3.087   0.451   0.341
 6095SOL    HW219727   3.027   0.590   0.333
 6096SOL     OW19728   2.110   0.205   1.245
 6096SOL    HW119729   2.118   0.251   1.328
 6096SOL    HW219730   2.153   0.120   1.261
 6097SOL     OW19731   1.888   1.312   1.268
 6097SOL    HW119732   1.927   1.255   1.335
 6097SOL    HW219733   1.903   1.401   1.300
 6098SOL     OW19734   3.613   0.966   1.859
 6098SOL    HW119735   3.569   0.896   1.810
 6098SOL    HW219736   3.548   0.995   1.923
 6099SOL     OW19737   2.208   0.073   0.666
 6099SOL    HW119738   2.201   0.165   0.692
 6099SOL    HW219739   2.205   0.025   0.748
 6100SOL     OW19740   3.425   0.351   0.378
 6100SOL    HW119741   3.488   0.311   0.438
 6100SOL    HW219742   3.407   0.438   0.415
 6101SOL     OW19743   2.905   0.753   0.953
 6101SOL    HW119744   2.886   0.779   1.043
 6101SOL    HW219745   2.868   0.665   0.946
 6102SOL     OW19746   2.834   1.562   1.716
 6102SOL    HW119747   2.824   1.606   1.632
 6102SOL    HW219748   2.884   1.483   1.697
 6103SOL     OW19749   3.718   1.500   1.593
 6103SOL    HW119750   3.739   1.529   1.504
 6103SOL    HW219751   3.792   1.531   1.646
 6104SOL     OW19752   2.208   0.910   1.792
 6104SOL    HW119753   2.282   0.937   1.846
 6104SOL    HW219754   2.243   0.843   1.734
 6105SOL     OW19755   3.389   0.219   0.145
 6105SOL    HW119756   3.384   0.267   0.228
 6105SOL    HW219757   3.440   0.276   0.087
 6106SOL     OW19758   3.134   0.803   0.018
 6106SOL    HW119759   3.192   0.729   0.036
 6106SOL    HW219760   3.188   0.866  -0.029
 6107SOL     OW19761   2.927   1.342   0.849
 6107SOL    HW119762   2.934   1.266   0.792
 6107SOL    HW219763   2.991   1.404   0.815
 6108SOL     OW19764   2.157   0.818   0.954
 6108SOL    HW119765   2.242   0.859   0.972
 6108SOL    HW219766   2.169   0.727   0.982
 6109SOL     OW19767   2.199   0.539   1.011
 6109SOL    HW119768   2.168   0.451   0.989
 6109SOL    HW219769   2.282   0.548   0.963
 6110SOL     OW19770   3.000   0.412   1.655
 6110SOL    HW119771   2.959   0.445   1.735
 6110SOL    HW219772   3.091   0.440   1.662
 6111SOL     OW19773   3.063   0.201   1.472
 6111SOL    HW119774   3.059   0.258   1.549
 6111SOL    HW219775   3.084   0.260   1.400
 6112SOL     OW19776   1.930   1.801   0.943
 6112SOL    HW119777   1.900   1.724   0.893
 6112SOL    HW219778   2.024   1.804   0.927
 6113SOL     OW19779   2.360   1.571   0.907
 6113SOL    HW119780   2.426   1.639   0.922
 6113SOL    HW219781   2.400   1.512   0.843
 6114SOL     OW19782   2.838   0.812   1.209
 6114SOL    HW119783   2.870   0.773   1.290
 6114SOL    HW219784   2.752   0.773   1.195
 6115SOL     OW19785   1.905   0.514   1.126
 6115SOL    HW119786   1.987   0.536   1.082
 6115SOL    HW219787   1.923   0.530   1.219
 6116SOL     OW19788   2.047   0.539   1.728
 6116SOL    HW119789   2.140   0.547   1.707
 6116SOL    HW219790   2.005   0.611   1.681
 6117SOL     OW19791   3.239   0.924   1.676
 6117SOL    HW119792   3.262   1.017   1.668
 6117SOL    HW219793   3.227   0.895   1.585
 6118SOL     OW19794   2.676   0.572   0.373
 6118SOL    HW119795   2.682   0.502   0.308
 6118SOL    HW219796   2.608   0.631   0.338
 6119SOL     OW19797   3.500   0.609   1.172
 6119SOL    HW119798   3.491   0.551   1.248
 6119SOL    HW219799   3.589   0.594   1.141
 6120SOL     OW19800   2.090   1.546   1.724
 6120SOL    HW119801   2.070   1.595   1.804
 6120SOL    HW219802   2.107   1.457   1.754
 6121SOL     OW19803   2.521   0.448   1.291
 6121SOL    HW119804   2.515   0.376   1.229
 6121SOL    HW219805   2.531   0.526   1.237
 6122SOL     OW19806   2.807   1.679   1.466
 6122SOL    HW119807   2.756   1.641   1.394
 6122SOL    HW219808   2.795   1.773   1.457
 6123SOL     OW19809   1.997   1.148   1.470
 6123SOL    HW119810   2.002   1.101   1.554
 6123SOL    HW219811   2.015   1.081   1.404
 6124SOL     OW19812   3.182   1.036   1.213
 6124SOL    HW119813   3.197   0.970   1.145
 6124SOL    HW219814   3.118   1.096   1.175
 6125SOL     OW19815   3.170   0.841   0.310
 6125SOL    HW119816   3.107   0.820   0.379
 6125SOL    HW219817   3.122   0.826   0.229
 6126SOL     OW19818   3.623   1.723   1.162
 6126SOL    HW119819   3.675   1.776   1.100
 6126SOL    HW219820   3.612   1.639   1.118
 6127SOL     OW19821   3.091   1.720   1.060
 6127SOL    HW119822   3.177   1.758   1.040
 6127SOL    HW219823   3.112   1.637   1.104
 6128SOL     OW19824   1.946   1.271   1.002
 6128SOL    HW119825   1.923   1.284   1.094
 6128SOL    HW219826   1.884   1.205   0.972
 6129SOL     OW19827   2.552   1.671   1.748
 6129SOL    HW119828   2.510   1.756   1.740
 6129SOL    HW219829   2.645   1.688   1.734
 6130SOL     OW19830   2.797   0.106   0.065
 6130SOL    HW119831   2.882   0.134   0.098
 6130SOL    HW219832   2.753   0.066   0.140
 6131SOL     OW19833   3.616   0.166   0.511
 6131SOL    HW119834   3.657   0.136   0.430
 6131SOL    HW219835   3.554   0.097   0.534
 6132SOL     OW19836   3.255   1.575   0.480
 6132SOL    HW119837   3.325   1.598   0.419
 6132SOL    HW219838   3.190   1.645   0.468
 6133SOL     OW19839   1.984   1.811   1.846
 6133SOL    HW119840   1.945   1.735   1.889
 6133SOL    HW219841   2.033   1.855   1.915
 6134SOL     OW19842   3.137   0.934   0.666
 6134SOL    HW119843   3.208   0.870   0.675
 6134SOL    HW219844   3.176   1.004   0.614
 6135SOL     OW19845   2.659   1.279   1.413
 6135SOL    HW119846   2.631   1.321   1.494
 6135SOL    HW219847   2.583   1.286   1.355
 6136SOL     OW19848   2.554   1.583   0.130
 6136SOL    HW119849   2.486   1.639   0.093
 6136SOL    HW219850   2.508   1.504   0.160
 6137SOL     OW19851   3.478   1.727   1.396
 6137SOL    HW119852   3.525   1.732   1.313
 6137SOL    HW219853   3.466   1.818   1.423
 6138SOL     OW19854   3.703   0.169   0.952
 6138SOL    HW119855   3.695   0.076   0.971
 6138SOL    HW219856   3.617   0.194   0.916
 6139SOL     OW19857   2.127   0.334   0.716
 6139SOL    HW119858   2.079   0.415   0.701
 6139SOL    HW219859   2.126   0.322   0.811
 6140SOL     OW19860   3.038   1.583  -0.001
 6140SOL    HW119861   3.031   1.519   0.069
 6140SOL    HW219862   2.951   1.622  -0.007
 6141SOL     OW19863   2.687   1.005   1.388
 6141SOL    HW119864   2.727   0.992   1.302
 6141SOL    HW219865   2.680   1.100   1.398
 6142SOL     OW19866   2.783   0.909   0.293
 6142SOL    HW119867   2.849   0.949   0.236
 6142SOL    HW219868   2.830   0.843   0.343
 6143SOL     OW19869   3.317   1.578  -0.006
 6143SOL    HW119870   3.246   1.626   0.039
 6143SOL    HW219871   3.388   1.642  -0.012
 6144SOL     OW19872   2.225   1.308   1.501
 6144SOL    HW119873   2.219   1.381   1.438
 6144SOL    HW219874   2.149   1.253   1.482
 6145SOL     OW19875   3.476   1.296   1.275
 6145SOL    HW119876   3.534   1.277   1.348
 6145SOL    HW219877   3.413   1.359   1.309
 6146SOL     OW19878   2.925   1.109   0.713
 6146SOL    HW119879   2.854   1.058   0.752
 6146SOL    HW219880   2.992   1.044   0.692
 6147SOL     OW19881   2.833   0.220   0.924
 6147SOL    HW119882   2.868   0.180   0.845
 6147SOL    HW219883   2.882   0.179   0.995
 6148SOL     OW19884   2.459   1.495   0.465
 6148SOL    HW119885   2.461   1.435   0.391
 6148SOL    HW219886   2.395   1.562   0.440
 6149SOL     OW19887   3.586   0.418   1.376
 6149SOL    HW119888   3.654   0.483   1.392
 6149SOL    HW219889   3.624   0.357   1.312
 6150SOL     OW19890   2.143   1.307   0.315
 6150SOL    HW119891   2.062   1.259   0.300
 6150SOL    HW219892   2.122   1.369   0.385
 6151SOL     OW19893   1.971   1.031   1.719
 6151SOL    HW119894   1.898   1.004   1.775
 6151SOL    HW219895   2.047   0.988   1.758
 6152SOL     OW19896   2.523   0.198   1.478
 6152SOL    HW119897   2.613   0.178   1.455
 6152SOL    HW219898   2.526   0.222   1.571
 6153SOL     OW19899   3.282   0.857   1.405
 6153SOL    HW119900   3.230   0.915   1.349
 6153SOL    HW219901   3.371   0.862   1.368
 6154SOL     OW19902   1.951   0.192   0.267
 6154SOL    HW119903   1.962   0.286   0.278
 6154SOL    HW219904   2.036   0.155   0.290
 6155SOL     OW19905   3.046   1.344   0.130
 6155SOL    HW119906   2.953   1.326   0.115
 6155SOL    HW219907   3.058   1.336   0.225
 6156SOL     OW19908   2.487   0.817   1.430
 6156SOL    HW119909   2.538   0.897   1.433
 6156SOL    HW219910   2.535   0.760   1.369
 6157SOL     OW19911   3.350   1.795   0.968
 6157SOL    HW119912   3.365   1.877   0.922
 6157SOL    HW219913   3.428   1.782   1.022
 6158SOL     OW19914   2.544   0.574   1.704
 6158SOL    HW119915   2.596   0.631   1.761
 6158SOL    HW219916   2.558   0.486   1.740
 6159SOL     OW19917   3.336   1.183   1.625
 6159SOL    HW119918   3.322   1.209   1.716
 6159SOL    HW219919   3.426   1.209   1.607
 6160SOL     OW19920   2.232   1.746   1.573
 6160SOL    HW119921   2.149   1.788   1.553
 6160SOL    HW219922   2.208   1.661   1.610
 6161SOL     OW19923   3.521   0.882   1.256
 6161SOL    HW119924   3.512   0.798   1.211
 6161SOL    HW219925   3.507   0.948   1.188
 6162SOL     OW19926   3.081   0.280   0.429
 6162SOL    HW119927   3.094   0.187   0.444
 6162SOL    HW219928   3.126   0.323   0.502
 6163SOL     OW19929   2.448   0.718   0.659
 6163SOL    HW119930   2.488   0.805   0.660
 6163SOL    HW219931   2.378   0.725   0.594
 6164SOL     OW19932   3.608   0.368   1.647
 6164SOL    HW119933   3.586   0.390   1.557
 6164SOL    HW219934   3.539   0.307   1.674
 6165SOL     OW19935   3.614   0.937   1.508
 6165SOL    HW119936   3.597   1.030   1.522
 6165SOL    HW219937   3.590   0.922   1.417
 6166SOL     OW19938   2.782   1.354   0.047
 6166SOL    HW119939   2.735   1.335   0.127
 6166SOL    HW219940   2.751   1.441   0.020
 6167SOL     OW19941   2.531   1.785   0.921
 6167SOL    HW119942   2.492   1.871   0.907
 6167SOL    HW219943   2.623   1.804   0.940
 6168SOL     OW19944   2.731   0.972   0.854
 6168SOL    HW119945   2.771   0.894   0.891
 6168SOL    HW219946   2.695   1.019   0.929
 6169SOL     OW19947   2.967   1.005   0.116
 6169SOL    HW119948   2.913   1.033   0.043
 6169SOL    HW219949   3.042   0.962   0.076
 6170SOL     OW19950   3.705   1.521   0.824
 6170SOL    HW119951   3.623   1.540   0.778
 6170SOL    HW219952   3.678   1.500   0.913
 6171SOL     OW19953   2.075   1.292   1.848
 6171SOL    HW119954   2.017   1.221   1.821
 6171SOL    HW219955   2.060   1.300   1.942
 6172SOL     OW19956   1.942   1.222   0.662
 6172SOL    HW119957   1.999   1.179   0.725
 6172SOL    HW219958   1.965   1.182   0.578
 6173SOL     OW19959   2.543   1.423   1.615
 6173SOL    HW119960   2.484   1.368   1.667
 6173SOL    HW219961   2.538   1.509   1.656
 6174SOL     OW19962   3.701   0.238   1.219
 6174SOL    HW119963   3.651   0.161   1.246
 6174SOL    HW219964   3.707   0.231   1.124
 6175SOL     OW19965   2.269   0.407   0.496
 6175SOL    HW119966   2.346   0.350   0.493
 6175SOL    HW219967   2.223   0.382   0.576
 6176SOL     OW19968   3.570   1.468   1.064
 6176SOL    HW119969   3.484   1.457   1.025
 6176SOL    HW219970   3.567   1.413   1.143
 6177SOL     OW19971   2.188   0.545   1.290
 6177SOL    HW119972   2.245   0.486   1.338
 6177SOL    HW219973   2.220   0.541   1.200
 6178SOL     OW19974   2.689   1.579   0.648
 6178SOL    HW119975   2.640   1.601   0.569
 6178SOL    HW219976   2.631   1.519   0.695
 6179SOL     OW19977   3.280   0.197   1.113
 6179SOL    HW119978   3.346   0.147   1.161
 6179SOL    HW219979   3.239   0.253   1.178
 6180SOL     OW19980   2.938   0.044   1.102
 6180SOL    HW119981   2.873  -0.017   1.138
 6180SOL    HW219982   2.991   0.070   1.178
 6181SOL     OW19983   2.675   1.296   0.288
 6181SOL    HW119984   2.628   1.220   0.322
 6181SOL    HW219985   2.730   1.325   0.362
 6182SOL     OW19986   2.484   1.562   1.280
 6182SOL    HW119987   2.480   1.644   1.328
 6182SOL    HW219988   2.573   1.558   1.246
 6183SOL     OW19989   3.205   0.012   0.118
 6183SOL    HW119990   3.279   0.071   0.108
 6183SOL    HW219991   3.130   0.070   0.135
 6184SOL     OW19992   3.451   0.224   0.879
 6184SOL    HW119993   3.386   0.222   0.950
 6184SOL    HW219994   3.404   0.263   0.805
 6185SOL     OW19995   2.726   1.652   0.347
 6185SOL    HW119996   2.661   1.629   0.281
 6185SOL    HW219997   2.694   1.735   0.384
 6186SOL     OW19998   2.075   0.621   2.000
 6186SOL    HW119999   1.989   0.614   2.043
 6186SOL    HW220000   2.056   0.608   1.907
 6187SOL     OW20001   2.072   0.292   2.848
 6187SOL    HW120002   2.101   0.255   2.931
 6187SOL    HW220003   1.989   0.248   2.830
 6188SOL     OW20004   1.879   0.409   2.494
 6188SOL    HW120005   1.794   0.437   2.529
 6188SOL    HW220006   1.857   0.338   2.433
 6189SOL     OW20007   2.430   1.292   3.041
 6189SOL    HW120008   2.347   1.257   3.008
 6189SOL    HW220009   2.427   1.385   3.021
 6190SOL     OW20010   3.440   1.524   2.569
 6190SOL    HW120011   3.396   1.511   2.653
 6190SOL    HW220012   3.369   1.535   2.506
 6191SOL     OW20013   2.991   0.671   2.557
 6191SOL    HW120014   3.008   0.760   2.590
 6191SOL    HW220015   2.937   0.630   2.624
 6192SOL     OW20016   3.650   0.597   2.087
 6192SOL    HW120017   3.622   0.588   1.996
 6192SOL    HW220018   3.603   0.527   2.133
 6193SOL     OW20019   2.647   1.161   2.918
 6193SOL    HW120020   2.572   1.192   2.968
 6193SOL    HW220021   2.672   1.234   2.863
 6194SOL     OW20022   2.749   0.778   3.687
 6194SOL    HW120023   2.788   0.846   3.741
 6194SOL    HW220024   2.756   0.812   3.598
 6195SOL     OW20025   2.550   0.986   2.512
 6195SOL    HW120026   2.615   0.983   2.582
 6195SOL    HW220027   2.479   1.039   2.547
 6196SOL     OW20028   2.569   1.145   3.670
 6196SOL    HW120029   2.615   1.221   3.707
 6196SOL    HW220030   2.484   1.180   3.643
 6197SOL     OW20031   3.325   1.499   3.218
 6197SOL    HW120032   3.384   1.574   3.223
 6197SOL    HW220033   3.269   1.508   3.295
 6198SOL     OW20034   2.284   0.346   3.296
 6198SOL    HW120035   2.372   0.312   3.314
 6198SOL    HW220036   2.242   0.352   3.382
 6199SOL     OW20037   3.455   0.458   2.581
 6199SOL    HW120038   3.367   0.464   2.545
 6199SOL    HW220039   3.456   0.518   2.655
 6200SOL     OW20040   2.069   1.722   2.330
 6200SOL    HW120041   2.097   1.790   2.392
 6200SOL    HW220042   2.124   1.736   2.253
 6201SOL     OW20043   2.993   1.341   3.553
 6201SOL    HW120044   3.047   1.332   3.631
 6201SOL    HW220045   2.941   1.260   3.550
 6202SOL     OW20046   2.122   1.448   2.393
 6202SOL    HW120047   2.092   1.539   2.399
 6202SOL    HW220048   2.069   1.401   2.457
 6203SOL     OW20049   2.123   1.113   2.757
 6203SOL    HW120050   2.106   1.026   2.794
 6203SOL    HW220051   2.069   1.172   2.810
 6204SOL     OW20052   2.463   1.794   3.273
 6204SOL    HW120053   2.384   1.792   3.328
 6204SOL    HW220054   2.525   1.847   3.322
 6205SOL     OW20055   3.456   0.141   3.312
 6205SOL    HW120056   3.478   0.232   3.291
 6205SOL    HW220057   3.466   0.136   3.408
 6206SOL     OW20058   1.983   0.662   2.423
 6206SOL    HW120059   1.952   0.575   2.447
 6206SOL    HW220060   1.975   0.713   2.503
 6207SOL     OW20061   3.709   1.754   2.185
 6207SOL    HW120062   3.780   1.732   2.245
 6207SOL    HW220063   3.721   1.846   2.165
 6208SOL     OW20064   1.914   1.590   1.986
 6208SOL    HW120065   1.892   1.498   1.996
 6208SOL    HW220066   1.875   1.633   2.062
 6209SOL     OW20067   3.557   0.917   2.508
 6209SOL    HW120068   3.639   0.872   2.487
 6209SOL    HW220069   3.536   0.966   2.429
 6210SOL     OW20070   3.512   1.102   2.294
 6210SOL    HW120071   3.599   1.102   2.254
 6210SOL    HW220072   3.517   1.166   2.364
 6211SOL     OW20073   1.943   0.743   3.452
 6211SOL    HW120074   2.034   0.769   3.446
 6211SOL    HW220075   1.894   0.823   3.433
 6212SOL     OW20076   2.499   1.368   2.586
 6212SOL    HW120077   2.447   1.287   2.577
 6212SOL    HW220078   2.434   1.435   2.607
 6213SOL     OW20079   3.160   1.228   3.274
 6213SOL    HW120080   3.202   1.166   3.214
 6213SOL    HW220081   3.214   1.226   3.353
 6214SOL     OW20082   2.703   0.025   2.416
 6214SOL    HW120083   2.743   0.105   2.380
 6214SOL    HW220084   2.610   0.033   2.394
 6215SOL     OW20085   2.052   0.968   3.138
 6215SOL    HW120086   2.135   0.922   3.129
 6215SOL    HW220087   1.991   0.917   3.084
 6216SOL     OW20088   3.402   1.004   2.054
 6216SOL    HW120089   3.382   0.911   2.067
 6216SOL    HW220090   3.436   1.034   2.138
 6217SOL     OW20091   3.005   1.800   3.438
 6217SOL    HW120092   3.047   1.877   3.401
 6217SOL    HW220093   3.071   1.731   3.431
 6218SOL     OW20094   2.195   0.251   3.655
 6218SOL    HW120095   2.252   0.323   3.681
 6218SOL    HW220096   2.112   0.268   3.701
 6219SOL     OW20097   3.325   1.423   2.805
 6219SOL    HW120098   3.269   1.441   2.881
 6219SOL    HW220099   3.317   1.328   2.791
 6220SOL     OW20100   3.505   1.774   2.428
 6220SOL    HW120101   3.490   1.727   2.346
 6220SOL    HW220102   3.498   1.707   2.496
 6221SOL     OW20103   2.461   0.696   2.155
 6221SOL    HW120104   2.462   0.773   2.098
 6221SOL    HW220105   2.390   0.713   2.217
 6222SOL     OW20106   3.183   0.371   2.793
 6222SOL    HW120107   3.090   0.347   2.800
 6222SOL    HW220108   3.226   0.317   2.860
 6223SOL     OW20109   3.441   1.670   2.174
 6223SOL    HW120110   3.532   1.696   2.163
 6223SOL    HW220111   3.408   1.658   2.085
 6224SOL     OW20112   2.691   0.573   3.341
 6224SOL    HW120113   2.639   0.567   3.422
 6224SOL    HW220114   2.630   0.547   3.272
 6225SOL     OW20115   2.786   0.883   3.426
 6225SOL    HW120116   2.863   0.833   3.399
 6225SOL    HW220117   2.713   0.843   3.379
 6226SOL     OW20118   2.852   0.416   3.084
 6226SOL    HW120119   2.760   0.425   3.111
 6226SOL    HW220120   2.854   0.451   2.995
 6227SOL     OW20121   2.947   0.690   2.287
 6227SOL    HW120122   2.963   0.683   2.381
 6227SOL    HW220123   2.857   0.662   2.275
 6228SOL     OW20124   1.958   0.831   2.632
 6228SOL    HW120125   2.035   0.823   2.688
 6228SOL    HW220126   1.903   0.898   2.674
 6229SOL     OW20127   1.951   1.813   3.458
 6229SOL    HW120128   1.971   1.819   3.552
 6229SOL    HW220129   1.922   1.901   3.435
 6230SOL     OW20130   2.758   0.346   2.065
 6230SOL    HW120131   2.799   0.392   1.992
 6230SOL    HW220132   2.750   0.255   2.034
 6231SOL     OW20133   3.575   0.575   3.694
 6231SOL    HW120134   3.535   0.647   3.646
 6231SOL    HW220135   3.586   0.506   3.629
 6232SOL     OW20136   3.236   1.132   2.376
 6232SOL    HW120137   3.324   1.132   2.339
 6232SOL    HW220138   3.191   1.202   2.328
 6233SOL     OW20139   2.340   0.169   2.797
 6233SOL    HW120140   2.357   0.239   2.859
 6233SOL    HW220141   2.387   0.194   2.717
 6234SOL     OW20142   2.872   1.450   2.352
 6234SOL    HW120143   2.848   1.520   2.291
 6234SOL    HW220144   2.820   1.468   2.431
 6235SOL     OW20145   2.211   1.823   2.733
 6235SOL    HW120146   2.260   1.741   2.728
 6235SOL    HW220147   2.277   1.888   2.759
 6236SOL     OW20148   3.666   1.050   2.726
 6236SOL    HW120149   3.610   1.017   2.656
 6236SOL    HW220150   3.607   1.066   2.799
 6237SOL     OW20151   3.101   1.535   3.380
 6237SOL    HW120152   3.086   1.470   3.448
 6237SOL    HW220153   3.045   1.507   3.307
 6238SOL     OW20154   2.179   0.963   2.113
 6238SOL    HW120155   2.266   0.977   2.075
 6238SOL    HW220156   2.153   0.876   2.081
 6239SOL     OW20157   3.340   0.760   2.581
 6239SOL    HW120158   3.337   0.713   2.665
 6239SOL    HW220159   3.422   0.810   2.584
 6240SOL     OW20160   2.333   1.267   3.601
 6240SOL    HW120161   2.312   1.263   3.507
 6240SOL    HW220162   2.248   1.265   3.645
 6241SOL     OW20163   3.020   1.749   2.125
 6241SOL    HW120164   2.928   1.774   2.119
 6241SOL    HW220165   3.036   1.699   2.044
 6242SOL     OW20166   2.008   0.254   3.391
 6242SOL    HW120167   1.982   0.333   3.343
 6242SOL    HW220168   2.035   0.286   3.477
 6243SOL     OW20169   3.493   1.379   1.957
 6243SOL    HW120170   3.456   1.466   1.943
 6243SOL    HW220171   3.423   1.319   1.931
 6244SOL     OW20172   3.268   0.128   2.297
 6244SOL    HW120173   3.270   0.097   2.206
 6244SOL    HW220174   3.361   0.139   2.320
 6245SOL     OW20175   2.112   1.772   3.083
 6245SOL    HW120176   2.175   1.732   3.142
 6245SOL    HW220177   2.126   1.727   2.999
 6246SOL     OW20178   2.802   1.716   2.760
 6246SOL    HW120179   2.889   1.681   2.780
 6246SOL    HW220180   2.772   1.663   2.686
 6247SOL     OW20181   2.252   0.696   2.338
 6247SOL    HW120182   2.269   0.603   2.350
 6247SOL    HW220183   2.158   0.706   2.356
 6248SOL     OW20184   3.390   0.140   3.615
 6248SOL    HW120185   3.397   0.176   3.703
 6248SOL    HW220186   3.347   0.208   3.564
 6249SOL     OW20187   2.458   0.130   1.948
 6249SOL    HW120188   2.529   0.093   2.000
 6249SOL    HW220189   2.419   0.054   1.904
 6250SOL     OW20190   2.621   0.238   3.632
 6250SOL    HW120191   2.714   0.246   3.613
 6250SOL    HW220192   2.596   0.323   3.667
 6251SOL     OW20193   2.726   1.472   3.053
 6251SOL    HW120194   2.730   1.447   2.960
 6251SOL    HW220195   2.810   1.443   3.089
 6252SOL     OW20196   3.199   0.599   3.277
 6252SOL    HW120197   3.236   0.547   3.349
 6252SOL    HW220198   3.245   0.683   3.283
 6253SOL     OW20199   2.694   1.391   2.777
 6253SOL    HW120200   2.727   1.471   2.735
 6253SOL    HW220201   2.620   1.364   2.722
 6254SOL     OW20202   2.449   0.046   2.314
 6254SOL    HW120203   2.383  -0.021   2.331
 6254SOL    HW220204   2.401   0.118   2.273
 6255SOL     OW20205   3.285   1.207   1.897
 6255SOL    HW120206   3.310   1.134   1.952
 6255SOL    HW220207   3.200   1.235   1.930
 6256SOL     OW20208   2.153   0.047   2.057
 6256SOL    HW120209   2.228   0.106   2.071
 6256SOL    HW220210   2.184  -0.038   2.086
 6257SOL     OW20211   2.822   0.255   2.316
 6257SOL    HW120212   2.796   0.288   2.230
 6257SOL    HW220213   2.915   0.274   2.322
 6258SOL     OW20214   2.944   0.696   3.305
 6258SOL    HW120215   2.884   0.624   3.325
 6258SOL    HW220216   3.030   0.655   3.300
 6259SOL     OW20217   3.081   1.551   2.655
 6259SOL    HW120218   3.087   1.614   2.583
 6259SOL    HW220219   3.127   1.593   2.728
 6260SOL     OW20220   2.334   1.143   2.585
 6260SOL    HW120221   2.266   1.135   2.652
 6260SOL    HW220222   2.288   1.131   2.502
 6261SOL     OW20223   3.117   1.786   2.480
 6261SOL    HW120224   3.164   1.847   2.423
 6261SOL    HW220225   3.054   1.841   2.526
 6262SOL     OW20226   2.878   0.525   1.880
 6262SOL    HW120227   2.830   0.608   1.872
 6262SOL    HW220228   2.940   0.540   1.952
 6263SOL     OW20229   1.954   0.534   3.283
 6263SOL    HW120230   2.040   0.549   3.245
 6263SOL    HW220231   1.940   0.609   3.342
 6264SOL     OW20232   2.442   0.209   3.071
 6264SOL    HW120233   2.465   0.183   3.161
 6264SOL    HW220234   2.347   0.199   3.067
 6265SOL     OW20235   2.647   0.412   2.462
 6265SOL    HW120236   2.651   0.499   2.423
 6265SOL    HW220237   2.718   0.364   2.420
 6266SOL     OW20238   2.855   8.012   2.639
 6266SOL    HW120239   2.804   8.017   2.559
 6266SOL    HW220240   2.857   7.919   2.661
 6267SOL     OW20241   3.247   1.178   2.690
 6267SOL    HW120242   3.224   1.086   2.706
 6267SOL    HW220243   3.316   1.174   2.623
 6268SOL     OW20244   3.331   0.612   2.818
 6268SOL    HW120245   3.275   0.534   2.822
 6268SOL    HW220246   3.386   0.605   2.897
 6269SOL     OW20247   3.692   0.805   2.252
 6269SOL    HW120248   3.755   0.760   2.308
 6269SOL    HW220249   3.673   0.743   2.182
 6270SOL     OW20250   2.347   1.428   2.001
 6270SOL    HW120251   2.274   1.391   2.049
 6270SOL    HW220252   2.351   1.378   1.920
 6271SOL     OW20253   3.525   1.266   2.509
 6271SOL    HW120254   3.619   1.261   2.522
 6271SOL    HW220255   3.503   1.357   2.528
 6272SOL     OW20256   3.269   0.554   1.940
 6272SOL    HW120257   3.196   0.539   2.000
 6272SOL    HW220258   3.332   0.485   1.960
 6273SOL     OW20259   2.352   0.261   2.164
 6273SOL    HW120260   2.406   0.224   2.094
 6273SOL    HW220261   2.330   0.349   2.134
 6274SOL     OW20262   3.601   1.248   3.411
 6274SOL    HW120263   3.685   1.204   3.424
 6274SOL    HW220264   3.617   1.339   3.438
 6275SOL     OW20265   2.925   1.341   3.220
 6275SOL    HW120266   2.879   1.352   3.303
 6275SOL    HW220267   3.007   1.297   3.244
 6276SOL     OW20268   3.458   1.609   3.510
 6276SOL    HW120269   3.459   1.659   3.428
 6276SOL    HW220270   3.545   1.569   3.514
 6277SOL     OW20271   2.961   1.209   2.973
 6277SOL    HW120272   2.930   1.242   3.057
 6277SOL    HW220273   2.887   1.158   2.939
 6278SOL     OW20274   3.487   1.103   2.936
 6278SOL    HW120275   3.504   1.165   3.006
 6278SOL    HW220276   3.393   1.086   2.941
 6279SOL     OW20277   2.802   0.070   3.264
 6279SOL    HW120278   2.742   0.077   3.190
 6279SOL    HW220279   2.804   0.158   3.302
 6280SOL     OW20280   2.829   1.120   3.558
 6280SOL    HW120281   2.742   1.131   3.597
 6280SOL    HW220282   2.826   1.035   3.514
 6281SOL     OW20283   2.582   1.100   2.256
 6281SOL    HW120284   2.571   1.052   2.337
 6281SOL    HW220285   2.541   1.045   2.189
 6282SOL     OW20286   2.286   0.818   3.112
 6282SOL    HW120287   2.356   0.825   3.177
 6282SOL    HW220288   2.241   0.736   3.134
 6283SOL     OW20289   3.120   0.382   3.128
 6283SOL    HW120290   3.151   0.461   3.172
 6283SOL    HW220291   3.029   0.400   3.106
 6284SOL     OW20292   1.949   1.560   3.222
 6284SOL    HW120293   1.922   1.615   3.148
 6284SOL    HW220294   2.044   1.553   3.214
 6285SOL     OW20295   2.194   1.119   2.349
 6285SOL    HW120296   2.200   1.191   2.286
 6285SOL    HW220297   2.193   1.040   2.295
 6286SOL     OW20298   2.407   0.534   2.722
 6286SOL    HW120299   2.422   0.588   2.645
 6286SOL    HW220300   2.484   0.549   2.777
 6287SOL     OW20301   3.108   1.351   2.257
 6287SOL    HW120302   3.165   1.424   2.280
 6287SOL    HW220303   3.021   1.377   2.289
 6288SOL     OW20304   3.154   1.451   3.015
 6288SOL    HW120305   3.214   1.467   3.088
 6288SOL    HW220306   3.103   1.375   3.042
 6289SOL     OW20307   3.410   0.661   2.326
 6289SOL    HW120308   3.376   0.690   2.411
 6289SOL    HW220309   3.494   0.707   2.317
 6290SOL     OW20310   2.224   1.523   3.218
 6290SOL    HW120311   2.212   1.508   3.124
 6290SOL    HW220312   2.317   1.543   3.227
 6291SOL     OW20313   3.471   0.786   3.558
 6291SOL    HW120314   3.381   0.820   3.556
 6291SOL    HW220315   3.516   0.833   3.488
 6292SOL     OW20316   2.907   0.094   3.602
 6292SOL    HW120317   2.971   0.143   3.654
 6292SOL    HW220318   2.915   0.131   3.514
 6293SOL     OW20319   2.274  -0.016   3.625
 6293SOL    HW120320   2.364  -0.025   3.595
 6293SOL    HW220321   2.262   0.079   3.634
 6294SOL     OW20322   2.439   0.874   2.892
 6294SOL    HW120323   2.454   0.968   2.896
 6294SOL    HW220324   2.384   0.855   2.967
 6295SOL     OW20325   3.200   0.860   2.867
 6295SOL    HW120326   3.107   0.842   2.855
 6295SOL    HW220327   3.243   0.774   2.858
 6296SOL     OW20328   3.057   0.521   2.110
 6296SOL    HW120329   3.078   0.438   2.153
 6296SOL    HW220330   3.021   0.576   2.180
 6297SOL     OW20331   2.159   0.203   3.097
 6297SOL    HW120332   2.189   0.259   3.169
 6297SOL    HW220333   2.098   0.142   3.138
 6298SOL     OW20334   1.878   1.302   3.133
 6298SOL    HW120335   1.927   1.241   3.188
 6298SOL    HW220336   1.914   1.388   3.155
 6299SOL     OW20337   2.579   0.631   2.925
 6299SOL    HW120338   2.660   0.617   2.877
 6299SOL    HW220339   2.548   0.718   2.896
 6300SOL     OW20340   3.604   0.966   3.725
 6300SOL    HW120341   3.560   0.894   3.679
 6300SOL    HW220342   3.548   0.984   3.801
 6301SOL     OW20343   2.218   0.071   2.540
 6301SOL    HW120344   2.190   0.163   2.545
 6301SOL    HW220345   2.180   0.039   2.458
 6302SOL     OW20346   3.506   0.407   2.246
 6302SOL    HW120347   3.505   0.331   2.305
 6302SOL    HW220348   3.458   0.475   2.294
 6303SOL     OW20349   2.925   0.823   2.860
 6303SOL    HW120350   2.892   0.833   2.949
 6303SOL    HW220351   2.907   0.731   2.837
 6304SOL     OW20352   2.833   1.559   3.592
 6304SOL    HW120353   2.822   1.601   3.507
 6304SOL    HW220354   2.885   1.481   3.573
 6305SOL     OW20355   3.708   1.496   3.460
 6305SOL    HW120356   3.732   1.536   3.376
 6305SOL    HW220357   3.784   1.512   3.516
 6306SOL     OW20358   2.219   0.936   3.672
 6306SOL    HW120359   2.302   0.933   3.719
 6306SOL    HW220360   2.229   0.873   3.600
 6307SOL     OW20361   3.402   0.332   2.010
 6307SOL    HW120362   3.416   0.239   1.993
 6307SOL    HW220363   3.443   0.348   2.095
 6308SOL     OW20364   3.179   0.808   1.928
 6308SOL    HW120365   3.220   0.721   1.928
 6308SOL    HW220366   3.205   0.846   1.844
 6309SOL     OW20367   2.167   0.812   2.807
 6309SOL    HW120368   2.260   0.832   2.798
 6309SOL    HW220369   2.164   0.721   2.834
 6310SOL     OW20370   2.185   0.535   2.867
 6310SOL    HW120371   2.147   0.448   2.852
 6310SOL    HW220372   2.263   0.537   2.813
 6311SOL     OW20373   2.964   0.429   3.528
 6311SOL    HW120374   2.948   0.466   3.615
 6311SOL    HW220375   3.059   0.432   3.517
 6312SOL     OW20376   3.064   0.207   3.325
 6312SOL    HW120377   3.112   0.243   3.399
 6312SOL    HW220378   3.077   0.271   3.255
 6313SOL     OW20379   1.865   1.318   2.060
 6313SOL    HW120380   1.778   1.335   2.023
 6313SOL    HW220381   1.860   1.227   2.091
 6314SOL     OW20382   1.935   1.798   2.754
 6314SOL    HW120383   1.923   1.704   2.739
 6314SOL    HW220384   2.030   1.811   2.753
 6315SOL     OW20385   2.387   1.595   2.706
 6315SOL    HW120386   2.442   1.656   2.755
 6315SOL    HW220387   2.330   1.555   2.771
 6316SOL     OW20388   2.807   0.830   3.108
 6316SOL    HW120389   2.867   0.789   3.171
 6316SOL    HW220390   2.729   0.775   3.109
 6317SOL     OW20391   1.912   0.540   2.987
 6317SOL    HW120392   1.983   0.546   2.924
 6317SOL    HW220393   1.955   0.535   3.073
 6318SOL     OW20394   2.064   0.537   3.593
 6318SOL    HW120395   2.146   0.573   3.559
 6318SOL    HW220396   1.996   0.591   3.554
 6319SOL     OW20397   3.236   0.935   3.518
 6319SOL    HW120398   3.265   1.026   3.517
 6319SOL    HW220399   3.242   0.908   3.426
 6320SOL     OW20400   2.703   0.583   2.218
 6320SOL    HW120401   2.705   0.502   2.167
 6320SOL    HW220402   2.616   0.620   2.200
 6321SOL     OW20403   3.500   0.607   3.037
 6321SOL    HW120404   3.488   0.550   3.113
 6321SOL    HW220405   3.590   0.591   3.008
 6322SOL     OW20406   2.075   1.538   3.577
 6322SOL    HW120407   2.083   1.606   3.644
 6322SOL    HW220408   2.091   1.456   3.623
 6323SOL     OW20409   2.572   0.453   3.126
 6323SOL    HW120410   2.520   0.379   3.097
 6323SOL    HW220411   2.566   0.517   3.055
 6324SOL     OW20412   2.789   1.670   3.340
 6324SOL    HW120413   2.764   1.702   3.253
 6324SOL    HW220414   2.858   1.729   3.369
 6325SOL     OW20415   2.315   0.495   2.030
 6325SOL    HW120416   2.376   0.561   2.065
 6325SOL    HW220417   2.231   0.541   2.025
 6326SOL     OW20418   2.009   1.146   3.338
 6326SOL    HW120419   2.011   1.100   3.422
 6326SOL    HW220420   2.023   1.077   3.273
 6327SOL     OW20421   3.197   1.053   3.052
 6327SOL    HW120422   3.201   0.979   2.991
 6327SOL    HW220423   3.117   1.100   3.028
 6328SOL     OW20424   3.575   1.744   2.985
 6328SOL    HW120425   3.642   1.813   2.987
 6328SOL    HW220426   3.625   1.663   2.967
 6329SOL     OW20427   3.086   1.709   2.921
 6329SOL    HW120428   3.170   1.751   2.901
 6329SOL    HW220429   3.109   1.630   2.970
 6330SOL     OW20430   1.893   1.272   2.846
 6330SOL    HW120431   1.890   1.274   2.941
 6330SOL    HW220432   1.846   1.191   2.823
 6331SOL     OW20433   2.543   1.666   3.592
 6331SOL    HW120434   2.498   1.750   3.595
 6331SOL    HW220435   2.635   1.688   3.578
 6332SOL     OW20436   3.528   0.157   2.365
 6332SOL    HW120437   3.601   0.132   2.308
 6332SOL    HW220438   3.550   0.118   2.450
 6333SOL     OW20439   3.255   1.568   2.357
 6333SOL    HW120440   3.311   1.600   2.287
 6333SOL    HW220441   3.198   1.643   2.379
 6334SOL     OW20442   2.014   1.775   3.720
 6334SOL    HW120443   1.959   1.723   3.779
 6334SOL    HW220444   2.065   1.831   3.778
 6335SOL     OW20445   3.134   0.938   2.538
 6335SOL    HW120446   3.199   0.868   2.548
 6335SOL    HW220447   3.172   0.997   2.474
 6336SOL     OW20448   2.541   1.614   2.013
 6336SOL    HW120449   2.551   1.635   1.920
 6336SOL    HW220450   2.479   1.542   2.015
 6337SOL     OW20451   3.479   1.716   3.242
 6337SOL    HW120452   3.514   1.735   3.155
 6337SOL    HW220453   3.470   1.802   3.283
 6338SOL     OW20454   3.724   0.167   2.800
 6338SOL    HW120455   3.717   0.080   2.839
 6338SOL    HW220456   3.636   0.185   2.767
 6339SOL     OW20457   2.123   0.320   2.575
 6339SOL    HW120458   2.040   0.358   2.547
 6339SOL    HW220459   2.120   0.322   2.670
 6340SOL     OW20460   3.079   1.612   1.893
 6340SOL    HW120461   3.054   1.521   1.907
 6340SOL    HW220462   3.020   1.643   1.824
 6341SOL     OW20463   2.677   1.112   3.237
 6341SOL    HW120464   2.684   1.050   3.164
 6341SOL    HW220465   2.741   1.082   3.301
 6342SOL     OW20466   2.787   0.894   2.135
 6342SOL    HW120467   2.756   0.972   2.088
 6342SOL    HW220468   2.706   0.849   2.161
 6343SOL     OW20469   3.358   1.622   1.910
 6343SOL    HW120470   3.263   1.620   1.896
 6343SOL    HW220471   3.395   1.632   1.822
 6344SOL     OW20472   2.262   1.279   3.336
 6344SOL    HW120473   2.238   1.365   3.300
 6344SOL    HW220474   2.181   1.228   3.332
 6345SOL     OW20475   3.479   1.283   3.149
 6345SOL    HW120476   3.529   1.265   3.228
 6345SOL    HW220477   3.420   1.354   3.174
 6346SOL     OW20478   2.942   1.125   2.604
 6346SOL    HW120479   2.860   1.083   2.629
 6346SOL    HW220480   2.997   1.053   2.573
 6347SOL     OW20481   2.931   0.238   2.804
 6347SOL    HW120482   2.904   0.192   2.725
 6347SOL    HW220483   2.891   0.325   2.797
 6348SOL     OW20484   2.452   1.551   2.296
 6348SOL    HW120485   2.511   1.486   2.257
 6348SOL    HW220486   2.377   1.500   2.327
 6349SOL     OW20487   3.581   0.403   3.243
 6349SOL    HW120488   3.651   0.468   3.253
 6349SOL    HW220489   3.616   0.341   3.178
 6350SOL     OW20490   2.123   1.343   2.146
 6350SOL    HW120491   2.029   1.338   2.128
 6350SOL    HW220492   2.129   1.383   2.232
 6351SOL     OW20493   1.979   1.059   3.606
 6351SOL    HW120494   1.902   1.022   3.649
 6351SOL    HW220495   2.052   1.006   3.636
 6352SOL     OW20496   2.515   0.216   3.363
 6352SOL    HW120497   2.608   0.212   3.339
 6352SOL    HW220498   2.515   0.222   3.459
 6353SOL     OW20499   1.955   0.324   1.874
 6353SOL    HW120500   1.861   0.330   1.889
 6353SOL    HW220501   1.977   0.404   1.826
 6354SOL     OW20502   3.291   0.871   3.256
 6354SOL    HW120503   3.250   0.928   3.192
 6354SOL    HW220504   3.383   0.869   3.232
 6355SOL     OW20505   1.915   0.181   2.140
 6355SOL    HW120506   1.935   0.252   2.079
 6355SOL    HW220507   1.989   0.120   2.131
 6356SOL     OW20508   3.038   1.336   1.974
 6356SOL    HW120509   2.943   1.333   1.968
 6356SOL    HW220510   3.056   1.337   2.068
 6357SOL     OW20511   2.510   0.841   3.290
 6357SOL    HW120512   2.504   0.930   3.326
 6357SOL    HW220513   2.447   0.790   3.341
 6358SOL     OW20514   3.342   1.778   2.838
 6358SOL    HW120515   3.364   1.859   2.791
 6358SOL    HW220516   3.418   1.762   2.894
 6359SOL     OW20517   2.620   0.536   3.611
 6359SOL    HW120518   2.602   0.624   3.643
 6359SOL    HW220519   2.711   0.520   3.635
 6360SOL     OW20520   3.332   1.197   3.490
 6360SOL    HW120521   3.323   1.210   3.585
 6360SOL    HW220522   3.424   1.217   3.473
 6361SOL     OW20523   2.228   1.753   3.423
 6361SOL    HW120524   2.138   1.785   3.419
 6361SOL    HW220525   2.220   1.663   3.453
 6362SOL     OW20526   3.536   0.878   3.110
 6362SOL    HW120527   3.528   0.789   3.076
 6362SOL    HW220528   3.533   0.934   3.032
 6363SOL     OW20529   3.088   0.327   2.314
 6363SOL    HW120530   3.148   0.252   2.309
 6363SOL    HW220531   3.117   0.377   2.390
 6364SOL     OW20532   2.446   0.729   2.532
 6364SOL    HW120533   2.488   0.814   2.520
 6364SOL    HW220534   2.379   0.725   2.464
 6365SOL     OW20535   3.578   0.366   3.518
 6365SOL    HW120536   3.591   0.383   3.425
 6365SOL    HW220537   3.483   0.373   3.530
 6366SOL     OW20538   3.584   0.944   3.369
 6366SOL    HW120539   3.590   1.039   3.377
 6366SOL    HW220540   3.581   0.927   3.275
 6367SOL     OW20541   2.765   1.381   1.933
 6367SOL    HW120542   2.698   1.402   1.998
 6367SOL    HW220543   2.759   1.450   1.868
 6368SOL     OW20544   2.529   1.799   2.821
 6368SOL    HW120545   2.507   1.889   2.797
 6368SOL    HW220546   2.624   1.794   2.811
 6369SOL     OW20547   2.737   0.984   2.722
 6369SOL    HW120548   2.792   0.915   2.759
 6369SOL    HW220549   2.696   1.025   2.798
 6370SOL     OW20550   2.983   1.004   1.941
 6370SOL    HW120551   2.931   1.055   1.879
 6370SOL    HW220552   3.048   0.959   1.887
 6371SOL     OW20553   3.710   1.546   2.701
 6371SOL    HW120554   3.632   1.548   2.645
 6371SOL    HW220555   3.679   1.509   2.783
 6372SOL     OW20556   2.087   1.293   3.706
 6372SOL    HW120557   2.042   1.214   3.677
 6372SOL    HW220558   2.067   1.299   3.800
 6373SOL     OW20559   1.966   1.246   2.528
 6373SOL    HW120560   1.983   1.215   2.617
 6373SOL    HW220561   2.017   1.188   2.472
 6374SOL     OW20562   2.531   1.408   3.466
 6374SOL    HW120563   2.475   1.369   3.533
 6374SOL    HW220564   2.550   1.496   3.499
 6375SOL     OW20565   3.693   0.229   3.077
 6375SOL    HW120566   3.755   0.163   3.109
 6375SOL    HW220567   3.705   0.230   2.982
 6376SOL     OW20568   2.284   0.435   2.381
 6376SOL    HW120569   2.306   0.362   2.324
 6376SOL    HW220570   2.237   0.395   2.454
 6377SOL     OW20571   3.592   1.453   2.927
 6377SOL    HW120572   3.498   1.451   2.907
 6377SOL    HW220573   3.600   1.407   3.011
 6378SOL     OW20574   2.180   0.558   3.141
 6378SOL    HW120575   2.239   0.501   3.191
 6378SOL    HW220576   2.203   0.542   3.049
 6379SOL     OW20577   2.696   1.568   2.546
 6379SOL    HW120578   2.674   1.628   2.476
 6379SOL    HW220579   2.624   1.506   2.548
 6380SOL     OW20580   3.295   0.220   2.983
 6380SOL    HW120581   3.356   0.164   3.031
 6380SOL    HW220582   3.249   0.269   3.052
 6381SOL     OW20583   2.896   0.034   2.980
 6381SOL    HW120584   2.808   0.010   2.949
 6381SOL    HW220585   2.924   0.104   2.921
 6382SOL     OW20586   2.628   1.360   2.197
 6382SOL    HW120587   2.601   1.269   2.209
 6382SOL    HW220588   2.717   1.363   2.233
 6383SOL     OW20589   2.502   1.539   3.186
 6383SOL    HW120590   2.497   1.630   3.214
 6383SOL    HW220591   2.581   1.535   3.131
 6384SOL     OW20592   3.231   8.032   2.044
 6384SOL    HW120593   3.271   7.987   1.970
 6384SOL    HW220594   3.153   7.981   2.065
 6385SOL     OW20595   3.177   0.466   2.537
 6385SOL    HW120596   3.117   0.540   2.539
 6385SOL    HW220597   3.172   0.429   2.625
 6386SOL     OW20598   3.475   0.216   2.717
 6386SOL    HW120599   3.398   0.203   2.773
 6386SOL    HW220600   3.456   0.296   2.668
 6387SOL     OW20601   1.909   1.062   2.167
 6387SOL    HW120602   2.002   1.054   2.146
 6387SOL    HW220603   1.881   0.974   2.190
 6388SOL     OW20604   2.753   1.646   2.208
 6388SOL    HW120605   2.718   1.644   2.119
 6388SOL    HW220606   2.748   1.738   2.234
 6389SOL     OW20607   2.082   0.628   3.861
 6389SOL    HW120608   1.994   0.619   3.896
 6389SOL    HW220609   2.073   0.614   3.767
 6390SOL     OW20610   2.086   0.279   4.714
 6390SOL    HW120611   2.105   0.253   4.805
 6390SOL    HW220612   2.000   0.240   4.696
 6391SOL     OW20613   1.864   0.404   4.361
 6391SOL    HW120614   1.780   0.428   4.401
 6391SOL    HW220615   1.839   0.353   4.284
 6392SOL     OW20616   2.415   1.302   4.904
 6392SOL    HW120617   2.332   1.322   4.860
 6392SOL    HW220618   2.445   1.387   4.937
 6393SOL     OW20619   3.417   1.498   4.431
 6393SOL    HW120620   3.385   1.486   4.520
 6393SOL    HW220621   3.338   1.514   4.378
 6394SOL     OW20622   2.983   0.709   4.409
 6394SOL    HW120623   3.040   0.785   4.397
 6394SOL    HW220624   2.948   0.719   4.498
 6395SOL     OW20625   3.652   0.588   3.948
 6395SOL    HW120626   3.618   0.588   3.858
 6395SOL    HW220627   3.602   0.520   3.992
 6396SOL     OW20628   2.583   1.129   4.774
 6396SOL    HW120629   2.520   1.182   4.823
 6396SOL    HW220630   2.650   1.191   4.745
 6397SOL     OW20631   2.724   0.762   5.536
 6397SOL    HW120632   2.718   0.827   5.607
 6397SOL    HW220633   2.751   0.813   5.460
 6398SOL     OW20634   2.562   1.001   4.383
 6398SOL    HW120635   2.610   0.980   4.463
 6398SOL    HW220636   2.484   1.048   4.414
 6399SOL     OW20637   2.577   1.148   5.552
 6399SOL    HW120638   2.624   1.225   5.583
 6399SOL    HW220639   2.499   1.184   5.508
 6400SOL     OW20640   2.189   1.430   4.783
 6400SOL    HW120641   2.125   1.385   4.728
 6400SOL    HW220642   2.244   1.478   4.722
 6401SOL     OW20643   3.304   1.495   5.089
 6401SOL    HW120644   3.370   1.563   5.078
 6401SOL    HW220645   3.246   1.527   5.158
 6402SOL     OW20646   2.313   0.379   5.196
 6402SOL    HW120647   2.371   0.413   5.263
 6402SOL    HW220648   2.229   0.368   5.240
 6403SOL     OW20649   3.475   0.466   4.462
 6403SOL    HW120650   3.418   0.506   4.396
 6403SOL    HW220651   3.480   0.532   4.532
 6404SOL     OW20652   2.113   1.711   4.185
 6404SOL    HW120653   2.143   1.776   4.248
 6404SOL    HW220654   2.187   1.698   4.126
 6405SOL     OW20655   3.006   1.339   5.426
 6405SOL    HW120656   3.053   1.328   5.509
 6405SOL    HW220657   2.952   1.260   5.419
 6406SOL     OW20658   2.090   1.426   4.253
 6406SOL    HW120659   2.081   1.518   4.278
 6406SOL    HW220660   2.036   1.379   4.316
 6407SOL     OW20661   2.125   1.095   4.618
 6407SOL    HW120662   2.131   1.006   4.652
 6407SOL    HW220663   2.067   1.140   4.679
 6408SOL     OW20664   2.433   1.811   5.123
 6408SOL    HW120665   2.368   1.785   5.189
 6408SOL    HW220666   2.477   1.887   5.161
 6409SOL     OW20667   2.461   0.966   3.855
 6409SOL    HW120668   2.494   1.021   3.784
 6409SOL    HW220669   2.533   0.960   3.917
 6410SOL     OW20670   3.415   0.186   5.170
 6410SOL    HW120671   3.471   0.256   5.138
 6410SOL    HW220672   3.416   0.196   5.266
 6411SOL     OW20673   1.982   0.664   4.287
 6411SOL    HW120674   1.950   0.578   4.313
 6411SOL    HW220675   1.974   0.718   4.366
 6412SOL     OW20676   3.703   1.761   4.046
 6412SOL    HW120677   3.764   1.740   4.116
 6412SOL    HW220678   3.712   1.855   4.033
 6413SOL     OW20679   1.867   1.596   3.865
 6413SOL    HW120680   1.887   1.503   3.875
 6413SOL    HW220681   1.785   1.608   3.913
 6414SOL     OW20682   3.525   0.878   4.341
 6414SOL    HW120683   3.574   0.915   4.415
 6414SOL    HW220684   3.543   0.938   4.268
 6415SOL     OW20685   3.525   1.108   4.156
 6415SOL    HW120686   3.614   1.110   4.123
 6415SOL    HW220687   3.528   1.161   4.236
 6416SOL     OW20688   1.977   0.761   5.293
 6416SOL    HW120689   2.060   0.772   5.339
 6416SOL    HW220690   1.925   0.837   5.319
 6417SOL     OW20691   2.457   1.393   4.446
 6417SOL    HW120692   2.419   1.306   4.455
 6417SOL    HW220693   2.458   1.408   4.351
 6418SOL     OW20694   3.163   1.238   5.135
 6418SOL    HW120695   3.175   1.199   5.049
 6418SOL    HW220696   3.227   1.310   5.138
 6419SOL     OW20697   2.692   0.038   4.259
 6419SOL    HW120698   2.745   0.115   4.236
 6419SOL    HW220699   2.615   0.075   4.304
 6420SOL     OW20700   2.049   0.967   4.993
 6420SOL    HW120701   2.135   0.925   4.984
 6420SOL    HW220702   1.986   0.897   4.972
 6421SOL     OW20703   3.395   1.013   3.929
 6421SOL    HW120704   3.325   0.958   3.963
 6421SOL    HW220705   3.443   1.041   4.007
 6422SOL     OW20706   3.018   1.810   5.348
 6422SOL    HW120707   3.042   1.879   5.286
 6422SOL    HW220708   3.055   1.730   5.312
 6423SOL     OW20709   2.172   0.243   5.501
 6423SOL    HW120710   2.243   0.288   5.546
 6423SOL    HW220711   2.092   0.278   5.541
 6424SOL     OW20712   3.332   1.415   4.677
 6424SOL    HW120713   3.260   1.436   4.737
 6424SOL    HW220714   3.318   1.323   4.654
 6425SOL     OW20715   3.530   1.724   4.305
 6425SOL    HW120716   3.503   1.695   4.217
 6425SOL    HW220717   3.505   1.652   4.362
 6426SOL     OW20718   2.452   0.712   4.000
 6426SOL    HW120719   2.441   0.788   3.944
 6426SOL    HW220720   2.386   0.722   4.068
 6427SOL     OW20721   3.153   0.370   4.658
 6427SOL    HW120722   3.063   0.337   4.664
 6427SOL    HW220723   3.202   0.316   4.720
 6428SOL     OW20724   3.442   1.669   4.033
 6428SOL    HW120725   3.529   1.709   4.032
 6428SOL    HW220726   3.423   1.651   3.941
 6429SOL     OW20727   2.663   0.615   5.177
 6429SOL    HW120728   2.624   0.591   5.261
 6429SOL    HW220729   2.617   0.561   5.113
 6430SOL     OW20730   3.269   0.490   5.398
 6430SOL    HW120731   3.267   0.522   5.488
 6430SOL    HW220732   3.311   0.404   5.404
 6431SOL     OW20733   2.810   0.897   5.300
 6431SOL    HW120734   2.868   0.828   5.267
 6431SOL    HW220735   2.774   0.938   5.221
 6432SOL     OW20736   2.853   0.414   4.943
 6432SOL    HW120737   2.763   0.438   4.965
 6432SOL    HW220738   2.851   0.395   4.849
 6433SOL     OW20739   2.906   0.705   4.145
 6433SOL    HW120740   2.930   0.704   4.237
 6433SOL    HW220741   2.826   0.653   4.140
 6434SOL     OW20742   1.955   0.831   4.497
 6434SOL    HW120743   2.033   0.828   4.552
 6434SOL    HW220744   1.901   0.900   4.535
 6435SOL     OW20745   1.960   1.807   5.284
 6435SOL    HW120746   1.968   1.800   5.379
 6435SOL    HW220747   1.889   1.869   5.270
 6436SOL     OW20748   2.749   0.347   3.928
 6436SOL    HW120749   2.801   0.401   3.867
 6436SOL    HW220750   2.755   0.259   3.892
 6437SOL     OW20751   3.566   0.593   5.577
 6437SOL    HW120752   3.530   0.664   5.524
 6437SOL    HW220753   3.588   0.524   5.515
 6438SOL     OW20754   3.244   1.140   4.253
 6438SOL    HW120755   3.331   1.138   4.213
 6438SOL    HW220756   3.199   1.211   4.207
 6439SOL     OW20757   2.411   0.254   4.608
 6439SOL    HW120758   2.407   0.244   4.703
 6439SOL    HW220759   2.410   0.349   4.594
 6440SOL     OW20760   2.850   1.418   4.214
 6440SOL    HW120761   2.826   1.504   4.181
 6440SOL    HW220762   2.853   1.428   4.309
 6441SOL     OW20763   2.239   1.825   4.567
 6441SOL    HW120764   2.294   1.748   4.584
 6441SOL    HW220765   2.296   1.899   4.585
 6442SOL     OW20766   3.602   1.020   4.561
 6442SOL    HW120767   3.588   1.106   4.522
 6442SOL    HW220768   3.595   1.035   4.655
 6443SOL     OW20769   3.082   1.544   5.251
 6443SOL    HW120770   3.080   1.474   5.317
 6443SOL    HW220771   3.023   1.513   5.182
 6444SOL     OW20772   2.179   0.965   3.977
 6444SOL    HW120773   2.259   0.980   3.927
 6444SOL    HW220774   2.149   0.878   3.949
 6445SOL     OW20775   3.326   0.737   4.447
 6445SOL    HW120776   3.336   0.707   4.538
 6445SOL    HW220777   3.405   0.788   4.430
 6446SOL     OW20778   2.336   1.276   5.470
 6446SOL    HW120779   2.310   1.281   5.378
 6446SOL    HW220780   2.254   1.259   5.517
 6447SOL     OW20781   2.986   1.797   3.928
 6447SOL    HW120782   2.939   1.767   4.007
 6447SOL    HW220783   3.014   1.716   3.885
 6448SOL     OW20784   2.042   0.266   5.228
 6448SOL    HW120785   2.006   0.354   5.240
 6448SOL    HW220786   2.078   0.244   5.314
 6449SOL     OW20787   3.516   1.371   3.818
 6449SOL    HW120788   3.478   1.459   3.810
 6449SOL    HW220789   3.443   1.312   3.798
 6450SOL     OW20790   2.347   1.730   4.047
 6450SOL    HW120791   2.382   1.795   4.108
 6450SOL    HW220792   2.419   1.713   3.986
 6451SOL     OW20793   3.267   0.129   4.158
 6451SOL    HW120794   3.269   0.078   4.078
 6451SOL    HW220795   3.359   0.135   4.185
 6452SOL     OW20796   2.120   1.781   4.929
 6452SOL    HW120797   2.172   1.719   4.980
 6452SOL    HW220798   2.157   1.778   4.841
 6453SOL     OW20799   2.791   1.681   4.664
 6453SOL    HW120800   2.883   1.703   4.649
 6453SOL    HW220801   2.764   1.634   4.585
 6454SOL     OW20802   2.254   0.705   4.192
 6454SOL    HW120803   2.267   0.612   4.209
 6454SOL    HW220804   2.161   0.720   4.212
 6455SOL     OW20805   3.380   0.234   5.447
 6455SOL    HW120806   3.390   0.248   5.541
 6455SOL    HW220807   3.325   0.156   5.439
 6456SOL     OW20808   2.446   0.090   3.851
 6456SOL    HW120809   2.533   0.078   3.890
 6456SOL    HW220810   2.456   0.060   3.761
 6457SOL     OW20811   2.611   0.268   5.504
 6457SOL    HW120812   2.689   0.279   5.558
 6457SOL    HW220813   2.542   0.244   5.566
 6458SOL     OW20814   2.726   1.501   4.932
 6458SOL    HW120815   2.728   1.491   4.837
 6458SOL    HW220816   2.808   1.463   4.962
 6459SOL     OW20817   3.198   0.582   5.152
 6459SOL    HW120818   3.235   0.552   5.235
 6459SOL    HW220819   3.239   0.667   5.137
 6460SOL     OW20820   2.671   1.381   4.651
 6460SOL    HW120821   2.759   1.375   4.613
 6460SOL    HW220822   2.613   1.397   4.576
 6461SOL     OW20823   2.777   0.504   4.617
 6461SOL    HW120824   2.737   0.494   4.531
 6461SOL    HW220825   2.820   0.420   4.634
 6462SOL     OW20826   3.292   1.205   3.762
 6462SOL    HW120827   3.328   1.133   3.815
 6462SOL    HW220828   3.215   1.234   3.810
 6463SOL     OW20829   2.176   0.057   3.964
 6463SOL    HW120830   2.239   0.106   3.912
 6463SOL    HW220831   2.171  -0.029   3.923
 6464SOL     OW20832   2.814   0.264   4.181
 6464SOL    HW120833   2.788   0.297   4.095
 6464SOL    HW220834   2.909   0.278   4.184
 6465SOL     OW20835   2.948   0.697   5.179
 6465SOL    HW120836   2.880   0.632   5.196
 6465SOL    HW220837   3.029   0.646   5.176
 6466SOL     OW20838   3.099   1.574   4.514
 6466SOL    HW120839   3.099   1.645   4.449
 6466SOL    HW220840   3.154   1.607   4.585
 6467SOL     OW20841   2.332   1.143   4.443
 6467SOL    HW120842   2.269   1.128   4.513
 6467SOL    HW220843   2.282   1.132   4.362
 6468SOL     OW20844   3.110   1.783   4.324
 6468SOL    HW120845   3.164   1.852   4.284
 6468SOL    HW220846   3.032   1.829   4.355
 6469SOL     OW20847   2.877   0.534   3.764
 6469SOL    HW120848   2.851   0.626   3.752
 6469SOL    HW220849   2.947   0.538   3.830
 6470SOL     OW20850   1.948   0.576   5.103
 6470SOL    HW120851   2.041   0.566   5.085
 6470SOL    HW220852   1.943   0.647   5.167
 6471SOL     OW20853   2.417   0.222   4.891
 6471SOL    HW120854   2.447   0.136   4.920
 6471SOL    HW220855   2.329   0.230   4.928
 6472SOL     OW20856   2.678   0.425   4.357
 6472SOL    HW120857   2.658   0.501   4.301
 6472SOL    HW220858   2.740   0.373   4.306
 6473SOL     OW20859   2.839   0.034   4.511
 6473SOL    HW120860   2.799   0.019   4.425
 6473SOL    HW220861   2.879  -0.050   4.534
 6474SOL     OW20862   3.304   1.157   4.599
 6474SOL    HW120863   3.219   1.114   4.602
 6474SOL    HW220864   3.328   1.157   4.506
 6475SOL     OW20865   3.329   0.604   4.692
 6475SOL    HW120866   3.274   0.526   4.695
 6475SOL    HW220867   3.387   0.595   4.767
 6476SOL     OW20868   3.703   0.816   4.089
 6476SOL    HW120869   3.751   0.775   4.161
 6476SOL    HW220870   3.684   0.743   4.029
 6477SOL     OW20871   2.357   1.405   3.867
 6477SOL    HW120872   2.280   1.384   3.920
 6477SOL    HW220873   2.351   1.347   3.792
 6478SOL     OW20874   3.537   1.251   4.386
 6478SOL    HW120875   3.633   1.256   4.394
 6478SOL    HW220876   3.507   1.341   4.401
 6479SOL     OW20877   3.248   0.602   3.806
 6479SOL    HW120878   3.207   0.552   3.878
 6479SOL    HW220879   3.316   0.543   3.772
 6480SOL     OW20880   2.375   0.265   4.046
 6480SOL    HW120881   2.414   0.215   3.974
 6480SOL    HW220882   2.351   0.349   4.007
 6481SOL     OW20883   3.640   1.251   5.327
 6481SOL    HW120884   3.718   1.217   5.283
 6481SOL    HW220885   3.656   1.345   5.336
 6482SOL     OW20886   2.924   1.376   5.095
 6482SOL    HW120887   2.844   1.330   5.118
 6482SOL    HW220888   2.994   1.314   5.112
 6483SOL     OW20889   3.457   1.614   5.374
 6483SOL    HW120890   3.454   1.656   5.288
 6483SOL    HW220891   3.547   1.586   5.385
 6484SOL     OW20892   3.476   1.084   4.813
 6484SOL    HW120893   3.466   1.151   4.880
 6484SOL    HW220894   3.414   1.109   4.744
 6485SOL     OW20895   2.790   0.093   5.111
 6485SOL    HW120896   2.802   0.083   5.017
 6485SOL    HW220897   2.871   0.133   5.142
 6486SOL     OW20898   2.849   1.113   5.457
 6486SOL    HW120899   2.759   1.134   5.482
 6486SOL    HW220900   2.840   1.040   5.397
 6487SOL     OW20901   2.281   0.818   4.985
 6487SOL    HW120902   2.352   0.831   5.048
 6487SOL    HW220903   2.249   0.730   5.002
 6488SOL     OW20904   3.118   0.364   5.007
 6488SOL    HW120905   3.154   0.442   5.050
 6488SOL    HW220906   3.028   0.388   4.986
 6489SOL     OW20907   1.940   1.612   5.083
 6489SOL    HW120908   1.956   1.686   5.141
 6489SOL    HW220909   2.026   1.572   5.071
 6490SOL     OW20910   2.191   1.120   4.210
 6490SOL    HW120911   2.189   1.199   4.157
 6490SOL    HW220912   2.191   1.048   4.146
 6491SOL     OW20913   2.410   0.526   4.579
 6491SOL    HW120914   2.421   0.584   4.503
 6491SOL    HW220915   2.470   0.560   4.645
 6492SOL     OW20916   3.103   1.354   4.112
 6492SOL    HW120917   3.159   1.426   4.141
 6492SOL    HW220918   3.020   1.367   4.159
 6493SOL     OW20919   3.138   1.458   4.863
 6493SOL    HW120920   3.187   1.462   4.945
 6493SOL    HW220921   3.074   1.388   4.878
 6494SOL     OW20922   3.439   0.626   4.204
 6494SOL    HW120923   3.387   0.675   4.267
 6494SOL    HW220924   3.507   0.687   4.176
 6495SOL     OW20925   2.201   1.527   5.035
 6495SOL    HW120926   2.190   1.483   4.950
 6495SOL    HW220927   2.296   1.538   5.044
 6496SOL     OW20928   2.300   0.753   5.340
 6496SOL    HW120929   2.363   0.788   5.277
 6496SOL    HW220930   2.347   0.683   5.385
 6497SOL     OW20931   3.446   0.792   5.415
 6497SOL    HW120932   3.390   0.740   5.357
 6497SOL    HW220933   3.491   0.852   5.356
 6498SOL     OW20934   2.890   0.118   5.446
 6498SOL    HW120935   2.937   0.163   5.516
 6498SOL    HW220936   2.944   0.130   5.368
 6499SOL     OW20937   2.313   0.004   5.472
 6499SOL    HW120938   2.334  -0.025   5.383
 6499SOL    HW220939   2.272   0.090   5.460
 6500SOL     OW20940   2.436   0.884   4.756
 6500SOL    HW120941   2.488   0.964   4.755
 6500SOL    HW220942   2.391   0.885   4.840
 6501SOL     OW20943   3.214   0.846   4.763
 6501SOL    HW120944   3.130   0.847   4.718
 6501SOL    HW220945   3.255   0.764   4.737
 6502SOL     OW20946   3.042   0.517   3.988
 6502SOL    HW120947   3.061   0.444   4.047
 6502SOL    HW220948   3.010   0.587   4.045
 6503SOL     OW20949   2.148   0.195   4.971
 6503SOL    HW120950   2.120   0.251   5.043
 6503SOL    HW220951   2.148   0.106   5.008
 6504SOL     OW20952   1.937   1.323   4.988
 6504SOL    HW120953   1.960   1.252   5.049
 6504SOL    HW220954   1.896   1.389   5.043
 6505SOL     OW20955   2.565   0.632   4.771
 6505SOL    HW120956   2.653   0.628   4.733
 6505SOL    HW220957   2.540   0.724   4.764
 6506SOL     OW20958   3.614   0.951   5.622
 6506SOL    HW120959   3.573   0.906   5.549
 6506SOL    HW220960   3.541   0.977   5.679
 6507SOL     OW20961   2.224   0.080   4.417
 6507SOL    HW120962   2.198   0.170   4.439
 6507SOL    HW220963   2.141   0.035   4.400
 6508SOL     OW20964   3.490   0.385   4.083
 6508SOL    HW120965   3.498   0.320   4.153
 6508SOL    HW220966   3.463   0.465   4.128
 6509SOL     OW20967   2.903   0.743   4.674
 6509SOL    HW120968   2.892   0.764   4.767
 6509SOL    HW220969   2.865   0.656   4.664
 6510SOL     OW20970   2.833   1.552   5.446
 6510SOL    HW120971   2.818   1.603   5.366
 6510SOL    HW220972   2.887   1.478   5.417
 6511SOL     OW20973   3.717   1.509   5.330
 6511SOL    HW120974   3.745   1.534   5.242
 6511SOL    HW220975   3.766   1.568   5.388
 6512SOL     OW20976   2.218   0.950   5.516
 6512SOL    HW120977   2.286   0.951   5.583
 6512SOL    HW220978   2.237   0.873   5.462
 6513SOL     OW20979   3.387   0.253   3.862
 6513SOL    HW120980   3.362   0.172   3.906
 6513SOL    HW220981   3.427   0.307   3.931
 6514SOL     OW20982   3.123   0.829   3.745
 6514SOL    HW120983   3.170   0.747   3.760
 6514SOL    HW220984   3.164   0.866   3.667
 6515SOL     OW20985   2.919   1.356   4.529
 6515SOL    HW120986   2.945   1.298   4.601
 6515SOL    HW220987   2.986   1.424   4.529
 6516SOL     OW20988   2.176   0.817   4.667
 6516SOL    HW120989   2.268   0.842   4.678
 6516SOL    HW220990   2.171   0.728   4.702
 6517SOL     OW20991   2.187   0.532   4.735
 6517SOL    HW120992   2.152   0.443   4.722
 6517SOL    HW220993   2.262   0.536   4.677
 6518SOL     OW20994   2.995   0.435   5.369
 6518SOL    HW120995   2.958   0.467   5.452
 6518SOL    HW220996   3.088   0.455   5.376
 6519SOL     OW20997   3.014   0.208   5.216
 6519SOL    HW120998   3.016   0.285   5.272
 6519SOL    HW220999   3.070   0.231   5.141
 6520SOL     OW21000   1.869   1.313   3.907
 6520SOL    HW121001   1.781   1.326   3.870
 6520SOL    HW221002   1.865   1.225   3.945
 6521SOL     OW21003   1.997   1.744   4.665
 6521SOL    HW121004   1.961   1.678   4.607
 6521SOL    HW221005   2.079   1.771   4.624
 6522SOL     OW21006   2.359   1.576   4.627
 6522SOL    HW121007   2.431   1.633   4.655
 6522SOL    HW221008   2.400   1.512   4.569
 6523SOL     OW21009   2.833   0.768   4.936
 6523SOL    HW121010   2.888   0.741   5.010
 6523SOL    HW221011   2.770   0.829   4.975
 6524SOL     OW21012   1.903   0.536   4.837
 6524SOL    HW121013   1.985   0.552   4.792
 6524SOL    HW221014   1.923   0.550   4.930
 6525SOL     OW21015   2.080   0.504   5.372
 6525SOL    HW121016   2.112   0.532   5.458
 6525SOL    HW221017   2.011   0.566   5.351
 6526SOL     OW21018   2.674   0.566   4.097
 6526SOL    HW121019   2.683   0.494   4.034
 6526SOL    HW221020   2.599   0.616   4.065
 6527SOL     OW21021   3.504   0.580   4.898
 6527SOL    HW121022   3.502   0.526   4.977
 6527SOL    HW221023   3.594   0.571   4.866
 6528SOL     OW21024   2.089   1.538   5.452
 6528SOL    HW121025   2.076   1.586   5.533
 6528SOL    HW221026   2.103   1.447   5.480
 6529SOL     OW21027   2.572   0.453   4.977
 6529SOL    HW121028   2.516   0.378   4.955
 6529SOL    HW221029   2.559   0.515   4.905
 6530SOL     OW21030   2.748   1.687   5.216
 6530SOL    HW121031   2.755   1.638   5.134
 6530SOL    HW221032   2.766   1.778   5.191
 6531SOL     OW21033   2.316   0.489   3.907
 6531SOL    HW121034   2.377   0.558   3.930
 6531SOL    HW221035   2.232   0.534   3.898
 6532SOL     OW21036   2.004   1.143   5.193
 6532SOL    HW121037   2.005   1.098   5.277
 6532SOL    HW221038   2.022   1.075   5.128
 6533SOL     OW21039   3.173   1.034   4.952
 6533SOL    HW121040   3.212   0.980   4.884
 6533SOL    HW221041   3.094   1.070   4.911
 6534SOL     OW21042   3.172   0.876   4.019
 6534SOL    HW121043   3.116   0.828   4.080
 6534SOL    HW221044   3.149   0.843   3.933
 6535SOL     OW21045   3.595   1.743   4.858
 6535SOL    HW121046   3.675   1.772   4.813
 6535SOL    HW221047   3.593   1.648   4.844
 6536SOL     OW21048   3.098   1.730   4.814
 6536SOL    HW121049   3.183   1.761   4.784
 6536SOL    HW221050   3.111   1.638   4.834
 6537SOL     OW21051   1.926   1.287   4.718
 6537SOL    HW121052   1.930   1.299   4.813
 6537SOL    HW221053   1.858   1.222   4.705
 6538SOL     OW21054   2.553   1.673   5.462
 6538SOL    HW121055   2.500   1.752   5.449
 6538SOL    HW221056   2.627   1.683   5.402
 6539SOL     OW21057   3.530   0.140   4.243
 6539SOL    HW121058   3.622   0.120   4.224
 6539SOL    HW221059   3.511   0.090   4.323
 6540SOL     OW21060   3.240   1.572   4.197
 6540SOL    HW121061   3.309   1.610   4.143
 6540SOL    HW221062   3.197   1.647   4.238
 6541SOL     OW21063   1.983   1.811   5.559
 6541SOL    HW121064   1.944   1.735   5.603
 6541SOL    HW221065   2.040   1.850   5.625
 6542SOL     OW21066   3.142   0.927   4.379
 6542SOL    HW121067   3.214   0.869   4.402
 6542SOL    HW221068   3.182   0.999   4.331
 6543SOL     OW21069   2.672   1.270   5.150
 6543SOL    HW121070   2.635   1.312   5.228
 6543SOL    HW221071   2.628   1.312   5.076
 6544SOL     OW21072   2.531   1.610   3.869
 6544SOL    HW121073   2.537   1.631   3.776
 6544SOL    HW221074   2.471   1.536   3.873
 6545SOL     OW21075   3.466   1.723   5.105
 6545SOL    HW121076   3.518   1.730   5.025
 6545SOL    HW221077   3.454   1.814   5.134
 6546SOL     OW21078   3.711   0.180   4.675
 6546SOL    HW121079   3.711   0.089   4.703
 6546SOL    HW221080   3.625   0.192   4.634
 6547SOL     OW21081   2.119   0.328   4.443
 6547SOL    HW121082   2.033   0.360   4.415
 6547SOL    HW221083   2.114   0.327   4.538
 6548SOL     OW21084   3.074   1.593   3.755
 6548SOL    HW121085   3.063   1.504   3.788
 6548SOL    HW221086   2.998   1.608   3.700
 6549SOL     OW21087   2.714   1.012   5.064
 6549SOL    HW121088   2.757   1.033   4.981
 6549SOL    HW221089   2.693   1.098   5.102
 6550SOL     OW21090   2.776   0.933   4.042
 6550SOL    HW121091   2.818   0.956   3.959
 6550SOL    HW221092   2.820   0.852   4.069
 6551SOL     OW21093   3.358   1.613   3.768
 6551SOL    HW121094   3.263   1.609   3.757
 6551SOL    HW221095   3.392   1.620   3.679
 6552SOL     OW21096   2.223   1.310   5.228
 6552SOL    HW121097   2.219   1.376   5.159
 6552SOL    HW221098   2.151   1.250   5.208
 6553SOL     OW21099   3.450   1.262   5.027
 6553SOL    HW121100   3.545   1.274   5.026
 6553SOL    HW221101   3.415   1.350   5.040
 6554SOL     OW21102   2.895   1.047   4.384
 6554SOL    HW121103   2.880   1.069   4.475
 6554SOL    HW221104   2.984   1.012   4.382
 6555SOL     OW21105   2.887   0.257   4.672
 6555SOL    HW121106   2.875   0.201   4.595
 6555SOL    HW221107   2.897   0.197   4.745
 6556SOL     OW21108   2.479   1.482   4.177
 6556SOL    HW121109   2.551   1.533   4.139
 6556SOL    HW221110   2.400   1.532   4.156
 6557SOL     OW21111   3.582   0.402   5.117
 6557SOL    HW121112   3.650   0.469   5.127
 6557SOL    HW221113   3.619   0.340   5.054
 6558SOL     OW21114   2.122   1.343   4.003
 6558SOL    HW121115   2.029   1.334   3.982
 6558SOL    HW221116   2.123   1.381   4.090
 6559SOL     OW21117   1.971   1.052   5.454
 6559SOL    HW121118   1.898   1.018   5.505
 6559SOL    HW221119   2.047   1.005   5.488
 6560SOL     OW21120   1.948   0.333   3.749
 6560SOL    HW121121   1.855   0.333   3.724
 6560SOL    HW221122   1.983   0.412   3.708
 6561SOL     OW21123   3.291   0.840   5.119
 6561SOL    HW121124   3.233   0.870   5.049
 6561SOL    HW221125   3.378   0.839   5.078
 6562SOL     OW21126   1.905   0.155   3.999
 6562SOL    HW121127   1.914   0.229   3.939
 6562SOL    HW221128   1.994   0.120   4.006
 6563SOL     OW21129   3.037   1.333   3.848
 6563SOL    HW121130   2.948   1.299   3.860
 6563SOL    HW221131   3.072   1.342   3.937
 6564SOL     OW21132   2.497   0.835   5.152
 6564SOL    HW121133   2.548   0.913   5.130
 6564SOL    HW221134   2.562   0.765   5.163
 6565SOL     OW21135   3.351   1.782   4.710
 6565SOL    HW121136   3.369   1.858   4.655
 6565SOL    HW221137   3.431   1.769   4.761
 6566SOL     OW21138   2.562   0.560   5.423
 6566SOL    HW121139   2.608   0.625   5.475
 6566SOL    HW221140   2.583   0.476   5.465
 6567SOL     OW21141   3.378   1.197   5.365
 6567SOL    HW121142   3.352   1.207   5.457
 6567SOL    HW221143   3.468   1.228   5.362
 6568SOL     OW21144   2.229   1.739   5.299
 6568SOL    HW121145   2.142   1.772   5.280
 6568SOL    HW221146   2.215   1.652   5.336
 6569SOL     OW21147   3.519   0.870   4.980
 6569SOL    HW121148   3.541   0.792   4.929
 6569SOL    HW221149   3.517   0.940   4.916
 6570SOL     OW21150   3.077   0.320   4.178
 6570SOL    HW121151   3.144   0.252   4.172
 6570SOL    HW221152   3.101   0.370   4.256
 6571SOL     OW21153   2.450   0.723   4.392
 6571SOL    HW121154   2.489   0.811   4.395
 6571SOL    HW221155   2.383   0.729   4.324
 6572SOL     OW21156   3.604   0.381   5.402
 6572SOL    HW121157   3.615   0.388   5.307
 6572SOL    HW221158   3.527   0.326   5.414
 6573SOL     OW21159   3.550   0.969   5.239
 6573SOL    HW121160   3.605   1.045   5.257
 6573SOL    HW221161   3.578   0.938   5.153
 6574SOL     OW21162   2.702   1.361   3.757
 6574SOL    HW121163   2.693   1.373   3.852
 6574SOL    HW221164   2.734   1.446   3.725
 6575SOL     OW21165   2.533   1.785   4.661
 6575SOL    HW121166   2.541   1.876   4.634
 6575SOL    HW221167   2.624   1.755   4.670
 6576SOL     OW21168   2.716   0.947   4.598
 6576SOL    HW121169   2.792   0.895   4.624
 6576SOL    HW221170   2.705   1.011   4.668
 6577SOL     OW21171   2.902   0.975   3.800
 6577SOL    HW121172   2.906   1.044   3.734
 6577SOL    HW221173   2.984   0.927   3.790
 6578SOL     OW21174   3.737   1.511   4.547
 6578SOL    HW121175   3.645   1.538   4.550
 6578SOL    HW221176   3.746   1.445   4.615
 6579SOL     OW21177   2.081   1.285   5.570
 6579SOL    HW121178   2.035   1.211   5.531
 6579SOL    HW221179   2.054   1.285   5.661
 6580SOL     OW21180   1.957   1.223   4.396
 6580SOL    HW121181   1.957   1.184   4.483
 6580SOL    HW221182   2.022   1.173   4.347
 6581SOL     OW21183   2.549   1.407   5.352
 6581SOL    HW121184   2.472   1.370   5.394
 6581SOL    HW221185   2.555   1.496   5.387
 6582SOL     OW21186   3.695   0.235   4.949
 6582SOL    HW121187   3.725   0.147   4.971
 6582SOL    HW221188   3.702   0.240   4.854
 6583SOL     OW21189   2.282   0.447   4.251
 6583SOL    HW121190   2.332   0.377   4.208
 6583SOL    HW221191   2.236   0.404   4.322
 6584SOL     OW21192   3.555   1.483   4.816
 6584SOL    HW121193   3.476   1.459   4.767
 6584SOL    HW221194   3.616   1.411   4.800
 6585SOL     OW21195   2.203   0.554   5.014
 6585SOL    HW121196   2.256   0.493   5.064
 6585SOL    HW221197   2.220   0.532   4.922
 6586SOL     OW21198   2.697   1.594   4.412
 6586SOL    HW121199   2.714   1.685   4.387
 6586SOL    HW221200   2.607   1.578   4.383
 6587SOL     OW21201   3.295   0.224   4.838
 6587SOL    HW121202   3.361   0.167   4.876
 6587SOL    HW221203   3.252   0.265   4.913
 6588SOL     OW21204   2.912   0.057   4.851
 6588SOL    HW121205   2.882  -0.030   4.877
 6588SOL    HW221206   3.006   0.057   4.871
 6589SOL     OW21207   2.672   1.292   4.049
 6589SOL    HW121208   2.590   1.334   4.073
 6589SOL    HW221209   2.739   1.341   4.097
 6590SOL     OW21210   2.473   1.560   5.009
 6590SOL    HW121211   2.474   1.648   5.046
 6590SOL    HW221212   2.563   1.545   4.980
 6591SOL     OW21213   3.257   8.010   3.911
 6591SOL    HW121214   3.297   7.927   3.884
 6591SOL    HW221215   3.164   7.999   3.891
 6592SOL     OW21216   3.134   0.463   4.398
 6592SOL    HW121217   3.099   0.552   4.407
 6592SOL    HW221218   3.151   0.435   4.488
 6593SOL     OW21219   3.463   0.215   4.572
 6593SOL    HW121220   3.396   0.215   4.640
 6593SOL    HW221221   3.458   0.302   4.533
 6594SOL     OW21222   1.916   1.063   4.021
 6594SOL    HW121223   2.010   1.053   4.007
 6594SOL    HW221224   1.885   0.975   4.043
 6595SOL     OW21225   2.729   1.620   4.060
 6595SOL    HW121226   2.676   1.631   3.981
 6595SOL    HW221227   2.713   1.699   4.111
 6596SOL     OW21228   2.056   0.342   6.630
 6596SOL    HW121229   2.091   0.279   6.694
 6596SOL    HW221230   2.007   0.288   6.568
 6597SOL     OW21231   1.804   0.360   6.172
 6597SOL    HW121232   1.758   0.353   6.256
 6597SOL    HW221233   1.896   0.347   6.194
 6598SOL     OW21234   2.437   1.301   6.782
 6598SOL    HW121235   2.354   1.306   6.736
 6598SOL    HW221236   2.456   1.391   6.807
 6599SOL     OW21237   3.436   1.501   6.293
 6599SOL    HW121238   3.377   1.470   6.363
 6599SOL    HW221239   3.381   1.504   6.215
 6600SOL     OW21240   3.003   0.690   6.340
 6600SOL    HW121241   3.021   0.772   6.293
 6600SOL    HW221242   2.924   0.656   6.299
 6601SOL     OW21243   3.666   0.609   5.837
 6601SOL    HW121244   3.634   0.612   5.747
 6601SOL    HW221245   3.622   0.533   5.875
 6602SOL     OW21246   2.628   1.145   6.657
 6602SOL    HW121247   2.552   1.179   6.706
 6602SOL    HW221248   2.659   1.220   6.607
 6603SOL     OW21249   2.725   0.773   7.416
 6603SOL    HW121250   2.667   0.833   7.463
 6603SOL    HW221251   2.747   0.819   7.335
 6604SOL     OW21252   2.555   1.007   6.231
 6604SOL    HW121253   2.615   0.993   6.304
 6604SOL    HW221254   2.482   1.056   6.269
 6605SOL     OW21255   2.603   1.179   7.344
 6605SOL    HW121256   2.627   1.249   7.404
 6605SOL    HW221257   2.553   1.117   7.397
 6606SOL     OW21258   2.206   1.428   6.672
 6606SOL    HW121259   2.122   1.397   6.640
 6606SOL    HW221260   2.245   1.473   6.596
 6607SOL     OW21261   3.324   1.505   6.950
 6607SOL    HW121262   3.379   1.583   6.955
 6607SOL    HW221263   3.258   1.517   7.018
 6608SOL     OW21264   2.312   0.402   7.074
 6608SOL    HW121265   2.390   0.347   7.076
 6608SOL    HW221266   2.240   0.343   7.093
 6609SOL     OW21267   3.477   0.460   6.318
 6609SOL    HW121268   3.403   0.455   6.258
 6609SOL    HW221269   3.465   0.543   6.364
 6610SOL     OW21270   2.077   1.724   6.049
 6610SOL    HW121271   2.107   1.795   6.107
 6610SOL    HW221272   2.152   1.705   5.993
 6611SOL     OW21273   2.997   1.343   7.282
 6611SOL    HW121274   3.035   1.337   7.370
 6611SOL    HW221275   2.955   1.259   7.268
 6612SOL     OW21276   2.099   1.442   6.118
 6612SOL    HW121277   2.071   1.532   6.135
 6612SOL    HW221278   2.049   1.389   6.181
 6613SOL     OW21279   2.126   1.105   6.491
 6613SOL    HW121280   2.118   1.012   6.514
 6613SOL    HW221281   2.056   1.148   6.539
 6614SOL     OW21282   2.442   1.785   7.010
 6614SOL    HW121283   2.398   1.771   7.094
 6614SOL    HW221284   2.482   1.872   7.018
 6615SOL     OW21285   2.429   0.987   5.730
 6615SOL    HW121286   2.480   1.028   5.661
 6615SOL    HW221287   2.469   1.018   5.812
 6616SOL     OW21288   3.537   0.098   7.090
 6616SOL    HW121289   3.485   0.104   7.010
 6616SOL    HW221290   3.483   0.141   7.157
 6617SOL     OW21291   1.992   0.658   6.138
 6617SOL    HW121292   1.998   0.566   6.164
 6617SOL    HW221293   1.979   0.705   6.221
 6618SOL     OW21294   3.694   1.772   5.973
 6618SOL    HW121295   3.781   1.739   5.995
 6618SOL    HW221296   3.707   1.827   5.896
 6619SOL     OW21297   1.909   1.592   5.704
 6619SOL    HW121298   1.893   1.499   5.717
 6619SOL    HW221299   1.880   1.633   5.786
 6620SOL     OW21300   3.547   0.881   6.202
 6620SOL    HW121301   3.639   0.884   6.230
 6620SOL    HW221302   3.539   0.953   6.139
 6621SOL     OW21303   3.513   1.099   6.026
 6621SOL    HW121304   3.597   1.091   5.981
 6621SOL    HW221305   3.529   1.162   6.096
 6622SOL     OW21306   1.999   0.751   7.177
 6622SOL    HW121307   2.094   0.754   7.169
 6622SOL    HW221308   1.975   0.835   7.216
 6623SOL     OW21309   2.477   1.389   6.325
 6623SOL    HW121310   2.432   1.305   6.331
 6623SOL    HW221311   2.463   1.417   6.234
 6624SOL     OW21312   3.142   1.229   7.002
 6624SOL    HW121313   3.171   1.159   6.944
 6624SOL    HW221314   3.202   1.226   7.077
 6625SOL     OW21315   2.702   0.032   6.126
 6625SOL    HW121316   2.747   0.105   6.082
 6625SOL    HW221317   2.618   0.070   6.153
 6626SOL     OW21318   2.038   0.951   6.861
 6626SOL    HW121319   2.125   0.912   6.853
 6626SOL    HW221320   1.988   0.912   6.789
 6627SOL     OW21321   3.389   1.002   5.794
 6627SOL    HW121322   3.320   0.948   5.831
 6627SOL    HW221323   3.432   1.043   5.870
 6628SOL     OW21324   3.018   1.813   7.207
 6628SOL    HW121325   3.045   1.885   7.150
 6628SOL    HW221326   3.059   1.735   7.169
 6629SOL     OW21327   2.197   0.242   7.446
 6629SOL    HW121328   2.222   0.332   7.470
 6629SOL    HW221329   2.102   0.245   7.439
 6630SOL     OW21330   3.280   1.427   6.499
 6630SOL    HW121331   3.231   1.443   6.579
 6630SOL    HW221332   3.280   1.331   6.490
 6631SOL     OW21333   3.508   1.753   6.172
 6631SOL    HW121334   3.534   1.773   6.082
 6631SOL    HW221335   3.563   1.679   6.197
 6632SOL     OW21336   2.453   0.726   5.854
 6632SOL    HW121337   2.443   0.809   5.809
 6632SOL    HW221338   2.389   0.729   5.925
 6633SOL     OW21339   3.165   0.360   6.519
 6633SOL    HW121340   3.071   0.341   6.527
 6633SOL    HW221341   3.205   0.308   6.589
 6634SOL     OW21342   3.422   1.651   5.890
 6634SOL    HW121343   3.517   1.653   5.882
 6634SOL    HW221344   3.391   1.645   5.799
 6635SOL     OW21345   2.631   0.633   7.021
 6635SOL    HW121346   2.629   0.605   7.113
 6635SOL    HW221347   2.595   0.558   6.973
 6636SOL     OW21348   3.264   0.498   7.261
 6636SOL    HW121349   3.270   0.533   7.350
 6636SOL    HW221350   3.330   0.428   7.259
 6637SOL     OW21351   2.814   0.879   7.155
 6637SOL    HW121352   2.858   0.801   7.122
 6637SOL    HW221353   2.770   0.917   7.079
 6638SOL     OW21354   2.859   0.443   6.799
 6638SOL    HW121355   2.821   0.402   6.877
 6638SOL    HW221356   2.839   0.382   6.728
 6639SOL     OW21357   2.901   0.689   5.998
 6639SOL    HW121358   2.883   0.642   6.079
 6639SOL    HW221359   2.831   0.662   5.939
 6640SOL     OW21360   1.951   0.814   6.357
 6640SOL    HW121361   2.028   0.802   6.414
 6640SOL    HW221362   1.906   0.890   6.394
 6641SOL     OW21363   2.003   1.862   7.169
 6641SOL    HW121364   1.999   1.834   7.260
 6641SOL    HW221365   1.943   1.802   7.123
 6642SOL     OW21366   2.759   0.304   5.735
 6642SOL    HW121367   2.771   0.398   5.741
 6642SOL    HW221368   2.768   0.272   5.825
 6643SOL     OW21369   3.571   0.576   7.412
 6643SOL    HW121370   3.540   0.651   7.362
 6643SOL    HW221371   3.594   0.511   7.345
 6644SOL     OW21372   3.242   1.143   6.120
 6644SOL    HW121373   3.324   1.129   6.072
 6644SOL    HW221374   3.193   1.205   6.067
 6645SOL     OW21375   2.435   0.239   6.518
 6645SOL    HW121376   2.396   0.249   6.605
 6645SOL    HW221377   2.404   0.314   6.468
 6646SOL     OW21378   2.867   1.451   6.059
 6646SOL    HW121379   2.833   1.522   6.004
 6646SOL    HW221380   2.830   1.469   6.145
 6647SOL     OW21381   2.215   1.818   6.462
 6647SOL    HW121382   2.258   1.733   6.464
 6647SOL    HW221383   2.284   1.882   6.478
 6648SOL     OW21384   3.640   1.013   6.460
 6648SOL    HW121385   3.617   1.079   6.394
 6648SOL    HW221386   3.591   1.039   6.538
 6649SOL     OW21387   3.086   1.539   7.099
 6649SOL    HW121388   3.075   1.467   7.162
 6649SOL    HW221389   3.021   1.522   7.031
 6650SOL     OW21390   2.158   0.952   5.831
 6650SOL    HW121391   2.244   0.966   5.792
 6650SOL    HW221392   2.128   0.870   5.794
 6651SOL     OW21393   3.333   0.762   6.315
 6651SOL    HW121394   3.345   0.716   6.398
 6651SOL    HW221395   3.418   0.802   6.297
 6652SOL     OW21396   2.315   1.267   7.356
 6652SOL    HW121397   2.305   1.252   7.262
 6652SOL    HW221398   2.347   1.184   7.390
 6653SOL     OW21399   2.983   1.771   5.822
 6653SOL    HW121400   2.904   1.731   5.857
 6653SOL    HW221401   3.007   1.715   5.748
 6654SOL     OW21402   2.065   0.269   7.124
 6654SOL    HW121403   1.975   0.300   7.135
 6654SOL    HW221404   2.069   0.189   7.176
 6655SOL     OW21405   3.483   1.354   5.707
 6655SOL    HW121406   3.518   1.444   5.711
 6655SOL    HW221407   3.409   1.360   5.647
 6656SOL     OW21408   2.321   1.739   5.900
 6656SOL    HW121409   2.372   1.791   5.963
 6656SOL    HW221410   2.387   1.698   5.844
 6657SOL     OW21411   3.262   0.114   5.990
 6657SOL    HW121412   3.306   0.100   5.906
 6657SOL    HW221413   3.334   0.120   6.054
 6658SOL     OW21414   2.131   1.790   6.793
 6658SOL    HW121415   2.178   1.718   6.838
 6658SOL    HW221416   2.135   1.767   6.701
 6659SOL     OW21417   2.786   1.700   6.489
 6659SOL    HW121418   2.846   1.642   6.536
 6659SOL    HW221419   2.756   1.649   6.414
 6660SOL     OW21420   2.263   0.703   6.058
 6660SOL    HW121421   2.284   0.611   6.071
 6660SOL    HW221422   2.167   0.707   6.064
 6661SOL     OW21423   3.408   0.223   7.301
 6661SOL    HW121424   3.422   0.248   7.392
 6661SOL    HW221425   3.316   0.197   7.297
 6662SOL     OW21426   2.445   0.128   5.677
 6662SOL    HW121427   2.511   0.077   5.724
 6662SOL    HW221428   2.408   0.066   5.614
 6663SOL     OW21429   2.645   0.294   7.386
 6663SOL    HW121430   2.674   0.211   7.348
 6663SOL    HW221431   2.570   0.271   7.439
 6664SOL     OW21432   2.742   1.519   6.772
 6664SOL    HW121433   2.723   1.474   6.690
 6664SOL    HW221434   2.810   1.465   6.813
 6665SOL     OW21435   3.189   0.607   7.023
 6665SOL    HW121436   3.225   0.572   7.104
 6665SOL    HW221437   3.235   0.690   7.011
 6666SOL     OW21438   2.686   1.386   6.530
 6666SOL    HW121439   2.768   1.373   6.484
 6666SOL    HW221440   2.620   1.392   6.460
 6667SOL     OW21441   2.774   0.518   6.497
 6667SOL    HW121442   2.765   0.518   6.402
 6667SOL    HW221443   2.819   0.436   6.517
 6668SOL     OW21444   2.388   0.023   6.013
 6668SOL    HW121445   2.348   0.023   6.100
 6668SOL    HW221446   2.390   0.116   5.987
 6669SOL     OW21447   3.263   1.177   5.611
 6669SOL    HW121448   3.309   1.126   5.678
 6669SOL    HW221449   3.192   1.219   5.659
 6670SOL     OW21450   2.177  -0.009   5.761
 6670SOL    HW121451   2.238   0.064   5.753
 6670SOL    HW221452   2.187  -0.038   5.852
 6671SOL     OW21453   2.817   0.254   6.014
 6671SOL    HW121454   2.783   0.323   6.071
 6671SOL    HW221455   2.911   0.267   6.014
 6672SOL     OW21456   2.923   0.652   7.024
 6672SOL    HW121457   2.889   0.571   7.061
 6672SOL    HW221458   3.018   0.640   7.022
 6673SOL     OW21459   2.332   1.153   6.317
 6673SOL    HW121460   2.265   1.138   6.383
 6673SOL    HW221461   2.288   1.138   6.233
 6674SOL     OW21462   3.134   1.823   6.221
 6674SOL    HW121463   3.163   1.880   6.150
 6674SOL    HW221464   3.051   1.860   6.250
 6675SOL     OW21465   2.902   0.548   5.596
 6675SOL    HW121466   2.842   0.623   5.594
 6675SOL    HW221467   2.942   0.551   5.683
 6676SOL     OW21468   1.946   0.575   6.976
 6676SOL    HW121469   2.037   0.563   6.949
 6676SOL    HW221470   1.950   0.640   7.045
 6677SOL     OW21471   2.419   0.221   6.796
 6677SOL    HW121472   2.453   0.139   6.830
 6677SOL    HW221473   2.325   0.218   6.816
 6678SOL     OW21474   2.817   0.048   6.378
 6678SOL    HW121475   2.780   0.049   6.290
 6678SOL    HW221476   2.866  -0.034   6.383
 6679SOL     OW21477   3.309   1.161   6.439
 6679SOL    HW121478   3.239   1.106   6.403
 6679SOL    HW221479   3.371   1.170   6.367
 6680SOL     OW21480   3.329   0.610   6.550
 6680SOL    HW121481   3.277   0.529   6.547
 6680SOL    HW221482   3.385   0.599   6.627
 6681SOL     OW21483   2.350   1.424   5.730
 6681SOL    HW121484   2.274   1.392   5.778
 6681SOL    HW221485   2.354   1.370   5.651
 6682SOL     OW21486   3.542   1.237   6.271
 6682SOL    HW121487   3.637   1.232   6.263
 6682SOL    HW221488   3.523   1.331   6.269
 6683SOL     OW21489   3.252   0.557   5.660
 6683SOL    HW121490   3.187   0.543   5.729
 6683SOL    HW221491   3.336   0.537   5.701
 6684SOL     OW21492   2.371   0.276   5.893
 6684SOL    HW121493   2.408   0.226   5.821
 6684SOL    HW221494   2.352   0.362   5.856
 6685SOL     OW21495   3.629   1.233   7.172
 6685SOL    HW121496   3.636   1.204   7.262
 6685SOL    HW221497   3.656   1.325   7.174
 6686SOL     OW21498   2.914   1.353   6.917
 6686SOL    HW121499   2.838   1.317   6.963
 6686SOL    HW221500   2.989   1.309   6.957
 6687SOL     OW21501   3.470   1.613   7.224
 6687SOL    HW121502   3.470   1.674   7.151
 6687SOL    HW221503   3.562   1.588   7.234
 6688SOL     OW21504   3.000   1.212   6.688
 6688SOL    HW121505   2.938   1.247   6.751
 6688SOL    HW221506   2.969   1.243   6.603
 6689SOL     OW21507   3.477   1.098   6.668
 6689SOL    HW121508   3.472   1.165   6.736
 6689SOL    HW221509   3.405   1.119   6.608
 6690SOL     OW21510   2.859   1.105   7.300
 6690SOL    HW121511   2.768   1.132   7.309
 6690SOL    HW221512   2.856   1.026   7.246
 6691SOL     OW21513   2.570   1.065   5.957
 6691SOL    HW121514   2.558   1.044   6.050
 6691SOL    HW221515   2.646   1.014   5.931
 6692SOL     OW21516   2.277   0.822   6.840
 6692SOL    HW121517   2.344   0.833   6.907
 6692SOL    HW221518   2.247   0.731   6.850
 6693SOL     OW21519   3.133   0.416   6.832
 6693SOL    HW121520   3.158   0.478   6.900
 6693SOL    HW221521   3.039   0.429   6.820
 6694SOL     OW21522   1.943   1.628   6.977
 6694SOL    HW121523   1.903   1.665   6.898
 6694SOL    HW221524   2.021   1.582   6.946
 6695SOL     OW21525   2.193   1.113   6.079
 6695SOL    HW121526   2.199   1.179   6.010
 6695SOL    HW221527   2.188   1.030   6.032
 6696SOL     OW21528   2.433   0.522   6.435
 6696SOL    HW121529   2.414   0.587   6.368
 6696SOL    HW221530   2.528   0.512   6.434
 6697SOL     OW21531   3.111   1.353   5.980
 6697SOL    HW121532   3.169   1.424   6.006
 6697SOL    HW221533   3.025   1.379   6.013
 6698SOL     OW21534   3.157   1.463   6.739
 6698SOL    HW121535   3.215   1.474   6.814
 6698SOL    HW221536   3.103   1.387   6.761
 6699SOL     OW21537   3.417   0.627   6.064
 6699SOL    HW121538   3.377   0.674   6.137
 6699SOL    HW221539   3.450   0.696   6.006
 6700SOL     OW21540   2.224   1.546   6.912
 6700SOL    HW121541   2.202   1.499   6.831
 6700SOL    HW221542   2.319   1.554   6.910
 6701SOL     OW21543   2.273   0.730   7.179
 6701SOL    HW121544   2.341   0.779   7.132
 6701SOL    HW221545   2.305   0.639   7.179
 6702SOL     OW21546   3.488   0.790   7.266
 6702SOL    HW121547   3.399   0.826   7.263
 6702SOL    HW221548   3.532   0.827   7.191
 6703SOL     OW21549   2.930   0.104   7.335
 6703SOL    HW121550   2.943   0.199   7.333
 6703SOL    HW221551   2.888   0.083   7.251
 6704SOL     OW21552   2.356   0.038   7.322
 6704SOL    HW121553   2.326  -0.027   7.259
 6704SOL    HW221554   2.279   0.092   7.339
 6705SOL     OW21555   2.457   0.873   6.634
 6705SOL    HW121556   2.441   0.961   6.600
 6705SOL    HW221557   2.383   0.857   6.693
 6706SOL     OW21558   3.175   0.838   6.594
 6706SOL    HW121559   3.166   0.861   6.502
 6706SOL    HW221560   3.228   0.759   6.594
 6707SOL     OW21561   3.056   0.522   5.845
 6707SOL    HW121562   3.067   0.445   5.901
 6707SOL    HW221563   3.012   0.586   5.902
 6708SOL     OW21564   2.156   0.197   6.850
 6708SOL    HW121565   2.114   0.208   6.935
 6708SOL    HW221566   2.142   0.105   6.828
 6709SOL     OW21567   1.851   1.307   6.906
 6709SOL    HW121568   1.917   1.253   6.948
 6709SOL    HW221569   1.882   1.317   6.816
 6710SOL     OW21570   2.611   0.654   6.673
 6710SOL    HW121571   2.651   0.619   6.594
 6710SOL    HW221572   2.553   0.724   6.642
 6711SOL     OW21573   3.601   0.980   7.434
 6711SOL    HW121574   3.563   0.905   7.389
 6711SOL    HW221575   3.547   0.991   7.512
 6712SOL     OW21576   2.256   0.044   6.254
 6712SOL    HW121577   2.210   0.127   6.263
 6712SOL    HW221578   2.198  -0.021   6.292
 6713SOL     OW21579   3.498   0.393   5.943
 6713SOL    HW121580   3.511   0.319   6.002
 6713SOL    HW221581   3.463   0.463   5.999
 6714SOL     OW21582   2.895   0.740   6.632
 6714SOL    HW121583   2.983   0.771   6.610
 6714SOL    HW221584   2.877   0.671   6.568
 6715SOL     OW21585   2.831   1.560   7.307
 6715SOL    HW121586   2.824   1.609   7.225
 6715SOL    HW221587   2.883   1.483   7.284
 6716SOL     OW21588   3.729   1.481   7.179
 6716SOL    HW121589   3.729   1.520   7.092
 6716SOL    HW221590   3.788   1.535   7.231
 6717SOL     OW21591   2.187   0.919   7.361
 6717SOL    HW121592   2.258   0.947   7.418
 6717SOL    HW221593   2.224   0.847   7.309
 6718SOL     OW21594   3.405   0.272   5.715
 6718SOL    HW121595   3.429   0.183   5.739
 6718SOL    HW221596   3.435   0.326   5.788
 6719SOL     OW21597   3.171   0.819   5.612
 6719SOL    HW121598   3.190   0.726   5.617
 6719SOL    HW221599   3.252   0.858   5.577
 6720SOL     OW21600   2.936   1.333   6.436
 6720SOL    HW121601   2.924   1.253   6.384
 6720SOL    HW221602   3.012   1.376   6.397
 6721SOL     OW21603   2.173   0.814   6.519
 6721SOL    HW121604   2.254   0.813   6.468
 6721SOL    HW221605   2.173   0.729   6.565
 6722SOL     OW21606   2.221   0.553   6.605
 6722SOL    HW121607   2.161   0.480   6.593
 6722SOL    HW221608   2.291   0.537   6.541
 6723SOL     OW21609   3.016   0.378   7.315
 6723SOL    HW121610   2.950   0.432   7.358
 6723SOL    HW221611   3.084   0.440   7.288
 6724SOL     OW21612   3.123   0.233   7.096
 6724SOL    HW121613   3.086   0.290   7.163
 6724SOL    HW221614   3.047   0.190   7.057
 6725SOL     OW21615   1.864   1.319   5.784
 6725SOL    HW121616   1.776   1.334   5.750
 6725SOL    HW221617   1.863   1.229   5.815
 6726SOL     OW21618   1.949   1.796   6.526
 6726SOL    HW121619   1.917   1.718   6.480
 6726SOL    HW221620   2.041   1.803   6.499
 6727SOL     OW21621   2.349   1.577   6.484
 6727SOL    HW121622   2.419   1.638   6.505
 6727SOL    HW221623   2.390   1.512   6.428
 6728SOL     OW21624   1.895   0.555   6.697
 6728SOL    HW121625   1.945   0.484   6.657
 6728SOL    HW221626   1.930   0.561   6.786
 6729SOL     OW21627   2.040   0.516   7.324
 6729SOL    HW121628   2.079   0.455   7.261
 6729SOL    HW221629   2.021   0.595   7.273
 6730SOL     OW21630   3.251   0.928   7.243
 6730SOL    HW121631   3.267   1.023   7.241
 6730SOL    HW221632   3.245   0.904   7.150
 6731SOL     OW21633   2.691   0.580   5.867
 6731SOL    HW121634   2.674   0.531   5.947
 6731SOL    HW221635   2.612   0.634   5.854
 6732SOL     OW21636   3.501   0.606   6.766
 6732SOL    HW121637   3.490   0.546   6.840
 6732SOL    HW221638   3.588   0.585   6.730
 6733SOL     OW21639   2.557   0.447   6.849
 6733SOL    HW121640   2.508   0.367   6.832
 6733SOL    HW221641   2.547   0.499   6.769
 6734SOL     OW21642   2.770   1.680   7.062
 6734SOL    HW121643   2.759   1.643   6.975
 6734SOL    HW221644   2.784   1.773   7.047
 6735SOL     OW21645   2.332   0.499   5.750
 6735SOL    HW121646   2.384   0.573   5.781
 6735SOL    HW221647   2.249   0.538   5.722
 6736SOL     OW21648   2.020   1.138   7.054
 6736SOL    HW121649   2.009   1.086   7.133
 6736SOL    HW221650   2.032   1.074   6.984
 6737SOL     OW21651   3.172   1.029   6.797
 6737SOL    HW121652   3.180   0.962   6.729
 6737SOL    HW221653   3.112   1.094   6.759
 6738SOL     OW21654   3.178   0.855   5.894
 6738SOL    HW121655   3.106   0.820   5.947
 6738SOL    HW221656   3.149   0.843   5.803
 6739SOL     OW21657   3.596   1.727   6.704
 6739SOL    HW121658   3.675   1.778   6.685
 6739SOL    HW221659   3.624   1.636   6.691
 6740SOL     OW21660   3.095   1.726   6.664
 6740SOL    HW121661   3.181   1.766   6.652
 6740SOL    HW221662   3.115   1.636   6.691
 6741SOL     OW21663   2.542   1.671   7.328
 6741SOL    HW121664   2.499   1.756   7.316
 6741SOL    HW221665   2.625   1.679   7.281
 6742SOL     OW21666   3.258   1.577   6.090
 6742SOL    HW121667   3.321   1.598   6.020
 6742SOL    HW221668   3.192   1.646   6.083
 6743SOL     OW21669   2.040   1.760   7.420
 6743SOL    HW121670   1.989   1.696   7.469
 6743SOL    HW221671   2.076   1.818   7.486
 6744SOL     OW21672   3.137   0.943   6.271
 6744SOL    HW121673   3.205   0.875   6.274
 6744SOL    HW221674   3.170   1.006   6.208
 6745SOL     OW21675   2.663   1.269   7.003
 6745SOL    HW121676   2.632   1.311   7.082
 6745SOL    HW221677   2.595   1.285   6.938
 6746SOL     OW21678   2.528   1.629   5.740
 6746SOL    HW121679   2.546   1.644   5.647
 6746SOL    HW221680   2.473   1.551   5.741
 6747SOL     OW21681   3.477   1.731   6.955
 6747SOL    HW121682   3.515   1.748   6.868
 6747SOL    HW221683   3.465   1.818   6.993
 6748SOL     OW21684   3.725   0.133   6.533
 6748SOL    HW121685   3.749   0.097   6.448
 6748SOL    HW221686   3.639   0.174   6.520
 6749SOL     OW21687   3.053   1.605   5.619
 6749SOL    HW121688   3.051   1.511   5.638
 6749SOL    HW221689   2.992   1.616   5.546
 6750SOL     OW21690   2.691   1.003   6.933
 6750SOL    HW121691   2.684   1.015   6.838
 6750SOL    HW221692   2.690   1.092   6.969
 6751SOL     OW21693   2.785   0.922   5.885
 6751SOL    HW121694   2.845   0.942   5.813
 6751SOL    HW221695   2.828   0.852   5.933
 6752SOL     OW21696   3.334   1.640   5.627
 6752SOL    HW121697   3.243   1.628   5.599
 6752SOL    HW221698   3.385   1.636   5.547
 6753SOL     OW21699   2.177   1.355   7.123
 6753SOL    HW121700   2.211   1.393   7.042
 6753SOL    HW221701   2.127   1.279   7.095
 6754SOL     OW21702   3.486   1.298   6.869
 6754SOL    HW121703   3.547   1.287   6.943
 6754SOL    HW221704   3.422   1.362   6.901
 6755SOL     OW21705   2.911   1.103   6.307
 6755SOL    HW121706   2.842   1.047   6.343
 6755SOL    HW221707   2.980   1.042   6.280
 6756SOL     OW21708   2.900   0.265   6.546
 6756SOL    HW121709   2.872   0.224   6.465
 6756SOL    HW221710   2.907   0.193   6.609
 6757SOL     OW21711   2.470   1.490   6.071
 6757SOL    HW121712   2.525   1.438   6.012
 6757SOL    HW221713   2.392   1.510   6.020
 6758SOL     OW21714   3.591   0.417   6.964
 6758SOL    HW121715   3.668   0.475   6.966
 6758SOL    HW221716   3.620   0.342   6.911
 6759SOL     OW21717   2.125   1.342   5.872
 6759SOL    HW121718   2.032   1.338   5.849
 6759SOL    HW221719   2.126   1.379   5.960
 6760SOL     OW21720   1.950   1.023   7.292
 6760SOL    HW121721   1.880   1.004   7.354
 6760SOL    HW221722   2.029   0.989   7.334
 6761SOL     OW21723   2.544   0.214   7.091
 6761SOL    HW121724   2.601   0.159   7.038
 6761SOL    HW221725   2.532   0.166   7.173
 6762SOL     OW21726   1.952   0.356   5.621
 6762SOL    HW121727   1.889   0.372   5.550
 6762SOL    HW221728   1.985   0.443   5.644
 6763SOL     OW21729   3.290   0.864   6.981
 6763SOL    HW121730   3.237   0.919   6.924
 6763SOL    HW221731   3.376   0.862   6.938
 6764SOL     OW21732   1.921   0.174   5.842
 6764SOL    HW121733   1.957   0.244   5.787
 6764SOL    HW221734   1.980   0.170   5.917
 6765SOL     OW21735   3.043   1.331   5.708
 6765SOL    HW121736   2.951   1.304   5.711
 6765SOL    HW221737   3.069   1.336   5.800
 6766SOL     OW21738   2.473   0.848   7.027
 6766SOL    HW121739   2.533   0.919   7.005
 6766SOL    HW221740   2.528   0.770   7.029
 6767SOL     OW21741   3.389   1.797   6.538
 6767SOL    HW121742   3.404   1.890   6.524
 6767SOL    HW221743   3.456   1.771   6.600
 6768SOL     OW21744   2.614   0.551   7.276
 6768SOL    HW121745   2.640   0.613   7.344
 6768SOL    HW221746   2.623   0.465   7.318
 6769SOL     OW21747   3.330   1.195   7.214
 6769SOL    HW121748   3.313   1.205   7.308
 6769SOL    HW221749   3.413   1.239   7.200
 6770SOL     OW21750   2.214   1.670   7.175
 6770SOL    HW121751   2.148   1.739   7.164
 6770SOL    HW221752   2.224   1.632   7.087
 6771SOL     OW21753   3.525   0.879   6.840
 6771SOL    HW121754   3.523   0.793   6.798
 6771SOL    HW221755   3.514   0.941   6.768
 6772SOL     OW21756   3.086   0.322   6.033
 6772SOL    HW121757   3.147   0.249   6.023
 6772SOL    HW221758   3.115   0.367   6.112
 6773SOL     OW21759   2.409   0.761   6.283
 6773SOL    HW121760   2.476   0.823   6.254
 6773SOL    HW221761   2.358   0.741   6.205
 6774SOL     OW21762   3.621   0.379   7.231
 6774SOL    HW121763   3.609   0.394   7.137
 6774SOL    HW221764   3.554   0.313   7.253
 6775SOL     OW21765   3.634   0.957   7.079
 6775SOL    HW121766   3.584   1.036   7.098
 6775SOL    HW221767   3.604   0.929   6.992
 6776SOL     OW21768   2.726   1.366   5.631
 6776SOL    HW121769   2.689   1.410   5.707
 6776SOL    HW221770   2.750   1.437   5.571
 6777SOL     OW21771   2.520   1.783   6.518
 6777SOL    HW121772   2.509   1.877   6.502
 6777SOL    HW221773   2.615   1.770   6.517
 6778SOL     OW21774   2.724   0.967   6.459
 6778SOL    HW121775   2.757   0.887   6.500
 6778SOL    HW221776   2.686   1.017   6.531
 6779SOL     OW21777   2.946   0.968   5.672
 6779SOL    HW121778   2.923   1.028   5.602
 6779SOL    HW221779   3.024   0.922   5.640
 6780SOL     OW21780   3.706   1.527   6.418
 6780SOL    HW121781   3.627   1.525   6.364
 6780SOL    HW221782   3.677   1.496   6.504
 6781SOL     OW21783   2.027   1.347   7.410
 6781SOL    HW121784   2.023   1.259   7.373
 6781SOL    HW221785   1.977   1.341   7.492
 6782SOL     OW21786   1.960   1.232   6.253
 6782SOL    HW121787   1.969   1.202   6.343
 6782SOL    HW221788   2.019   1.176   6.203
 6783SOL     OW21789   2.519   1.412   7.197
 6783SOL    HW121790   2.532   1.340   7.259
 6783SOL    HW221791   2.541   1.491   7.247
 6784SOL     OW21792   3.698   0.219   6.816
 6784SOL    HW121793   3.630   0.151   6.817
 6784SOL    HW221794   3.713   0.236   6.723
 6785SOL     OW21795   2.313   0.445   6.111
 6785SOL    HW121796   2.334   0.378   6.046
 6785SOL    HW221797   2.243   0.407   6.163
 6786SOL     OW21798   3.565   1.443   6.642
 6786SOL    HW121799   3.475   1.460   6.613
 6786SOL    HW221800   3.554   1.401   6.728
 6787SOL     OW21801   2.198   0.564   6.881
 6787SOL    HW121802   2.248   0.500   6.932
 6787SOL    HW221803   2.212   0.539   6.790
 6788SOL     OW21804   2.697   1.581   6.259
 6788SOL    HW121805   2.682   1.648   6.193
 6788SOL    HW221806   2.621   1.523   6.253
 6789SOL     OW21807   3.261   0.204   6.732
 6789SOL    HW121808   3.343   0.195   6.781
 6789SOL    HW221809   3.214   0.274   6.777
 6790SOL     OW21810   2.880   0.050   6.716
 6790SOL    HW121811   2.788   0.044   6.692
 6790SOL    HW221812   2.879   0.059   6.811
 6791SOL     OW21813   2.634   1.334   5.921
 6791SOL    HW121814   2.606   1.243   5.920
 6791SOL    HW221815   2.723   1.332   5.956
 6792SOL     OW21816   2.491   1.558   6.868
 6792SOL    HW121817   2.490   1.642   6.916
 6792SOL    HW221818   2.580   1.553   6.832
 6793SOL     OW21819   3.225   8.001   5.703
 6793SOL    HW121820   3.297   7.941   5.721
 6793SOL    HW221821   3.166   7.991   5.778
 6794SOL     OW21822   3.172   0.463   6.266
 6794SOL    HW121823   3.122   0.544   6.280
 6794SOL    HW221824   3.172   0.420   6.351
 6795SOL     OW21825   3.486   0.248   6.493
 6795SOL    HW121826   3.410   0.194   6.471
 6795SOL    HW221827   3.487   0.317   6.427
 6796SOL     OW21828   1.905   1.065   5.894
 6796SOL    HW121829   1.996   1.052   5.867
 6796SOL    HW221830   1.875   0.978   5.919
 6797SOL     OW21831   2.745   1.660   5.927
 6797SOL    HW121832   2.670   1.647   5.868
 6797SOL    HW221833   2.720   1.737   5.979
 6798SOL     OW21834   2.060   0.637   7.584
 6798SOL    HW121835   1.972   0.627   7.621
 6798SOL    HW221836   2.053   0.602   7.495
 6799SOL     OW21837   2.097   0.288   8.438
 6799SOL    HW121838   2.133   0.255   8.520
 6799SOL    HW221839   2.018   0.235   8.425
 6800SOL     OW21840   1.868   0.406   8.044
 6800SOL    HW121841   1.787   0.421   8.094
 6800SOL    HW221842   1.846   0.333   7.986
 6801SOL     OW21843   2.446   1.296   8.653
 6801SOL    HW121844   2.364   1.294   8.604
 6801SOL    HW221845   2.456   1.387   8.679
 6802SOL     OW21846   3.451   1.556   8.160
 6802SOL    HW121847   3.407   1.508   8.229
 6802SOL    HW221848   3.389   1.554   8.086
 6803SOL     OW21849   3.009   0.701   8.140
 6803SOL    HW121850   3.054   0.783   8.120
 6803SOL    HW221851   2.960   0.719   8.220
 6804SOL     OW21852   3.643   0.596   7.668
 6804SOL    HW121853   3.617   0.593   7.576
 6804SOL    HW221854   3.598   0.522   7.708
 6805SOL     OW21855   2.684   1.147   8.524
 6805SOL    HW121856   2.597   1.122   8.555
 6805SOL    HW221857   2.672   1.235   8.487
 6806SOL     OW21858   2.539   0.980   8.116
 6806SOL    HW121859   2.609   0.980   8.182
 6806SOL    HW221860   2.478   1.047   8.147
 6807SOL     OW21861   2.570   1.151   9.246
 6807SOL    HW121862   2.612   1.237   9.254
 6807SOL    HW221863   2.480   1.170   9.220
 6808SOL     OW21864   2.191   1.410   8.522
 6808SOL    HW121865   2.113   1.372   8.481
 6808SOL    HW221866   2.232   1.461   8.453
 6809SOL     OW21867   3.324   1.497   8.812
 6809SOL    HW121868   3.373   1.579   8.814
 6809SOL    HW221869   3.247   1.513   8.866
 6810SOL     OW21870   2.275   0.433   9.009
 6810SOL    HW121871   2.354   0.381   8.994
 6810SOL    HW221872   2.204   0.379   8.976
 6811SOL     OW21873   3.467   0.466   8.171
 6811SOL    HW121874   3.379   0.470   8.133
 6811SOL    HW221875   3.503   0.554   8.156
 6812SOL     OW21876   2.118   1.671   7.951
 6812SOL    HW121877   2.117   1.756   7.996
 6812SOL    HW221878   2.181   1.683   7.879
 6813SOL     OW21879   3.020   1.341   9.149
 6813SOL    HW121880   3.040   1.325   9.241
 6813SOL    HW221881   2.976   1.260   9.120
 6814SOL     OW21882   2.128   1.093   8.332
 6814SOL    HW121883   2.140   1.008   8.375
 6814SOL    HW221884   2.072   1.142   8.392
 6815SOL     OW21885   2.476   1.770   8.913
 6815SOL    HW121886   2.383   1.776   8.933
 6815SOL    HW221887   2.501   1.858   8.887
 6816SOL     OW21888   3.486   0.182   8.912
 6816SOL    HW121889   3.427   0.119   8.872
 6816SOL    HW221890   3.459   0.185   9.004
 6817SOL     OW21891   2.002   0.654   8.014
 6817SOL    HW121892   1.952   0.573   8.015
 6817SOL    HW221893   1.986   0.693   8.100
 6818SOL     OW21894   3.702   1.746   7.829
 6818SOL    HW121895   3.783   1.719   7.872
 6818SOL    HW221896   3.720   1.834   7.797
 6819SOL     OW21897   1.912   1.585   7.576
 6819SOL    HW121898   1.881   1.497   7.596
 6819SOL    HW221899   1.883   1.638   7.651
 6820SOL     OW21900   3.560   0.902   8.083
 6820SOL    HW121901   3.633   0.852   8.047
 6820SOL    HW221902   3.537   0.965   8.015
 6821SOL     OW21903   3.508   1.082   7.882
 6821SOL    HW121904   3.575   1.148   7.862
 6821SOL    HW221905   3.436   1.132   7.921
 6822SOL     OW21906   1.985   0.747   9.043
 6822SOL    HW121907   2.071   0.788   9.044
 6822SOL    HW221908   1.924   0.818   9.064
 6823SOL     OW21909   2.486   1.399   8.168
 6823SOL    HW121910   2.447   1.313   8.186
 6823SOL    HW221911   2.462   1.417   8.077
 6824SOL     OW21912   3.123   1.198   8.889
 6824SOL    HW121913   3.155   1.150   8.813
 6824SOL    HW221914   3.200   1.206   8.946
 6825SOL     OW21915   2.706   0.037   8.020
 6825SOL    HW121916   2.745   0.105   7.965
 6825SOL    HW221917   2.617   0.027   7.987
 6826SOL     OW21918   2.034   0.953   8.713
 6826SOL    HW121919   2.115   0.910   8.741
 6826SOL    HW221920   2.018   0.920   8.625
 6827SOL     OW21921   3.400   0.992   7.647
 6827SOL    HW121922   3.330   0.936   7.680
 6827SOL    HW221923   3.447   1.020   7.726
 6828SOL     OW21924   3.034   1.799   9.088
 6828SOL    HW121925   3.050   1.877   9.035
 6828SOL    HW221926   3.056   1.726   9.030
 6829SOL     OW21927   2.177   0.235   9.283
 6829SOL    HW121928   2.218   0.315   9.250
 6829SOL    HW221929   2.089   0.261   9.308
 6830SOL     OW21930   3.342   1.417   8.389
 6830SOL    HW121931   3.268   1.435   8.447
 6830SOL    HW221932   3.326   1.329   8.355
 6831SOL     OW21933   2.463   0.731   7.719
 6831SOL    HW121934   2.469   0.814   7.671
 6831SOL    HW221935   2.399   0.748   7.788
 6832SOL     OW21936   3.168   0.356   8.390
 6832SOL    HW121937   3.076   0.330   8.381
 6832SOL    HW221938   3.201   0.301   8.461
 6833SOL     OW21939   3.453   1.702   7.693
 6833SOL    HW121940   3.537   1.724   7.654
 6833SOL    HW221941   3.404   1.660   7.622
 6834SOL     OW21942   2.661   0.622   8.919
 6834SOL    HW121943   2.622   0.571   8.990
 6834SOL    HW221944   2.641   0.572   8.840
 6835SOL     OW21945   3.270   0.491   9.108
 6835SOL    HW121946   3.272   0.526   9.197
 6835SOL    HW221947   3.309   0.404   9.116
 6836SOL     OW21948   2.792   0.879   9.031
 6836SOL    HW121949   2.840   0.802   9.003
 6836SOL    HW221950   2.768   0.924   8.950
 6837SOL     OW21951   2.860   0.399   8.664
 6837SOL    HW121952   2.777   0.422   8.707
 6837SOL    HW221953   2.836   0.382   8.573
 6838SOL     OW21954   2.918   0.696   7.868
 6838SOL    HW121955   2.936   0.694   7.962
 6838SOL    HW221956   2.832   0.656   7.860
 6839SOL     OW21957   1.963   0.799   8.246
 6839SOL    HW121958   2.037   0.824   8.300
 6839SOL    HW221959   1.906   0.876   8.245
 6840SOL     OW21960   1.969   1.876   9.031
 6840SOL    HW121961   1.977   1.858   9.125
 6840SOL    HW221962   1.894   1.824   9.003
 6841SOL     OW21963   2.751   0.358   7.658
 6841SOL    HW121964   2.788   0.408   7.586
 6841SOL    HW221965   2.703   0.287   7.615
 6842SOL     OW21966   3.559   0.602   9.290
 6842SOL    HW121967   3.526   0.661   9.222
 6842SOL    HW221968   3.584   0.523   9.242
 6843SOL     OW21969   2.852   1.445   7.912
 6843SOL    HW121970   2.828   1.525   7.865
 6843SOL    HW221971   2.834   1.465   8.004
 6844SOL     OW21972   2.187   1.795   8.298
 6844SOL    HW121973   2.222   1.706   8.298
 6844SOL    HW221974   2.249   1.846   8.350
 6845SOL     OW21975   3.673   1.050   8.332
 6845SOL    HW121976   3.629   1.081   8.252
 6845SOL    HW221977   3.606   1.052   8.399
 6846SOL     OW21978   3.094   1.534   8.957
 6846SOL    HW121979   3.080   1.462   9.018
 6846SOL    HW221980   3.022   1.527   8.894
 6847SOL     OW21981   2.163   0.961   7.694
 6847SOL    HW121982   2.244   0.982   7.648
 6847SOL    HW221983   2.139   0.874   7.662
 6848SOL     OW21984   3.350   0.755   8.169
 6848SOL    HW121985   3.354   0.731   8.262
 6848SOL    HW221986   3.427   0.811   8.156
 6849SOL     OW21987   2.316   1.246   9.204
 6849SOL    HW121988   2.299   1.261   9.111
 6849SOL    HW221989   2.229   1.249   9.244
 6850SOL     OW21990   2.975   1.774   7.670
 6850SOL    HW121991   2.901   1.731   7.713
 6850SOL    HW221992   3.005   1.711   7.605
 6851SOL     OW21993   2.055   0.293   8.938
 6851SOL    HW121994   1.984   0.351   8.909
 6851SOL    HW221995   2.014   0.238   9.004
 6852SOL     OW21996   3.495   1.366   7.528
 6852SOL    HW121997   3.457   1.452   7.512
 6852SOL    HW221998   3.422   1.305   7.514
 6853SOL     OW21999   2.333   1.722   7.779
 6853SOL    HW122000   2.370   1.792   7.832
 6853SOL    HW222001   2.398   1.706   7.711
 6854SOL     OW22002   3.278   0.089   7.900
 6854SOL    HW122003   3.250   0.065   7.812
 6854SOL    HW222004   3.367   0.123   7.889
 6855SOL     OW22005   2.135   1.781   8.661
 6855SOL    HW122006   2.174   1.714   8.717
 6855SOL    HW222007   2.198   1.793   8.590
 6856SOL     OW22008   2.836   1.683   8.350
 6856SOL    HW122009   2.922   1.644   8.336
 6856SOL    HW222010   2.779   1.638   8.287
 6857SOL     OW22011   2.267   0.688   7.928
 6857SOL    HW122012   2.289   0.595   7.933
 6857SOL    HW222013   2.172   0.691   7.945
 6858SOL     OW22014   3.399   0.209   9.171
 6858SOL    HW122015   3.401   0.241   9.262
 6858SOL    HW222016   3.335   0.138   9.172
 6859SOL     OW22017   2.476   0.155   7.549
 6859SOL    HW122018   2.536   0.092   7.590
 6859SOL    HW222019   2.433   0.104   7.480
 6860SOL     OW22020   2.640   0.285   9.254
 6860SOL    HW122021   2.664   0.192   9.243
 6860SOL    HW222022   2.571   0.299   9.190
 6861SOL     OW22023   2.731   1.515   8.650
 6861SOL    HW122024   2.721   1.497   8.557
 6861SOL    HW222025   2.813   1.472   8.675
 6862SOL     OW22026   2.683   1.387   8.390
 6862SOL    HW122027   2.772   1.380   8.356
 6862SOL    HW222028   2.628   1.396   8.312
 6863SOL     OW22029   2.805   0.506   8.326
 6863SOL    HW122030   2.766   0.499   8.239
 6863SOL    HW222031   2.841   0.419   8.344
 6864SOL     OW22032   2.446   0.097   7.941
 6864SOL    HW122033   2.384   0.024   7.937
 6864SOL    HW222034   2.417   0.156   7.872
 6865SOL     OW22035   3.288   1.190   7.485
 6865SOL    HW122036   3.318   1.119   7.541
 6865SOL    HW222037   3.207   1.221   7.526
 6866SOL     OW22038   2.164   0.054   7.656
 6866SOL    HW122039   2.183   0.109   7.579
 6866SOL    HW222040   2.217  -0.025   7.643
 6867SOL     OW22041   2.822   0.264   7.908
 6867SOL    HW122042   2.789   0.285   7.820
 6867SOL    HW222043   2.916   0.277   7.902
 6868SOL     OW22044   2.962   0.641   8.916
 6868SOL    HW122045   2.888   0.586   8.939
 6868SOL    HW222046   2.942   0.673   8.828
 6869SOL     OW22047   3.082   1.590   8.250
 6869SOL    HW122048   3.086   1.653   8.179
 6869SOL    HW222049   3.161   1.606   8.301
 6870SOL     OW22050   2.333   1.167   8.170
 6870SOL    HW122051   2.269   1.142   8.236
 6870SOL    HW222052   2.294   1.142   8.087
 6871SOL     OW22053   3.111   1.799   8.067
 6871SOL    HW122054   3.163   1.862   8.017
 6871SOL    HW222055   3.041   1.851   8.106
 6872SOL     OW22056   2.877   0.547   7.483
 6872SOL    HW122057   2.832   0.630   7.464
 6872SOL    HW222058   2.940   0.570   7.551
 6873SOL     OW22059   1.962   0.558   8.845
 6873SOL    HW122060   2.054   0.561   8.817
 6873SOL    HW222061   1.954   0.629   8.909
 6874SOL     OW22062   2.454   0.230   8.644
 6874SOL    HW122063   2.475   0.213   8.736
 6874SOL    HW222064   2.359   0.221   8.640
 6875SOL     OW22065   2.701   0.441   8.078
 6875SOL    HW122066   2.670   0.506   8.015
 6875SOL    HW222067   2.749   0.377   8.024
 6876SOL     OW22068   2.866   0.028   8.233
 6876SOL    HW122069   2.812   0.036   8.154
 6876SOL    HW222070   2.845  -0.059   8.267
 6877SOL     OW22071   3.295   1.145   8.330
 6877SOL    HW122072   3.206   1.111   8.329
 6877SOL    HW222073   3.314   1.167   8.239
 6878SOL     OW22074   3.306   0.610   8.435
 6878SOL    HW122075   3.279   0.523   8.406
 6878SOL    HW222076   3.380   0.593   8.494
 6879SOL     OW22077   3.691   0.816   7.822
 6879SOL    HW122078   3.739   0.766   7.887
 6879SOL    HW222079   3.674   0.753   7.751
 6880SOL     OW22080   2.321   1.415   7.583
 6880SOL    HW122081   2.349   1.370   7.663
 6880SOL    HW222082   2.332   1.351   7.513
 6881SOL     OW22083   3.565   1.265   8.188
 6881SOL    HW122084   3.638   1.286   8.130
 6881SOL    HW222085   3.487   1.274   8.133
 6882SOL     OW22086   3.259   0.581   7.520
 6882SOL    HW122087   3.195   0.556   7.587
 6882SOL    HW222088   3.344   0.569   7.562
 6883SOL     OW22089   2.376   0.292   7.758
 6883SOL    HW122090   2.409   0.237   7.686
 6883SOL    HW222091   2.345   0.372   7.714
 6884SOL     OW22092   2.922   1.368   8.803
 6884SOL    HW122093   2.837   1.332   8.830
 6884SOL    HW222094   2.986   1.302   8.831
 6885SOL     OW22095   3.478   1.584   9.096
 6885SOL    HW122096   3.453   1.643   9.025
 6885SOL    HW222097   3.574   1.585   9.095
 6886SOL     OW22098   2.986   1.209   8.546
 6886SOL    HW122099   2.896   1.191   8.573
 6886SOL    HW222100   2.978   1.253   8.462
 6887SOL     OW22101   3.473   1.089   8.527
 6887SOL    HW122102   3.435   1.145   8.595
 6887SOL    HW222103   3.415   1.101   8.452
 6888SOL     OW22104   2.820   0.054   8.872
 6888SOL    HW122105   2.725   0.061   8.865
 6888SOL    HW222106   2.854   0.119   8.810
 6889SOL     OW22107   2.855   1.107   9.172
 6889SOL    HW122108   2.767   1.144   9.177
 6889SOL    HW222109   2.848   1.033   9.111
 6890SOL     OW22110   2.589   1.094   7.863
 6890SOL    HW122111   2.573   1.046   7.944
 6890SOL    HW222112   2.643   1.035   7.810
 6891SOL     OW22113   2.257   0.812   8.780
 6891SOL    HW122114   2.331   0.837   8.725
 6891SOL    HW222115   2.241   0.720   8.758
 6892SOL     OW22116   3.121   0.433   8.713
 6892SOL    HW122117   3.147   0.483   8.636
 6892SOL    HW222118   3.026   0.421   8.704
 6893SOL     OW22119   1.948   1.578   8.803
 6893SOL    HW122120   1.928   1.649   8.742
 6893SOL    HW222121   2.043   1.566   8.797
 6894SOL     OW22122   2.201   1.117   7.933
 6894SOL    HW122123   2.251   1.157   7.862
 6894SOL    HW222124   2.177   1.030   7.900
 6895SOL     OW22125   2.397   0.512   8.300
 6895SOL    HW122126   2.409   0.577   8.231
 6895SOL    HW222127   2.463   0.533   8.365
 6896SOL     OW22128   3.112   1.379   7.821
 6896SOL    HW122129   3.164   1.328   7.883
 6896SOL    HW222130   3.028   1.391   7.865
 6897SOL     OW22131   3.153   1.449   8.584
 6897SOL    HW122132   3.192   1.457   8.671
 6897SOL    HW222133   3.083   1.385   8.594
 6898SOL     OW22134   3.439   0.630   7.929
 6898SOL    HW122135   3.384   0.679   7.990
 6898SOL    HW222136   3.486   0.697   7.879
 6899SOL     OW22137   2.215   1.525   8.764
 6899SOL    HW122138   2.201   1.482   8.679
 6899SOL    HW222139   2.309   1.542   8.767
 6900SOL     OW22140   2.285   0.727   9.053
 6900SOL    HW122141   2.293   0.772   8.969
 6900SOL    HW222142   2.287   0.634   9.030
 6901SOL     OW22143   3.444   0.766   9.085
 6901SOL    HW122144   3.380   0.834   9.101
 6901SOL    HW222145   3.514   0.810   9.037
 6902SOL     OW22146   2.930   0.085   9.211
 6902SOL    HW122147   2.931   0.180   9.199
 6902SOL    HW222148   2.838   0.061   9.199
 6903SOL     OW22149   2.351   0.025   9.211
 6903SOL    HW122150   2.343  -0.022   9.127
 6903SOL    HW222151   2.283   0.092   9.208
 6904SOL     OW22152   3.192   0.851   8.484
 6904SOL    HW122153   3.123   0.856   8.419
 6904SOL    HW222154   3.235   0.767   8.467
 6905SOL     OW22155   3.066   0.527   7.708
 6905SOL    HW122156   3.071   0.448   7.762
 6905SOL    HW222157   3.023   0.591   7.764
 6906SOL     OW22158   2.178   0.204   8.686
 6906SOL    HW122159   2.132   0.222   8.768
 6906SOL    HW222160   2.163   0.111   8.670
 6907SOL     OW22161   1.887   1.318   8.722
 6907SOL    HW122162   1.934   1.261   8.783
 6907SOL    HW222163   1.908   1.407   8.752
 6908SOL     OW22164   2.578   0.605   8.474
 6908SOL    HW122165   2.654   0.615   8.416
 6908SOL    HW222166   2.558   0.694   8.503
 6909SOL     OW22167   3.603   0.958   9.317
 6909SOL    HW122168   3.560   0.904   9.251
 6909SOL    HW222169   3.534   0.976   9.382
 6910SOL     OW22170   2.222   0.102   8.155
 6910SOL    HW122171   2.127   0.102   8.151
 6910SOL    HW222172   2.248   0.030   8.097
 6911SOL     OW22173   3.489   0.395   7.803
 6911SOL    HW122174   3.502   0.326   7.867
 6911SOL    HW222175   3.461   0.471   7.855
 6912SOL     OW22176   2.897   0.751   8.404
 6912SOL    HW122177   2.894   0.757   8.499
 6912SOL    HW222178   2.868   0.662   8.384
 6913SOL     OW22179   2.829   1.538   9.156
 6913SOL    HW122180   2.814   1.594   9.080
 6913SOL    HW222181   2.896   1.476   9.127
 6914SOL     OW22182   3.753   1.506   9.034
 6914SOL    HW122183   3.758   1.565   8.959
 6914SOL    HW222184   3.831   1.525   9.085
 6915SOL     OW22185   2.257   0.903   9.269
 6915SOL    HW122186   2.181   0.956   9.246
 6915SOL    HW222187   2.262   0.837   9.201
 6916SOL     OW22188   3.443   0.289   7.558
 6916SOL    HW122189   3.348   0.280   7.556
 6916SOL    HW222190   3.462   0.323   7.645
 6917SOL     OW22191   3.140   0.827   7.473
 6917SOL    HW122192   3.182   0.741   7.479
 6917SOL    HW222193   3.175   0.865   7.393
 6918SOL     OW22194   2.944   1.348   8.313
 6918SOL    HW122195   2.944   1.277   8.248
 6918SOL    HW222196   2.998   1.416   8.273
 6919SOL     OW22197   2.180   0.835   8.436
 6919SOL    HW122198   2.272   0.854   8.456
 6919SOL    HW222199   2.174   0.739   8.440
 6920SOL     OW22200   2.178   0.545   8.459
 6920SOL    HW122201   2.140   0.459   8.446
 6920SOL    HW222202   2.253   0.548   8.399
 6921SOL     OW22203   3.024   0.359   9.167
 6921SOL    HW122204   2.942   0.406   9.181
 6921SOL    HW222205   3.085   0.425   9.133
 6922SOL     OW22206   3.091   0.236   8.918
 6922SOL    HW122207   3.047   0.267   8.998
 6922SOL    HW222208   3.076   0.305   8.854
 6923SOL     OW22209   1.872   1.315   7.644
 6923SOL    HW122210   1.781   1.328   7.617
 6923SOL    HW222211   1.873   1.227   7.681
 6924SOL     OW22212   1.929   1.780   8.376
 6924SOL    HW122213   1.904   1.698   8.334
 6924SOL    HW222214   2.022   1.790   8.357
 6925SOL     OW22215   2.331   1.561   8.339
 6925SOL    HW122216   2.375   1.628   8.392
 6925SOL    HW222217   2.402   1.515   8.295
 6926SOL     OW22218   2.842   0.770   8.683
 6926SOL    HW122219   2.844   0.860   8.715
 6926SOL    HW222220   2.749   0.752   8.666
 6927SOL     OW22221   1.894   0.555   8.569
 6927SOL    HW122222   1.969   0.563   8.510
 6927SOL    HW222223   1.933   0.549   8.656
 6928SOL     OW22224   2.068   0.525   9.184
 6928SOL    HW122225   2.136   0.497   9.122
 6928SOL    HW222226   2.022   0.595   9.139
 6929SOL     OW22227   3.246   0.949   9.108
 6929SOL    HW122228   3.272   1.041   9.111
 6929SOL    HW222229   3.213   0.937   9.019
 6930SOL     OW22230   2.675   0.574   7.826
 6930SOL    HW122231   2.685   0.501   7.765
 6930SOL    HW222232   2.606   0.627   7.788
 6931SOL     OW22233   3.509   0.593   8.624
 6931SOL    HW122234   3.510   0.542   8.705
 6931SOL    HW222235   3.590   0.568   8.579
 6932SOL     OW22236   2.094   1.551   9.172
 6932SOL    HW122237   2.075   1.610   9.245
 6932SOL    HW222238   2.102   1.465   9.212
 6933SOL     OW22239   2.595   0.471   8.705
 6933SOL    HW122240   2.542   0.392   8.699
 6933SOL    HW222241   2.579   0.519   8.624
 6934SOL     OW22242   2.786   1.669   8.917
 6934SOL    HW122243   2.762   1.632   8.832
 6934SOL    HW222244   2.783   1.764   8.903
 6935SOL     OW22245   2.304   0.518   7.634
 6935SOL    HW122246   2.366   0.589   7.647
 6935SOL    HW222247   2.220   0.562   7.621
 6936SOL     OW22248   2.026   1.154   8.897
 6936SOL    HW122249   2.012   1.113   8.982
 6936SOL    HW222250   2.026   1.081   8.835
 6937SOL     OW22251   3.177   1.051   8.664
 6937SOL    HW122252   3.192   0.984   8.597
 6937SOL    HW222253   3.112   1.110   8.625
 6938SOL     OW22254   3.187   0.844   7.746
 6938SOL    HW122255   3.108   0.835   7.800
 6938SOL    HW222256   3.155   0.838   7.656
 6939SOL     OW22257   3.633   1.735   8.591
 6939SOL    HW122258   3.696   1.777   8.532
 6939SOL    HW222259   3.610   1.653   8.548
 6940SOL     OW22260   3.104   1.727   8.564
 6940SOL    HW122261   3.182   1.760   8.520
 6940SOL    HW222262   3.115   1.632   8.563
 6941SOL     OW22263   1.948   1.275   8.453
 6941SOL    HW122264   1.919   1.284   8.544
 6941SOL    HW222265   1.886   1.215   8.413
 6942SOL     OW22266   2.541   1.671   9.189
 6942SOL    HW122267   2.478   1.743   9.184
 6942SOL    HW222268   2.600   1.685   9.115
 6943SOL     OW22269   3.558   0.156   7.936
 6943SOL    HW122270   3.583   0.124   7.849
 6943SOL    HW222271   3.627   0.123   7.994
 6944SOL     OW22272   3.286   1.616   7.946
 6944SOL    HW122273   3.252   1.550   7.885
 6944SOL    HW222274   3.209   1.664   7.974
 6945SOL     OW22275   2.002   1.819   9.296
 6945SOL    HW122276   1.961   1.745   9.341
 6945SOL    HW222277   2.059   1.858   9.362
 6946SOL     OW22278   3.147   0.938   8.104
 6946SOL    HW122279   3.225   0.882   8.112
 6946SOL    HW222280   3.180   1.021   8.070
 6947SOL     OW22281   2.671   1.269   8.873
 6947SOL    HW122282   2.636   1.316   8.949
 6947SOL    HW222283   2.608   1.288   8.802
 6948SOL     OW22284   2.524   1.627   7.605
 6948SOL    HW122285   2.544   1.650   7.514
 6948SOL    HW222286   2.485   1.540   7.600
 6949SOL     OW22287   3.477   1.722   8.831
 6949SOL    HW122288   3.531   1.738   8.753
 6949SOL    HW222289   3.457   1.809   8.864
 6950SOL     OW22290   3.706   0.159   8.353
 6950SOL    HW122291   3.733   0.120   8.270
 6950SOL    HW222292   3.616   0.187   8.339
 6951SOL     OW22293   2.093   0.380   8.178
 6951SOL    HW122294   2.015   0.393   8.125
 6951SOL    HW222295   2.060   0.347   8.262
 6952SOL     OW22296   3.064   1.601   7.477
 6952SOL    HW122297   3.053   1.508   7.500
 6952SOL    HW222298   3.000   1.616   7.407
 6953SOL     OW22299   2.748   1.013   8.795
 6953SOL    HW122300   2.687   0.995   8.722
 6953SOL    HW222301   2.729   1.104   8.820
 6954SOL     OW22302   2.781   0.926   7.749
 6954SOL    HW122303   2.835   0.960   7.678
 6954SOL    HW222304   2.829   0.851   7.782
 6955SOL     OW22305   3.346   1.595   7.468
 6955SOL    HW122306   3.252   1.608   7.457
 6955SOL    HW222307   3.382   1.611   7.381
 6956SOL     OW22308   2.243   1.316   8.955
 6956SOL    HW122309   2.238   1.389   8.892
 6956SOL    HW222310   2.172   1.257   8.929
 6957SOL     OW22311   3.496   1.285   8.821
 6957SOL    HW122312   3.549   1.297   8.742
 6957SOL    HW222313   3.426   1.351   8.813
 6958SOL     OW22314   2.919   1.121   8.170
 6958SOL    HW122315   2.850   1.064   8.202
 6958SOL    HW222316   2.974   1.064   8.116
 6959SOL     OW22317   2.910   0.254   8.385
 6959SOL    HW122318   2.896   0.195   8.311
 6959SOL    HW222319   2.913   0.197   8.462
 6960SOL     OW22320   2.406   1.467   7.912
 6960SOL    HW122321   2.479   1.426   7.866
 6960SOL    HW222322   2.395   1.551   7.867
 6961SOL     OW22323   3.545   0.441   8.849
 6961SOL    HW122324   3.640   0.453   8.844
 6961SOL    HW222325   3.533   0.346   8.855
 6962SOL     OW22326   2.094   1.402   7.786
 6962SOL    HW122327   2.016   1.364   7.746
 6962SOL    HW222328   2.143   1.438   7.712
 6963SOL     OW22329   1.923   0.343   7.510
 6963SOL    HW122330   1.840   0.384   7.535
 6963SOL    HW222331   1.957   0.400   7.440
 6964SOL     OW22332   3.278   0.853   8.831
 6964SOL    HW122333   3.220   0.911   8.782
 6964SOL    HW222334   3.365   0.867   8.793
 6965SOL     OW22335   1.948   0.194   7.754
 6965SOL    HW122336   1.938   0.251   7.678
 6965SOL    HW222337   2.023   0.139   7.733
 6966SOL     OW22338   3.043   1.326   7.562
 6966SOL    HW122339   2.983   1.252   7.578
 6966SOL    HW222340   3.073   1.352   7.648
 6967SOL     OW22341   2.516   0.865   8.928
 6967SOL    HW122342   2.486   0.916   8.853
 6967SOL    HW222343   2.560   0.789   8.890
 6968SOL     OW22344   3.342   1.787   8.428
 6968SOL    HW122345   3.338   1.855   8.361
 6968SOL    HW222346   3.423   1.806   8.476
 6969SOL     OW22347   2.597   0.612   9.211
 6969SOL    HW122348   2.521   0.568   9.249
 6969SOL    HW222349   2.666   0.546   9.212
 6970SOL     OW22350   3.327   1.214   9.088
 6970SOL    HW122351   3.313   1.223   9.182
 6970SOL    HW222352   3.353   1.302   9.059
 6971SOL     OW22353   2.218   1.753   9.013
 6971SOL    HW122354   2.134   1.797   8.997
 6971SOL    HW222355   2.193   1.667   9.048
 6972SOL     OW22356   3.517   0.877   8.699
 6972SOL    HW122357   3.522   0.796   8.649
 6972SOL    HW222358   3.510   0.946   8.633
 6973SOL     OW22359   3.094   0.316   7.904
 6973SOL    HW122360   3.153   0.241   7.903
 6973SOL    HW222361   3.123   0.368   7.979
 6974SOL     OW22362   2.444   0.720   8.133
 6974SOL    HW122363   2.486   0.806   8.126
 6974SOL    HW222364   2.384   0.717   8.059
 6975SOL     OW22365   3.609   0.387   9.134
 6975SOL    HW122366   3.611   0.406   9.040
 6975SOL    HW222367   3.544   0.318   9.142
 6976SOL     OW22368   3.621   0.919   8.949
 6976SOL    HW122369   3.680   0.995   8.946
 6976SOL    HW222370   3.590   0.910   8.858
 6977SOL     OW22371   2.673   1.396   7.483
 6977SOL    HW122372   2.686   1.402   7.577
 6977SOL    HW222373   2.731   1.462   7.446
 6978SOL     OW22374   2.735   0.968   8.311
 6978SOL    HW122375   2.784   0.894   8.345
 6978SOL    HW222376   2.712   1.019   8.389
 6979SOL     OW22377   2.950   1.015   7.544
 6979SOL    HW122378   2.916   1.047   7.461
 6979SOL    HW222379   3.014   0.948   7.520
 6980SOL     OW22380   3.697   1.557   8.282
 6980SOL    HW122381   3.623   1.562   8.222
 6980SOL    HW222382   3.670   1.491   8.347
 6981SOL     OW22383   2.070   1.309   9.307
 6981SOL    HW122384   2.042   1.229   9.264
 6981SOL    HW222385   2.003   1.326   9.373
 6982SOL     OW22386   2.009   1.254   8.099
 6982SOL    HW122387   2.002   1.208   8.182
 6982SOL    HW222388   2.036   1.187   8.036
 6983SOL     OW22389   2.551   1.399   9.090
 6983SOL    HW122390   2.458   1.389   9.070
 6983SOL    HW222391   2.560   1.490   9.119
 6984SOL     OW22392   2.308   0.412   7.991
 6984SOL    HW122393   2.336   0.369   7.910
 6984SOL    HW222394   2.213   0.402   7.991
 6985SOL     OW22395   3.566   1.457   8.533
 6985SOL    HW122396   3.496   1.443   8.469
 6985SOL    HW222397   3.520   1.489   8.611
 6986SOL     OW22398   2.208   0.550   8.730
 6986SOL    HW122399   2.264   0.478   8.759
 6986SOL    HW222400   2.206   0.543   8.635
 6987SOL     OW22401   2.703   1.581   8.126
 6987SOL    HW122402   2.680   1.660   8.076
 6987SOL    HW222403   2.621   1.533   8.133
 6988SOL     OW22404   3.272   0.215   8.597
 6988SOL    HW122405   3.345   0.174   8.642
 6988SOL    HW222406   3.226   0.263   8.666
 6989SOL     OW22407   2.889   0.060   8.573
 6989SOL    HW122408   2.800   0.052   8.540
 6989SOL    HW222409   2.903  -0.021   8.622
 6990SOL     OW22410   2.619   1.351   7.781
 6990SOL    HW122411   2.604   1.258   7.794
 6990SOL    HW222412   2.705   1.368   7.821
 6991SOL     OW22413   2.485   1.549   8.756
 6991SOL    HW122414   2.487   1.631   8.805
 6991SOL    HW222415   2.567   1.547   8.708
 6992SOL     OW22416   3.187   7.999   7.655
 6992SOL    HW122417   3.240   7.946   7.595
 6992SOL    HW222418   3.101   7.957   7.653
 6993SOL     OW22419   3.171   0.463   8.128
 6993SOL    HW122420   3.122   0.545   8.124
 6993SOL    HW222421   3.160   0.433   8.218
 6994SOL     OW22422   3.452   0.230   8.305
 6994SOL    HW122423   3.362   0.233   8.338
 6994SOL    HW222424   3.462   0.310   8.255
 6995SOL     OW22425   1.915   1.071   7.762
 6995SOL    HW122426   2.003   1.055   7.727
 6995SOL    HW222427   1.888   0.986   7.797
 6996SOL     OW22428   2.745   1.661   7.782
 6996SOL    HW122429   2.670   1.654   7.724
 6996SOL    HW222430   2.723   1.734   7.840
 6997SOL     OW22431   2.091   0.631   9.441
 6997SOL    HW122432   2.001   0.618   9.472
 6997SOL    HW222433   2.088   0.606   9.349
 6998SOL     OW22434   2.082   0.282  10.284
 6998SOL    HW122435   2.107   0.249  10.370
 6998SOL    HW222436   1.993   0.250  10.270
 6999SOL     OW22437   1.899   0.374   9.898
 6999SOL    HW122438   1.839   0.308   9.934
 6999SOL    HW222439   1.918   0.343   9.810
 7000SOL     OW22440   2.431   1.288  10.491
 7000SOL    HW122441   2.344   1.297  10.452
 7000SOL    HW222442   2.448   1.374  10.531
 7001SOL     OW22443   3.395   1.497  10.007
 7001SOL    HW122444   3.344   1.493  10.088
 7001SOL    HW222445   3.331   1.517   9.939
 7002SOL     OW22446   3.013   0.711  10.011
 7002SOL    HW122447   3.042   0.797   9.980
 7002SOL    HW222448   2.965   0.730  10.092
 7003SOL     OW22449   3.582   0.611   9.561
 7003SOL    HW122450   3.579   0.612   9.465
 7003SOL    HW222451   3.573   0.518   9.584
 7004SOL     OW22452   2.620   1.134  10.375
 7004SOL    HW122453   2.545   1.172  10.421
 7004SOL    HW222454   2.659   1.208  10.328
 7005SOL     OW22455   2.716   0.774  11.134
 7005SOL    HW122456   2.709   0.815  11.220
 7005SOL    HW222457   2.753   0.843  11.078
 7006SOL     OW22458   2.514   0.962   9.978
 7006SOL    HW122459   2.591   0.961  10.034
 7006SOL    HW222460   2.460   1.033  10.011
 7007SOL     OW22461   2.579   1.168  11.134
 7007SOL    HW122462   2.620   1.248  11.168
 7007SOL    HW222463   2.497   1.198  11.096
 7008SOL     OW22464   2.200   1.406  10.374
 7008SOL    HW122465   2.120   1.377  10.330
 7008SOL    HW222466   2.242   1.465  10.311
 7009SOL     OW22467   3.329   1.512  10.664
 7009SOL    HW122468   3.383   1.590  10.671
 7009SOL    HW222469   3.260   1.525  10.729
 7010SOL     OW22470   2.312   0.377  10.787
 7010SOL    HW122471   2.377   0.307  10.788
 7010SOL    HW222472   2.229   0.334  10.809
 7011SOL     OW22473   3.479   0.429  10.036
 7011SOL    HW122474   3.394   0.453  10.001
 7011SOL    HW222475   3.519   0.512  10.062
 7012SOL     OW22476   2.088   1.710   9.776
 7012SOL    HW122477   2.107   1.784   9.833
 7012SOL    HW222478   2.165   1.700   9.721
 7013SOL     OW22479   3.012   1.344  10.994
 7013SOL    HW122480   3.058   1.339  11.078
 7013SOL    HW222481   2.955   1.267  10.993
 7014SOL     OW22482   2.089   1.445   9.859
 7014SOL    HW122483   2.082   1.540   9.845
 7014SOL    HW222484   2.025   1.426   9.928
 7015SOL     OW22485   2.133   1.085  10.224
 7015SOL    HW122486   2.108   1.014  10.283
 7015SOL    HW222487   2.081   1.160  10.254
 7016SOL     OW22488   2.474   1.760  10.750
 7016SOL    HW122489   2.388   1.755  10.792
 7016SOL    HW222490   2.494   1.854  10.748
 7017SOL     OW22491   2.547   0.945   9.419
 7017SOL    HW122492   2.548   1.021   9.359
 7017SOL    HW222493   2.547   0.984   9.506
 7018SOL     OW22494   3.518   0.117  10.812
 7018SOL    HW122495   3.461   0.133  10.737
 7018SOL    HW222496   3.470   0.154  10.887
 7019SOL     OW22497   1.981   0.651   9.874
 7019SOL    HW122498   1.950   0.562   9.888
 7019SOL    HW222499   1.965   0.696   9.957
 7020SOL     OW22500   3.709   1.763   9.651
 7020SOL    HW122501   3.786   1.741   9.703
 7020SOL    HW222502   3.725   1.853   9.621
 7021SOL     OW22503   1.919   1.600   9.433
 7021SOL    HW122504   1.898   1.508   9.448
 7021SOL    HW222505   1.885   1.645   9.511
 7022SOL     OW22506   3.517   0.890   9.939
 7022SOL    HW122507   3.610   0.870   9.933
 7022SOL    HW222508   3.504   0.961   9.875
 7023SOL     OW22509   3.517   1.105   9.760
 7023SOL    HW122510   3.596   1.098   9.707
 7023SOL    HW222511   3.535   1.177   9.821
 7024SOL     OW22512   1.977   0.757  10.900
 7024SOL    HW122513   2.056   0.810  10.905
 7024SOL    HW222514   1.906   0.821  10.893
 7025SOL     OW22515   2.474   1.382  10.057
 7025SOL    HW122516   2.423   1.301  10.057
 7025SOL    HW222517   2.461   1.419   9.970
 7026SOL     OW22518   3.147   1.226  10.726
 7026SOL    HW122519   3.195   1.166  10.669
 7026SOL    HW222520   3.199   1.231  10.806
 7027SOL     OW22521   2.681   0.019   9.895
 7027SOL    HW122522   2.720   0.038   9.810
 7027SOL    HW222523   2.586   0.021   9.878
 7028SOL     OW22524   2.060   0.939  10.466
 7028SOL    HW122525   2.139   0.906  10.507
 7028SOL    HW222526   2.016   0.989  10.535
 7029SOL     OW22527   3.395   1.001   9.517
 7029SOL    HW122528   3.330   0.935   9.543
 7029SOL    HW222529   3.429   1.035   9.600
 7030SOL     OW22530   3.050   1.821  10.935
 7030SOL    HW122531   3.055   1.889  10.868
 7030SOL    HW222532   3.079   1.741  10.891
 7031SOL     OW22533   2.194   0.227  11.101
 7031SOL    HW122534   2.254   0.292  11.138
 7031SOL    HW222535   2.109   0.248  11.139
 7032SOL     OW22536   3.337   1.417  10.283
 7032SOL    HW122537   3.262   1.431  10.342
 7032SOL    HW222538   3.319   1.333  10.241
 7033SOL     OW22539   3.548   1.710   9.907
 7033SOL    HW122540   3.543   1.714   9.811
 7033SOL    HW222541   3.480   1.649   9.932
 7034SOL     OW22542   2.442   0.749   9.580
 7034SOL    HW122543   2.491   0.801   9.516
 7034SOL    HW222544   2.350   0.774   9.565
 7035SOL     OW22545   3.161   0.369  10.239
 7035SOL    HW122546   3.069   0.342  10.238
 7035SOL    HW222547   3.202   0.314  10.305
 7036SOL     OW22548   3.450   1.659   9.620
 7036SOL    HW122549   3.531   1.709   9.609
 7036SOL    HW222550   3.411   1.657   9.532
 7037SOL     OW22551   2.658   0.612  10.774
 7037SOL    HW122552   2.630   0.592  10.863
 7037SOL    HW222553   2.608   0.552  10.719
 7038SOL     OW22554   3.260   0.483  10.984
 7038SOL    HW122555   3.259   0.527  11.069
 7038SOL    HW222556   3.341   0.432  10.984
 7039SOL     OW22557   2.808   0.902  10.874
 7039SOL    HW122558   2.887   0.849  10.864
 7039SOL    HW222559   2.816   0.970  10.808
 7040SOL     OW22560   2.857   0.423  10.521
 7040SOL    HW122561   2.766   0.434  10.546
 7040SOL    HW222562   2.855   0.362  10.447
 7041SOL     OW22563   2.920   0.688   9.735
 7041SOL    HW122564   2.932   0.678   9.829
 7041SOL    HW222565   2.834   0.649   9.716
 7042SOL     OW22566   1.948   0.817  10.090
 7042SOL    HW122567   2.034   0.808  10.131
 7042SOL    HW222568   1.909   0.893  10.133
 7043SOL     OW22569   1.972   1.828  10.862
 7043SOL    HW122570   1.969   1.816  10.957
 7043SOL    HW222571   1.975   1.922  10.849
 7044SOL     OW22572   2.741   0.382   9.513
 7044SOL    HW122573   2.783   0.422   9.437
 7044SOL    HW222574   2.697   0.305   9.478
 7045SOL     OW22575   3.597   0.584  11.128
 7045SOL    HW122576   3.548   0.657  11.090
 7045SOL    HW222577   3.601   0.518  11.059
 7046SOL     OW22578   3.254   1.164   9.876
 7046SOL    HW122579   3.326   1.151   9.815
 7046SOL    HW222580   3.194   1.224   9.831
 7047SOL     OW22581   2.426   0.201  10.246
 7047SOL    HW122582   2.387   0.280  10.284
 7047SOL    HW222583   2.444   0.224  10.155
 7048SOL     OW22584   2.860   1.449   9.780
 7048SOL    HW122585   2.834   1.521   9.721
 7048SOL    HW222586   2.826   1.474   9.865
 7049SOL     OW22587   2.218   1.820  10.188
 7049SOL    HW122588   2.267   1.738  10.193
 7049SOL    HW222589   2.283   1.888  10.205
 7050SOL     OW22590   3.649   1.040  10.166
 7050SOL    HW122591   3.585   1.055  10.097
 7050SOL    HW222592   3.600   1.054  10.247
 7051SOL     OW22593   3.088   1.550  10.807
 7051SOL    HW122594   3.077   1.476  10.867
 7051SOL    HW222595   2.998   1.576  10.785
 7052SOL     OW22596   2.213   0.902   9.548
 7052SOL    HW122597   2.239   0.930   9.460
 7052SOL    HW222598   2.142   0.840   9.533
 7053SOL     OW22599   2.328   1.263  11.046
 7053SOL    HW122600   2.303   1.262  10.954
 7053SOL    HW222601   2.244   1.261  11.093
 7054SOL     OW22602   2.990   1.754   9.568
 7054SOL    HW122603   2.901   1.721   9.584
 7054SOL    HW222604   3.016   1.712   9.485
 7055SOL     OW22605   2.045   0.280  10.815
 7055SOL    HW122606   1.989   0.351  10.785
 7055SOL    HW222607   2.048   0.290  10.911
 7056SOL     OW22608   3.496   1.374   9.406
 7056SOL    HW122609   3.459   1.462   9.391
 7056SOL    HW222610   3.424   1.315   9.383
 7057SOL     OW22611   2.335   1.716   9.637
 7057SOL    HW122612   2.374   1.786   9.691
 7057SOL    HW222613   2.401   1.699   9.570
 7058SOL     OW22614   3.283   0.129   9.705
 7058SOL    HW122615   3.243   0.082   9.631
 7058SOL    HW222616   3.378   0.119   9.691
 7059SOL     OW22617   2.121   1.799  10.540
 7059SOL    HW122618   2.160   1.729  10.593
 7059SOL    HW222619   2.132   1.769  10.450
 7060SOL     OW22620   2.797   1.703  10.201
 7060SOL    HW122621   2.873   1.653  10.227
 7060SOL    HW222622   2.758   1.653  10.130
 7061SOL     OW22623   2.248   0.711   9.819
 7061SOL    HW122624   2.281   0.621   9.820
 7061SOL    HW222625   2.153   0.702   9.830
 7062SOL     OW22626   3.412   0.228  11.041
 7062SOL    HW122627   3.431   0.249  11.132
 7062SOL    HW222628   3.316   0.221  11.037
 7063SOL     OW22629   2.477   0.085   9.442
 7063SOL    HW122630   2.555   0.030   9.427
 7063SOL    HW222631   2.426   0.076   9.362
 7064SOL     OW22632   2.599   0.243  11.096
 7064SOL    HW122633   2.674   0.259  11.154
 7064SOL    HW222634   2.523   0.263  11.149
 7065SOL     OW22635   2.737   1.510  10.494
 7065SOL    HW122636   2.717   1.473  10.408
 7065SOL    HW222637   2.809   1.456  10.528
 7066SOL     OW22638   3.195   0.608  10.743
 7066SOL    HW122639   3.227   0.574  10.826
 7066SOL    HW222640   3.237   0.693  10.734
 7067SOL     OW22641   2.689   1.372  10.251
 7067SOL    HW122642   2.772   1.371  10.203
 7067SOL    HW222643   2.623   1.388  10.184
 7068SOL     OW22644   2.775   0.522  10.206
 7068SOL    HW122645   2.746   0.516  10.115
 7068SOL    HW222646   2.811   0.436  10.226
 7069SOL     OW22647   2.422   0.077   9.806
 7069SOL    HW122648   2.364   0.002   9.793
 7069SOL    HW222649   2.400   0.138   9.735
 7070SOL     OW22650   3.282   1.206   9.356
 7070SOL    HW122651   3.304   1.131   9.412
 7070SOL    HW222652   3.196   1.234   9.386
 7071SOL     OW22653   2.158   0.061   9.507
 7071SOL    HW122654   2.160   0.114   9.427
 7071SOL    HW222655   2.232   0.001   9.497
 7072SOL     OW22656   2.830   0.280   9.795
 7072SOL    HW122657   2.786   0.235   9.723
 7072SOL    HW222658   2.920   0.289   9.765
 7073SOL     OW22659   2.933   0.695  10.720
 7073SOL    HW122660   2.895   0.633  10.782
 7073SOL    HW222661   3.026   0.674  10.719
 7074SOL     OW22662   3.091   1.572  10.105
 7074SOL    HW122663   3.098   1.633  10.032
 7074SOL    HW222664   3.109   1.625  10.183
 7075SOL     OW22665   2.324   1.147  10.039
 7075SOL    HW122666   2.259   1.127  10.106
 7075SOL    HW222667   2.277   1.139   9.956
 7076SOL     OW22668   3.127   1.795   9.934
 7076SOL    HW122669   3.175   1.851   9.872
 7076SOL    HW222670   3.054   1.850   9.963
 7077SOL     OW22671   2.891   0.549   9.339
 7077SOL    HW122672   2.884   0.644   9.326
 7077SOL    HW222673   2.956   0.539   9.408
 7078SOL     OW22674   1.949   0.565  10.707
 7078SOL    HW122675   2.041   0.569  10.683
 7078SOL    HW222676   1.938   0.634  10.772
 7079SOL     OW22677   2.421   0.247  10.537
 7079SOL    HW122678   2.447   0.157  10.520
 7079SOL    HW222679   2.325   0.244  10.543
 7080SOL     OW22680   2.720   0.481   9.940
 7080SOL    HW122681   2.687   0.528   9.864
 7080SOL    HW222682   2.759   0.401   9.903
 7081SOL     OW22683   2.843   0.036  10.107
 7081SOL    HW122684   2.787   0.049  10.030
 7081SOL    HW222685   2.862  -0.057  10.107
 7082SOL     OW22686   3.294   1.169  10.162
 7082SOL    HW122687   3.215   1.118  10.181
 7082SOL    HW222688   3.294   1.179  10.067
 7083SOL     OW22689   3.330   0.614  10.253
 7083SOL    HW122690   3.281   0.532  10.260
 7083SOL    HW222691   3.391   0.611  10.327
 7084SOL     OW22692   3.697   0.810   9.705
 7084SOL    HW122693   3.760   0.757   9.753
 7084SOL    HW222694   3.658   0.751   9.641
 7085SOL     OW22695   2.354   1.402   9.454
 7085SOL    HW122696   2.280   1.375   9.509
 7085SOL    HW222697   2.336   1.360   9.369
 7086SOL     OW22698   3.577   1.287   9.963
 7086SOL    HW122699   3.629   1.335  10.027
 7086SOL    HW222700   3.498   1.340   9.950
 7087SOL     OW22701   3.262   0.579   9.367
 7087SOL    HW122702   3.200   0.549   9.434
 7087SOL    HW222703   3.346   0.544   9.394
 7088SOL     OW22704   2.386   0.275   9.619
 7088SOL    HW122705   2.409   0.212   9.550
 7088SOL    HW222706   2.364   0.355   9.571
 7089SOL     OW22707   3.603   1.241  10.856
 7089SOL    HW122708   3.692   1.208  10.846
 7089SOL    HW222709   3.613   1.323  10.905
 7090SOL     OW22710   2.918   1.330  10.620
 7090SOL    HW122711   2.842   1.314  10.675
 7090SOL    HW222712   2.992   1.300  10.673
 7091SOL     OW22713   3.458   1.632  10.976
 7091SOL    HW122714   3.452   1.659  10.884
 7091SOL    HW222715   3.538   1.580  10.981
 7092SOL     OW22716   2.980   1.174  10.399
 7092SOL    HW122717   2.947   1.226  10.472
 7092SOL    HW222718   2.967   1.229  10.322
 7093SOL     OW22719   3.490   1.108  10.379
 7093SOL    HW122720   3.485   1.166  10.455
 7093SOL    HW222721   3.418   1.136  10.322
 7094SOL     OW22722   2.776   0.082  10.734
 7094SOL    HW122723   2.814   0.064  10.648
 7094SOL    HW222724   2.811   0.167  10.759
 7095SOL     OW22725   2.836   1.137  11.021
 7095SOL    HW122726   2.751   1.154  11.062
 7095SOL    HW222727   2.829   1.047  10.989
 7096SOL     OW22728   2.561   1.022   9.690
 7096SOL    HW122729   2.572   1.105   9.737
 7096SOL    HW222730   2.650   0.990   9.676
 7097SOL     OW22731   2.301   0.809  10.549
 7097SOL    HW122732   2.357   0.830  10.624
 7097SOL    HW222733   2.256   0.728  10.575
 7098SOL     OW22734   3.119   0.383  10.597
 7098SOL    HW122735   3.152   0.461  10.641
 7098SOL    HW222736   3.030   0.406  10.570
 7099SOL     OW22737   1.947   1.590  10.684
 7099SOL    HW122738   1.948   1.680  10.716
 7099SOL    HW222739   2.038   1.569  10.666
 7100SOL     OW22740   2.236   1.087   9.765
 7100SOL    HW122741   2.226   1.177   9.734
 7100SOL    HW222742   2.197   1.033   9.696
 7101SOL     OW22743   2.422   0.541  10.202
 7101SOL    HW122744   2.427   0.499  10.116
 7101SOL    HW222745   2.429   0.634  10.183
 7102SOL     OW22746   3.109   1.348   9.726
 7102SOL    HW122747   3.162   1.427   9.735
 7102SOL    HW222748   3.019   1.377   9.745
 7103SOL     OW22749   3.140   1.456  10.477
 7103SOL    HW122750   3.206   1.466  10.545
 7103SOL    HW222751   3.065   1.415  10.521
 7104SOL     OW22752   3.431   0.657   9.832
 7104SOL    HW122753   3.475   0.741   9.840
 7104SOL    HW222754   3.454   0.626   9.745
 7105SOL     OW22755   2.205   1.526  10.617
 7105SOL    HW122756   2.195   1.478  10.534
 7105SOL    HW222757   2.300   1.535  10.629
 7106SOL     OW22758   2.290   0.726  10.934
 7106SOL    HW122759   2.323   0.770  10.856
 7106SOL    HW222760   2.354   0.658  10.953
 7107SOL     OW22761   3.453   0.741  10.959
 7107SOL    HW122762   3.375   0.794  10.977
 7107SOL    HW222763   3.512   0.801  10.914
 7108SOL     OW22764   2.857   0.068  11.033
 7108SOL    HW122765   2.867   0.127  11.108
 7108SOL    HW222766   2.908   0.108  10.963
 7109SOL     OW22767   2.387   0.020  11.035
 7109SOL    HW122768   2.355  -0.036  10.964
 7109SOL    HW222769   2.322   0.090  11.042
 7110SOL     OW22770   2.453   0.866  10.335
 7110SOL    HW122771   2.466   0.960  10.328
 7110SOL    HW222772   2.394   0.854  10.409
 7111SOL     OW22773   3.208   0.863  10.264
 7111SOL    HW122774   3.113   0.854  10.275
 7111SOL    HW222775   3.244   0.781  10.297
 7112SOL     OW22776   3.067   0.528   9.560
 7112SOL    HW122777   3.077   0.445   9.606
 7112SOL    HW222778   3.018   0.584   9.621
 7113SOL     OW22779   2.152   0.203  10.546
 7113SOL    HW122780   2.094   0.219  10.621
 7113SOL    HW222781   2.130   0.115  10.518
 7114SOL     OW22782   1.893   1.346  10.556
 7114SOL    HW122783   1.918   1.270  10.609
 7114SOL    HW222784   1.908   1.421  10.614
 7115SOL     OW22785   2.650   0.693  10.414
 7115SOL    HW122786   2.672   0.631  10.345
 7115SOL    HW222787   2.580   0.747  10.377
 7116SOL     OW22788   3.608   0.946  11.165
 7116SOL    HW122789   3.522   0.974  11.132
 7116SOL    HW222790   3.611   0.979  11.255
 7117SOL     OW22791   2.201   0.054  10.031
 7117SOL    HW122792   2.207   0.147  10.009
 7117SOL    HW222793   2.219   0.008   9.949
 7118SOL     OW22794   3.493   0.377   9.690
 7118SOL    HW122795   3.532   0.300   9.731
 7118SOL    HW222796   3.425   0.405   9.751
 7119SOL     OW22797   2.919   0.743  10.275
 7119SOL    HW122798   2.939   0.725  10.367
 7119SOL    HW222799   2.863   0.670  10.247
 7120SOL     OW22800   2.844   1.553  11.030
 7120SOL    HW122801   2.827   1.600  10.948
 7120SOL    HW222802   2.899   1.479  11.004
 7121SOL     OW22803   3.696   1.498  10.917
 7121SOL    HW122804   3.738   1.530  10.837
 7121SOL    HW222805   3.764   1.503  10.984
 7122SOL     OW22806   2.211   0.892  11.141
 7122SOL    HW122807   2.294   0.920  11.180
 7122SOL    HW222808   2.237   0.833  11.070
 7123SOL     OW22809   3.429   0.317   9.422
 7123SOL    HW122810   3.336   0.298   9.429
 7123SOL    HW222811   3.460   0.319   9.513
 7124SOL     OW22812   3.170   0.840   9.357
 7124SOL    HW122813   3.205   0.751   9.352
 7124SOL    HW222814   3.196   0.881   9.274
 7125SOL     OW22815   2.952   1.333  10.167
 7125SOL    HW122816   2.965   1.265  10.100
 7125SOL    HW222817   3.004   1.407  10.135
 7126SOL     OW22818   2.189   0.782  10.219
 7126SOL    HW122819   2.265   0.834  10.244
 7126SOL    HW222820   2.167   0.732  10.297
 7127SOL     OW22821   2.192   0.518  10.351
 7127SOL    HW122822   2.149   0.439  10.316
 7127SOL    HW222823   2.268   0.530  10.295
 7128SOL     OW22824   2.993   0.434  10.964
 7128SOL    HW122825   2.956   0.476  11.042
 7128SOL    HW222826   3.087   0.454  10.968
 7129SOL     OW22827   3.050   0.212  10.804
 7129SOL    HW122828   3.035   0.278  10.872
 7129SOL    HW222829   3.065   0.263  10.724
 7130SOL     OW22830   1.877   1.328   9.504
 7130SOL    HW122831   1.789   1.348   9.471
 7130SOL    HW222832   1.868   1.243   9.547
 7131SOL     OW22833   1.951   1.790  10.228
 7131SOL    HW122834   1.924   1.707  10.188
 7131SOL    HW222835   2.045   1.797  10.208
 7132SOL     OW22836   2.351   1.574  10.215
 7132SOL    HW122837   2.419   1.638  10.235
 7132SOL    HW222838   2.393   1.510  10.158
 7133SOL     OW22839   1.898   0.537  10.434
 7133SOL    HW122840   1.978   0.552  10.384
 7133SOL    HW222841   1.922   0.554  10.525
 7134SOL     OW22842   2.060   0.517  11.006
 7134SOL    HW122843   2.150   0.546  10.991
 7134SOL    HW222844   2.006   0.592  10.979
 7135SOL     OW22845   3.247   0.924  10.979
 7135SOL    HW122846   3.252   1.015  11.007
 7135SOL    HW222847   3.252   0.928  10.883
 7136SOL     OW22848   2.673   0.582   9.684
 7136SOL    HW122849   2.690   0.506   9.629
 7136SOL    HW222850   2.593   0.620   9.648
 7137SOL     OW22851   3.501   0.609  10.467
 7137SOL    HW122852   3.487   0.562  10.549
 7137SOL    HW222853   3.591   0.589  10.442
 7138SOL     OW22854   2.110   1.542  11.035
 7138SOL    HW122855   2.084   1.610  11.097
 7138SOL    HW222856   2.104   1.461  11.084
 7139SOL     OW22857   2.585   0.453  10.570
 7139SOL    HW122858   2.525   0.380  10.564
 7139SOL    HW222859   2.557   0.513  10.500
 7140SOL     OW22860   2.824   1.654  10.767
 7140SOL    HW122861   2.765   1.624  10.698
 7140SOL    HW222862   2.819   1.750  10.764
 7141SOL     OW22863   2.333   0.508   9.492
 7141SOL    HW122864   2.379   0.586   9.526
 7141SOL    HW222865   2.244   0.539   9.474
 7142SOL     OW22866   3.186   1.030  10.507
 7142SOL    HW122867   3.223   0.997  10.425
 7142SOL    HW222868   3.111   1.083  10.480
 7143SOL     OW22869   3.150   0.845   9.639
 7143SOL    HW122870   3.070   0.798   9.662
 7143SOL    HW222871   3.148   0.850   9.543
 7144SOL     OW22872   3.101   1.708  10.375
 7144SOL    HW122873   3.185   1.749  10.394
 7144SOL    HW222874   3.105   1.623  10.417
 7145SOL     OW22875   1.953   1.274  10.302
 7145SOL    HW122876   1.933   1.295  10.393
 7145SOL    HW222877   1.887   1.210  10.277
 7146SOL     OW22878   2.530   1.673  11.047
 7146SOL    HW122879   2.464   1.741  11.057
 7146SOL    HW222880   2.586   1.704  10.975
 7147SOL     OW22881   3.581   0.147   9.816
 7147SOL    HW122882   3.599   0.111   9.730
 7147SOL    HW222883   3.542   0.075   9.865
 7148SOL     OW22884   3.251   1.576   9.789
 7148SOL    HW122885   3.314   1.606   9.723
 7148SOL    HW222886   3.196   1.653   9.806
 7149SOL     OW22887   2.008   1.791  11.138
 7149SOL    HW122888   1.957   1.729  11.190
 7149SOL    HW222889   2.052   1.846  11.203
 7150SOL     OW22890   3.192   0.895   9.906
 7150SOL    HW122891   3.183   0.880   9.812
 7150SOL    HW222892   3.196   0.991   9.914
 7151SOL     OW22893   2.666   1.266  10.736
 7151SOL    HW122894   2.646   1.306  10.821
 7151SOL    HW222895   2.596   1.296  10.678
 7152SOL     OW22896   2.539   1.598   9.459
 7152SOL    HW122897   2.546   1.631   9.369
 7152SOL    HW222898   2.471   1.531   9.455
 7153SOL     OW22899   3.507   1.738  10.679
 7153SOL    HW122900   3.593   1.729  10.719
 7153SOL    HW222901   3.478   1.826  10.704
 7154SOL     OW22902   3.738   0.090  10.245
 7154SOL    HW122903   3.765   0.080  10.154
 7154SOL    HW222904   3.654   0.136  10.240
 7155SOL     OW22905   2.144   0.327  10.018
 7155SOL    HW122906   2.060   0.346   9.977
 7155SOL    HW222907   2.123   0.315  10.111
 7156SOL     OW22908   3.068   1.635   9.332
 7156SOL    HW122909   3.043   1.547   9.305
 7156SOL    HW222910   3.044   1.691   9.258
 7157SOL     OW22911   2.717   1.019  10.618
 7157SOL    HW122912   2.698   1.050  10.530
 7157SOL    HW222913   2.704   1.095  10.674
 7158SOL     OW22914   2.807   0.932   9.642
 7158SOL    HW122915   2.842   0.949   9.554
 7158SOL    HW222916   2.843   0.846   9.665
 7159SOL     OW22917   3.361   1.610   9.356
 7159SOL    HW122918   3.272   1.644   9.353
 7159SOL    HW222919   3.395   1.623   9.267
 7160SOL     OW22920   2.237   1.278  10.792
 7160SOL    HW122921   2.212   1.360  10.750
 7160SOL    HW222922   2.163   1.219  10.775
 7161SOL     OW22923   3.471   1.281  10.596
 7161SOL    HW122924   3.520   1.262  10.676
 7161SOL    HW222925   3.414   1.354  10.619
 7162SOL     OW22926   2.942   1.089  10.021
 7162SOL    HW122927   2.866   1.053  10.067
 7162SOL    HW222928   2.916   1.090   9.929
 7163SOL     OW22929   2.902   0.267  10.257
 7163SOL    HW122930   2.877   0.212  10.182
 7163SOL    HW222931   2.908   0.205  10.330
 7164SOL     OW22932   2.467   1.496   9.810
 7164SOL    HW122933   2.510   1.435   9.751
 7164SOL    HW222934   2.408   1.547   9.754
 7165SOL     OW22935   3.584   0.421  10.676
 7165SOL    HW122936   3.659   0.480  10.684
 7165SOL    HW222937   3.618   0.346  10.628
 7166SOL     OW22938   2.144   1.320   9.629
 7166SOL    HW122939   2.061   1.327   9.581
 7166SOL    HW222940   2.130   1.370   9.709
 7167SOL     OW22941   1.973   1.037  11.108
 7167SOL    HW122942   1.897   0.992  11.144
 7167SOL    HW222943   2.047   0.978  11.127
 7168SOL     OW22944   2.532   0.191  10.821
 7168SOL    HW122945   2.598   0.175  10.754
 7168SOL    HW222946   2.569   0.260  10.876
 7169SOL     OW22947   1.931   0.340   9.351
 7169SOL    HW122948   1.843   0.314   9.324
 7169SOL    HW222949   1.956   0.410   9.291
 7170SOL     OW22950   3.286   0.866  10.701
 7170SOL    HW122951   3.244   0.926  10.640
 7170SOL    HW222952   3.379   0.873  10.681
 7171SOL     OW22953   1.973   0.250   9.640
 7171SOL    HW122954   1.941   0.282   9.556
 7171SOL    HW222955   2.028   0.174   9.617
 7172SOL     OW22956   3.030   1.313   9.428
 7172SOL    HW122957   2.936   1.327   9.420
 7172SOL    HW222958   3.051   1.338   9.518
 7173SOL     OW22959   2.490   0.847  10.753
 7173SOL    HW122960   2.491   0.938  10.782
 7173SOL    HW222961   2.541   0.800  10.818
 7174SOL     OW22962   3.418   1.819  10.309
 7174SOL    HW122963   3.408   1.818  10.213
 7174SOL    HW222964   3.377   1.900  10.337
 7175SOL     OW22965   2.586   0.564  11.024
 7175SOL    HW122966   2.623   0.637  11.073
 7175SOL    HW222967   2.593   0.489  11.084
 7176SOL     OW22968   3.336   1.204  10.931
 7176SOL    HW122969   3.327   1.239  11.019
 7176SOL    HW222970   3.429   1.216  10.910
 7177SOL     OW22971   2.228   1.732  10.870
 7177SOL    HW122972   2.144   1.775  10.855
 7177SOL    HW222973   2.206   1.653  10.919
 7178SOL     OW22974   3.532   0.888  10.555
 7178SOL    HW122975   3.524   0.805  10.509
 7178SOL    HW222976   3.522   0.954  10.487
 7179SOL     OW22977   3.105   0.330   9.758
 7179SOL    HW122978   3.161   0.256   9.738
 7179SOL    HW222979   3.139   0.364   9.841
 7180SOL     OW22980   3.635   0.383  10.941
 7180SOL    HW122981   3.606   0.400  10.852
 7180SOL    HW222982   3.574   0.318  10.975
 7181SOL     OW22983   3.593   0.927  10.822
 7181SOL    HW122984   3.604   1.019  10.845
 7181SOL    HW222985   3.589   0.927  10.726
 7182SOL     OW22986   2.750   1.392   9.374
 7182SOL    HW122987   2.683   1.449   9.414
 7182SOL    HW222988   2.775   1.437   9.294
 7183SOL     OW22989   2.524   1.778  10.241
 7183SOL    HW122990   2.500   1.870  10.232
 7183SOL    HW222991   2.619   1.776  10.237
 7184SOL     OW22992   2.734   0.972  10.170
 7184SOL    HW122993   2.784   0.904  10.215
 7184SOL    HW222994   2.695   1.024  10.240
 7185SOL     OW22995   2.922   0.956   9.397
 7185SOL    HW122996   2.900   1.019   9.328
 7185SOL    HW222997   3.009   0.925   9.374
 7186SOL     OW22998   3.679   1.496  10.117
 7186SOL    HW122999   3.607   1.543  10.076
 7186SOL    HW223000   3.658   1.496  10.211
 7187SOL     OW23001   2.075   1.288  11.155
 7187SOL    HW123002   2.040   1.206  11.119
 7187SOL    HW223003   2.016   1.309  11.228
 7188SOL     OW23004   1.929   1.233   9.981
 7188SOL    HW123005   1.946   1.182  10.060
 7188SOL    HW223006   1.992   1.199   9.917
 7189SOL     OW23007   2.549   1.409  10.942
 7189SOL    HW123008   2.465   1.371  10.970
 7189SOL    HW223009   2.547   1.498  10.976
 7190SOL     OW23010   3.684   0.213  10.528
 7190SOL    HW123011   3.613   0.148  10.527
 7190SOL    HW223012   3.682   0.252  10.441
 7191SOL     OW23013   2.319   0.449   9.840
 7191SOL    HW123014   2.331   0.388   9.766
 7191SOL    HW223015   2.259   0.403   9.899
 7192SOL     OW23016   3.573   1.523  10.384
 7192SOL    HW123017   3.488   1.494  10.353
 7192SOL    HW223018   3.595   1.463  10.455
 7193SOL     OW23019   2.204   0.564  10.618
 7193SOL    HW123020   2.250   0.496  10.668
 7193SOL    HW223021   2.205   0.531  10.528
 7194SOL     OW23022   2.697   1.591   9.971
 7194SOL    HW123023   2.696   1.673   9.921
 7194SOL    HW223024   2.616   1.547   9.946
 7195SOL     OW23025   3.273   0.214  10.439
 7195SOL    HW123026   3.343   0.179  10.493
 7195SOL    HW223027   3.219   0.266  10.499
 7196SOL     OW23028   2.879   0.085  10.459
 7196SOL    HW123029   2.790   0.079  10.423
 7196SOL    HW223030   2.905  -0.007  10.473
 7197SOL     OW23031   2.620   1.306   9.675
 7197SOL    HW123032   2.605   1.276   9.585
 7197SOL    HW223033   2.707   1.345   9.673
 7198SOL     OW23034   2.485   1.537  10.599
 7198SOL    HW123035   2.483   1.615  10.654
 7198SOL    HW223036   2.571   1.540  10.556
 7199SOL     OW23037   3.191   7.989   9.485
 7199SOL    HW123038   3.249   7.920   9.454
 7199SOL    HW223039   3.105   7.948   9.490
 7200SOL     OW23040   3.201   0.510  10.007
 7200SOL    HW123041   3.119   0.558   9.994
 7200SOL    HW223042   3.184   0.453  10.082
 7201SOL     OW23043   3.511   0.232  10.223
 7201SOL    HW123044   3.422   0.205  10.242
 7201SOL    HW223045   3.502   0.297  10.153
 7202SOL     OW23046   1.892   1.073   9.615
 7202SOL    HW123047   1.946   1.061   9.537
 7202SOL    HW223048   1.877   0.984   9.647
 7203SOL     OW23049   2.738   1.652   9.644
 7203SOL    HW123050   2.669   1.643   9.579
 7203SOL    HW223051   2.714   1.729   9.696
 7204SOL     OW23052   2.068   0.582  11.300
 7204SOL    HW123053   1.997   0.602  11.361
 7204SOL    HW223054   2.052   0.639  11.224
 7205SOL     OW23055   2.091   0.297  12.151
 7205SOL    HW123056   2.123   0.258  12.232
 7205SOL    HW223057   2.006   0.256  12.136
 7206SOL     OW23058   1.836   0.353  11.799
 7206SOL    HW123059   1.775   0.407  11.849
 7206SOL    HW223060   1.783   0.278  11.771
 7207SOL     OW23061   2.405   1.253  12.361
 7207SOL    HW123062   2.333   1.284  12.306
 7207SOL    HW223063   2.421   1.325  12.423
 7208SOL     OW23064   3.415   1.503  11.879
 7208SOL    HW123065   3.368   1.543  11.952
 7208SOL    HW223066   3.356   1.512  11.804
 7209SOL     OW23067   3.017   0.707  11.882
 7209SOL    HW123068   3.079   0.779  11.880
 7209SOL    HW223069   2.965   0.721  11.961
 7210SOL     OW23070   3.676   0.538  11.383
 7210SOL    HW123071   3.633   0.566  11.302
 7210SOL    HW223072   3.608   0.493  11.433
 7211SOL     OW23073   2.605   1.129  12.233
 7211SOL    HW123074   2.530   1.166  12.278
 7211SOL    HW223075   2.641   1.202  12.182
 7212SOL     OW23076   2.554   0.996  11.821
 7212SOL    HW123077   2.616   0.989  11.894
 7212SOL    HW223078   2.481   1.047  11.857
 7213SOL     OW23079   2.212   1.400  12.233
 7213SOL    HW123080   2.129   1.368  12.198
 7213SOL    HW223081   2.243   1.463  12.168
 7214SOL     OW23082   3.456   0.454  11.881
 7214SOL    HW123083   3.371   0.463  11.838
 7214SOL    HW223084   3.450   0.510  11.958
 7215SOL     OW23085   2.076   1.707  11.632
 7215SOL    HW123086   2.082   1.782  11.692
 7215SOL    HW223087   2.156   1.713  11.579
 7216SOL     OW23088   2.096   1.442  11.725
 7216SOL    HW123089   2.081   1.537  11.719
 7216SOL    HW223090   2.033   1.413  11.791
 7217SOL     OW23091   2.145   1.097  12.065
 7217SOL    HW123092   2.133   1.009  12.102
 7217SOL    HW223093   2.079   1.150  12.109
 7218SOL     OW23094   2.447   0.999  11.316
 7218SOL    HW123095   2.496   1.048  11.249
 7218SOL    HW223096   2.479   1.035  11.399
 7219SOL     OW23097   1.993   0.640  11.723
 7219SOL    HW123098   1.921   0.576  11.731
 7219SOL    HW223099   1.993   0.687  11.806
 7220SOL     OW23100   3.705   1.749  11.502
 7220SOL    HW123101   3.776   1.722  11.560
 7220SOL    HW223102   3.721   1.842  11.488
 7221SOL     OW23103   1.903   1.592  11.287
 7221SOL    HW123104   1.887   1.501  11.311
 7221SOL    HW223105   1.879   1.642  11.365
 7222SOL     OW23106   3.514   0.876  11.791
 7222SOL    HW123107   3.605   0.867  11.818
 7222SOL    HW223108   3.515   0.943  11.723
 7223SOL     OW23109   3.508   1.099  11.614
 7223SOL    HW123110   3.590   1.092  11.567
 7223SOL    HW223111   3.524   1.165  11.681
 7224SOL     OW23112   2.017   0.740   0.252
 7224SOL    HW123113   2.085   0.805   0.267
 7224SOL    HW223114   1.944   0.790   0.215
 7225SOL     OW23115   2.485   1.390  11.887
 7225SOL    HW123116   2.438   1.309  11.907
 7225SOL    HW223117   2.430   1.434  11.822
 7226SOL     OW23118   2.705   0.017  11.716
 7226SOL    HW123119   2.742   0.101  11.689
 7226SOL    HW223120   2.611   0.033  11.724
 7227SOL     OW23121   2.060   0.882  12.435
 7227SOL    HW123122   2.102   0.928  12.363
 7227SOL    HW223123   1.979   0.931  12.451
 7228SOL     OW23124   3.383   0.992  11.383
 7228SOL    HW123125   3.319   0.941  11.434
 7228SOL    HW223126   3.435   1.038  11.449
 7229SOL     OW23127   3.280   1.399  12.198
 7229SOL    HW123128   3.369   1.424  12.223
 7229SOL    HW223129   3.292   1.335  12.128
 7230SOL     OW23130   3.506   1.755  11.750
 7230SOL    HW123131   3.493   1.718  11.663
 7230SOL    HW223132   3.502   1.680  11.809
 7231SOL     OW23133   2.399   0.728  11.401
 7231SOL    HW123134   2.431   0.817  11.387
 7231SOL    HW223135   2.362   0.729  11.489
 7232SOL     OW23136   3.158   0.362  12.103
 7232SOL    HW123137   3.066   0.335  12.101
 7232SOL    HW223138   3.197   0.306  12.170
 7233SOL     OW23139   3.439   1.674  11.484
 7233SOL    HW123140   3.533   1.693  11.478
 7233SOL    HW223141   3.410   1.669  11.393
 7234SOL     OW23142   2.861   0.384  12.364
 7234SOL    HW123143   2.850   0.441  12.440
 7234SOL    HW223144   2.778   0.391  12.317
 7235SOL     OW23145   2.938   0.725  11.600
 7235SOL    HW123146   2.948   0.707  11.694
 7235SOL    HW223147   2.876   0.658  11.570
 7236SOL     OW23148   1.979   0.758  11.962
 7236SOL    HW123149   2.020   0.820  12.022
 7236SOL    HW223150   1.893   0.797  11.943
 7237SOL     OW23151   2.792   0.255  11.280
 7237SOL    HW123152   2.792   0.337  11.328
 7237SOL    HW223153   2.757   0.191  11.342
 7238SOL     OW23154   3.239   1.153  11.709
 7238SOL    HW123155   3.322   1.145  11.661
 7238SOL    HW223156   3.188   1.216  11.658
 7239SOL     OW23157   2.386   0.255  12.045
 7239SOL    HW123158   2.387   0.242  12.139
 7239SOL    HW223159   2.387   0.350  12.034
 7240SOL     OW23160   2.826   1.438  11.644
 7240SOL    HW123161   2.821   1.513  11.584
 7240SOL    HW223162   2.819   1.476  11.731
 7241SOL     OW23163   2.224   1.815  12.009
 7241SOL    HW123164   2.269   1.732  12.020
 7241SOL    HW223165   2.292   1.881  12.017
 7242SOL     OW23166   3.580   1.030  12.034
 7242SOL    HW123167   3.583   1.107  11.978
 7242SOL    HW223168   3.668   1.024  12.071
 7243SOL     OW23169   2.176   0.973  11.438
 7243SOL    HW123170   2.248   0.982  11.376
 7243SOL    HW223171   2.141   0.886  11.422
 7244SOL     OW23172   3.001   1.783  11.398
 7244SOL    HW123173   2.922   1.752  11.441
 7244SOL    HW223174   3.019   1.720  11.329
 7245SOL     OW23175   3.395   1.360  11.174
 7245SOL    HW123176   3.394   1.455  11.187
 7245SOL    HW223177   3.479   1.332  11.210
 7246SOL     OW23178   2.317   1.746  11.472
 7246SOL    HW123179   2.356   1.759  11.558
 7246SOL    HW223180   2.388   1.714  11.417
 7247SOL     OW23181   3.276   0.132  11.591
 7247SOL    HW123182   3.276   0.097  11.502
 7247SOL    HW223183   3.367   0.127  11.619
 7248SOL     OW23184   2.108   1.757  12.411
 7248SOL    HW123185   2.040   1.719  12.467
 7248SOL    HW223186   2.068   1.759  12.324
 7249SOL     OW23187   2.814   1.706  12.066
 7249SOL    HW123188   2.891   1.660  12.098
 7249SOL    HW223189   2.775   1.647  12.001
 7250SOL     OW23190   2.261   0.699  11.644
 7250SOL    HW123191   2.281   0.608  11.663
 7250SOL    HW223192   2.168   0.708  11.663
 7251SOL     OW23193   2.424   0.115  11.292
 7251SOL    HW123194   2.507   0.090  11.332
 7251SOL    HW223195   2.423   0.067  11.209
 7252SOL     OW23196   2.683   1.341  12.093
 7252SOL    HW123197   2.769   1.369  12.063
 7252SOL    HW223198   2.622   1.377  12.028
 7253SOL     OW23199   2.785   0.509  12.068
 7253SOL    HW123200   2.750   0.500  11.980
 7253SOL    HW223201   2.832   0.426  12.084
 7254SOL     OW23202   2.435   0.018  11.598
 7254SOL    HW123203   2.358  -0.028  11.632
 7254SOL    HW223204   2.422   0.109  11.624
 7255SOL     OW23205   3.229   1.124  11.197
 7255SOL    HW123206   3.283   1.075  11.259
 7255SOL    HW223207   3.245   1.216  11.217
 7256SOL     OW23208   2.170   0.023  11.366
 7256SOL    HW123209   2.249   0.073  11.343
 7256SOL    HW223210   2.195  -0.027  11.443
 7257SOL     OW23211   2.815   0.254  11.635
 7257SOL    HW123212   2.786   0.324  11.577
 7257SOL    HW223213   2.910   0.264  11.640
 7258SOL     OW23214   3.095   1.569  11.965
 7258SOL    HW123215   3.103   1.639  11.900
 7258SOL    HW223216   3.127   1.609  12.046
 7259SOL     OW23217   2.345   1.154  11.896
 7259SOL    HW123218   2.279   1.137  11.962
 7259SOL    HW223219   2.299   1.146  11.813
 7260SOL     OW23220   3.124   1.787  11.784
 7260SOL    HW123221   3.175   1.852  11.735
 7260SOL    HW223222   3.053   1.837  11.824
 7261SOL     OW23223   2.895   0.562  11.177
 7261SOL    HW123224   2.840   0.640  11.166
 7261SOL    HW223225   2.883   0.537  11.269
 7262SOL     OW23226   2.432   0.223  12.337
 7262SOL    HW123227   2.466   0.180  12.415
 7262SOL    HW223228   2.338   0.229  12.352
 7263SOL     OW23229   2.703   0.445  11.809
 7263SOL    HW123230   2.680   0.508  11.740
 7263SOL    HW223231   2.751   0.376  11.763
 7264SOL     OW23232   2.887   0.025  11.925
 7264SOL    HW123233   2.824   0.017  11.854
 7264SOL    HW223234   2.853  -0.033  11.994
 7265SOL     OW23235   3.308   1.150  12.007
 7265SOL    HW123236   3.219   1.164  11.974
 7265SOL    HW223237   3.364   1.191  11.942
 7266SOL     OW23238   3.368   0.579  12.106
 7266SOL    HW123239   3.294   0.523  12.131
 7266SOL    HW223240   3.421   0.586  12.186
 7267SOL     OW23241   3.715   0.759  11.534
 7267SOL    HW123242   3.765   0.729  11.610
 7267SOL    HW223243   3.706   0.681  11.479
 7268SOL     OW23244   2.350   1.402  11.324
 7268SOL    HW123245   2.274   1.380  11.377
 7268SOL    HW223246   2.333   1.362  11.238
 7269SOL     OW23247   3.530   1.249  11.852
 7269SOL    HW123248   3.625   1.253  11.841
 7269SOL    HW223249   3.503   1.341  11.854
 7270SOL     OW23250   3.263   0.568  11.241
 7270SOL    HW123251   3.198   0.546  11.308
 7270SOL    HW223252   3.343   0.584  11.290
 7271SOL     OW23253   2.354   0.283  11.497
 7271SOL    HW123254   2.385   0.220  11.431
 7271SOL    HW223255   2.346   0.365  11.450
 7272SOL     OW23256   3.003   1.271  12.309
 7272SOL    HW123257   2.917   1.275  12.350
 7272SOL    HW223258   2.987   1.291  12.217
 7273SOL     OW23259   3.424   1.095  12.281
 7273SOL    HW123260   3.488   1.158  12.315
 7273SOL    HW223261   3.421   1.113  12.187
 7274SOL     OW23262   2.595   1.090  11.566
 7274SOL    HW123263   2.567   1.046  11.646
 7274SOL    HW223264   2.658   1.030  11.526
 7275SOL     OW23265   2.337   0.810  12.452
 7275SOL    HW123266   2.368   0.869  12.521
 7275SOL    HW223267   2.242   0.808  12.461
 7276SOL     OW23268   3.128   0.358  12.443
 7276SOL    HW123269   3.162   0.441  12.476
 7276SOL    HW223270   3.042   0.379  12.407
 7277SOL     OW23271   2.225   1.133  11.655
 7277SOL    HW123272   2.196   1.210  11.606
 7277SOL    HW223273   2.210   1.060  11.595
 7278SOL     OW23274   2.409   0.525  12.034
 7278SOL    HW123275   2.422   0.587  11.962
 7278SOL    HW223276   2.470   0.555  12.102
 7279SOL     OW23277   3.096   1.354  11.568
 7279SOL    HW123278   3.153   1.426  11.595
 7279SOL    HW223279   3.010   1.377  11.604
 7280SOL     OW23280   3.467   0.654  11.620
 7280SOL    HW123281   3.441   0.702  11.698
 7280SOL    HW223282   3.537   0.706  11.581
 7281SOL     OW23283   2.283   1.533  12.462
 7281SOL    HW123284   2.252   1.484  12.386
 7281SOL    HW223285   2.243   1.620  12.453
 7282SOL     OW23286   2.460   0.862  12.212
 7282SOL    HW123287   2.485   0.954  12.213
 7282SOL    HW223288   2.417   0.847  12.296
 7283SOL     OW23289   3.219   0.844  12.137
 7283SOL    HW123290   3.157   0.900  12.185
 7283SOL    HW223291   3.237   0.771  12.197
 7284SOL     OW23292   3.099   0.511  11.443
 7284SOL    HW123293   3.087   0.437  11.503
 7284SOL    HW223294   3.028   0.571  11.464
 7285SOL     OW23295   2.165   0.207  12.400
 7285SOL    HW123296   2.086   0.243  12.441
 7285SOL    HW223297   2.156   0.112  12.410
 7286SOL     OW23298   1.925   1.328  12.461
 7286SOL    HW123299   1.913   1.270  12.536
 7286SOL    HW223300   1.936   1.415  12.500
 7287SOL     OW23301   2.576   0.611  12.237
 7287SOL    HW123302   2.655   0.603  12.183
 7287SOL    HW223303   2.549   0.702  12.226
 7288SOL     OW23304   2.172   0.064  11.854
 7288SOL    HW123305   2.207   0.143  11.895
 7288SOL    HW223306   2.216  -0.008  11.899
 7289SOL     OW23307   3.486   0.400  11.530
 7289SOL    HW123308   3.493   0.341  11.604
 7289SOL    HW223309   3.463   0.485  11.569
 7290SOL     OW23310   2.875   0.757  12.139
 7290SOL    HW123311   2.876   0.763  12.234
 7290SOL    HW223312   2.850   0.666  12.121
 7291SOL     OW23313   3.438   0.260  11.302
 7291SOL    HW123314   3.413   0.176  11.342
 7291SOL    HW223315   3.450   0.319  11.377
 7292SOL     OW23316   3.149   0.821  11.218
 7292SOL    HW123317   3.185   0.732  11.214
 7292SOL    HW223318   3.188   0.866  11.143
 7293SOL     OW23319   2.961   1.338  12.042
 7293SOL    HW123320   2.955   1.272  11.973
 7293SOL    HW223321   3.010   1.410  12.001
 7294SOL     OW23322   2.176   0.834  12.155
 7294SOL    HW123323   2.271   0.843  12.142
 7294SOL    HW223324   2.162   0.739  12.160
 7295SOL     OW23325   2.173   0.553  12.171
 7295SOL    HW123326   2.142   0.462  12.166
 7295SOL    HW223327   2.255   0.554  12.122
 7296SOL     OW23328   3.029   0.212   0.156
 7296SOL    HW123329   3.041   0.264   0.236
 7296SOL    HW223330   3.064   0.267   0.086
 7297SOL     OW23331   1.881   1.319  11.353
 7297SOL    HW123332   1.792   1.335  11.321
 7297SOL    HW223333   1.876   1.234  11.396
 7298SOL     OW23334   1.967   1.804  12.101
 7298SOL    HW123335   1.930   1.722  12.068
 7298SOL    HW223336   2.055   1.807  12.063
 7299SOL     OW23337   2.357   1.574  12.077
 7299SOL    HW123338   2.419   1.641  12.106
 7299SOL    HW223339   2.404   1.525  12.009
 7300SOL     OW23340   2.863   0.780  12.420
 7300SOL    HW123341   2.948   0.806  12.455
 7300SOL    HW223342   2.807   0.856  12.436
 7301SOL     OW23343   1.935   0.591  12.327
 7301SOL    HW123344   2.002   0.570  12.263
 7301SOL    HW223345   1.943   0.686  12.341
 7302SOL     OW23346   3.520   0.602  12.328
 7302SOL    HW123347   3.510   0.543  12.403
 7302SOL    HW223348   3.611   0.592  12.301
 7303SOL     OW23349   2.472   0.483  12.472
 7303SOL    HW123350   2.466   0.401  12.423
 7303SOL    HW223351   2.505   0.546  12.409
 7304SOL     OW23352   2.787   1.671   0.025
 7304SOL    HW123353   2.701   1.640   0.055
 7304SOL    HW223354   2.788   1.764   0.046
 7305SOL     OW23355   2.323   0.482  11.306
 7305SOL    HW123356   2.373   0.558  11.336
 7305SOL    HW223357   2.232   0.511  11.308
 7306SOL     OW23358   3.158   1.030  12.343
 7306SOL    HW123359   3.249   1.060  12.337
 7306SOL    HW223360   3.106   1.109  12.335
 7307SOL     OW23361   3.165   0.851  11.498
 7307SOL    HW123362   3.085   0.810  11.533
 7307SOL    HW223363   3.154   0.846  11.403
 7308SOL     OW23364   3.582   1.744  12.284
 7308SOL    HW123365   3.643   1.817  12.293
 7308SOL    HW223366   3.633   1.674  12.243
 7309SOL     OW23367   3.099   1.718  12.241
 7309SOL    HW123368   3.186   1.744  12.212
 7309SOL    HW223369   3.112   1.687  12.331
 7310SOL     OW23370   1.970   1.260  12.200
 7310SOL    HW123371   1.954   1.284  12.291
 7310SOL    HW223372   1.882   1.249  12.162
 7311SOL     OW23373   3.535   0.108  11.664
 7311SOL    HW123374   3.630   0.122  11.663
 7311SOL    HW223375   3.516   0.077  11.752
 7312SOL     OW23376   3.250   1.567  11.658
 7312SOL    HW123377   3.311   1.602  11.593
 7312SOL    HW223378   3.203   1.643  11.691
 7313SOL     OW23379   3.206   0.904  11.807
 7313SOL    HW123380   3.208   0.856  11.724
 7313SOL    HW223381   3.206   0.997  11.781
 7314SOL     OW23382   2.542   1.598  11.314
 7314SOL    HW123383   2.538   1.624  11.222
 7314SOL    HW223384   2.472   1.534  11.323
 7315SOL     OW23385   3.500   1.777   0.040
 7315SOL    HW123386   3.531   1.759  -0.049
 7315SOL    HW223387   3.551   1.853   0.068
 7316SOL     OW23388   3.701   0.162  12.129
 7316SOL    HW123389   3.723   0.089  12.071
 7316SOL    HW223390   3.615   0.191  12.099
 7317SOL     OW23391   2.106   0.334  11.879
 7317SOL    HW123392   2.033   0.395  11.868
 7317SOL    HW223393   2.119   0.330  11.974
 7318SOL     OW23394   3.067   1.604  11.199
 7318SOL    HW123395   3.059   1.515  11.232
 7318SOL    HW223396   2.994   1.614  11.138
 7319SOL     OW23397   2.741   1.030  12.451
 7319SOL    HW123398   2.695   1.065  12.375
 7319SOL    HW223399   2.702   1.076  12.526
 7320SOL     OW23400   2.773   0.921  11.462
 7320SOL    HW123401   2.831   0.941  11.388
 7320SOL    HW223402   2.817   0.848  11.506
 7321SOL     OW23403   3.332   1.678  11.218
 7321SOL    HW123404   3.242   1.651  11.202
 7321SOL    HW223405   3.376   1.669  11.133
 7322SOL     OW23406   2.920   1.120  11.878
 7322SOL    HW123407   2.855   1.074  11.931
 7322SOL    HW223408   2.943   1.058  11.808
 7323SOL     OW23409   2.900   0.253  12.085
 7323SOL    HW123410   2.901   0.189  12.015
 7323SOL    HW223411   2.904   0.201  12.165
 7324SOL     OW23412   2.446   1.452  11.605
 7324SOL    HW123413   2.368   1.454  11.550
 7324SOL    HW223414   2.453   1.541  11.641
 7325SOL     OW23415   3.554   0.407   0.027
 7325SOL    HW123416   3.591   0.457   0.099
 7325SOL    HW223417   3.629   0.359  -0.010
 7326SOL     OW23418   2.134   1.342  11.482
 7326SOL    HW123419   2.047   1.339  11.442
 7326SOL    HW223420   2.120   1.384  11.567
 7327SOL     OW23421   1.953   0.315  11.189
 7327SOL    HW123422   1.858   0.327  11.182
 7327SOL    HW223423   1.989   0.402  11.169
 7328SOL     OW23424   1.995   0.185  11.507
 7328SOL    HW123425   1.964   0.255  11.450
 7328SOL    HW223426   2.048   0.129  11.451
 7329SOL     OW23427   3.029   1.351  11.289
 7329SOL    HW123428   2.936   1.329  11.299
 7329SOL    HW223429   3.065   1.339  11.377
 7330SOL     OW23430   3.348   1.770  12.137
 7330SOL    HW123431   3.366   1.851  12.089
 7330SOL    HW223432   3.426   1.756  12.190
 7331SOL     OW23433   3.513   0.868  12.435
 7331SOL    HW123434   3.517   0.789  12.381
 7331SOL    HW223435   3.486   0.937  12.374
 7332SOL     OW23436   3.082   0.314  11.640
 7332SOL    HW123437   3.150   0.248  11.630
 7332SOL    HW223438   3.112   0.369  11.713
 7333SOL     OW23439   2.449   0.730  11.851
 7333SOL    HW123440   2.489   0.816  11.840
 7333SOL    HW223441   2.383   0.724  11.782
 7334SOL     OW23442   3.653   0.862   0.172
 7334SOL    HW123443   3.674   0.954   0.190
 7334SOL    HW223444   3.601   0.864   0.092
 7335SOL     OW23445   2.720   1.395  11.224
 7335SOL    HW123446   2.667   1.460  11.272
 7335SOL    HW223447   2.759   1.445  11.153
 7336SOL     OW23448   2.535   1.773  12.115
 7336SOL    HW123449   2.502   1.858  12.088
 7336SOL    HW223450   2.630   1.779  12.104
 7337SOL     OW23451   2.738   0.979  12.031
 7337SOL    HW123452   2.780   0.902  12.069
 7337SOL    HW223453   2.694   1.021  12.105
 7338SOL     OW23454   2.924   0.970  11.243
 7338SOL    HW123455   2.942   1.052  11.197
 7338SOL    HW223456   3.007   0.922  11.238
 7339SOL     OW23457   3.717   1.542  12.033
 7339SOL    HW123458   3.640   1.525  11.979
 7339SOL    HW223459   3.735   1.458  12.076
 7340SOL     OW23460   1.929   1.228  11.848
 7340SOL    HW123461   1.902   1.172  11.921
 7340SOL    HW223462   2.005   1.184  11.810
 7341SOL     OW23463   3.710   0.220  12.403
 7341SOL    HW123464   3.640   0.158  12.422
 7341SOL    HW223465   3.716   0.220  12.308
 7342SOL     OW23466   2.299   0.443  11.712
 7342SOL    HW123467   2.323   0.374  11.651
 7342SOL    HW223468   2.238   0.401  11.773
 7343SOL     OW23469   3.527   1.424  12.294
 7343SOL    HW123470   3.603   1.391  12.246
 7343SOL    HW223471   3.557   1.430  12.385
 7344SOL     OW23472   2.701   1.560  11.861
 7344SOL    HW123473   2.665   1.638  11.819
 7344SOL    HW223474   2.624   1.506  11.880
 7345SOL     OW23475   3.303   0.211  12.289
 7345SOL    HW123476   3.373   0.172  12.342
 7345SOL    HW223477   3.247   0.255  12.352
 7346SOL     OW23478   2.888   0.052  12.271
 7346SOL    HW123479   2.793   0.042  12.264
 7346SOL    HW223480   2.906   0.042  12.364
 7347SOL     OW23481   3.219   8.017  11.338
 7347SOL    HW123482   3.268   7.935  11.346
 7347SOL    HW223483   3.138   8.002  11.387
 7348SOL     OW23484   3.170   0.470  11.849
 7348SOL    HW123485   3.117   0.550  11.855
 7348SOL    HW223486   3.166   0.433  11.937
 7349SOL     OW23487   3.459   0.225  12.034
 7349SOL    HW123488   3.391   0.234  12.101
 7349SOL    HW223489   3.450   0.303  11.980
 7350SOL     OW23490   1.909   1.075  11.475
 7350SOL    HW123491   2.004   1.071  11.463
 7350SOL    HW223492   1.883   0.984  11.487
 7351SOL     OW23493   2.761   1.657  11.496
 7351SOL    HW123494   2.680   1.651  11.445
 7351SOL    HW223495   2.742   1.725  11.561
 7352SOL     OW23496   2.143   2.475   0.032
 7352SOL    HW123497   2.095   2.516   0.104
 7352SOL    HW223498   2.078   2.465  -0.037
 7353SOL     OW23499   2.079   2.148   0.994
 7353SOL    HW123500   2.114   2.111   1.076
 7353SOL    HW223501   1.988   2.118   0.992
 7354SOL     OW23502   1.867   2.252   0.642
 7354SOL    HW123503   1.782   2.254   0.685
 7354SOL    HW223504   1.860   2.179   0.580
 7355SOL     OW23505   2.454   3.164   1.222
 7355SOL    HW123506   2.385   3.139   1.160
 7355SOL    HW223507   2.452   3.260   1.223
 7356SOL     OW23508   3.434   3.396   0.718
 7356SOL    HW123509   3.393   3.367   0.800
 7356SOL    HW223510   3.366   3.386   0.652
 7357SOL     OW23511   2.995   2.564   0.694
 7357SOL    HW123512   3.045   2.644   0.681
 7357SOL    HW223513   2.953   2.576   0.779
 7358SOL     OW23514   3.658   2.428   0.235
 7358SOL    HW123515   3.616   2.510   0.208
 7358SOL    HW223516   3.591   2.385   0.289
 7359SOL     OW23517   2.677   2.997   1.076
 7359SOL    HW123518   2.592   2.956   1.085
 7359SOL    HW223519   2.658   3.088   1.051
 7360SOL     OW23520   2.738   2.622   1.817
 7360SOL    HW123521   2.708   2.691   1.875
 7360SOL    HW223522   2.759   2.667   1.735
 7361SOL     OW23523   2.540   2.849   0.648
 7361SOL    HW123524   2.607   2.848   0.717
 7361SOL    HW223525   2.472   2.907   0.682
 7362SOL     OW23526   2.579   3.010   1.828
 7362SOL    HW123527   2.623   3.088   1.860
 7362SOL    HW223528   2.502   3.043   1.782
 7363SOL     OW23529   2.187   3.280   1.048
 7363SOL    HW123530   2.112   3.253   0.995
 7363SOL    HW223531   2.241   3.332   0.989
 7364SOL     OW23532   3.328   3.352   1.368
 7364SOL    HW123533   3.375   3.436   1.376
 7364SOL    HW223534   3.252   3.362   1.426
 7365SOL     OW23535   2.306   2.258   1.501
 7365SOL    HW123536   2.388   2.209   1.500
 7365SOL    HW223537   2.238   2.190   1.504
 7366SOL     OW23538   3.465   2.300   0.743
 7366SOL    HW123539   3.397   2.334   0.685
 7366SOL    HW223540   3.452   2.347   0.825
 7367SOL     OW23541   2.079   3.601   0.470
 7367SOL    HW123542   2.106   3.676   0.524
 7367SOL    HW223543   2.157   3.577   0.422
 7368SOL     OW23544   2.999   3.209   1.706
 7368SOL    HW123545   3.026   3.195   1.796
 7368SOL    HW223546   2.950   3.130   1.682
 7369SOL     OW23547   2.043   3.325   0.513
 7369SOL    HW123548   2.058   3.412   0.549
 7369SOL    HW223549   2.045   3.267   0.590
 7370SOL     OW23550   2.110   2.942   0.874
 7370SOL    HW123551   2.139   2.855   0.901
 7370SOL    HW223552   2.106   2.992   0.956
 7371SOL     OW23553   2.451   3.658   1.434
 7371SOL    HW123554   2.365   3.625   1.460
 7371SOL    HW223555   2.469   3.730   1.494
 7372SOL     OW23556   2.483   2.841   0.136
 7372SOL    HW123557   2.390   2.865   0.135
 7372SOL    HW223558   2.517   2.880   0.217
 7373SOL     OW23559   3.470   1.985   1.474
 7373SOL    HW123560   3.506   2.064   1.433
 7373SOL    HW223561   3.431   2.017   1.556
 7374SOL     OW23562   1.973   2.515   0.572
 7374SOL    HW123563   1.951   2.426   0.598
 7374SOL    HW223564   1.969   2.565   0.654
 7375SOL     OW23565   3.709   3.611   0.305
 7375SOL    HW123566   3.776   3.578   0.366
 7375SOL    HW223567   3.732   3.703   0.292
 7376SOL     OW23568   1.837   3.376   0.155
 7376SOL    HW123569   1.907   3.329   0.199
 7376SOL    HW223570   1.861   3.468   0.162
 7377SOL     OW23571   3.534   2.804   0.647
 7377SOL    HW123572   3.581   2.745   0.589
 7377SOL    HW223573   3.505   2.875   0.590
 7378SOL     OW23574   3.511   2.986   0.429
 7378SOL    HW123575   3.595   2.982   0.384
 7378SOL    HW223576   3.522   3.053   0.496
 7379SOL     OW23577   1.995   2.612   1.587
 7379SOL    HW123578   2.088   2.630   1.576
 7379SOL    HW223579   1.953   2.698   1.586
 7380SOL     OW23580   2.469   3.252   0.730
 7380SOL    HW123581   2.427   3.167   0.734
 7380SOL    HW223582   2.462   3.279   0.639
 7381SOL     OW23583   3.141   3.093   1.426
 7381SOL    HW123584   3.165   3.027   1.361
 7381SOL    HW223585   3.211   3.088   1.492
 7382SOL     OW23586   2.694   1.876   0.514
 7382SOL    HW123587   2.727   1.963   0.489
 7382SOL    HW223588   2.599   1.889   0.522
 7383SOL     OW23589   2.016   2.832   1.262
 7383SOL    HW123590   2.099   2.788   1.282
 7383SOL    HW223591   1.989   2.796   1.178
 7384SOL     OW23592   3.335   2.875   0.183
 7384SOL    HW123593   3.281   2.841   0.255
 7384SOL    HW223594   3.425   2.863   0.214
 7385SOL     OW23595   3.084   3.696   1.536
 7385SOL    HW123596   3.124   3.616   1.502
 7385SOL    HW223597   3.009   3.665   1.587
 7386SOL     OW23598   2.214   2.119   1.848
 7386SOL    HW123599   2.258   2.201   1.867
 7386SOL    HW223600   2.121   2.137   1.863
 7387SOL     OW23601   3.324   3.285   0.942
 7387SOL    HW123602   3.254   3.312   1.001
 7387SOL    HW223603   3.305   3.194   0.922
 7388SOL     OW23604   3.492   3.645   0.573
 7388SOL    HW123605   3.479   3.593   0.494
 7388SOL    HW223606   3.489   3.582   0.645
 7389SOL     OW23607   2.455   2.585   0.271
 7389SOL    HW123608   2.473   2.668   0.228
 7389SOL    HW223609   2.386   2.605   0.334
 7390SOL     OW23610   3.112   2.170   0.894
 7390SOL    HW123611   3.031   2.164   0.944
 7390SOL    HW223612   3.181   2.174   0.960
 7391SOL     OW23613   3.449   3.533   0.321
 7391SOL    HW123614   3.541   3.558   0.316
 7391SOL    HW223615   3.431   3.491   0.237
 7392SOL     OW23616   2.660   2.469   1.451
 7392SOL    HW123617   2.623   2.447   1.537
 7392SOL    HW223618   2.617   2.409   1.390
 7393SOL     OW23619   3.261   2.343   1.677
 7393SOL    HW123620   3.267   2.380   1.765
 7393SOL    HW223621   3.308   2.259   1.684
 7394SOL     OW23622   2.808   2.751   1.579
 7394SOL    HW123623   2.864   2.682   1.542
 7394SOL    HW223624   2.764   2.789   1.504
 7395SOL     OW23625   2.854   2.267   1.244
 7395SOL    HW123626   2.768   2.300   1.270
 7395SOL    HW223627   2.842   2.235   1.155
 7396SOL     OW23628   2.913   2.546   0.433
 7396SOL    HW123629   2.933   2.550   0.526
 7396SOL    HW223630   2.825   2.509   0.429
 7397SOL     OW23631   1.947   2.682   0.790
 7397SOL    HW123632   2.026   2.668   0.842
 7397SOL    HW223633   1.923   2.773   0.806
 7398SOL     OW23634   1.986   3.739   1.594
 7398SOL    HW123635   1.995   3.719   1.687
 7398SOL    HW223636   1.905   3.694   1.567
 7399SOL     OW23637   2.774   2.238   0.229
 7399SOL    HW123638   2.810   2.320   0.194
 7399SOL    HW223639   2.714   2.207   0.161
 7400SOL     OW23640   3.558   2.441   1.830
 7400SOL    HW123641   3.525   2.511   1.774
 7400SOL    HW223642   3.581   2.371   1.770
 7401SOL     OW23643   3.251   2.996   0.529
 7401SOL    HW123644   3.333   2.998   0.481
 7401SOL    HW223645   3.196   3.062   0.485
 7402SOL     OW23646   2.457   2.052   0.900
 7402SOL    HW123647   2.440   2.072   0.992
 7402SOL    HW223648   2.439   2.133   0.854
 7403SOL     OW23649   2.857   3.282   0.482
 7403SOL    HW123650   2.825   3.369   0.458
 7403SOL    HW223651   2.862   3.285   0.578
 7404SOL     OW23652   2.216   3.679   0.874
 7404SOL    HW123653   2.260   3.594   0.879
 7404SOL    HW223654   2.283   3.743   0.896
 7405SOL     OW23655   3.674   2.902   0.861
 7405SOL    HW123656   3.613   2.875   0.792
 7405SOL    HW223657   3.619   2.918   0.937
 7406SOL     OW23658   3.096   3.400   1.508
 7406SOL    HW123659   3.086   3.340   1.581
 7406SOL    HW223660   3.033   3.370   1.443
 7407SOL     OW23661   2.211   2.828   0.173
 7407SOL    HW123662   2.200   2.881   0.251
 7407SOL    HW223663   2.166   2.746   0.193
 7408SOL     OW23664   3.345   2.613   0.715
 7408SOL    HW123665   3.346   2.567   0.799
 7408SOL    HW223666   3.418   2.674   0.720
 7409SOL     OW23667   2.344   3.109   1.719
 7409SOL    HW123668   2.308   3.121   1.631
 7409SOL    HW223669   2.269   3.118   1.778
 7410SOL     OW23670   3.057   3.652   0.262
 7410SOL    HW123671   2.982   3.640   0.321
 7410SOL    HW223672   3.053   3.577   0.203
 7411SOL     OW23673   2.067   2.114   1.495
 7411SOL    HW123674   2.004   2.182   1.519
 7411SOL    HW223675   2.031   2.034   1.534
 7412SOL     OW23676   3.512   3.277   0.087
 7412SOL    HW123677   3.438   3.328   0.053
 7412SOL    HW223678   3.478   3.188   0.096
 7413SOL     OW23679   2.325   3.574   0.350
 7413SOL    HW123680   2.369   3.644   0.398
 7413SOL    HW223681   2.389   3.546   0.285
 7414SOL     OW23682   3.265   1.949   0.440
 7414SOL    HW123683   3.266   1.911   0.352
 7414SOL    HW223684   3.356   1.968   0.459
 7415SOL     OW23685   2.128   3.656   1.245
 7415SOL    HW123686   2.159   3.625   1.330
 7415SOL    HW223687   2.162   3.593   1.182
 7416SOL     OW23688   2.794   3.559   0.901
 7416SOL    HW123689   2.860   3.493   0.922
 7416SOL    HW223690   2.748   3.523   0.825
 7417SOL     OW23691   2.235   2.552   0.459
 7417SOL    HW123692   2.260   2.461   0.471
 7417SOL    HW223693   2.159   2.565   0.515
 7418SOL     OW23694   3.377   2.084   1.721
 7418SOL    HW123695   3.388   2.095   1.816
 7418SOL    HW223696   3.302   2.025   1.713
 7419SOL     OW23697   2.491   1.921   0.137
 7419SOL    HW123698   2.586   1.913   0.146
 7419SOL    HW223699   2.478   1.986   0.068
 7420SOL     OW23700   2.626   2.140   1.758
 7420SOL    HW123701   2.696   2.078   1.777
 7420SOL    HW223702   2.584   2.156   1.842
 7421SOL     OW23703   2.736   3.393   1.205
 7421SOL    HW123704   2.718   3.354   1.120
 7421SOL    HW223705   2.807   3.339   1.241
 7422SOL     OW23706   3.197   2.450   1.430
 7422SOL    HW123707   3.234   2.422   1.514
 7422SOL    HW223708   3.237   2.536   1.413
 7423SOL     OW23709   2.654   3.258   0.959
 7423SOL    HW123710   2.742   3.258   0.922
 7423SOL    HW223711   2.596   3.250   0.883
 7424SOL     OW23712   2.796   2.383   0.901
 7424SOL    HW123713   2.769   2.364   0.811
 7424SOL    HW223714   2.826   2.300   0.936
 7425SOL     OW23715   2.427   1.920   0.508
 7425SOL    HW123716   2.355   1.917   0.571
 7425SOL    HW223717   2.408   1.998   0.455
 7426SOL     OW23718   3.298   3.100   0.035
 7426SOL    HW123719   3.314   3.017   0.080
 7426SOL    HW223720   3.211   3.127   0.064
 7427SOL     OW23721   2.160   1.929   0.211
 7427SOL    HW123722   2.241   1.979   0.210
 7427SOL    HW223723   2.187   1.840   0.236
 7428SOL     OW23724   2.822   2.109   0.461
 7428SOL    HW123725   2.796   2.151   0.379
 7428SOL    HW223726   2.915   2.129   0.469
 7429SOL     OW23727   2.941   2.547   1.461
 7429SOL    HW123728   2.875   2.478   1.460
 7429SOL    HW223729   3.024   2.500   1.450
 7430SOL     OW23730   3.115   3.516   0.811
 7430SOL    HW123731   3.152   3.479   0.731
 7430SOL    HW223732   3.062   3.446   0.848
 7431SOL     OW23733   2.321   3.019   0.702
 7431SOL    HW123734   2.255   2.987   0.763
 7431SOL    HW223735   2.280   3.009   0.616
 7432SOL     OW23736   3.124   3.655   0.573
 7432SOL    HW123737   3.135   3.749   0.561
 7432SOL    HW223738   3.095   3.645   0.664
 7433SOL     OW23739   2.891   2.453   0.080
 7433SOL    HW123740   2.891   2.390   0.009
 7433SOL    HW223741   2.968   2.430   0.132
 7434SOL     OW23742   1.938   2.396   1.426
 7434SOL    HW123743   2.024   2.389   1.384
 7434SOL    HW223744   1.942   2.479   1.473
 7435SOL     OW23745   2.418   2.083   1.174
 7435SOL    HW123746   2.458   2.016   1.230
 7435SOL    HW223747   2.324   2.078   1.195
 7436SOL     OW23748   2.723   2.307   0.648
 7436SOL    HW123749   2.674   2.371   0.596
 7436SOL    HW223750   2.751   2.240   0.584
 7437SOL     OW23751   3.301   3.019   0.865
 7437SOL    HW123752   3.224   2.964   0.877
 7437SOL    HW223753   3.313   3.023   0.771
 7438SOL     OW23754   3.632   2.659   0.437
 7438SOL    HW123755   3.712   2.613   0.460
 7438SOL    HW223756   3.648   2.694   0.349
 7439SOL     OW23757   2.356   3.254   0.184
 7439SOL    HW123758   2.300   3.199   0.239
 7439SOL    HW223759   2.295   3.293   0.121
 7440SOL     OW23760   3.544   3.150   0.634
 7440SOL    HW123761   3.635   3.139   0.660
 7440SOL    HW223762   3.517   3.232   0.675
 7441SOL     OW23763   3.261   2.400   0.078
 7441SOL    HW123764   3.213   2.394   0.161
 7441SOL    HW223765   3.329   2.333   0.085
 7442SOL     OW23766   2.386   2.119   0.321
 7442SOL    HW123767   2.445   2.079   0.257
 7442SOL    HW223768   2.360   2.202   0.282
 7443SOL     OW23769   3.615   3.102   1.568
 7443SOL    HW123770   3.702   3.072   1.541
 7443SOL    HW223771   3.629   3.191   1.601
 7444SOL     OW23772   2.913   3.243   1.367
 7444SOL    HW123773   2.834   3.194   1.388
 7444SOL    HW223774   2.985   3.181   1.382
 7445SOL     OW23775   3.469   3.485   1.673
 7445SOL    HW123776   3.456   3.519   1.584
 7445SOL    HW223777   3.553   3.441   1.669
 7446SOL     OW23778   2.994   3.086   1.096
 7446SOL    HW123779   2.906   3.053   1.113
 7446SOL    HW223780   2.986   3.133   1.013
 7447SOL     OW23781   3.489   2.952   1.069
 7447SOL    HW123782   3.479   3.016   1.139
 7447SOL    HW223783   3.418   2.970   1.008
 7448SOL     OW23784   2.781   1.954   1.395
 7448SOL    HW123785   2.804   1.949   1.302
 7448SOL    HW223786   2.857   1.993   1.437
 7449SOL     OW23787   2.846   2.970   1.734
 7449SOL    HW123788   2.755   2.991   1.753
 7449SOL    HW223789   2.842   2.898   1.672
 7450SOL     OW23790   2.582   2.921   0.378
 7450SOL    HW123791   2.558   2.902   0.469
 7450SOL    HW223792   2.663   2.872   0.364
 7451SOL     OW23793   2.231   2.683   1.296
 7451SOL    HW123794   2.305   2.713   1.243
 7451SOL    HW223795   2.243   2.588   1.303
 7452SOL     OW23796   3.121   2.226   1.287
 7452SOL    HW123797   3.159   2.306   1.323
 7452SOL    HW223798   3.030   2.248   1.268
 7453SOL     OW23799   1.946   3.428   1.351
 7453SOL    HW123800   1.933   3.510   1.304
 7453SOL    HW223801   2.041   3.414   1.348
 7454SOL     OW23802   2.408   2.391   0.856
 7454SOL    HW123803   2.422   2.449   0.781
 7454SOL    HW223804   2.470   2.420   0.922
 7455SOL     OW23805   3.107   3.206   0.396
 7455SOL    HW123806   3.160   3.277   0.432
 7455SOL    HW223807   3.020   3.220   0.432
 7456SOL     OW23808   3.145   3.333   1.151
 7456SOL    HW123809   3.203   3.316   1.226
 7456SOL    HW223810   3.087   3.257   1.149
 7457SOL     OW23811   3.423   2.487   0.482
 7457SOL    HW123812   3.378   2.524   0.558
 7457SOL    HW223813   3.493   2.549   0.463
 7458SOL     OW23814   2.207   3.361   1.301
 7458SOL    HW123815   2.200   3.326   1.212
 7458SOL    HW223816   2.298   3.390   1.307
 7459SOL     OW23817   2.281   2.594   1.602
 7459SOL    HW123818   2.334   2.646   1.542
 7459SOL    HW223819   2.336   2.518   1.623
 7460SOL     OW23820   3.471   2.648   1.680
 7460SOL    HW123821   3.387   2.690   1.667
 7460SOL    HW223822   3.526   2.679   1.608
 7461SOL     OW23823   2.347   1.887   1.778
 7461SOL    HW123824   2.310   1.839   1.704
 7461SOL    HW223825   2.301   1.971   1.779
 7462SOL     OW23826   3.201   2.722   1.026
 7462SOL    HW123827   3.117   2.690   0.992
 7462SOL    HW223828   3.259   2.646   1.021
 7463SOL     OW23829   3.072   2.386   0.280
 7463SOL    HW123830   3.091   2.312   0.337
 7463SOL    HW223831   3.021   2.446   0.334
 7464SOL     OW23832   2.154   2.053   1.241
 7464SOL    HW123833   2.123   2.081   1.327
 7464SOL    HW223834   2.138   1.959   1.239
 7465SOL     OW23835   1.866   3.177   1.271
 7465SOL    HW123836   1.912   3.117   1.330
 7465SOL    HW223837   1.895   3.264   1.298
 7466SOL     OW23838   2.571   2.484   1.054
 7466SOL    HW123839   2.656   2.489   1.010
 7466SOL    HW223840   2.542   2.574   1.061
 7467SOL     OW23841   3.606   2.821   1.849
 7467SOL    HW123842   3.552   2.757   1.804
 7467SOL    HW223843   3.545   2.865   1.909
 7468SOL     OW23844   2.202   1.913   0.662
 7468SOL    HW123845   2.166   2.000   0.677
 7468SOL    HW223846   2.126   1.860   0.638
 7469SOL     OW23847   3.469   2.246   0.367
 7469SOL    HW123848   3.505   2.184   0.431
 7469SOL    HW223849   3.444   2.322   0.420
 7470SOL     OW23850   2.898   2.628   0.952
 7470SOL    HW123851   2.889   2.644   1.046
 7470SOL    HW223852   2.865   2.539   0.940
 7471SOL     OW23853   2.865   3.454   1.706
 7471SOL    HW123854   2.828   3.481   1.622
 7471SOL    HW223855   2.891   3.363   1.692
 7472SOL     OW23856   3.712   3.359   1.620
 7472SOL    HW123857   3.735   3.386   1.531
 7472SOL    HW223858   3.794   3.365   1.669
 7473SOL     OW23859   2.212   2.772   1.801
 7473SOL    HW123860   2.292   2.804   1.844
 7473SOL    HW223861   2.243   2.711   1.734
 7474SOL     OW23862   3.339   2.143   0.155
 7474SOL    HW123863   3.331   2.052   0.181
 7474SOL    HW223864   3.395   2.182   0.221
 7475SOL     OW23865   3.169   2.646   0.024
 7475SOL    HW123866   3.210   2.560   0.032
 7475SOL    HW223867   3.242   2.707   0.018
 7476SOL     OW23868   2.166   2.675   0.959
 7476SOL    HW123869   2.251   2.708   0.988
 7476SOL    HW223870   2.168   2.581   0.980
 7477SOL     OW23871   2.183   2.396   1.006
 7477SOL    HW123872   2.153   2.306   0.997
 7477SOL    HW223873   2.263   2.400   0.953
 7478SOL     OW23874   2.994   2.259   1.662
 7478SOL    HW123875   2.948   2.300   1.736
 7478SOL    HW223876   3.080   2.300   1.663
 7479SOL     OW23877   3.019   2.052   1.486
 7479SOL    HW123878   3.004   2.118   1.553
 7479SOL    HW223879   3.063   2.099   1.415
 7480SOL     OW23880   1.946   3.651   0.932
 7480SOL    HW123881   1.921   3.567   0.894
 7480SOL    HW223882   2.040   3.658   0.915
 7481SOL     OW23883   2.354   3.441   0.898
 7481SOL    HW123884   2.425   3.496   0.930
 7481SOL    HW223885   2.396   3.378   0.840
 7482SOL     OW23886   2.844   2.637   1.216
 7482SOL    HW123887   2.896   2.615   1.293
 7482SOL    HW223888   2.756   2.656   1.251
 7483SOL     OW23889   1.909   2.412   1.121
 7483SOL    HW123890   1.977   2.407   1.054
 7483SOL    HW223891   1.958   2.418   1.204
 7484SOL     OW23892   2.046   2.386   1.728
 7484SOL    HW123893   2.126   2.353   1.688
 7484SOL    HW223894   2.027   2.467   1.680
 7485SOL     OW23895   3.246   2.804   1.658
 7485SOL    HW123896   3.271   2.896   1.654
 7485SOL    HW223897   3.236   2.778   1.566
 7486SOL     OW23898   2.664   2.442   0.387
 7486SOL    HW123899   2.669   2.365   0.330
 7486SOL    HW223900   2.592   2.494   0.351
 7487SOL     OW23901   3.541   2.446   1.238
 7487SOL    HW123902   3.473   2.445   1.171
 7487SOL    HW223903   3.623   2.434   1.188
 7488SOL     OW23904   2.090   3.415   1.718
 7488SOL    HW123905   2.085   3.484   1.784
 7488SOL    HW223906   2.114   3.336   1.767
 7489SOL     OW23907   2.559   2.308   1.258
 7489SOL    HW123908   2.509   2.233   1.226
 7489SOL    HW223909   2.557   2.372   1.187
 7490SOL     OW23910   2.764   3.544   1.465
 7490SOL    HW123911   2.765   3.482   1.392
 7490SOL    HW223912   2.718   3.621   1.431
 7491SOL     OW23913   2.318   2.349   0.203
 7491SOL    HW123914   2.376   2.423   0.219
 7491SOL    HW223915   2.259   2.379   0.133
 7492SOL     OW23916   1.982   3.006   1.466
 7492SOL    HW123917   1.999   2.962   1.549
 7492SOL    HW223918   2.000   2.940   1.400
 7493SOL     OW23919   3.172   2.908   1.221
 7493SOL    HW123920   3.191   2.844   1.152
 7493SOL    HW223921   3.112   2.970   1.179
 7494SOL     OW23922   3.100   2.731   0.285
 7494SOL    HW123923   3.057   2.703   0.366
 7494SOL    HW223924   3.142   2.652   0.251
 7495SOL     OW23925   3.114   3.610   1.138
 7495SOL    HW123926   3.197   3.632   1.096
 7495SOL    HW223927   3.112   3.515   1.140
 7496SOL     OW23928   1.921   3.162   0.991
 7496SOL    HW123929   1.910   3.154   1.086
 7496SOL    HW223930   1.887   3.079   0.956
 7497SOL     OW23931   2.531   3.536   1.727
 7497SOL    HW123932   2.480   3.616   1.726
 7497SOL    HW223933   2.602   3.552   1.665
 7498SOL     OW23934   2.777   1.928   0.109
 7498SOL    HW123935   2.742   1.991   0.047
 7498SOL    HW223936   2.857   1.969   0.143
 7499SOL     OW23937   3.577   2.022   0.501
 7499SOL    HW123938   3.650   2.007   0.440
 7499SOL    HW223939   3.566   1.938   0.546
 7500SOL     OW23940   3.252   3.427   0.493
 7500SOL    HW123941   3.317   3.456   0.429
 7500SOL    HW223942   3.200   3.505   0.511
 7501SOL     OW23943   2.001   3.662   1.849
 7501SOL    HW123944   1.955   3.593   1.896
 7501SOL    HW223945   2.054   3.705   1.917
 7502SOL     OW23946   3.142   2.788   0.660
 7502SOL    HW123947   3.216   2.732   0.682
 7502SOL    HW223948   3.182   2.862   0.614
 7503SOL     OW23949   2.658   3.137   1.413
 7503SOL    HW123950   2.624   3.184   1.489
 7503SOL    HW223951   2.588   3.143   1.348
 7504SOL     OW23952   2.524   3.469   0.193
 7504SOL    HW123953   2.553   3.483   0.103
 7504SOL    HW223954   2.478   3.384   0.190
 7505SOL     OW23955   3.448   3.600   1.417
 7505SOL    HW123956   3.516   3.596   1.350
 7505SOL    HW223957   3.414   3.689   1.412
 7506SOL     OW23958   3.654   1.982   0.997
 7506SOL    HW123959   3.739   2.018   0.972
 7506SOL    HW223960   3.593   2.017   0.933
 7507SOL     OW23961   2.119   2.167   0.721
 7507SOL    HW123962   2.036   2.210   0.699
 7507SOL    HW223963   2.119   2.163   0.817
 7508SOL     OW23964   3.061   3.457   0.071
 7508SOL    HW123965   3.058   3.363   0.092
 7508SOL    HW223966   2.973   3.477   0.040
 7509SOL     OW23967   2.691   2.870   1.357
 7509SOL    HW123968   2.690   2.875   1.261
 7509SOL    HW223969   2.683   2.961   1.385
 7510SOL     OW23970   2.817   2.793   0.323
 7510SOL    HW123971   2.850   2.836   0.402
 7510SOL    HW223972   2.826   2.699   0.341
 7511SOL     OW23973   3.323   3.438  -0.011
 7511SOL    HW123974   3.235   3.461   0.020
 7511SOL    HW223975   3.373   3.518  -0.003
 7512SOL     OW23976   2.209   3.167   1.498
 7512SOL    HW123977   2.215   3.235   1.430
 7512SOL    HW223978   2.134   3.114   1.472
 7513SOL     OW23979   3.469   3.137   1.272
 7513SOL    HW123980   3.549   3.139   1.324
 7513SOL    HW223981   3.414   3.205   1.311
 7514SOL     OW23982   2.882   2.875   0.587
 7514SOL    HW123983   2.828   2.888   0.665
 7514SOL    HW223984   2.970   2.862   0.621
 7515SOL     OW23985   2.852   2.118   1.001
 7515SOL    HW123986   2.794   2.089   0.930
 7515SOL    HW223987   2.863   2.041   1.056
 7516SOL     OW23988   2.462   3.341   0.475
 7516SOL    HW123989   2.495   3.289   0.402
 7516SOL    HW223990   2.396   3.398   0.436
 7517SOL     OW23991   3.606   2.239   1.409
 7517SOL    HW123992   3.571   2.313   1.358
 7517SOL    HW223993   3.638   2.178   1.343
 7518SOL     OW23994   2.043   3.230   0.262
 7518SOL    HW123995   2.075   3.142   0.285
 7518SOL    HW223996   2.047   3.279   0.344
 7519SOL     OW23997   1.979   2.895   1.725
 7519SOL    HW123998   1.907   2.867   1.781
 7519SOL    HW223999   2.056   2.851   1.761
 7520SOL     OW24000   2.539   2.051   1.505
 7520SOL    HW124001   2.623   2.034   1.462
 7520SOL    HW224002   2.563   2.086   1.590
 7521SOL     OW24003   3.288   2.724   1.397
 7521SOL    HW124004   3.233   2.780   1.343
 7521SOL    HW224005   3.373   2.724   1.354
 7522SOL     OW24006   1.919   2.020   0.293
 7522SOL    HW124007   1.908   2.101   0.243
 7522SOL    HW224008   2.008   1.990   0.271
 7523SOL     OW24009   3.047   3.191   0.124
 7523SOL    HW124010   2.953   3.177   0.112
 7523SOL    HW224011   3.061   3.184   0.219
 7524SOL     OW24012   2.497   2.693   1.467
 7524SOL    HW124013   2.535   2.768   1.420
 7524SOL    HW224014   2.561   2.623   1.457
 7525SOL     OW24015   3.372   3.688   1.043
 7525SOL    HW124016   3.380   3.659   0.952
 7525SOL    HW224017   3.455   3.661   1.083
 7526SOL     OW24018   2.568   2.423   1.704
 7526SOL    HW124019   2.621   2.486   1.752
 7526SOL    HW224020   2.605   2.337   1.726
 7527SOL     OW24021   3.348   3.063   1.631
 7527SOL    HW124022   3.343   3.128   1.701
 7527SOL    HW224023   3.438   3.068   1.600
 7528SOL     OW24024   2.199   3.584   1.507
 7528SOL    HW124025   2.142   3.651   1.544
 7528SOL    HW224026   2.190   3.509   1.565
 7529SOL     OW24027   3.529   2.745   1.255
 7529SOL    HW124028   3.524   2.660   1.211
 7529SOL    HW224029   3.514   2.809   1.185
 7530SOL     OW24030   3.090   2.170   0.451
 7530SOL    HW124031   3.156   2.101   0.450
 7530SOL    HW224032   3.113   2.223   0.528
 7531SOL     OW24033   2.448   2.582   0.658
 7531SOL    HW124034   2.488   2.669   0.662
 7531SOL    HW224035   2.383   2.588   0.588
 7532SOL     OW24036   3.620   2.219   1.679
 7532SOL    HW124037   3.620   2.234   1.584
 7532SOL    HW224038   3.544   2.164   1.695
 7533SOL     OW24039   3.642   2.774   1.501
 7533SOL    HW124040   3.622   2.865   1.523
 7533SOL    HW224041   3.607   2.763   1.413
 7534SOL     OW24042   2.770   3.239   0.055
 7534SOL    HW124043   2.721   3.219   0.134
 7534SOL    HW224044   2.769   3.334   0.048
 7535SOL     OW24045   2.533   3.646   0.949
 7535SOL    HW124046   2.534   3.725   0.895
 7535SOL    HW224047   2.622   3.613   0.945
 7536SOL     OW24048   2.742   2.845   0.842
 7536SOL    HW124049   2.792   2.771   0.877
 7536SOL    HW224050   2.717   2.895   0.920
 7537SOL     OW24051   3.704   3.434   0.844
 7537SOL    HW124052   3.624   3.421   0.792
 7537SOL    HW224053   3.685   3.390   0.927
 7538SOL     OW24054   2.115   3.166   1.866
 7538SOL    HW124055   2.053   3.101   1.833
 7538SOL    HW224056   2.098   3.168   1.961
 7539SOL     OW24057   1.958   3.077   0.666
 7539SOL    HW124058   2.002   3.035   0.740
 7539SOL    HW224059   2.010   3.054   0.590
 7540SOL     OW24060   2.548   3.272   1.627
 7540SOL    HW124061   2.475   3.220   1.662
 7540SOL    HW224062   2.535   3.359   1.665
 7541SOL     OW24063   3.690   2.035   1.260
 7541SOL    HW124064   3.721   1.947   1.281
 7541SOL    HW224065   3.677   2.033   1.165
 7542SOL     OW24066   2.276   2.295   0.525
 7542SOL    HW124067   2.317   2.227   0.471
 7542SOL    HW224068   2.239   2.248   0.599
 7543SOL     OW24069   3.583   3.276   1.037
 7543SOL    HW124070   3.491   3.285   1.010
 7543SOL    HW224071   3.578   3.255   1.130
 7544SOL     OW24072   2.173   2.395   1.293
 7544SOL    HW124073   2.242   2.356   1.347
 7544SOL    HW224074   2.207   2.390   1.204
 7545SOL     OW24075   2.654   3.470   0.687
 7545SOL    HW124076   2.652   3.488   0.593
 7545SOL    HW224077   2.606   3.388   0.697
 7546SOL     OW24078   3.288   2.091   1.112
 7546SOL    HW124079   3.346   2.045   1.172
 7546SOL    HW224080   3.233   2.146   1.168
 7547SOL     OW24081   2.867   1.872   1.137
 7547SOL    HW124082   2.815   1.792   1.150
 7547SOL    HW224083   2.956   1.840   1.119
 7548SOL     OW24084   2.667   3.175   0.301
 7548SOL    HW124085   2.630   3.092   0.331
 7548SOL    HW224086   2.731   3.198   0.368
 7549SOL     OW24087   2.472   3.437   1.272
 7549SOL    HW124088   2.474   3.516   1.326
 7549SOL    HW224089   2.563   3.423   1.247
 7550SOL     OW24090   3.233   1.878   0.167
 7550SOL    HW124091   3.273   1.887   0.080
 7550SOL    HW224092   3.155   1.933   0.164
 7551SOL     OW24093   3.147   2.321   0.666
 7551SOL    HW124094   3.107   2.406   0.683
 7551SOL    HW224095   3.143   2.275   0.750
 7552SOL     OW24096   3.416   2.052   0.866
 7552SOL    HW124097   3.371   2.083   0.945
 7552SOL    HW224098   3.428   2.132   0.814
 7553SOL     OW24099   1.872   2.933   0.323
 7553SOL    HW124100   1.958   2.965   0.348
 7553SOL    HW224101   1.861   2.852   0.374
 7554SOL     OW24102   2.745   3.516   0.375
 7554SOL    HW124103   2.670   3.501   0.318
 7554SOL    HW224104   2.726   3.601   0.416
 7555SOL     OW24105   2.079   2.493   1.996
 7555SOL    HW124106   1.992   2.486   2.034
 7555SOL    HW224107   2.067   2.473   1.903
 7556SOL     OW24108   2.107   2.134   2.852
 7556SOL    HW124109   2.136   2.108   2.940
 7556SOL    HW224110   2.013   2.116   2.851
 7557SOL     OW24111   1.856   2.252   2.503
 7557SOL    HW124112   1.775   2.280   2.544
 7557SOL    HW224113   1.830   2.176   2.450
 7558SOL     OW24114   2.431   3.161   3.046
 7558SOL    HW124115   2.345   3.173   3.005
 7558SOL    HW224116   2.454   3.248   3.079
 7559SOL     OW24117   3.430   3.359   2.550
 7559SOL    HW124118   3.383   3.345   2.632
 7559SOL    HW224119   3.361   3.368   2.484
 7560SOL     OW24120   2.994   2.550   2.552
 7560SOL    HW124121   3.044   2.630   2.536
 7560SOL    HW224122   2.952   2.565   2.637
 7561SOL     OW24123   3.633   2.452   2.085
 7561SOL    HW124124   3.604   2.459   1.994
 7561SOL    HW224125   3.686   2.373   2.087
 7562SOL     OW24126   2.601   2.992   2.911
 7562SOL    HW124127   2.536   3.032   2.968
 7562SOL    HW224128   2.645   3.067   2.870
 7563SOL     OW24129   2.734   2.637   3.684
 7563SOL    HW124130   2.750   2.697   3.756
 7563SOL    HW224131   2.759   2.685   3.605
 7564SOL     OW24132   2.545   2.847   2.514
 7564SOL    HW124133   2.617   2.845   2.576
 7564SOL    HW224134   2.478   2.901   2.556
 7565SOL     OW24135   2.570   3.001   3.670
 7565SOL    HW124136   2.611   3.078   3.709
 7565SOL    HW224137   2.486   3.034   3.636
 7566SOL     OW24138   2.184   3.247   2.937
 7566SOL    HW124139   2.093   3.226   2.917
 7566SOL    HW224140   2.216   3.293   2.859
 7567SOL     OW24141   3.341   3.332   3.219
 7567SOL    HW124142   3.402   3.389   3.266
 7567SOL    HW224143   3.268   3.320   3.279
 7568SOL     OW24144   2.345   2.196   3.374
 7568SOL    HW124145   2.356   2.232   3.462
 7568SOL    HW224146   2.252   2.175   3.368
 7569SOL     OW24147   3.427   2.301   2.624
 7569SOL    HW124148   3.337   2.327   2.602
 7569SOL    HW224149   3.453   2.362   2.693
 7570SOL     OW24150   2.083   3.575   2.318
 7570SOL    HW124151   2.100   3.639   2.387
 7570SOL    HW224152   2.165   3.570   2.269
 7571SOL     OW24153   2.982   3.227   3.564
 7571SOL    HW124154   3.017   3.235   3.652
 7571SOL    HW224155   2.939   3.141   3.562
 7572SOL     OW24156   2.064   3.303   2.389
 7572SOL    HW124157   2.057   3.393   2.357
 7572SOL    HW224158   2.106   3.311   2.474
 7573SOL     OW24159   2.106   2.952   2.758
 7573SOL    HW124160   2.129   2.860   2.769
 7573SOL    HW224161   2.122   2.991   2.844
 7574SOL     OW24162   2.445   3.663   3.268
 7574SOL    HW124163   2.374   3.643   3.329
 7574SOL    HW224164   2.476   3.750   3.295
 7575SOL     OW24165   2.431   2.849   2.004
 7575SOL    HW124166   2.480   2.897   1.937
 7575SOL    HW224167   2.470   2.877   2.087
 7576SOL     OW24168   3.455   1.951   3.366
 7576SOL    HW124169   3.463   2.023   3.303
 7576SOL    HW224170   3.446   1.994   3.451
 7577SOL     OW24171   1.976   2.519   2.426
 7577SOL    HW124172   1.948   2.431   2.449
 7577SOL    HW224173   1.968   2.569   2.507
 7578SOL     OW24174   3.711   3.611   2.187
 7578SOL    HW124175   3.780   3.583   2.247
 7578SOL    HW224176   3.727   3.704   2.174
 7579SOL     OW24177   1.896   3.452   1.983
 7579SOL    HW124178   1.857   3.366   1.999
 7579SOL    HW224179   1.877   3.503   2.062
 7580SOL     OW24180   3.543   2.744   2.474
 7580SOL    HW124181   3.610   2.765   2.538
 7580SOL    HW224182   3.549   2.813   2.408
 7581SOL     OW24183   3.528   2.985   2.301
 7581SOL    HW124184   3.610   2.969   2.253
 7581SOL    HW224185   3.551   3.052   2.365
 7582SOL     OW24186   1.988   2.610   3.429
 7582SOL    HW124187   2.083   2.622   3.433
 7582SOL    HW224188   1.951   2.690   3.466
 7583SOL     OW24189   2.494   3.234   2.587
 7583SOL    HW124190   2.457   3.147   2.603
 7583SOL    HW224191   2.417   3.291   2.579
 7584SOL     OW24192   3.128   3.060   3.271
 7584SOL    HW124193   3.176   3.002   3.212
 7584SOL    HW224194   3.184   3.067   3.348
 7585SOL     OW24195   2.663   1.872   2.338
 7585SOL    HW124196   2.718   1.948   2.320
 7585SOL    HW224197   2.583   1.908   2.377
 7586SOL     OW24198   2.034   2.842   3.111
 7586SOL    HW124199   2.119   2.797   3.112
 7586SOL    HW224200   1.970   2.772   3.098
 7587SOL     OW24201   3.358   2.914   2.083
 7587SOL    HW124202   3.329   2.827   2.110
 7587SOL    HW224203   3.427   2.936   2.145
 7588SOL     OW24204   2.216   2.113   3.691
 7588SOL    HW124205   2.257   2.190   3.732
 7588SOL    HW224206   2.123   2.124   3.706
 7589SOL     OW24207   3.286   3.291   2.774
 7589SOL    HW124208   3.254   3.310   2.862
 7589SOL    HW224209   3.289   3.196   2.769
 7590SOL     OW24210   3.516   3.618   2.440
 7590SOL    HW124211   3.496   3.576   2.356
 7590SOL    HW224212   3.505   3.548   2.504
 7591SOL     OW24213   2.455   2.572   2.133
 7591SOL    HW124214   2.464   2.656   2.089
 7591SOL    HW224215   2.391   2.588   2.203
 7592SOL     OW24216   3.141   2.217   2.791
 7592SOL    HW124217   3.052   2.191   2.813
 7592SOL    HW224218   3.196   2.171   2.855
 7593SOL     OW24219   3.443   3.541   2.171
 7593SOL    HW124220   3.537   3.563   2.167
 7593SOL    HW224221   3.416   3.536   2.079
 7594SOL     OW24222   2.681   2.419   3.340
 7594SOL    HW124223   2.654   2.455   3.424
 7594SOL    HW224224   2.631   2.469   3.275
 7595SOL     OW24225   3.260   2.334   3.538
 7595SOL    HW124226   3.294   2.402   3.596
 7595SOL    HW224227   3.320   2.260   3.549
 7596SOL     OW24228   2.811   2.751   3.441
 7596SOL    HW124229   2.874   2.687   3.406
 7596SOL    HW224230   2.775   2.793   3.363
 7597SOL     OW24231   2.847   2.281   3.109
 7597SOL    HW124232   2.790   2.351   3.141
 7597SOL    HW224233   2.811   2.259   3.023
 7598SOL     OW24234   2.917   2.563   2.282
 7598SOL    HW124235   2.934   2.558   2.376
 7598SOL    HW224236   2.833   2.518   2.271
 7599SOL     OW24237   1.951   2.703   2.628
 7599SOL    HW124238   2.032   2.688   2.676
 7599SOL    HW224239   1.905   2.770   2.679
 7600SOL     OW24240   1.969   3.726   3.448
 7600SOL    HW124241   1.985   3.721   3.542
 7600SOL    HW224242   1.892   3.671   3.434
 7601SOL     OW24243   2.752   2.215   2.057
 7601SOL    HW124244   2.800   2.268   1.993
 7601SOL    HW224245   2.763   2.125   2.026
 7602SOL     OW24246   3.579   2.419   3.668
 7602SOL    HW124247   3.540   2.497   3.629
 7602SOL    HW224248   3.609   2.367   3.594
 7603SOL     OW24249   3.265   2.996   2.422
 7603SOL    HW124250   3.349   2.996   2.376
 7603SOL    HW224251   3.216   3.068   2.383
 7604SOL     OW24252   2.421   2.047   2.756
 7604SOL    HW124253   2.417   2.071   2.848
 7604SOL    HW224254   2.417   2.131   2.709
 7605SOL     OW24255   2.226   3.675   2.732
 7605SOL    HW124256   2.242   3.582   2.717
 7605SOL    HW224257   2.311   3.709   2.760
 7606SOL     OW24258   3.647   2.864   2.726
 7606SOL    HW124259   3.656   2.956   2.701
 7606SOL    HW224260   3.596   2.866   2.807
 7607SOL     OW24261   3.076   3.340   3.329
 7607SOL    HW124262   3.057   3.297   3.413
 7607SOL    HW224263   2.990   3.367   3.296
 7608SOL     OW24264   2.164   2.796   2.103
 7608SOL    HW124265   2.247   2.826   2.065
 7608SOL    HW224266   2.145   2.714   2.056
 7609SOL     OW24267   3.342   2.596   2.576
 7609SOL    HW124268   3.341   2.580   2.671
 7609SOL    HW224269   3.417   2.654   2.562
 7610SOL     OW24270   2.324   3.111   3.606
 7610SOL    HW124271   2.299   3.121   3.514
 7610SOL    HW224272   2.242   3.118   3.654
 7611SOL     OW24273   2.993   3.671   2.048
 7611SOL    HW124274   2.911   3.658   2.096
 7611SOL    HW224275   3.015   3.585   2.013
 7612SOL     OW24276   2.063   2.138   3.358
 7612SOL    HW124277   2.018   2.215   3.321
 7612SOL    HW224278   2.036   2.137   3.449
 7613SOL     OW24279   3.478   3.250   1.932
 7613SOL    HW124280   3.529   3.325   1.903
 7613SOL    HW224281   3.403   3.288   1.979
 7614SOL     OW24282   2.321   3.601   2.179
 7614SOL    HW124283   2.372   3.653   2.242
 7614SOL    HW224284   2.386   3.561   2.122
 7615SOL     OW24285   3.262   1.968   2.301
 7615SOL    HW124286   3.250   1.939   2.210
 7615SOL    HW224287   3.356   1.955   2.318
 7616SOL     OW24288   2.102   3.657   3.086
 7616SOL    HW124289   2.171   3.612   3.135
 7616SOL    HW224290   2.132   3.653   2.995
 7617SOL     OW24291   2.784   3.565   2.750
 7617SOL    HW124292   2.863   3.523   2.785
 7617SOL    HW224293   2.756   3.508   2.678
 7618SOL     OW24294   2.251   2.562   2.337
 7618SOL    HW124295   2.273   2.470   2.347
 7618SOL    HW224296   2.157   2.567   2.357
 7619SOL     OW24297   3.404   2.093   3.599
 7619SOL    HW124298   3.424   2.125   3.687
 7619SOL    HW224299   3.331   2.033   3.611
 7620SOL     OW24300   2.467   1.919   2.017
 7620SOL    HW124301   2.561   1.924   2.003
 7620SOL    HW224302   2.429   1.907   1.930
 7621SOL     OW24303   2.633   2.132   3.572
 7621SOL    HW124304   2.708   2.072   3.577
 7621SOL    HW224305   2.620   2.160   3.663
 7622SOL     OW24306   2.735   3.374   3.054
 7622SOL    HW124307   2.716   3.340   2.966
 7622SOL    HW224308   2.800   3.313   3.089
 7623SOL     OW24309   3.195   2.449   3.289
 7623SOL    HW124310   3.235   2.413   3.368
 7623SOL    HW224311   3.237   2.533   3.275
 7624SOL     OW24312   2.684   3.238   2.811
 7624SOL    HW124313   2.770   3.231   2.770
 7624SOL    HW224314   2.625   3.261   2.740
 7625SOL     OW24315   2.795   2.365   2.762
 7625SOL    HW124316   2.766   2.356   2.672
 7625SOL    HW224317   2.825   2.278   2.787
 7626SOL     OW24318   2.387   1.911   2.336
 7626SOL    HW124319   2.314   1.911   2.397
 7626SOL    HW224320   2.380   1.995   2.290
 7627SOL     OW24321   2.162   1.906   2.039
 7627SOL    HW124322   2.196   1.993   2.014
 7627SOL    HW224323   2.223   1.845   1.998
 7628SOL     OW24324   2.807   2.107   2.312
 7628SOL    HW124325   2.780   2.140   2.227
 7628SOL    HW224326   2.901   2.125   2.317
 7629SOL     OW24327   2.942   2.545   3.311
 7629SOL    HW124328   2.889   2.473   3.344
 7629SOL    HW224329   3.031   2.511   3.310
 7630SOL     OW24330   3.068   3.422   2.649
 7630SOL    HW124331   3.091   3.496   2.592
 7630SOL    HW224332   3.149   3.403   2.696
 7631SOL     OW24333   2.333   2.998   2.602
 7631SOL    HW124334   2.265   2.999   2.668
 7631SOL    HW224335   2.286   3.002   2.519
 7632SOL     OW24336   3.125   3.645   2.472
 7632SOL    HW124337   3.173   3.716   2.429
 7632SOL    HW224338   3.048   3.687   2.510
 7633SOL     OW24339   2.884   2.396   1.889
 7633SOL    HW124340   2.839   2.477   1.864
 7633SOL    HW224341   2.952   2.424   1.951
 7634SOL     OW24342   1.944   2.400   3.260
 7634SOL    HW124343   2.034   2.392   3.230
 7634SOL    HW224344   1.943   2.479   3.314
 7635SOL     OW24345   2.417   2.066   3.030
 7635SOL    HW124346   2.448   1.984   3.067
 7635SOL    HW224347   2.326   2.072   3.059
 7636SOL     OW24348   2.725   2.308   2.501
 7636SOL    HW124349   2.682   2.373   2.446
 7636SOL    HW224350   2.750   2.238   2.440
 7637SOL     OW24351   2.899   1.925   2.608
 7637SOL    HW124352   2.838   1.947   2.537
 7637SOL    HW224353   2.854   1.857   2.658
 7638SOL     OW24354   3.301   3.017   2.715
 7638SOL    HW124355   3.251   2.943   2.750
 7638SOL    HW224356   3.282   3.016   2.621
 7639SOL     OW24357   3.325   2.473   2.838
 7639SOL    HW124358   3.266   2.401   2.860
 7639SOL    HW224359   3.389   2.474   2.910
 7640SOL     OW24360   3.715   2.675   2.216
 7640SOL    HW124361   3.761   2.635   2.290
 7640SOL    HW224362   3.682   2.601   2.165
 7641SOL     OW24363   2.344   3.274   1.992
 7641SOL    HW124364   2.316   3.255   2.081
 7641SOL    HW224365   2.277   3.234   1.937
 7642SOL     OW24366   3.260   2.434   1.936
 7642SOL    HW124367   3.202   2.417   2.010
 7642SOL    HW224368   3.347   2.441   1.974
 7643SOL     OW24369   2.379   2.130   2.177
 7643SOL    HW124370   2.423   2.074   2.114
 7643SOL    HW224371   2.360   2.211   2.130
 7644SOL     OW24372   3.584   3.061   3.451
 7644SOL    HW124373   3.679   3.054   3.444
 7644SOL    HW224374   3.571   3.133   3.513
 7645SOL     OW24375   2.903   3.174   3.163
 7645SOL    HW124376   2.829   3.156   3.221
 7645SOL    HW224377   2.979   3.145   3.213
 7646SOL     OW24378   2.985   3.037   2.941
 7646SOL    HW124379   2.946   3.085   3.013
 7646SOL    HW224380   2.968   3.091   2.864
 7647SOL     OW24381   3.472   2.920   2.936
 7647SOL    HW124382   3.476   2.983   3.008
 7647SOL    HW224383   3.431   2.968   2.865
 7648SOL     OW24384   2.762   2.003   3.254
 7648SOL    HW124385   2.783   1.971   3.166
 7648SOL    HW224386   2.848   2.016   3.296
 7649SOL     OW24387   2.841   2.990   3.576
 7649SOL    HW124388   2.751   3.000   3.607
 7649SOL    HW224389   2.842   2.906   3.530
 7650SOL     OW24390   2.558   2.903   2.243
 7650SOL    HW124391   2.561   2.888   2.337
 7650SOL    HW224392   2.638   2.861   2.210
 7651SOL     OW24393   3.111   2.233   3.137
 7651SOL    HW124394   3.153   2.307   3.181
 7651SOL    HW224395   3.020   2.259   3.126
 7652SOL     OW24396   1.955   3.439   3.214
 7652SOL    HW124397   1.950   3.525   3.172
 7652SOL    HW224398   2.049   3.419   3.216
 7653SOL     OW24399   2.249   2.991   2.335
 7653SOL    HW124400   2.266   3.083   2.317
 7653SOL    HW224401   2.331   2.946   2.313
 7654SOL     OW24402   2.402   2.379   2.719
 7654SOL    HW124403   2.420   2.440   2.648
 7654SOL    HW224404   2.459   2.407   2.790
 7655SOL     OW24405   3.146   3.182   2.259
 7655SOL    HW124406   3.196   3.260   2.281
 7655SOL    HW224407   3.055   3.207   2.276
 7656SOL     OW24408   3.157   3.324   3.017
 7656SOL    HW124409   3.221   3.317   3.088
 7656SOL    HW224410   3.084   3.270   3.047
 7657SOL     OW24411   3.453   2.465   2.351
 7657SOL    HW124412   3.406   2.514   2.418
 7657SOL    HW224413   3.505   2.531   2.305
 7658SOL     OW24414   2.213   3.373   3.178
 7658SOL    HW124415   2.206   3.331   3.092
 7658SOL    HW224416   2.306   3.394   3.186
 7659SOL     OW24417   2.277   2.573   3.471
 7659SOL    HW124418   2.294   2.609   3.384
 7659SOL    HW224419   2.364   2.548   3.504
 7660SOL     OW24420   3.457   2.634   3.554
 7660SOL    HW124421   3.372   2.678   3.542
 7660SOL    HW224422   3.515   2.678   3.491
 7661SOL     OW24423   2.853   1.983   3.588
 7661SOL    HW124424   2.915   2.053   3.607
 7661SOL    HW224425   2.908   1.911   3.556
 7662SOL     OW24426   2.378   1.902   3.599
 7662SOL    HW124427   2.321   1.855   3.539
 7662SOL    HW224428   2.329   1.980   3.625
 7663SOL     OW24429   2.462   2.734   2.883
 7663SOL    HW124430   2.498   2.821   2.897
 7663SOL    HW224431   2.407   2.718   2.960
 7664SOL     OW24432   3.202   2.729   2.834
 7664SOL    HW124433   3.109   2.707   2.838
 7664SOL    HW224434   3.247   2.646   2.852
 7665SOL     OW24435   3.077   2.394   2.135
 7665SOL    HW124436   3.073   2.313   2.187
 7665SOL    HW224437   3.025   2.456   2.185
 7666SOL     OW24438   2.156   2.043   3.107
 7666SOL    HW124439   2.129   2.079   3.191
 7666SOL    HW224440   2.134   1.950   3.112
 7667SOL     OW24441   1.894   3.186   3.133
 7667SOL    HW124442   1.923   3.123   3.199
 7667SOL    HW224443   1.917   3.271   3.170
 7668SOL     OW24444   2.572   2.475   2.914
 7668SOL    HW124445   2.655   2.472   2.866
 7668SOL    HW224446   2.544   2.566   2.908
 7669SOL     OW24447   3.600   2.830   3.721
 7669SOL    HW124448   3.545   2.762   3.684
 7669SOL    HW224449   3.556   2.856   3.802
 7670SOL     OW24450   2.162   1.922   2.488
 7670SOL    HW124451   2.144   2.014   2.506
 7670SOL    HW224452   2.176   1.883   2.574
 7671SOL     OW24453   2.898   2.612   2.819
 7671SOL    HW124454   2.883   2.630   2.912
 7671SOL    HW224455   2.867   2.523   2.806
 7672SOL     OW24456   2.774   3.407   3.546
 7672SOL    HW124457   2.790   3.443   3.458
 7672SOL    HW224458   2.847   3.346   3.560
 7673SOL     OW24459   2.211   2.763   3.687
 7673SOL    HW124460   2.289   2.802   3.728
 7673SOL    HW224461   2.246   2.708   3.617
 7674SOL     OW24462   3.378   2.120   1.991
 7674SOL    HW124463   3.324   2.043   2.012
 7674SOL    HW224464   3.338   2.191   2.041
 7675SOL     OW24465   3.143   2.681   1.883
 7675SOL    HW124466   3.183   2.594   1.882
 7675SOL    HW224467   3.175   2.723   1.803
 7676SOL     OW24468   2.932   3.192   2.714
 7676SOL    HW124469   2.940   3.128   2.642
 7676SOL    HW224470   2.976   3.270   2.681
 7677SOL     OW24471   2.187   2.694   2.783
 7677SOL    HW124472   2.282   2.704   2.779
 7677SOL    HW224473   2.173   2.633   2.855
 7678SOL     OW24474   2.145   2.400   2.825
 7678SOL    HW124475   2.140   2.306   2.845
 7678SOL    HW224476   2.232   2.411   2.787
 7679SOL     OW24477   2.999   2.239   3.550
 7679SOL    HW124478   2.953   2.292   3.616
 7679SOL    HW224479   3.087   2.275   3.547
 7680SOL     OW24480   3.023   2.062   3.337
 7680SOL    HW124481   3.017   2.125   3.410
 7680SOL    HW224482   3.069   2.110   3.268
 7681SOL     OW24483   1.823   3.120   2.069
 7681SOL    HW124484   1.751   3.176   2.038
 7681SOL    HW224485   1.830   3.051   2.002
 7682SOL     OW24486   1.956   3.662   2.780
 7682SOL    HW124487   1.966   3.573   2.746
 7682SOL    HW224488   2.044   3.700   2.772
 7683SOL     OW24489   2.829   2.640   3.081
 7683SOL    HW124490   2.883   2.608   3.153
 7683SOL    HW224491   2.773   2.706   3.121
 7684SOL     OW24492   1.907   2.410   2.970
 7684SOL    HW124493   1.984   2.418   2.913
 7684SOL    HW224494   1.943   2.409   3.059
 7685SOL     OW24495   2.074   2.386   3.565
 7685SOL    HW124496   2.156   2.428   3.538
 7685SOL    HW224497   2.005   2.442   3.529
 7686SOL     OW24498   3.230   2.780   3.501
 7686SOL    HW124499   3.237   2.875   3.509
 7686SOL    HW224500   3.236   2.764   3.407
 7687SOL     OW24501   2.684   2.430   2.228
 7687SOL    HW124502   2.693   2.357   2.167
 7687SOL    HW224503   2.607   2.478   2.197
 7688SOL     OW24504   3.514   2.463   3.030
 7688SOL    HW124505   3.496   2.394   3.094
 7688SOL    HW224506   3.603   2.445   2.999
 7689SOL     OW24507   2.085   3.410   3.594
 7689SOL    HW124508   2.062   3.458   3.673
 7689SOL    HW224509   2.104   3.321   3.625
 7690SOL     OW24510   2.550   2.287   3.119
 7690SOL    HW124511   2.497   2.219   3.077
 7690SOL    HW224512   2.548   2.360   3.058
 7691SOL     OW24513   2.822   3.520   3.302
 7691SOL    HW124514   2.779   3.511   3.217
 7691SOL    HW224515   2.872   3.601   3.295
 7692SOL     OW24516   2.317   2.353   2.030
 7692SOL    HW124517   2.380   2.419   2.057
 7692SOL    HW224518   2.233   2.399   2.030
 7693SOL     OW24519   1.987   3.004   3.324
 7693SOL    HW124520   1.997   2.954   3.406
 7693SOL    HW224521   2.013   2.942   3.255
 7694SOL     OW24522   3.181   2.885   3.062
 7694SOL    HW124523   3.218   2.844   2.984
 7694SOL    HW224524   3.110   2.940   3.029
 7695SOL     OW24525   3.144   2.755   2.163
 7695SOL    HW124526   3.101   2.703   2.231
 7695SOL    HW224527   3.131   2.705   2.083
 7696SOL     OW24528   3.062   3.582   2.955
 7696SOL    HW124529   3.139   3.638   2.963
 7696SOL    HW224530   3.095   3.494   2.972
 7697SOL     OW24531   1.898   3.131   2.868
 7697SOL    HW124532   1.921   3.109   2.958
 7697SOL    HW224533   1.900   3.047   2.821
 7698SOL     OW24534   2.549   3.535   3.602
 7698SOL    HW124535   2.561   3.621   3.562
 7698SOL    HW224536   2.634   3.491   3.592
 7699SOL     OW24537   3.563   2.030   2.347
 7699SOL    HW124538   3.636   2.018   2.286
 7699SOL    HW224539   3.554   1.944   2.390
 7700SOL     OW24540   3.256   3.422   2.339
 7700SOL    HW124541   3.314   3.471   2.280
 7700SOL    HW224542   3.198   3.489   2.376
 7701SOL     OW24543   2.007   3.702   3.713
 7701SOL    HW124544   1.962   3.627   3.753
 7701SOL    HW224545   2.059   3.740   3.784
 7702SOL     OW24546   3.140   2.771   2.504
 7702SOL    HW124547   3.213   2.717   2.534
 7702SOL    HW224548   3.181   2.851   2.472
 7703SOL     OW24549   2.660   3.127   3.288
 7703SOL    HW124550   2.637   3.168   3.372
 7703SOL    HW224551   2.589   3.154   3.229
 7704SOL     OW24552   2.498   3.492   2.000
 7704SOL    HW124553   2.518   3.505   1.908
 7704SOL    HW224554   2.454   3.407   2.003
 7705SOL     OW24555   3.709   2.043   2.758
 7705SOL    HW124556   3.736   1.953   2.770
 7705SOL    HW224557   3.613   2.040   2.761
 7706SOL     OW24558   2.119   2.174   2.571
 7706SOL    HW124559   2.034   2.216   2.556
 7706SOL    HW224560   2.130   2.175   2.666
 7707SOL     OW24561   3.071   3.452   1.891
 7707SOL    HW124562   3.053   3.367   1.930
 7707SOL    HW224563   3.002   3.464   1.826
 7708SOL     OW24564   2.705   2.870   3.208
 7708SOL    HW124565   2.718   2.898   3.117
 7708SOL    HW224566   2.689   2.951   3.256
 7709SOL     OW24567   2.779   2.777   2.137
 7709SOL    HW124568   2.845   2.818   2.081
 7709SOL    HW224569   2.828   2.712   2.188
 7710SOL     OW24570   3.336   3.530   1.910
 7710SOL    HW124571   3.247   3.499   1.894
 7710SOL    HW224572   3.383   3.514   1.828
 7711SOL     OW24573   2.218   3.158   3.364
 7711SOL    HW124574   2.222   3.233   3.305
 7711SOL    HW224575   2.137   3.113   3.341
 7712SOL     OW24576   3.480   3.109   3.128
 7712SOL    HW124577   3.570   3.126   3.157
 7712SOL    HW224578   3.430   3.184   3.159
 7713SOL     OW24579   2.935   2.958   2.561
 7713SOL    HW124580   2.862   2.919   2.609
 7713SOL    HW224581   2.995   2.886   2.546
 7714SOL     OW24582   2.887   2.107   2.828
 7714SOL    HW124583   2.897   2.053   2.750
 7714SOL    HW224584   2.877   2.043   2.899
 7715SOL     OW24585   2.384   3.287   2.283
 7715SOL    HW124586   2.467   3.262   2.243
 7715SOL    HW224587   2.401   3.372   2.323
 7716SOL     OW24588   2.084   3.181   2.141
 7716SOL    HW124589   1.989   3.178   2.135
 7716SOL    HW224590   2.102   3.229   2.222
 7717SOL     OW24591   1.974   2.857   3.556
 7717SOL    HW124592   1.898   2.852   3.614
 7717SOL    HW224593   2.049   2.850   3.615
 7718SOL     OW24594   1.951   2.186   1.899
 7718SOL    HW124595   1.866   2.156   1.867
 7718SOL    HW224596   1.971   2.262   1.845
 7719SOL     OW24597   3.286   2.710   3.243
 7719SOL    HW124598   3.241   2.772   3.186
 7719SOL    HW224599   3.378   2.718   3.218
 7720SOL     OW24600   1.928   2.013   2.165
 7720SOL    HW124601   1.917   2.091   2.112
 7720SOL    HW224602   2.017   1.983   2.145
 7721SOL     OW24603   3.008   3.193   1.995
 7721SOL    HW124604   2.918   3.183   1.964
 7721SOL    HW224605   2.999   3.235   2.081
 7722SOL     OW24606   2.512   2.653   3.306
 7722SOL    HW124607   2.556   2.738   3.303
 7722SOL    HW224608   2.443   2.659   3.240
 7723SOL     OW24609   2.567   2.443   3.592
 7723SOL    HW124610   2.606   2.523   3.627
 7723SOL    HW224611   2.605   2.373   3.645
 7724SOL     OW24612   3.301   3.049   3.485
 7724SOL    HW124613   3.285   3.054   3.580
 7724SOL    HW224614   3.396   3.056   3.477
 7725SOL     OW24615   2.227   3.612   3.428
 7725SOL    HW124616   2.139   3.648   3.422
 7725SOL    HW224617   2.215   3.528   3.473
 7726SOL     OW24618   3.536   2.730   3.123
 7726SOL    HW124619   3.532   2.643   3.083
 7726SOL    HW224620   3.517   2.790   3.052
 7727SOL     OW24621   3.078   2.179   2.320
 7727SOL    HW124622   3.138   2.104   2.317
 7727SOL    HW224623   3.104   2.227   2.399
 7728SOL     OW24624   2.452   2.581   2.533
 7728SOL    HW124625   2.492   2.668   2.531
 7728SOL    HW224626   2.384   2.585   2.466
 7729SOL     OW24627   3.627   2.236   3.463
 7729SOL    HW124628   3.590   2.236   3.374
 7729SOL    HW224629   3.568   2.180   3.513
 7730SOL     OW24630   3.603   2.786   3.383
 7730SOL    HW124631   3.588   2.879   3.401
 7730SOL    HW224632   3.588   2.777   3.288
 7731SOL     OW24633   2.739   3.224   1.917
 7731SOL    HW124634   2.694   3.225   2.002
 7731SOL    HW224635   2.727   3.312   1.883
 7732SOL     OW24636   2.546   3.695   2.852
 7732SOL    HW124637   2.534   3.771   2.795
 7732SOL    HW224638   2.619   3.648   2.813
 7733SOL     OW24639   2.738   2.833   2.714
 7733SOL    HW124640   2.788   2.763   2.755
 7733SOL    HW224641   2.697   2.880   2.787
 7734SOL     OW24642   2.975   2.883   1.958
 7734SOL    HW124643   2.928   2.921   1.883
 7734SOL    HW224644   3.022   2.808   1.921
 7735SOL     OW24645   2.087   3.159   3.723
 7735SOL    HW124646   1.991   3.150   3.724
 7735SOL    HW224647   2.110   3.175   3.815
 7736SOL     OW24648   1.977   3.027   2.488
 7736SOL    HW124649   1.997   3.003   2.578
 7736SOL    HW224650   2.011   3.116   2.478
 7737SOL     OW24651   2.513   3.269   3.472
 7737SOL    HW124652   2.452   3.227   3.533
 7737SOL    HW224653   2.534   3.353   3.513
 7738SOL     OW24654   3.712   1.990   3.060
 7738SOL    HW124655   3.657   2.025   3.130
 7738SOL    HW224656   3.714   2.060   2.994
 7739SOL     OW24657   2.282   2.301   2.379
 7739SOL    HW124658   2.320   2.231   2.327
 7739SOL    HW224659   2.239   2.256   2.452
 7740SOL     OW24660   2.190   2.360   3.169
 7740SOL    HW124661   2.270   2.325   3.209
 7740SOL    HW224662   2.216   2.446   3.137
 7741SOL     OW24663   2.714   3.403   2.539
 7741SOL    HW124664   2.766   3.381   2.462
 7741SOL    HW224665   2.641   3.341   2.538
 7742SOL     OW24666   3.292   2.100   2.987
 7742SOL    HW124667   3.371   2.113   3.039
 7742SOL    HW224668   3.221   2.133   3.042
 7743SOL     OW24669   2.862   1.877   3.003
 7743SOL    HW124670   2.818   1.816   2.943
 7743SOL    HW224671   2.952   1.847   3.006
 7744SOL     OW24672   2.605   3.176   2.161
 7744SOL    HW124673   2.599   3.086   2.194
 7744SOL    HW224674   2.685   3.211   2.199
 7745SOL     OW24675   2.481   3.420   3.143
 7745SOL    HW124676   2.478   3.506   3.186
 7745SOL    HW224677   2.571   3.412   3.112
 7746SOL     OW24678   3.218   1.907   2.031
 7746SOL    HW124679   3.233   1.854   1.952
 7746SOL    HW224680   3.136   1.872   2.067
 7747SOL     OW24681   3.159   2.320   2.542
 7747SOL    HW124682   3.109   2.402   2.543
 7747SOL    HW224683   3.146   2.283   2.629
 7748SOL     OW24684   3.431   2.048   2.757
 7748SOL    HW124685   3.387   2.061   2.840
 7748SOL    HW224686   3.419   2.131   2.710
 7749SOL     OW24687   2.746   3.610   2.156
 7749SOL    HW124688   2.741   3.515   2.166
 7749SOL    HW224689   2.733   3.644   2.244
 7750SOL     OW24690   2.073   2.439   3.845
 7750SOL    HW124691   2.010   2.498   3.888
 7750SOL    HW224692   2.075   2.469   3.754
 7751SOL     OW24693   2.069   2.155   4.714
 7751SOL    HW124694   2.107   2.117   4.793
 7751SOL    HW224695   1.980   2.179   4.739
 7752SOL     OW24696   1.860   2.270   4.357
 7752SOL    HW124697   1.777   2.302   4.393
 7752SOL    HW224698   1.879   2.192   4.407
 7753SOL     OW24699   2.412   3.147   4.899
 7753SOL    HW124700   2.361   3.171   4.821
 7753SOL    HW224701   2.457   3.227   4.924
 7754SOL     OW24702   3.439   3.374   4.450
 7754SOL    HW124703   3.391   3.384   4.532
 7754SOL    HW224704   3.371   3.377   4.382
 7755SOL     OW24705   2.981   2.571   4.413
 7755SOL    HW124706   3.039   2.645   4.398
 7755SOL    HW224707   2.941   2.587   4.498
 7756SOL     OW24708   3.535   2.458   3.935
 7756SOL    HW124709   3.562   2.444   3.845
 7756SOL    HW224710   3.607   2.424   3.988
 7757SOL     OW24711   2.604   2.983   4.778
 7757SOL    HW124712   2.533   3.025   4.827
 7757SOL    HW224713   2.647   3.055   4.732
 7758SOL     OW24714   2.731   2.643   5.549
 7758SOL    HW124715   2.787   2.706   5.596
 7758SOL    HW224716   2.738   2.668   5.457
 7759SOL     OW24717   2.564   2.844   4.369
 7759SOL    HW124718   2.636   2.845   4.432
 7759SOL    HW224719   2.495   2.895   4.411
 7760SOL     OW24720   2.538   3.026   5.571
 7760SOL    HW124721   2.610   3.089   5.572
 7760SOL    HW224722   2.474   3.064   5.511
 7761SOL     OW24723   2.180   3.288   4.788
 7761SOL    HW124724   2.103   3.272   4.733
 7761SOL    HW224725   2.237   3.342   4.733
 7762SOL     OW24726   2.284   2.237   5.305
 7762SOL    HW124727   2.373   2.214   5.281
 7762SOL    HW224728   2.230   2.200   5.235
 7763SOL     OW24729   3.452   2.280   4.478
 7763SOL    HW124730   3.401   2.352   4.442
 7763SOL    HW224731   3.542   2.297   4.450
 7764SOL     OW24732   2.082   3.589   4.179
 7764SOL    HW124733   2.103   3.659   4.241
 7764SOL    HW224734   2.163   3.575   4.130
 7765SOL     OW24735   2.972   3.215   5.430
 7765SOL    HW124736   3.038   3.198   5.497
 7765SOL    HW224737   2.979   3.142   5.369
 7766SOL     OW24738   2.066   3.300   4.243
 7766SOL    HW124739   2.081   3.394   4.259
 7766SOL    HW224740   2.044   3.265   4.329
 7767SOL     OW24741   2.081   2.956   4.638
 7767SOL    HW124742   2.111   2.867   4.655
 7767SOL    HW224743   2.141   3.012   4.687
 7768SOL     OW24744   2.467   3.667   5.175
 7768SOL    HW124745   2.378   3.654   5.210
 7768SOL    HW224746   2.483   3.761   5.186
 7769SOL     OW24747   2.445   2.848   3.864
 7769SOL    HW124748   2.495   2.892   3.795
 7769SOL    HW224749   2.487   2.878   3.946
 7770SOL     OW24750   3.449   1.986   5.175
 7770SOL    HW124751   3.515   2.031   5.122
 7770SOL    HW224752   3.435   2.045   5.249
 7771SOL     OW24753   1.990   2.519   4.294
 7771SOL    HW124754   1.953   2.434   4.319
 7771SOL    HW224755   1.977   2.574   4.372
 7772SOL     OW24756   3.712   3.697   4.145
 7772SOL    HW124757   3.672   3.651   4.219
 7772SOL    HW224758   3.802   3.711   4.172
 7773SOL     OW24759   1.896   3.487   3.828
 7773SOL    HW124760   1.868   3.396   3.824
 7773SOL    HW224761   1.874   3.516   3.916
 7774SOL     OW24762   3.571   2.764   4.285
 7774SOL    HW124763   3.608   2.782   4.371
 7774SOL    HW224764   3.579   2.846   4.237
 7775SOL     OW24765   1.998   2.599   5.315
 7775SOL    HW124766   2.088   2.628   5.304
 7775SOL    HW224767   1.946   2.677   5.295
 7776SOL     OW24768   3.076   3.032   5.195
 7776SOL    HW124769   3.094   2.965   5.129
 7776SOL    HW224770   3.142   3.100   5.180
 7777SOL     OW24771   2.644   1.825   4.204
 7777SOL    HW124772   2.711   1.861   4.262
 7777SOL    HW224773   2.567   1.880   4.220
 7778SOL     OW24774   2.037   2.817   5.002
 7778SOL    HW124775   2.124   2.777   4.997
 7778SOL    HW224776   1.998   2.801   4.916
 7779SOL     OW24777   3.417   2.879   3.942
 7779SOL    HW124778   3.375   2.836   4.017
 7779SOL    HW224779   3.476   2.943   3.981
 7780SOL     OW24780   2.203   2.104   5.549
 7780SOL    HW124781   2.237   2.166   5.485
 7780SOL    HW224782   2.120   2.142   5.578
 7781SOL     OW24783   3.339   3.275   4.693
 7781SOL    HW124784   3.266   3.294   4.752
 7781SOL    HW224785   3.320   3.188   4.659
 7782SOL     OW24786   3.537   3.606   4.330
 7782SOL    HW124787   3.493   3.574   4.251
 7782SOL    HW224788   3.514   3.543   4.398
 7783SOL     OW24789   2.452   2.569   3.986
 7783SOL    HW124790   2.470   2.657   3.952
 7783SOL    HW224791   2.389   2.583   4.056
 7784SOL     OW24792   3.135   2.220   4.652
 7784SOL    HW124793   3.051   2.175   4.658
 7784SOL    HW224794   3.193   2.172   4.711
 7785SOL     OW24795   3.445   3.563   4.077
 7785SOL    HW124796   3.531   3.591   4.045
 7785SOL    HW224797   3.393   3.549   3.997
 7786SOL     OW24798   2.608   2.476   5.183
 7786SOL    HW124799   2.609   2.428   5.266
 7786SOL    HW224800   2.587   2.410   5.117
 7787SOL     OW24801   3.248   2.327   5.407
 7787SOL    HW124802   3.289   2.385   5.471
 7787SOL    HW224803   3.304   2.249   5.406
 7788SOL     OW24804   2.796   2.725   5.298
 7788SOL    HW124805   2.854   2.658   5.264
 7788SOL    HW224806   2.767   2.774   5.221
 7789SOL     OW24807   2.850   2.275   4.957
 7789SOL    HW124808   2.757   2.298   4.965
 7789SOL    HW224809   2.859   2.240   4.868
 7790SOL     OW24810   2.912   2.542   4.143
 7790SOL    HW124811   2.932   2.550   4.237
 7790SOL    HW224812   2.826   2.502   4.140
 7791SOL     OW24813   1.937   2.683   4.508
 7791SOL    HW124814   2.022   2.688   4.552
 7791SOL    HW224815   1.887   2.756   4.545
 7792SOL     OW24816   1.952   3.761   5.308
 7792SOL    HW124817   1.967   3.735   5.399
 7792SOL    HW224818   1.923   3.681   5.264
 7793SOL     OW24819   2.719   2.187   3.857
 7793SOL    HW124820   2.782   2.253   3.828
 7793SOL    HW224821   2.750   2.158   3.942
 7794SOL     OW24822   3.533   2.442   5.548
 7794SOL    HW124823   3.524   2.516   5.488
 7794SOL    HW224824   3.580   2.376   5.498
 7795SOL     OW24825   3.278   2.970   4.233
 7795SOL    HW124826   3.365   3.008   4.244
 7795SOL    HW224827   3.222   3.045   4.209
 7796SOL     OW24828   2.400   2.054   4.608
 7796SOL    HW124829   2.414   2.066   4.702
 7796SOL    HW224830   2.424   2.138   4.569
 7797SOL     OW24831   2.855   3.280   4.186
 7797SOL    HW124832   2.835   3.365   4.146
 7797SOL    HW224833   2.875   3.301   4.277
 7798SOL     OW24834   2.267   3.685   4.541
 7798SOL    HW124835   2.288   3.601   4.580
 7798SOL    HW224836   2.328   3.747   4.581
 7799SOL     OW24837   3.613   2.859   4.558
 7799SOL    HW124838   3.632   2.944   4.518
 7799SOL    HW224839   3.597   2.879   4.650
 7800SOL     OW24840   2.194   2.817   3.978
 7800SOL    HW124841   2.285   2.836   3.953
 7800SOL    HW224842   2.154   2.783   3.899
 7801SOL     OW24843   3.351   2.623   4.473
 7801SOL    HW124844   3.347   2.573   4.555
 7801SOL    HW224845   3.430   2.677   4.482
 7802SOL     OW24846   2.318   3.142   5.451
 7802SOL    HW124847   2.288   3.144   5.360
 7802SOL    HW224848   2.238   3.147   5.503
 7803SOL     OW24849   2.915   3.679   3.945
 7803SOL    HW124850   2.894   3.597   3.989
 7803SOL    HW224851   3.010   3.677   3.934
 7804SOL     OW24852   2.039   2.134   5.194
 7804SOL    HW124853   2.006   2.222   5.178
 7804SOL    HW224854   2.017   2.115   5.285
 7805SOL     OW24855   2.320   3.611   4.030
 7805SOL    HW124856   2.367   3.639   4.108
 7805SOL    HW224857   2.386   3.565   3.977
 7806SOL     OW24858   3.255   1.962   4.166
 7806SOL    HW124859   3.262   1.948   4.071
 7806SOL    HW224860   3.345   1.975   4.195
 7807SOL     OW24861   2.137   3.655   4.977
 7807SOL    HW124862   2.199   3.584   4.961
 7807SOL    HW224863   2.077   3.653   4.903
 7808SOL     OW24864   2.791   3.562   4.630
 7808SOL    HW124865   2.875   3.546   4.673
 7808SOL    HW224866   2.783   3.492   4.565
 7809SOL     OW24867   2.260   2.556   4.185
 7809SOL    HW124868   2.264   2.462   4.203
 7809SOL    HW224869   2.172   2.582   4.211
 7810SOL     OW24870   3.388   2.088   5.445
 7810SOL    HW124871   3.392   2.111   5.538
 7810SOL    HW224872   3.370   1.994   5.444
 7811SOL     OW24873   2.487   1.964   3.853
 7811SOL    HW124874   2.579   1.991   3.852
 7811SOL    HW224875   2.468   1.941   3.762
 7812SOL     OW24876   2.626   2.143   5.481
 7812SOL    HW124877   2.709   2.097   5.474
 7812SOL    HW224878   2.585   2.106   5.559
 7813SOL     OW24879   2.718   3.358   4.940
 7813SOL    HW124880   2.711   3.341   4.846
 7813SOL    HW224881   2.804   3.324   4.964
 7814SOL     OW24882   3.197   2.454   5.154
 7814SOL    HW124883   3.243   2.426   5.233
 7814SOL    HW224884   3.240   2.537   5.130
 7815SOL     OW24885   2.686   3.236   4.690
 7815SOL    HW124886   2.767   3.235   4.639
 7815SOL    HW224887   2.617   3.236   4.624
 7816SOL     OW24888   2.784   2.354   4.632
 7816SOL    HW124889   2.756   2.352   4.541
 7816SOL    HW224890   2.823   2.268   4.647
 7817SOL     OW24891   2.385   1.931   4.234
 7817SOL    HW124892   2.381   1.969   4.322
 7817SOL    HW224893   2.381   2.006   4.175
 7818SOL     OW24894   3.227   2.985   3.753
 7818SOL    HW124895   3.283   2.960   3.826
 7818SOL    HW224896   3.160   3.041   3.792
 7819SOL     OW24897   2.169   1.905   3.911
 7819SOL    HW124898   2.221   1.978   3.878
 7819SOL    HW224899   2.232   1.847   3.953
 7820SOL     OW24900   2.806   2.141   4.133
 7820SOL    HW124901   2.881   2.200   4.140
 7820SOL    HW224902   2.826   2.069   4.192
 7821SOL     OW24903   2.935   2.517   5.192
 7821SOL    HW124904   2.902   2.439   5.148
 7821SOL    HW224905   3.031   2.507   5.187
 7822SOL     OW24906   3.057   3.413   4.488
 7822SOL    HW124907   3.102   3.470   4.425
 7822SOL    HW224908   3.072   3.455   4.573
 7823SOL     OW24909   2.293   2.911   4.451
 7823SOL    HW124910   2.218   2.934   4.506
 7823SOL    HW224911   2.339   2.994   4.436
 7824SOL     OW24912   3.119   3.646   4.313
 7824SOL    HW124913   3.157   3.714   4.258
 7824SOL    HW224914   3.056   3.692   4.368
 7825SOL     OW24915   2.883   2.399   3.752
 7825SOL    HW124916   2.841   2.483   3.735
 7825SOL    HW224917   2.955   2.420   3.812
 7826SOL     OW24918   1.959   2.390   5.143
 7826SOL    HW124919   2.033   2.403   5.085
 7826SOL    HW224920   1.956   2.469   5.197
 7827SOL     OW24921   2.424   2.075   4.885
 7827SOL    HW124922   2.469   2.005   4.932
 7827SOL    HW224923   2.333   2.069   4.916
 7828SOL     OW24924   2.703   2.311   4.371
 7828SOL    HW124925   2.680   2.367   4.297
 7828SOL    HW224926   2.735   2.230   4.332
 7829SOL     OW24927   3.320   3.019   4.593
 7829SOL    HW124928   3.251   2.999   4.530
 7829SOL    HW224929   3.395   3.043   4.539
 7830SOL     OW24930   3.319   2.475   4.700
 7830SOL    HW124931   3.289   2.386   4.684
 7830SOL    HW224932   3.385   2.466   4.769
 7831SOL     OW24933   3.795   2.622   4.009
 7831SOL    HW124934   3.817   2.601   4.100
 7831SOL    HW224935   3.705   2.656   4.013
 7832SOL     OW24936   2.341   3.283   3.885
 7832SOL    HW124937   2.259   3.258   3.927
 7832SOL    HW224938   2.360   3.211   3.825
 7833SOL     OW24939   3.519   3.109   4.435
 7833SOL    HW124940   3.599   3.099   4.384
 7833SOL    HW224941   3.496   3.202   4.426
 7834SOL     OW24942   2.375   2.124   4.043
 7834SOL    HW124943   2.425   2.070   3.982
 7834SOL    HW224944   2.358   2.205   3.996
 7835SOL     OW24945   2.913   3.209   5.051
 7835SOL    HW124946   2.860   3.160   5.114
 7835SOL    HW224947   3.003   3.195   5.079
 7836SOL     OW24948   2.967   3.060   4.820
 7836SOL    HW124949   2.918   3.117   4.880
 7836SOL    HW224950   2.954   3.100   4.734
 7837SOL     OW24951   3.498   2.957   4.809
 7837SOL    HW124952   3.526   3.038   4.852
 7837SOL    HW224953   3.428   2.984   4.750
 7838SOL     OW24954   2.776   1.954   5.112
 7838SOL    HW124955   2.799   1.932   5.022
 7838SOL    HW224956   2.855   1.994   5.148
 7839SOL     OW24957   2.825   2.963   5.447
 7839SOL    HW124958   2.746   2.994   5.403
 7839SOL    HW224959   2.861   2.897   5.387
 7840SOL     OW24960   2.573   2.910   4.098
 7840SOL    HW124961   2.565   2.896   4.192
 7840SOL    HW224962   2.649   2.857   4.073
 7841SOL     OW24963   2.271   2.687   4.993
 7841SOL    HW124964   2.349   2.700   5.046
 7841SOL    HW224965   2.255   2.592   4.996
 7842SOL     OW24966   3.122   2.230   5.015
 7842SOL    HW124967   3.162   2.309   5.052
 7842SOL    HW224968   3.035   2.257   4.987
 7843SOL     OW24969   1.949   3.430   5.064
 7843SOL    HW124970   1.926   3.485   4.989
 7843SOL    HW224971   2.044   3.420   5.058
 7844SOL     OW24972   2.128   2.983   4.191
 7844SOL    HW124973   2.193   3.053   4.192
 7844SOL    HW224974   2.167   2.916   4.135
 7845SOL     OW24975   2.410   2.384   4.573
 7845SOL    HW124976   2.421   2.445   4.501
 7845SOL    HW224977   2.478   2.408   4.636
 7846SOL     OW24978   3.121   3.179   4.165
 7846SOL    HW124979   3.174   3.258   4.174
 7846SOL    HW224980   3.031   3.210   4.155
 7847SOL     OW24981   3.140   3.289   4.872
 7847SOL    HW124982   3.185   3.278   4.956
 7847SOL    HW224983   3.090   3.208   4.860
 7848SOL     OW24984   3.428   2.538   4.226
 7848SOL    HW124985   3.383   2.552   4.310
 7848SOL    HW224986   3.497   2.605   4.224
 7849SOL     OW24987   2.217   3.377   5.037
 7849SOL    HW124988   2.205   3.341   4.949
 7849SOL    HW224989   2.311   3.397   5.041
 7850SOL     OW24990   2.286   2.606   5.327
 7850SOL    HW124991   2.343   2.656   5.269
 7850SOL    HW224992   2.334   2.525   5.343
 7851SOL     OW24993   3.455   2.644   5.390
 7851SOL    HW124994   3.370   2.684   5.376
 7851SOL    HW224995   3.515   2.693   5.333
 7852SOL     OW24996   2.857   2.000   5.483
 7852SOL    HW124997   2.916   2.072   5.463
 7852SOL    HW224998   2.902   1.922   5.450
 7853SOL     OW24999   2.360   1.890   5.484
 7853SOL    HW125000   2.315   1.836   5.419
 7853SOL    HW225001   2.303   1.966   5.497
 7854SOL     OW25002   2.461   2.737   4.760
 7854SOL    HW125003   2.510   2.817   4.744
 7854SOL    HW225004   2.400   2.759   4.830
 7855SOL     OW25005   3.185   2.704   4.768
 7855SOL    HW125006   3.160   2.731   4.680
 7855SOL    HW225007   3.239   2.626   4.755
 7856SOL     OW25008   3.092   2.392   3.995
 7856SOL    HW125009   3.090   2.312   4.047
 7856SOL    HW225010   3.036   2.453   4.043
 7857SOL     OW25011   2.158   2.051   4.962
 7857SOL    HW125012   2.122   2.082   5.045
 7857SOL    HW225013   2.141   1.956   4.962
 7858SOL     OW25014   1.855   3.162   5.036
 7858SOL    HW125015   1.911   3.112   5.095
 7858SOL    HW225016   1.890   3.251   5.038
 7859SOL     OW25017   2.572   2.482   4.774
 7859SOL    HW125018   2.657   2.473   4.730
 7859SOL    HW225019   2.550   2.575   4.764
 7860SOL     OW25020   3.565   2.800   5.616
 7860SOL    HW125021   3.563   2.763   5.528
 7860SOL    HW225022   3.497   2.867   5.615
 7861SOL     OW25023   2.073   1.910   4.366
 7861SOL    HW125024   2.088   2.005   4.373
 7861SOL    HW225025   2.128   1.872   4.434
 7862SOL     OW25026   3.423   2.255   4.119
 7862SOL    HW125027   3.457   2.169   4.146
 7862SOL    HW225028   3.474   2.317   4.171
 7863SOL     OW25029   2.877   2.610   4.671
 7863SOL    HW125030   2.884   2.629   4.765
 7863SOL    HW225031   2.862   2.516   4.667
 7864SOL     OW25032   2.842   3.455   5.415
 7864SOL    HW125033   2.822   3.484   5.326
 7864SOL    HW225034   2.885   3.370   5.403
 7865SOL     OW25035   3.793   3.481   5.295
 7865SOL    HW125036   3.748   3.450   5.216
 7865SOL    HW225037   3.851   3.408   5.319
 7866SOL     OW25038   2.210   2.756   5.543
 7866SOL    HW125039   2.289   2.807   5.562
 7866SOL    HW225040   2.235   2.700   5.469
 7867SOL     OW25041   3.380   2.153   3.860
 7867SOL    HW125042   3.322   2.080   3.882
 7867SOL    HW225043   3.406   2.189   3.944
 7868SOL     OW25044   3.162   2.681   3.743
 7868SOL    HW125045   3.240   2.708   3.791
 7868SOL    HW225046   3.176   2.715   3.654
 7869SOL     OW25047   2.932   3.190   4.580
 7869SOL    HW125048   2.940   3.123   4.512
 7869SOL    HW225049   2.982   3.264   4.546
 7870SOL     OW25050   2.173   2.690   4.664
 7870SOL    HW125051   2.261   2.709   4.630
 7870SOL    HW225052   2.181   2.603   4.702
 7871SOL     OW25053   2.200   2.403   4.742
 7871SOL    HW125054   2.150   2.324   4.720
 7871SOL    HW225055   2.277   2.400   4.684
 7872SOL     OW25056   2.994   2.232   5.420
 7872SOL    HW125057   2.950   2.301   5.471
 7872SOL    HW225058   3.084   2.263   5.410
 7873SOL     OW25059   3.015   2.057   5.202
 7873SOL    HW125060   3.012   2.121   5.272
 7873SOL    HW225061   3.064   2.099   5.132
 7874SOL     OW25062   2.361   3.453   4.662
 7874SOL    HW125063   2.440   3.506   4.674
 7874SOL    HW225064   2.390   3.380   4.607
 7875SOL     OW25065   2.840   2.640   4.943
 7875SOL    HW125066   2.925   2.649   4.986
 7875SOL    HW225067   2.780   2.613   5.013
 7876SOL     OW25068   2.079   2.374   5.452
 7876SOL    HW125069   2.151   2.345   5.395
 7876SOL    HW225070   2.040   2.448   5.405
 7877SOL     OW25071   3.197   2.752   5.367
 7877SOL    HW125072   3.233   2.841   5.373
 7877SOL    HW225073   3.206   2.729   5.275
 7878SOL     OW25074   2.668   2.424   4.095
 7878SOL    HW125075   2.657   2.347   4.039
 7878SOL    HW225076   2.602   2.486   4.064
 7879SOL     OW25077   3.499   2.442   4.899
 7879SOL    HW125078   3.505   2.400   4.984
 7879SOL    HW225079   3.586   2.432   4.861
 7880SOL     OW25080   2.098   3.409   5.451
 7880SOL    HW125081   2.124   3.469   5.521
 7880SOL    HW225082   2.100   3.322   5.492
 7881SOL     OW25083   2.524   2.317   4.981
 7881SOL    HW125084   2.501   2.233   4.940
 7881SOL    HW225085   2.539   2.376   4.907
 7882SOL     OW25086   2.786   3.545   5.154
 7882SOL    HW125087   2.758   3.492   5.079
 7882SOL    HW225088   2.843   3.612   5.117
 7883SOL     OW25089   2.323   2.341   3.889
 7883SOL    HW125090   2.378   2.415   3.916
 7883SOL    HW225091   2.234   2.377   3.887
 7884SOL     OW25092   1.961   2.973   5.207
 7884SOL    HW125093   2.021   2.958   5.280
 7884SOL    HW225094   1.997   2.920   5.136
 7885SOL     OW25095   3.131   2.887   4.959
 7885SOL    HW125096   3.165   2.828   4.892
 7885SOL    HW225097   3.082   2.953   4.909
 7886SOL     OW25098   3.202   2.670   4.036
 7886SOL    HW125099   3.182   2.720   4.116
 7886SOL    HW225100   3.134   2.696   3.974
 7887SOL     OW25101   3.602   3.589   4.824
 7887SOL    HW125102   3.673   3.615   4.765
 7887SOL    HW225103   3.603   3.493   4.823
 7888SOL     OW25104   3.050   3.514   4.739
 7888SOL    HW125105   3.090   3.596   4.767
 7888SOL    HW225106   3.093   3.447   4.793
 7889SOL     OW25107   1.903   3.159   4.759
 7889SOL    HW125108   1.892   3.127   4.848
 7889SOL    HW225109   1.922   3.081   4.707
 7890SOL     OW25110   2.564   3.550   5.451
 7890SOL    HW125111   2.494   3.614   5.460
 7890SOL    HW225112   2.602   3.567   5.365
 7891SOL     OW25113   3.520   1.995   4.219
 7891SOL    HW125114   3.590   2.055   4.242
 7891SOL    HW225115   3.541   1.914   4.265
 7892SOL     OW25116   3.259   3.415   4.238
 7892SOL    HW125117   3.327   3.438   4.175
 7892SOL    HW225118   3.207   3.495   4.247
 7893SOL     OW25119   1.974   3.677   5.567
 7893SOL    HW125120   1.935   3.598   5.606
 7893SOL    HW225121   2.034   3.710   5.634
 7894SOL     OW25122   3.150   2.779   4.371
 7894SOL    HW125123   3.224   2.730   4.407
 7894SOL    HW225124   3.191   2.851   4.324
 7895SOL     OW25125   2.664   3.133   5.157
 7895SOL    HW125126   2.625   3.181   5.230
 7895SOL    HW225127   2.659   3.193   5.083
 7896SOL     OW25128   2.515   3.494   3.876
 7896SOL    HW125129   2.534   3.505   3.782
 7896SOL    HW225130   2.469   3.410   3.881
 7897SOL     OW25131   3.563   3.641   5.090
 7897SOL    HW125132   3.551   3.610   5.001
 7897SOL    HW225133   3.596   3.731   5.081
 7898SOL     OW25134   3.682   2.023   4.692
 7898SOL    HW125135   3.718   1.938   4.666
 7898SOL    HW225136   3.598   2.028   4.646
 7899SOL     OW25137   2.116   2.164   4.443
 7899SOL    HW125138   2.077   2.249   4.424
 7899SOL    HW225139   2.120   2.159   4.538
 7900SOL     OW25140   2.690   2.870   5.088
 7900SOL    HW125141   2.728   2.867   5.000
 7900SOL    HW225142   2.682   2.963   5.107
 7901SOL     OW25143   2.772   2.749   4.004
 7901SOL    HW125144   2.833   2.787   3.940
 7901SOL    HW225145   2.827   2.692   4.058
 7902SOL     OW25146   2.205   3.162   5.208
 7902SOL    HW125147   2.216   3.246   5.163
 7902SOL    HW225148   2.204   3.097   5.137
 7903SOL     OW25149   2.932   2.963   4.427
 7903SOL    HW125150   2.863   2.913   4.472
 7903SOL    HW225151   2.997   2.898   4.402
 7904SOL     OW25152   2.879   2.094   4.685
 7904SOL    HW125153   2.869   2.051   4.600
 7904SOL    HW225154   2.879   2.023   4.748
 7905SOL     OW25155   2.462   3.384   4.164
 7905SOL    HW125156   2.536   3.326   4.142
 7905SOL    HW225157   2.392   3.355   4.107
 7906SOL     OW25158   3.595   2.259   5.121
 7906SOL    HW125159   3.666   2.323   5.118
 7906SOL    HW225160   3.621   2.191   5.058
 7907SOL     OW25161   2.091   3.216   3.988
 7907SOL    HW125162   2.000   3.199   3.966
 7907SOL    HW225163   2.089   3.243   4.080
 7908SOL     OW25164   1.986   2.909   5.489
 7908SOL    HW125165   1.907   2.870   5.526
 7908SOL    HW225166   2.056   2.848   5.513
 7909SOL     OW25167   2.541   2.053   5.227
 7909SOL    HW125168   2.622   2.031   5.181
 7909SOL    HW225169   2.570   2.085   5.313
 7910SOL     OW25170   1.951   2.181   3.765
 7910SOL    HW125171   1.858   2.197   3.753
 7910SOL    HW225172   1.991   2.267   3.762
 7911SOL     OW25173   3.279   2.711   5.110
 7911SOL    HW125174   3.231   2.778   5.061
 7911SOL    HW225175   3.369   2.720   5.080
 7912SOL     OW25176   1.942   1.992   4.040
 7912SOL    HW125177   1.906   2.059   3.982
 7912SOL    HW225178   2.028   1.971   4.002
 7913SOL     OW25179   3.022   3.159   3.838
 7913SOL    HW125180   2.941   3.140   3.885
 7913SOL    HW225181   3.057   3.237   3.882
 7914SOL     OW25182   2.480   2.709   5.163
 7914SOL    HW125183   2.542   2.778   5.139
 7914SOL    HW225184   2.534   2.631   5.170
 7915SOL     OW25185   3.387   3.623   4.638
 7915SOL    HW125186   3.397   3.713   4.607
 7915SOL    HW225187   3.443   3.618   4.715
 7916SOL     OW25188   2.550   2.423   5.474
 7916SOL    HW125189   2.617   2.488   5.494
 7916SOL    HW225190   2.596   2.339   5.479
 7917SOL     OW25191   3.323   2.984   5.371
 7917SOL    HW125192   3.291   3.016   5.455
 7917SOL    HW225193   3.346   3.063   5.322
 7918SOL     OW25194   2.222   3.617   5.289
 7918SOL    HW125195   2.157   3.646   5.225
 7918SOL    HW225196   2.196   3.528   5.312
 7919SOL     OW25197   3.520   2.748   4.986
 7919SOL    HW125198   3.547   2.673   4.934
 7919SOL    HW225199   3.519   2.821   4.925
 7920SOL     OW25200   3.088   2.188   4.171
 7920SOL    HW125201   3.143   2.110   4.176
 7920SOL    HW225202   3.105   2.234   4.254
 7921SOL     OW25203   2.440   2.592   4.396
 7921SOL    HW125204   2.488   2.675   4.393
 7921SOL    HW225205   2.381   2.596   4.320
 7922SOL     OW25206   3.621   2.228   5.402
 7922SOL    HW125207   3.634   2.242   5.308
 7922SOL    HW225208   3.546   2.169   5.407
 7923SOL     OW25209   3.606   2.812   5.247
 7923SOL    HW125210   3.682   2.869   5.255
 7923SOL    HW225211   3.590   2.806   5.153
 7924SOL     OW25212   2.680   3.221   3.773
 7924SOL    HW125213   2.673   3.224   3.868
 7924SOL    HW225214   2.731   3.299   3.750
 7925SOL     OW25215   2.547   3.670   4.696
 7925SOL    HW125216   2.554   3.749   4.642
 7925SOL    HW225217   2.634   3.631   4.692
 7926SOL     OW25218   2.742   2.829   4.578
 7926SOL    HW125219   2.790   2.755   4.615
 7926SOL    HW225220   2.710   2.878   4.654
 7927SOL     OW25221   2.932   2.825   3.800
 7927SOL    HW125222   2.933   2.908   3.752
 7927SOL    HW225223   3.014   2.782   3.775
 7928SOL     OW25224   3.695   3.410   4.577
 7928SOL    HW125225   3.626   3.394   4.513
 7928SOL    HW225226   3.664   3.367   4.657
 7929SOL     OW25227   2.081   3.158   5.576
 7929SOL    HW125228   2.034   3.080   5.544
 7929SOL    HW225229   2.072   3.153   5.671
 7930SOL     OW25230   1.947   3.044   4.392
 7930SOL    HW125231   1.997   3.016   4.469
 7930SOL    HW225232   2.005   3.026   4.318
 7931SOL     OW25233   2.547   3.269   5.362
 7931SOL    HW125234   2.460   3.241   5.390
 7931SOL    HW225235   2.550   3.362   5.384
 7932SOL     OW25236   3.669   2.048   4.970
 7932SOL    HW125237   3.763   2.045   4.986
 7932SOL    HW225238   3.661   2.043   4.874
 7933SOL     OW25239   2.266   2.293   4.239
 7933SOL    HW125240   2.316   2.232   4.184
 7933SOL    HW225241   2.248   2.243   4.319
 7934SOL     OW25242   3.571   3.314   4.826
 7934SOL    HW125243   3.485   3.308   4.784
 7934SOL    HW225244   3.551   3.317   4.919
 7935SOL     OW25245   2.207   2.409   5.013
 7935SOL    HW125246   2.294   2.374   5.030
 7935SOL    HW225247   2.198   2.407   4.918
 7936SOL     OW25248   2.665   3.412   4.411
 7936SOL    HW125249   2.654   3.460   4.329
 7936SOL    HW225250   2.589   3.353   4.413
 7937SOL     OW25251   3.291   2.093   4.844
 7937SOL    HW125252   3.354   2.043   4.896
 7937SOL    HW225253   3.239   2.140   4.909
 7938SOL     OW25254   2.864   1.868   4.863
 7938SOL    HW125255   2.817   1.805   4.809
 7938SOL    HW225256   2.955   1.837   4.862
 7939SOL     OW25257   2.644   3.184   4.043
 7939SOL    HW125258   2.623   3.096   4.073
 7939SOL    HW225259   2.719   3.210   4.096
 7940SOL     OW25260   2.478   3.430   5.035
 7940SOL    HW125261   2.489   3.516   5.075
 7940SOL    HW225262   2.562   3.412   4.993
 7941SOL     OW25263   3.227   1.922   3.885
 7941SOL    HW125264   3.267   1.838   3.863
 7941SOL    HW225265   3.135   1.901   3.901
 7942SOL     OW25266   3.130   2.331   4.396
 7942SOL    HW125267   3.082   2.413   4.412
 7942SOL    HW225268   3.142   2.293   4.483
 7943SOL     OW25269   3.420   2.038   4.603
 7943SOL    HW125270   3.377   2.069   4.683
 7943SOL    HW225271   3.428   2.116   4.548
 7944SOL     OW25272   1.882   2.908   4.054
 7944SOL    HW125273   1.971   2.938   4.070
 7944SOL    HW225274   1.883   2.815   4.078
 7945SOL     OW25275   2.733   3.503   4.084
 7945SOL    HW125276   2.660   3.506   4.022
 7945SOL    HW225277   2.726   3.585   4.132
 7946SOL     OW25278   2.107   2.472   5.707
 7946SOL    HW125279   2.034   2.535   5.713
 7946SOL    HW225280   2.110   2.447   5.615
 7947SOL     OW25281   2.090   2.144   6.585
 7947SOL    HW125282   2.120   2.111   6.670
 7947SOL    HW225283   2.000   2.112   6.577
 7948SOL     OW25284   1.871   2.248   6.231
 7948SOL    HW125285   1.863   2.232   6.325
 7948SOL    HW225286   1.951   2.201   6.206
 7949SOL     OW25287   2.405   3.139   6.767
 7949SOL    HW125288   2.338   3.190   6.722
 7949SOL    HW225289   2.454   3.203   6.819
 7950SOL     OW25290   2.975   2.571   6.291
 7950SOL    HW125291   3.027   2.649   6.270
 7950SOL    HW225292   2.939   2.590   6.378
 7951SOL     OW25293   3.594   2.419   5.816
 7951SOL    HW125294   3.577   2.440   5.725
 7951SOL    HW225295   3.671   2.363   5.814
 7952SOL     OW25296   2.583   2.996   6.606
 7952SOL    HW125297   2.533   3.027   6.681
 7952SOL    HW225298   2.633   3.072   6.577
 7953SOL     OW25299   2.707   2.634   7.446
 7953SOL    HW125300   2.756   2.706   7.486
 7953SOL    HW225301   2.716   2.648   7.352
 7954SOL     OW25302   2.541   2.849   6.246
 7954SOL    HW125303   2.611   2.845   6.311
 7954SOL    HW225304   2.479   2.912   6.282
 7955SOL     OW25305   2.565   3.001   7.400
 7955SOL    HW125306   2.613   3.078   7.428
 7955SOL    HW225307   2.483   3.035   7.365
 7956SOL     OW25308   2.197   3.280   6.639
 7956SOL    HW125309   2.117   3.273   6.586
 7956SOL    HW225310   2.253   3.340   6.590
 7957SOL     OW25311   2.289   2.291   7.123
 7957SOL    HW125312   2.379   2.269   7.100
 7957SOL    HW225313   2.239   2.213   7.100
 7958SOL     OW25314   3.477   2.306   6.338
 7958SOL    HW125315   3.414   2.355   6.284
 7958SOL    HW225316   3.513   2.371   6.398
 7959SOL     OW25317   2.094   3.571   6.047
 7959SOL    HW125318   2.107   3.642   6.110
 7959SOL    HW225319   2.174   3.571   5.994
 7960SOL     OW25320   2.985   3.196   7.289
 7960SOL    HW125321   3.042   3.192   7.366
 7960SOL    HW225322   2.953   3.107   7.278
 7961SOL     OW25323   2.060   3.308   6.121
 7961SOL    HW125324   2.074   3.400   6.098
 7961SOL    HW225325   2.050   3.309   6.217
 7962SOL     OW25326   2.107   2.950   6.471
 7962SOL    HW125327   2.135   2.862   6.495
 7962SOL    HW225328   2.130   3.004   6.547
 7963SOL     OW25329   2.456   2.842   5.748
 7963SOL    HW125330   2.486   2.895   5.674
 7963SOL    HW225331   2.488   2.889   5.825
 7964SOL     OW25332   3.448   1.983   7.044
 7964SOL    HW125333   3.511   2.039   7.001
 7964SOL    HW225334   3.447   2.013   7.135
 7965SOL     OW25335   1.963   2.531   6.145
 7965SOL    HW125336   1.952   2.441   6.176
 7965SOL    HW225337   1.964   2.583   6.225
 7966SOL     OW25338   1.877   3.461   5.707
 7966SOL    HW125339   1.881   3.368   5.730
 7966SOL    HW225340   1.873   3.506   5.791
 7967SOL     OW25341   3.525   2.732   6.192
 7967SOL    HW125342   3.617   2.723   6.217
 7967SOL    HW225343   3.521   2.814   6.143
 7968SOL     OW25344   3.491   2.987   6.047
 7968SOL    HW125345   3.579   2.971   6.014
 7968SOL    HW225346   3.502   3.059   6.110
 7969SOL     OW25347   2.009   2.609   7.167
 7969SOL    HW125348   2.104   2.621   7.163
 7969SOL    HW225349   1.976   2.692   7.201
 7970SOL     OW25350   2.472   3.266   6.305
 7970SOL    HW125351   2.436   3.178   6.317
 7970SOL    HW225352   2.447   3.289   6.216
 7971SOL     OW25353   3.119   3.028   7.055
 7971SOL    HW125354   3.156   3.037   6.967
 7971SOL    HW225355   3.187   3.059   7.114
 7972SOL     OW25356   2.690   1.875   6.104
 7972SOL    HW125357   2.730   1.957   6.075
 7972SOL    HW225358   2.596   1.894   6.104
 7973SOL     OW25359   2.046   2.817   6.845
 7973SOL    HW125360   2.138   2.792   6.852
 7973SOL    HW225361   2.008   2.753   6.784
 7974SOL     OW25362   3.374   2.863   5.818
 7974SOL    HW125363   3.444   2.802   5.793
 7974SOL    HW225364   3.413   2.916   5.888
 7975SOL     OW25365   2.983   3.667   7.185
 7975SOL    HW125366   3.041   3.730   7.143
 7975SOL    HW225367   3.021   3.582   7.165
 7976SOL     OW25368   2.209   2.101   7.423
 7976SOL    HW125369   2.253   2.185   7.436
 7976SOL    HW225370   2.116   2.120   7.436
 7977SOL     OW25371   3.149   2.218   6.515
 7977SOL    HW125372   3.059   2.185   6.523
 7977SOL    HW225373   3.198   2.169   6.581
 7978SOL     OW25374   2.598   2.330   7.086
 7978SOL    HW125375   2.652   2.408   7.097
 7978SOL    HW225376   2.570   2.333   6.994
 7979SOL     OW25377   3.263   2.310   7.264
 7979SOL    HW125378   3.263   2.368   7.341
 7979SOL    HW225379   3.354   2.281   7.257
 7980SOL     OW25380   2.826   2.250   6.829
 7980SOL    HW125381   2.853   2.312   6.897
 7980SOL    HW225382   2.814   2.303   6.751
 7981SOL     OW25383   2.928   2.493   6.039
 7981SOL    HW125384   2.927   2.518   6.131
 7981SOL    HW225385   2.835   2.486   6.015
 7982SOL     OW25386   1.941   2.688   6.371
 7982SOL    HW125387   2.028   2.678   6.410
 7982SOL    HW225388   1.900   2.758   6.421
 7983SOL     OW25389   1.928   3.673   7.169
 7983SOL    HW125390   1.937   3.686   7.263
 7983SOL    HW225391   1.957   3.756   7.130
 7984SOL     OW25392   2.776   2.235   5.774
 7984SOL    HW125393   2.822   2.301   5.722
 7984SOL    HW225394   2.797   2.152   5.731
 7985SOL     OW25395   3.529   2.437   7.418
 7985SOL    HW125396   3.507   2.514   7.366
 7985SOL    HW225397   3.608   2.401   7.376
 7986SOL     OW25398   3.218   2.967   6.065
 7986SOL    HW125399   3.313   2.976   6.062
 7986SOL    HW225400   3.185   3.054   6.043
 7987SOL     OW25401   2.407   2.041   6.480
 7987SOL    HW125402   2.413   2.060   6.574
 7987SOL    HW225403   2.437   2.120   6.437
 7988SOL     OW25404   2.857   3.308   6.066
 7988SOL    HW125405   2.881   3.397   6.042
 7988SOL    HW225406   2.846   3.311   6.161
 7989SOL     OW25407   2.213   3.682   6.467
 7989SOL    HW125408   2.269   3.604   6.474
 7989SOL    HW225409   2.273   3.755   6.478
 7990SOL     OW25410   3.617   2.896   6.473
 7990SOL    HW125411   3.656   2.934   6.394
 7990SOL    HW225412   3.628   2.965   6.539
 7991SOL     OW25413   3.062   3.415   7.114
 7991SOL    HW125414   3.071   3.332   7.160
 7991SOL    HW225415   3.129   3.413   7.046
 7992SOL     OW25416   2.181   2.828   5.832
 7992SOL    HW125417   2.272   2.846   5.808
 7992SOL    HW225418   2.154   2.760   5.770
 7993SOL     OW25419   3.323   2.598   6.312
 7993SOL    HW125420   3.334   2.572   6.404
 7993SOL    HW225421   3.401   2.650   6.292
 7994SOL     OW25422   2.323   3.114   7.341
 7994SOL    HW125423   2.302   3.148   7.254
 7994SOL    HW225424   2.239   3.110   7.386
 7995SOL     OW25425   2.909   3.652   5.780
 7995SOL    HW125426   2.936   3.661   5.871
 7995SOL    HW225427   2.984   3.612   5.736
 7996SOL     OW25428   2.063   2.120   7.079
 7996SOL    HW125429   2.006   2.183   7.122
 7996SOL    HW225430   2.040   2.036   7.119
 7997SOL     OW25431   2.334   3.609   5.910
 7997SOL    HW125432   2.368   3.666   5.979
 7997SOL    HW225433   2.401   3.613   5.841
 7998SOL     OW25434   3.258   1.971   6.032
 7998SOL    HW125435   3.249   1.943   5.941
 7998SOL    HW225436   3.344   2.013   6.036
 7999SOL     OW25437   2.056   3.630   6.775
 7999SOL    HW125438   2.118   3.654   6.844
 7999SOL    HW225439   2.103   3.646   6.693
 8000SOL     OW25440   2.781   3.552   6.508
 8000SOL    HW125441   2.861   3.512   6.541
 8000SOL    HW225442   2.761   3.505   6.427
 8001SOL     OW25443   2.254   2.559   6.062
 8001SOL    HW125444   2.263   2.464   6.066
 8001SOL    HW225445   2.159   2.574   6.067
 8002SOL     OW25446   3.422   2.075   7.304
 8002SOL    HW125447   3.446   2.091   7.395
 8002SOL    HW225448   3.327   2.075   7.303
 8003SOL     OW25449   2.508   1.981   5.695
 8003SOL    HW125450   2.577   1.916   5.710
 8003SOL    HW225451   2.457   1.945   5.622
 8004SOL     OW25452   2.714   3.321   6.791
 8004SOL    HW125453   2.719   3.297   6.698
 8004SOL    HW225454   2.802   3.303   6.824
 8005SOL     OW25455   3.213   2.460   7.020
 8005SOL    HW125456   3.258   2.438   7.101
 8005SOL    HW225457   3.239   2.550   7.001
 8006SOL     OW25458   2.698   3.229   6.513
 8006SOL    HW125459   2.786   3.225   6.475
 8006SOL    HW225460   2.642   3.258   6.441
 8007SOL     OW25461   2.790   2.353   6.507
 8007SOL    HW125462   2.764   2.347   6.415
 8007SOL    HW225463   2.831   2.268   6.525
 8008SOL     OW25464   2.419   1.930   6.076
 8008SOL    HW125465   2.339   1.927   6.129
 8008SOL    HW225466   2.410   2.007   6.021
 8009SOL     OW25467   3.228   3.013   5.627
 8009SOL    HW125468   3.274   2.965   5.695
 8009SOL    HW225469   3.164   3.067   5.675
 8010SOL     OW25470   2.147   1.912   5.769
 8010SOL    HW125471   2.204   1.967   5.715
 8010SOL    HW225472   2.206   1.849   5.810
 8011SOL     OW25473   2.810   2.127   6.034
 8011SOL    HW125474   2.791   2.161   5.946
 8011SOL    HW225475   2.904   2.140   6.045
 8012SOL     OW25476   2.942   2.430   6.992
 8012SOL    HW125477   2.889   2.490   7.045
 8012SOL    HW225478   3.033   2.453   7.013
 8013SOL     OW25479   2.327   3.020   6.301
 8013SOL    HW125480   2.264   2.997   6.369
 8013SOL    HW225481   2.281   3.005   6.219
 8014SOL     OW25482   2.895   2.426   5.613
 8014SOL    HW125483   2.843   2.501   5.584
 8014SOL    HW225484   2.983   2.462   5.627
 8015SOL     OW25485   1.946   2.421   6.978
 8015SOL    HW125486   2.037   2.410   6.952
 8015SOL    HW225487   1.948   2.492   7.043
 8016SOL     OW25488   2.422   2.077   6.750
 8016SOL    HW125489   2.475   2.031   6.815
 8016SOL    HW225490   2.333   2.072   6.784
 8017SOL     OW25491   2.715   2.300   6.244
 8017SOL    HW125492   2.675   2.369   6.192
 8017SOL    HW225493   2.750   2.238   6.180
 8018SOL     OW25494   2.879   1.905   6.329
 8018SOL    HW125495   2.818   1.901   6.256
 8018SOL    HW225496   2.852   1.834   6.387
 8019SOL     OW25497   3.244   3.048   6.405
 8019SOL    HW125498   3.272   2.982   6.468
 8019SOL    HW225499   3.325   3.082   6.368
 8020SOL     OW25500   3.315   2.477   6.563
 8020SOL    HW125501   3.270   2.393   6.569
 8020SOL    HW225502   3.381   2.475   6.632
 8021SOL     OW25503   3.698   2.647   5.946
 8021SOL    HW125504   3.751   2.606   6.015
 8021SOL    HW225505   3.680   2.576   5.885
 8022SOL     OW25506   2.338   3.314   5.729
 8022SOL    HW125507   2.270   3.265   5.776
 8022SOL    HW225508   2.372   3.252   5.665
 8023SOL     OW25509   3.537   3.167   6.256
 8023SOL    HW125510   3.618   3.118   6.272
 8023SOL    HW225511   3.562   3.258   6.268
 8024SOL     OW25512   3.306   2.460   5.687
 8024SOL    HW125513   3.328   2.398   5.756
 8024SOL    HW225514   3.385   2.468   5.635
 8025SOL     OW25515   2.395   2.139   5.895
 8025SOL    HW125516   2.438   2.084   5.830
 8025SOL    HW225517   2.380   2.222   5.850
 8026SOL     OW25518   2.945   3.211   6.897
 8026SOL    HW125519   2.946   3.167   6.982
 8026SOL    HW225520   3.033   3.247   6.888
 8027SOL     OW25521   3.472   3.457   7.220
 8027SOL    HW125522   3.448   3.498   7.137
 8027SOL    HW225523   3.550   3.406   7.201
 8028SOL     OW25524   2.947   3.039   6.686
 8028SOL    HW125525   2.944   3.095   6.763
 8028SOL    HW225526   2.980   3.096   6.616
 8029SOL     OW25527   2.791   1.948   6.976
 8029SOL    HW125528   2.810   1.943   6.882
 8029SOL    HW225529   2.864   1.998   7.013
 8030SOL     OW25530   2.838   2.953   7.298
 8030SOL    HW125531   2.743   2.964   7.303
 8030SOL    HW225532   2.852   2.903   7.217
 8031SOL     OW25533   2.593   2.880   5.980
 8031SOL    HW125534   2.566   2.881   6.072
 8031SOL    HW225535   2.689   2.877   5.983
 8032SOL     OW25536   2.281   2.681   6.848
 8032SOL    HW125537   2.354   2.697   6.908
 8032SOL    HW225538   2.256   2.590   6.865
 8033SOL     OW25539   3.138   2.236   6.872
 8033SOL    HW125540   3.181   2.308   6.917
 8033SOL    HW225541   3.048   2.267   6.857
 8034SOL     OW25542   1.954   3.423   6.927
 8034SOL    HW125543   1.941   3.504   6.879
 8034SOL    HW225544   2.045   3.399   6.908
 8035SOL     OW25545   2.182   2.982   6.068
 8035SOL    HW125546   2.195   3.059   6.014
 8035SOL    HW225547   2.187   2.908   6.007
 8036SOL     OW25548   2.402   2.403   6.437
 8036SOL    HW125549   2.426   2.457   6.362
 8036SOL    HW225550   2.466   2.427   6.505
 8037SOL     OW25551   3.115   3.217   5.993
 8037SOL    HW125552   3.167   3.295   6.015
 8037SOL    HW225553   3.030   3.234   6.034
 8038SOL     OW25554   3.406   2.516   6.029
 8038SOL    HW125555   3.433   2.580   6.094
 8038SOL    HW225556   3.475   2.517   5.962
 8039SOL     OW25557   2.211   3.367   6.898
 8039SOL    HW125558   2.208   3.335   6.808
 8039SOL    HW225559   2.297   3.407   6.907
 8040SOL     OW25560   2.285   2.608   7.177
 8040SOL    HW125561   2.349   2.661   7.130
 8040SOL    HW225562   2.326   2.522   7.185
 8041SOL     OW25563   3.434   2.598   7.216
 8041SOL    HW125564   3.370   2.664   7.243
 8041SOL    HW225565   3.506   2.649   7.179
 8042SOL     OW25566   2.852   2.023   7.326
 8042SOL    HW125567   2.932   2.073   7.309
 8042SOL    HW225568   2.874   1.933   7.301
 8043SOL     OW25569   2.360   1.889   7.328
 8043SOL    HW125570   2.294   1.829   7.293
 8043SOL    HW225571   2.311   1.969   7.346
 8044SOL     OW25572   2.412   2.776   6.605
 8044SOL    HW125573   2.476   2.846   6.599
 8044SOL    HW225574   2.398   2.764   6.699
 8045SOL     OW25575   3.208   2.735   6.584
 8045SOL    HW125576   3.122   2.710   6.549
 8045SOL    HW225577   3.256   2.652   6.591
 8046SOL     OW25578   2.160   2.056   6.831
 8046SOL    HW125579   2.124   2.083   6.915
 8046SOL    HW225580   2.147   1.961   6.829
 8047SOL     OW25581   1.879   3.170   6.855
 8047SOL    HW125582   1.918   3.109   6.918
 8047SOL    HW225583   1.904   3.257   6.886
 8048SOL     OW25584   2.580   2.483   6.631
 8048SOL    HW125585   2.660   2.448   6.592
 8048SOL    HW225586   2.598   2.576   6.643
 8049SOL     OW25587   3.538   2.744   7.468
 8049SOL    HW125588   3.609   2.781   7.415
 8049SOL    HW225589   3.504   2.819   7.517
 8050SOL     OW25590   2.175   1.924   6.212
 8050SOL    HW125591   2.152   2.013   6.238
 8050SOL    HW225592   2.186   1.877   6.295
 8051SOL     OW25593   3.417   2.221   5.979
 8051SOL    HW125594   3.484   2.165   6.018
 8051SOL    HW225595   3.456   2.308   5.978
 8052SOL     OW25596   2.883   2.613   6.547
 8052SOL    HW125597   2.874   2.637   6.640
 8052SOL    HW225598   2.865   2.519   6.544
 8053SOL     OW25599   2.789   3.389   7.269
 8053SOL    HW125600   2.802   3.439   7.188
 8053SOL    HW225601   2.868   3.334   7.276
 8054SOL     OW25602   2.211   2.771   7.400
 8054SOL    HW125603   2.285   2.807   7.448
 8054SOL    HW225604   2.252   2.718   7.331
 8055SOL     OW25605   3.365   2.134   5.713
 8055SOL    HW125606   3.314   2.057   5.737
 8055SOL    HW225607   3.404   2.164   5.795
 8056SOL     OW25608   3.136   2.664   5.619
 8056SOL    HW125609   3.204   2.599   5.636
 8056SOL    HW225610   3.159   2.701   5.534
 8057SOL     OW25611   2.947   3.201   6.395
 8057SOL    HW125612   2.934   3.121   6.345
 8057SOL    HW225613   3.041   3.208   6.407
 8058SOL     OW25614   2.172   2.678   6.525
 8058SOL    HW125615   2.261   2.710   6.544
 8058SOL    HW225616   2.173   2.587   6.555
 8059SOL     OW25617   2.176   2.400   6.583
 8059SOL    HW125618   2.154   2.307   6.585
 8059SOL    HW225619   2.258   2.403   6.534
 8060SOL     OW25620   3.004   2.256   7.287
 8060SOL    HW125621   2.985   2.335   7.338
 8060SOL    HW225622   3.097   2.262   7.266
 8061SOL     OW25623   3.023   2.071   7.068
 8061SOL    HW125624   3.012   2.146   7.126
 8061SOL    HW225625   3.074   2.105   6.995
 8062SOL     OW25626   1.855   3.188   5.784
 8062SOL    HW125627   1.781   3.195   5.725
 8062SOL    HW225628   1.856   3.096   5.810
 8063SOL     OW25629   1.942   3.652   6.490
 8063SOL    HW125630   1.927   3.563   6.459
 8063SOL    HW225631   2.036   3.665   6.481
 8064SOL     OW25632   2.356   3.438   6.489
 8064SOL    HW125633   2.422   3.503   6.515
 8064SOL    HW225634   2.402   3.380   6.428
 8065SOL     OW25635   2.827   2.650   6.811
 8065SOL    HW125636   2.911   2.638   6.855
 8065SOL    HW225637   2.767   2.675   6.881
 8066SOL     OW25638   1.912   2.421   6.699
 8066SOL    HW125639   1.996   2.421   6.652
 8066SOL    HW225640   1.937   2.419   6.792
 8067SOL     OW25641   2.071   2.379   7.305
 8067SOL    HW125642   2.149   2.355   7.256
 8067SOL    HW225643   2.037   2.457   7.260
 8068SOL     OW25644   3.248   2.804   7.239
 8068SOL    HW125645   3.281   2.893   7.243
 8068SOL    HW225646   3.237   2.787   7.145
 8069SOL     OW25647   2.629   2.439   5.904
 8069SOL    HW125648   2.687   2.375   5.863
 8069SOL    HW225649   2.545   2.394   5.914
 8070SOL     OW25650   3.506   2.458   6.752
 8070SOL    HW125651   3.500   2.408   6.833
 8070SOL    HW225652   3.595   2.443   6.721
 8071SOL     OW25653   2.056   3.374   7.349
 8071SOL    HW125654   2.133   3.423   7.378
 8071SOL    HW225655   2.067   3.287   7.387
 8072SOL     OW25656   2.474   2.338   6.839
 8072SOL    HW125657   2.479   2.251   6.799
 8072SOL    HW225658   2.515   2.396   6.775
 8073SOL     OW25659   2.761   3.555   7.051
 8073SOL    HW125660   2.783   3.557   6.958
 8073SOL    HW225661   2.823   3.615   7.092
 8074SOL     OW25662   2.365   2.382   5.773
 8074SOL    HW125663   2.399   2.395   5.684
 8074SOL    HW225664   2.276   2.417   5.769
 8075SOL     OW25665   1.958   2.980   7.045
 8075SOL    HW125666   1.986   2.944   7.129
 8075SOL    HW225667   1.995   2.921   6.979
 8076SOL     OW25668   3.177   2.908   6.792
 8076SOL    HW125669   3.204   2.855   6.717
 8076SOL    HW225670   3.104   2.960   6.760
 8077SOL     OW25671   3.143   2.676   5.904
 8077SOL    HW125672   3.184   2.757   5.934
 8077SOL    HW225673   3.149   2.679   5.809
 8078SOL     OW25674   1.919   3.151   6.583
 8078SOL    HW125675   1.916   3.160   6.679
 8078SOL    HW225676   1.919   3.056   6.568
 8079SOL     OW25677   2.553   3.538   7.314
 8079SOL    HW125678   2.550   3.628   7.283
 8079SOL    HW225679   2.643   3.509   7.295
 8080SOL     OW25680   3.591   2.038   6.079
 8080SOL    HW125681   3.653   2.039   6.006
 8080SOL    HW225682   3.605   1.954   6.122
 8081SOL     OW25683   3.243   3.459   6.045
 8081SOL    HW125684   3.324   3.462   5.994
 8081SOL    HW225685   3.247   3.536   6.102
 8082SOL     OW25686   1.966   3.679   7.434
 8082SOL    HW125687   1.930   3.600   7.475
 8082SOL    HW225688   2.035   3.708   7.495
 8083SOL     OW25689   3.128   2.782   6.237
 8083SOL    HW125690   3.206   2.740   6.272
 8083SOL    HW225691   3.161   2.852   6.181
 8084SOL     OW25692   2.649   3.133   7.010
 8084SOL    HW125693   2.605   3.181   7.080
 8084SOL    HW225694   2.693   3.200   6.959
 8085SOL     OW25695   3.694   2.023   6.564
 8085SOL    HW125696   3.733   1.943   6.530
 8085SOL    HW225697   3.619   2.040   6.506
 8086SOL     OW25698   2.127   2.175   6.318
 8086SOL    HW125699   2.144   2.269   6.319
 8086SOL    HW225700   2.130   2.149   6.410
 8087SOL     OW25701   3.029   3.451   5.634
 8087SOL    HW125702   3.123   3.439   5.621
 8087SOL    HW225703   2.996   3.474   5.547
 8088SOL     OW25704   2.646   2.893   6.889
 8088SOL    HW125705   2.728   2.898   6.838
 8088SOL    HW225706   2.644   2.975   6.938
 8089SOL     OW25707   2.813   2.722   5.890
 8089SOL    HW125708   2.852   2.767   5.814
 8089SOL    HW225709   2.888   2.687   5.938
 8090SOL     OW25710   2.183   3.189   7.107
 8090SOL    HW125711   2.229   3.253   7.052
 8090SOL    HW225712   2.184   3.108   7.057
 8091SOL     OW25713   2.904   2.962   6.269
 8091SOL    HW125714   2.850   2.910   6.330
 8091SOL    HW225715   2.986   2.913   6.263
 8092SOL     OW25716   2.896   2.101   6.537
 8092SOL    HW125717   2.893   2.041   6.462
 8092SOL    HW225718   2.883   2.045   6.613
 8093SOL     OW25719   2.422   3.340   6.047
 8093SOL    HW125720   2.489   3.290   6.000
 8093SOL    HW225721   2.393   3.406   5.983
 8094SOL     OW25722   3.574   2.260   6.947
 8094SOL    HW125723   3.648   2.318   6.964
 8094SOL    HW225724   3.611   2.186   6.898
 8095SOL     OW25725   2.115   3.198   5.875
 8095SOL    HW125726   2.023   3.207   5.850
 8095SOL    HW225727   2.121   3.242   5.960
 8096SOL     OW25728   1.970   2.854   7.294
 8096SOL    HW125729   1.900   2.847   7.359
 8096SOL    HW225730   2.051   2.838   7.344
 8097SOL     OW25731   2.541   2.036   7.050
 8097SOL    HW125732   2.630   2.017   7.021
 8097SOL    HW225733   2.550   2.108   7.112
 8098SOL     OW25734   1.923   2.214   5.628
 8098SOL    HW125735   1.856   2.189   5.564
 8098SOL    HW225736   1.974   2.281   5.584
 8099SOL     OW25737   3.274   2.722   6.967
 8099SOL    HW125738   3.232   2.795   6.921
 8099SOL    HW225739   3.366   2.729   6.945
 8100SOL     OW25740   1.919   2.031   5.867
 8100SOL    HW125741   1.910   2.094   5.795
 8100SOL    HW225742   2.005   1.992   5.854
 8101SOL     OW25743   3.026   3.186   5.737
 8101SOL    HW125744   3.032   3.277   5.709
 8101SOL    HW225745   3.062   3.185   5.825
 8102SOL     OW25746   2.482   2.723   7.022
 8102SOL    HW125747   2.523   2.796   6.975
 8102SOL    HW225748   2.553   2.679   7.068
 8103SOL     OW25749   2.593   2.392   7.367
 8103SOL    HW125750   2.615   2.476   7.407
 8103SOL    HW225751   2.583   2.412   7.274
 8104SOL     OW25752   3.346   3.066   7.216
 8104SOL    HW125753   3.337   3.077   7.310
 8104SOL    HW225754   3.423   3.118   7.192
 8105SOL     OW25755   2.268   3.521   7.216
 8105SOL    HW125756   2.278   3.588   7.148
 8105SOL    HW225757   2.355   3.514   7.255
 8106SOL     OW25758   3.523   2.737   6.838
 8106SOL    HW125759   3.526   2.648   6.803
 8106SOL    HW225760   3.578   2.788   6.778
 8107SOL     OW25761   3.080   2.197   6.042
 8107SOL    HW125762   3.150   2.134   6.024
 8107SOL    HW225763   3.105   2.235   6.127
 8108SOL     OW25764   2.468   2.579   6.233
 8108SOL    HW125765   2.498   2.669   6.246
 8108SOL    HW225766   2.394   2.587   6.173
 8109SOL     OW25767   3.669   2.199   7.209
 8109SOL    HW125768   3.604   2.226   7.144
 8109SOL    HW225769   3.619   2.148   7.273
 8110SOL     OW25770   3.604   2.780   7.108
 8110SOL    HW125771   3.653   2.858   7.133
 8110SOL    HW225772   3.584   2.793   7.015
 8111SOL     OW25773   2.754   3.236   5.620
 8111SOL    HW125774   2.803   3.197   5.692
 8111SOL    HW225775   2.808   3.217   5.542
 8112SOL     OW25776   2.523   3.647   6.529
 8112SOL    HW125777   2.523   3.739   6.555
 8112SOL    HW225778   2.614   3.619   6.537
 8113SOL     OW25779   2.734   2.825   6.441
 8113SOL    HW125780   2.789   2.761   6.485
 8113SOL    HW225781   2.701   2.881   6.512
 8114SOL     OW25782   2.910   2.818   5.663
 8114SOL    HW125783   2.899   2.889   5.599
 8114SOL    HW225784   2.999   2.785   5.647
 8115SOL     OW25785   2.086   3.125   7.469
 8115SOL    HW125786   2.009   3.068   7.471
 8115SOL    HW225787   2.104   3.144   7.561
 8116SOL     OW25788   1.942   3.040   6.263
 8116SOL    HW125789   2.002   3.014   6.332
 8116SOL    HW225790   1.997   3.056   6.187
 8117SOL     OW25791   2.501   3.280   7.191
 8117SOL    HW125792   2.486   3.243   7.278
 8117SOL    HW225793   2.543   3.364   7.207
 8118SOL     OW25794   3.666   2.028   6.835
 8118SOL    HW125795   3.740   1.976   6.865
 8118SOL    HW225796   3.678   2.035   6.741
 8119SOL     OW25797   2.268   2.288   6.096
 8119SOL    HW125798   2.312   2.236   6.029
 8119SOL    HW225799   2.267   2.232   6.173
 8120SOL     OW25800   2.195   2.414   6.874
 8120SOL    HW125801   2.264   2.379   6.931
 8120SOL    HW225802   2.226   2.397   6.785
 8121SOL     OW25803   2.691   3.452   6.265
 8121SOL    HW125804   2.674   3.527   6.208
 8121SOL    HW225805   2.610   3.402   6.264
 8122SOL     OW25806   3.302   2.090   6.712
 8122SOL    HW125807   3.374   2.060   6.767
 8122SOL    HW225808   3.244   2.138   6.771
 8123SOL     OW25809   2.867   1.877   6.713
 8123SOL    HW125810   2.814   1.817   6.661
 8123SOL    HW225811   2.955   1.839   6.711
 8124SOL     OW25812   2.634   3.203   5.945
 8124SOL    HW125813   2.638   3.108   5.932
 8124SOL    HW225814   2.719   3.225   5.984
 8125SOL     OW25815   2.473   3.429   6.864
 8125SOL    HW125816   2.485   3.517   6.900
 8125SOL    HW225817   2.561   3.400   6.843
 8126SOL     OW25818   3.221   1.903   5.770
 8126SOL    HW125819   3.265   1.835   5.719
 8126SOL    HW225820   3.132   1.871   5.781
 8127SOL     OW25821   3.140   2.345   6.261
 8127SOL    HW125822   3.094   2.423   6.290
 8127SOL    HW225823   3.160   2.297   6.342
 8128SOL     OW25824   3.430   2.056   6.459
 8128SOL    HW125825   3.388   2.091   6.538
 8128SOL    HW225826   3.443   2.133   6.403
 8129SOL     OW25827   1.899   2.931   5.890
 8129SOL    HW125828   1.994   2.932   5.880
 8129SOL    HW225829   1.879   2.839   5.906
 8130SOL     OW25830   2.661   3.499   5.852
 8130SOL    HW125831   2.648   3.422   5.907
 8130SOL    HW225832   2.672   3.572   5.914
 8131SOL     OW25833   2.079   2.472   7.576
 8131SOL    HW125834   1.988   2.491   7.601
 8131SOL    HW225835   2.077   2.466   7.481
 8132SOL     OW25836   2.077   2.159   8.441
 8132SOL    HW125837   2.117   2.119   8.518
 8132SOL    HW225838   1.996   2.110   8.428
 8133SOL     OW25839   2.412   3.166   8.634
 8133SOL    HW125840   2.340   3.183   8.573
 8133SOL    HW225841   2.444   3.253   8.658
 8134SOL     OW25842   2.988   2.551   8.148
 8134SOL    HW125843   3.036   2.633   8.136
 8134SOL    HW225844   2.950   2.558   8.235
 8135SOL     OW25845   3.615   2.447   7.685
 8135SOL    HW125846   3.579   2.478   7.602
 8135SOL    HW225847   3.688   2.391   7.660
 8136SOL     OW25848   2.590   3.000   8.493
 8136SOL    HW125849   2.528   3.042   8.554
 8136SOL    HW225850   2.634   3.073   8.450
 8137SOL     OW25851   2.723   2.638   9.268
 8137SOL    HW125852   2.749   2.708   9.329
 8137SOL    HW225853   2.748   2.672   9.181
 8138SOL     OW25854   2.538   2.847   8.097
 8138SOL    HW125855   2.608   2.841   8.162
 8138SOL    HW225856   2.476   2.910   8.135
 8139SOL     OW25857   2.567   3.011   9.276
 8139SOL    HW125858   2.618   3.086   9.305
 8139SOL    HW225859   2.497   3.048   9.223
 8140SOL     OW25860   2.185   3.301   8.506
 8140SOL    HW125861   2.105   3.291   8.455
 8140SOL    HW225862   2.245   3.348   8.449
 8141SOL     OW25863   3.337   3.373   8.793
 8141SOL    HW125864   3.368   3.449   8.745
 8141SOL    HW225865   3.351   3.395   8.885
 8142SOL     OW25866   2.291   2.211   9.059
 8142SOL    HW125867   2.375   2.185   9.021
 8142SOL    HW225868   2.225   2.174   9.000
 8143SOL     OW25869   3.471   2.313   8.187
 8143SOL    HW125870   3.432   2.353   8.110
 8143SOL    HW225871   3.458   2.377   8.257
 8144SOL     OW25872   2.092   3.578   7.915
 8144SOL    HW125873   2.112   3.653   7.970
 8144SOL    HW225874   2.170   3.567   7.860
 8145SOL     OW25875   3.002   3.200   9.151
 8145SOL    HW125876   3.079   3.174   9.203
 8145SOL    HW225877   2.951   3.119   9.142
 8146SOL     OW25878   2.059   3.308   7.984
 8146SOL    HW125879   2.071   3.402   7.972
 8146SOL    HW225880   2.021   3.300   8.071
 8147SOL     OW25881   2.103   2.950   8.325
 8147SOL    HW125882   2.122   2.864   8.362
 8147SOL    HW225883   2.046   2.992   8.390
 8148SOL     OW25884   2.438   3.679   8.846
 8148SOL    HW125885   2.370   3.659   8.910
 8148SOL    HW225886   2.482   3.756   8.881
 8149SOL     OW25887   2.425   2.859   7.588
 8149SOL    HW125888   2.481   2.895   7.519
 8149SOL    HW225889   2.470   2.881   7.670
 8150SOL     OW25890   3.436   1.978   8.913
 8150SOL    HW125891   3.471   2.064   8.890
 8150SOL    HW225892   3.404   1.988   9.003
 8151SOL     OW25893   1.980   2.543   8.003
 8151SOL    HW125894   1.984   2.453   8.036
 8151SOL    HW225895   1.970   2.597   8.081
 8152SOL     OW25896   3.706   3.620   7.793
 8152SOL    HW125897   3.782   3.589   7.842
 8152SOL    HW225898   3.729   3.710   7.767
 8153SOL     OW25899   1.847   3.468   7.567
 8153SOL    HW125900   1.864   3.376   7.586
 8153SOL    HW225901   1.853   3.511   7.653
 8154SOL     OW25902   3.527   2.762   8.045
 8154SOL    HW125903   3.621   2.748   8.032
 8154SOL    HW225904   3.508   2.844   7.999
 8155SOL     OW25905   3.512   2.994   7.899
 8155SOL    HW125906   3.599   2.999   7.858
 8155SOL    HW225907   3.504   3.076   7.947
 8156SOL     OW25908   2.000   2.634   9.029
 8156SOL    HW125909   2.094   2.647   9.019
 8156SOL    HW225910   1.960   2.696   8.968
 8157SOL     OW25911   2.466   3.253   8.191
 8157SOL    HW125912   2.426   3.166   8.193
 8157SOL    HW225913   2.456   3.282   8.101
 8158SOL     OW25914   3.139   3.094   8.880
 8158SOL    HW125915   3.161   3.030   8.813
 8158SOL    HW225916   3.211   3.091   8.942
 8159SOL     OW25917   2.678   1.862   7.959
 8159SOL    HW125918   2.725   1.942   7.936
 8159SOL    HW225919   2.586   1.888   7.964
 8160SOL     OW25920   2.033   2.809   8.739
 8160SOL    HW125921   2.119   2.768   8.733
 8160SOL    HW225922   2.003   2.815   8.648
 8161SOL     OW25923   3.376   2.883   7.680
 8161SOL    HW125924   3.374   2.796   7.719
 8161SOL    HW225925   3.421   2.937   7.745
 8162SOL     OW25926   3.012   3.664   9.035
 8162SOL    HW125927   3.061   3.707   8.965
 8162SOL    HW225928   3.030   3.570   9.022
 8163SOL     OW25929   2.470   2.574   7.714
 8163SOL    HW125930   2.506   2.648   7.665
 8163SOL    HW225931   2.410   2.614   7.777
 8164SOL     OW25932   3.162   2.224   8.392
 8164SOL    HW125933   3.071   2.193   8.398
 8164SOL    HW225934   3.209   2.172   8.456
 8165SOL     OW25935   3.478   3.461   7.736
 8165SOL    HW125936   3.553   3.516   7.760
 8165SOL    HW225937   3.452   3.492   7.649
 8166SOL     OW25938   2.642   2.455   8.906
 8166SOL    HW125939   2.605   2.429   8.991
 8166SOL    HW225940   2.594   2.403   8.842
 8167SOL     OW25941   3.253   2.312   9.124
 8167SOL    HW125942   3.265   2.364   9.204
 8167SOL    HW225943   3.293   2.228   9.144
 8168SOL     OW25944   2.809   2.740   9.032
 8168SOL    HW125945   2.862   2.664   9.008
 8168SOL    HW225946   2.768   2.768   8.950
 8169SOL     OW25947   2.857   2.265   8.669
 8169SOL    HW125948   2.814   2.350   8.657
 8169SOL    HW225949   2.851   2.224   8.582
 8170SOL     OW25950   2.880   2.576   7.897
 8170SOL    HW125951   2.918   2.565   7.983
 8170SOL    HW225952   2.821   2.502   7.886
 8171SOL     OW25953   1.943   2.673   8.235
 8171SOL    HW125954   2.025   2.681   8.284
 8171SOL    HW225955   1.889   2.746   8.267
 8172SOL     OW25956   1.982   3.735   9.036
 8172SOL    HW125957   1.972   3.723   9.131
 8172SOL    HW225958   1.903   3.697   8.998
 8173SOL     OW25959   2.798   2.200   7.609
 8173SOL    HW125960   2.862   2.270   7.626
 8173SOL    HW225961   2.836   2.123   7.651
 8174SOL     OW25962   3.570   2.441   9.276
 8174SOL    HW125963   3.535   2.512   9.223
 8174SOL    HW225964   3.588   2.370   9.214
 8175SOL     OW25965   3.227   2.994   7.986
 8175SOL    HW125966   3.312   3.037   7.996
 8175SOL    HW225967   3.177   3.053   7.929
 8176SOL     OW25968   2.361   2.082   8.290
 8176SOL    HW125969   2.403   2.020   8.350
 8176SOL    HW225970   2.408   2.164   8.303
 8177SOL     OW25971   2.852   3.305   7.921
 8177SOL    HW125972   2.805   3.377   7.879
 8177SOL    HW225973   2.908   3.347   7.986
 8178SOL     OW25974   2.217   3.682   8.318
 8178SOL    HW125975   2.264   3.599   8.323
 8178SOL    HW225976   2.285   3.749   8.330
 8179SOL     OW25977   3.625   2.837   8.329
 8179SOL    HW125978   3.637   2.897   8.255
 8179SOL    HW225979   3.556   2.878   8.381
 8180SOL     OW25980   3.062   3.406   8.959
 8180SOL    HW125981   3.066   3.325   9.010
 8180SOL    HW225982   3.092   3.382   8.872
 8181SOL     OW25983   2.175   2.830   7.705
 8181SOL    HW125984   2.260   2.853   7.667
 8181SOL    HW225985   2.153   2.747   7.664
 8182SOL     OW25986   3.340   2.609   8.165
 8182SOL    HW125987   3.357   2.585   8.256
 8182SOL    HW225988   3.413   2.667   8.142
 8183SOL     OW25989   2.325   3.133   9.186
 8183SOL    HW125990   2.298   3.140   9.094
 8183SOL    HW225991   2.243   3.126   9.234
 8184SOL     OW25992   2.061   2.118   8.940
 8184SOL    HW125993   1.982   2.170   8.929
 8184SOL    HW225994   2.029   2.033   8.970
 8185SOL     OW25995   3.487   3.224   7.532
 8185SOL    HW125996   3.453   3.313   7.523
 8185SOL    HW225997   3.414   3.168   7.507
 8186SOL     OW25998   2.328   3.592   7.768
 8186SOL    HW125999   2.377   3.651   7.826
 8186SOL    HW226000   2.392   3.562   7.704
 8187SOL     OW26001   3.297   1.938   7.894
 8187SOL    HW126002   3.262   1.928   7.806
 8187SOL    HW226003   3.338   2.025   7.895
 8188SOL     OW26004   2.123   3.651   8.666
 8188SOL    HW126005   2.186   3.585   8.694
 8188SOL    HW226006   2.106   3.631   8.574
 8189SOL     OW26007   2.798   3.554   8.362
 8189SOL    HW126008   2.874   3.498   8.378
 8189SOL    HW226009   2.760   3.519   8.281
 8190SOL     OW26010   2.250   2.551   7.913
 8190SOL    HW126011   2.257   2.456   7.921
 8190SOL    HW226012   2.158   2.570   7.931
 8191SOL     OW26013   2.474   1.960   7.578
 8191SOL    HW126014   2.569   1.964   7.572
 8191SOL    HW226015   2.445   1.935   7.490
 8192SOL     OW26016   2.630   2.101   9.226
 8192SOL    HW126017   2.715   2.057   9.217
 8192SOL    HW226018   2.645   2.170   9.290
 8193SOL     OW26019   2.729   3.367   8.648
 8193SOL    HW126020   2.722   3.338   8.557
 8193SOL    HW226021   2.806   3.321   8.682
 8194SOL     OW26022   3.187   2.451   8.881
 8194SOL    HW126023   3.232   2.417   8.958
 8194SOL    HW226024   3.228   2.536   8.864
 8195SOL     OW26025   2.684   3.244   8.390
 8195SOL    HW126026   2.769   3.233   8.349
 8195SOL    HW226027   2.623   3.259   8.318
 8196SOL     OW26028   2.717   2.311   8.354
 8196SOL    HW126029   2.703   2.309   8.259
 8196SOL    HW226030   2.791   2.371   8.366
 8197SOL     OW26031   2.408   1.923   7.944
 8197SOL    HW126032   2.341   1.933   8.011
 8197SOL    HW226033   2.402   2.004   7.893
 8198SOL     OW26034   3.280   3.048   7.483
 8198SOL    HW126035   3.312   2.987   7.550
 8198SOL    HW226036   3.197   3.081   7.517
 8199SOL     OW26037   2.155   1.905   7.633
 8199SOL    HW126038   2.205   1.973   7.589
 8199SOL    HW226039   2.220   1.852   7.678
 8200SOL     OW26040   2.803   2.104   7.896
 8200SOL    HW126041   2.770   2.183   7.854
 8200SOL    HW226042   2.897   2.119   7.904
 8201SOL     OW26043   2.931   2.503   8.976
 8201SOL    HW126044   2.866   2.480   8.909
 8201SOL    HW226045   3.016   2.484   8.935
 8202SOL     OW26046   2.327   3.014   8.176
 8202SOL    HW126047   2.257   2.995   8.238
 8202SOL    HW226048   2.287   3.003   8.090
 8203SOL     OW26049   2.897   2.430   7.465
 8203SOL    HW126050   2.853   2.515   7.459
 8203SOL    HW226051   2.957   2.439   7.539
 8204SOL     OW26052   1.968   2.411   8.838
 8204SOL    HW126053   2.059   2.405   8.808
 8204SOL    HW226054   1.966   2.491   8.891
 8205SOL     OW26055   2.429   2.087   8.648
 8205SOL    HW126056   2.460   2.009   8.602
 8205SOL    HW226057   2.334   2.077   8.652
 8206SOL     OW26058   2.683   2.300   8.081
 8206SOL    HW126059   2.668   2.356   8.005
 8206SOL    HW226060   2.745   2.234   8.051
 8207SOL     OW26061   2.886   1.907   8.198
 8207SOL    HW126062   2.810   1.912   8.139
 8207SOL    HW226063   2.863   1.838   8.260
 8208SOL     OW26064   3.316   3.032   8.304
 8208SOL    HW126065   3.260   2.982   8.245
 8208SOL    HW226066   3.368   3.087   8.245
 8209SOL     OW26067   3.339   2.469   8.412
 8209SOL    HW126068   3.274   2.399   8.420
 8209SOL    HW226069   3.392   2.461   8.491
 8210SOL     OW26070   3.717   2.668   7.827
 8210SOL    HW126071   3.785   2.622   7.876
 8210SOL    HW226072   3.687   2.604   7.762
 8211SOL     OW26073   2.342   3.294   7.590
 8211SOL    HW126074   2.277   3.253   7.647
 8211SOL    HW226075   2.375   3.222   7.536
 8212SOL     OW26076   3.266   2.445   7.504
 8212SOL    HW126077   3.253   2.455   7.598
 8212SOL    HW226078   3.361   2.444   7.493
 8213SOL     OW26079   2.376   2.130   7.772
 8213SOL    HW126080   2.417   2.076   7.705
 8213SOL    HW226081   2.358   2.213   7.728
 8214SOL     OW26082   3.618   3.087   9.046
 8214SOL    HW126083   3.706   3.053   9.028
 8214SOL    HW226084   3.630   3.182   9.051
 8215SOL     OW26085   2.908   3.201   8.776
 8215SOL    HW126086   2.839   3.171   8.834
 8215SOL    HW226087   2.989   3.170   8.816
 8216SOL     OW26088   3.403   3.461   9.046
 8216SOL    HW126089   3.434   3.550   9.029
 8216SOL    HW226090   3.381   3.460   9.139
 8217SOL     OW26091   3.003   3.080   8.549
 8217SOL    HW126092   2.951   3.128   8.612
 8217SOL    HW226093   2.970   3.108   8.463
 8218SOL     OW26094   3.436   2.927   8.534
 8218SOL    HW126095   3.427   2.992   8.604
 8218SOL    HW226096   3.384   2.962   8.462
 8219SOL     OW26097   2.773   1.943   8.847
 8219SOL    HW126098   2.787   1.928   8.753
 8219SOL    HW226099   2.853   1.987   8.876
 8220SOL     OW26100   2.844   2.972   9.172
 8220SOL    HW126101   2.751   2.991   9.184
 8220SOL    HW226102   2.845   2.898   9.111
 8221SOL     OW26103   2.555   2.905   7.825
 8221SOL    HW126104   2.550   2.889   7.919
 8221SOL    HW226105   2.634   2.859   7.797
 8222SOL     OW26106   2.266   2.680   8.731
 8222SOL    HW126107   2.350   2.687   8.777
 8222SOL    HW226108   2.257   2.586   8.714
 8223SOL     OW26109   3.120   2.223   8.737
 8223SOL    HW126110   3.150   2.306   8.775
 8223SOL    HW226111   3.032   2.241   8.706
 8224SOL     OW26112   1.947   3.439   8.809
 8224SOL    HW126113   1.914   3.505   8.749
 8224SOL    HW226114   2.041   3.436   8.792
 8225SOL     OW26115   2.192   2.985   7.937
 8225SOL    HW126116   2.220   3.062   7.886
 8225SOL    HW226117   2.193   2.913   7.874
 8226SOL     OW26118   2.408   2.394   8.302
 8226SOL    HW126119   2.421   2.460   8.235
 8226SOL    HW226120   2.484   2.401   8.360
 8227SOL     OW26121   3.090   3.183   7.845
 8227SOL    HW126122   3.150   3.257   7.846
 8227SOL    HW226123   3.005   3.221   7.866
 8228SOL     OW26124   3.130   3.333   8.602
 8228SOL    HW126125   3.215   3.332   8.647
 8228SOL    HW226126   3.118   3.243   8.572
 8229SOL     OW26127   3.452   2.451   7.931
 8229SOL    HW126128   3.419   2.530   7.975
 8229SOL    HW226129   3.505   2.484   7.859
 8230SOL     OW26130   2.217   3.392   8.758
 8230SOL    HW126131   2.199   3.353   8.673
 8230SOL    HW226132   2.312   3.405   8.759
 8231SOL     OW26133   2.288   2.600   9.049
 8231SOL    HW126134   2.348   2.641   8.986
 8231SOL    HW226135   2.333   2.520   9.077
 8232SOL     OW26136   3.468   2.649   9.137
 8232SOL    HW126137   3.383   2.691   9.125
 8232SOL    HW226138   3.523   2.685   9.068
 8233SOL     OW26139   2.876   1.996   9.227
 8233SOL    HW126140   2.927   2.071   9.197
 8233SOL    HW226141   2.918   1.920   9.185
 8234SOL     OW26142   2.369   1.904   9.184
 8234SOL    HW126143   2.307   1.854   9.130
 8234SOL    HW226144   2.412   1.962   9.123
 8235SOL     OW26145   2.420   2.766   8.474
 8235SOL    HW126146   2.483   2.834   8.449
 8235SOL    HW226147   2.410   2.777   8.568
 8236SOL     OW26148   3.179   2.692   8.502
 8236SOL    HW126149   3.093   2.668   8.466
 8236SOL    HW226150   3.240   2.630   8.460
 8237SOL     OW26151   3.011   2.377   7.714
 8237SOL    HW126152   3.048   2.320   7.782
 8237SOL    HW226153   3.043   2.464   7.736
 8238SOL     OW26154   2.151   2.054   8.682
 8238SOL    HW126155   2.127   2.080   8.770
 8238SOL    HW226156   2.144   1.958   8.683
 8239SOL     OW26157   1.859   3.187   8.744
 8239SOL    HW126158   1.908   3.127   8.801
 8239SOL    HW226159   1.895   3.273   8.763
 8240SOL     OW26160   2.567   2.494   8.518
 8240SOL    HW126161   2.652   2.468   8.482
 8240SOL    HW226162   2.558   2.586   8.495
 8241SOL     OW26163   3.594   2.806   9.336
 8241SOL    HW126164   3.563   2.754   9.262
 8241SOL    HW226165   3.514   2.832   9.382
 8242SOL     OW26166   2.144   1.921   8.067
 8242SOL    HW126167   2.132   2.015   8.083
 8242SOL    HW226168   2.162   1.884   8.153
 8243SOL     OW26169   3.403   2.189   7.860
 8243SOL    HW126170   3.495   2.167   7.877
 8243SOL    HW226171   3.398   2.284   7.875
 8244SOL     OW26172   2.821   3.402   9.152
 8244SOL    HW126173   2.807   3.446   9.068
 8244SOL    HW226174   2.885   3.333   9.132
 8245SOL     OW26175   2.218   2.789   9.238
 8245SOL    HW126176   2.294   2.810   9.293
 8245SOL    HW226177   2.253   2.728   9.173
 8246SOL     OW26178   3.370   2.126   7.568
 8246SOL    HW126179   3.307   2.070   7.613
 8246SOL    HW226180   3.414   2.174   7.639
 8247SOL     OW26181   3.151   2.696   7.468
 8247SOL    HW126182   3.198   2.613   7.462
 8247SOL    HW226183   3.184   2.748   7.395
 8248SOL     OW26184   2.937   3.195   8.298
 8248SOL    HW126185   2.924   3.115   8.247
 8248SOL    HW226186   3.022   3.228   8.268
 8249SOL     OW26187   2.167   2.684   8.403
 8249SOL    HW126188   2.257   2.714   8.411
 8249SOL    HW226189   2.170   2.590   8.419
 8250SOL     OW26190   2.186   2.403   8.457
 8250SOL    HW126191   2.155   2.313   8.444
 8250SOL    HW226192   2.267   2.407   8.406
 8251SOL     OW26193   2.994   2.228   9.142
 8251SOL    HW126194   2.948   2.309   9.167
 8251SOL    HW226195   3.085   2.255   9.131
 8252SOL     OW26196   3.018   2.047   8.932
 8252SOL    HW126197   3.010   2.116   8.998
 8252SOL    HW226198   3.061   2.090   8.858
 8253SOL     OW26199   1.855   3.191   7.649
 8253SOL    HW126200   1.772   3.200   7.602
 8253SOL    HW226201   1.852   3.101   7.683
 8254SOL     OW26202   1.957   3.647   8.396
 8254SOL    HW126203   1.931   3.560   8.368
 8254SOL    HW226204   2.044   3.660   8.358
 8255SOL     OW26205   2.361   3.445   8.358
 8255SOL    HW126206   2.433   3.504   8.380
 8255SOL    HW226207   2.399   3.382   8.296
 8256SOL     OW26208   2.854   2.696   8.722
 8256SOL    HW126209   2.949   2.705   8.733
 8256SOL    HW226210   2.844   2.658   8.634
 8257SOL     OW26211   1.902   2.402   8.563
 8257SOL    HW126212   1.978   2.407   8.504
 8257SOL    HW226213   1.939   2.406   8.651
 8258SOL     OW26214   2.072   2.388   9.133
 8258SOL    HW126215   2.109   2.354   9.052
 8258SOL    HW226216   2.032   2.471   9.108
 8259SOL     OW26217   3.238   2.799   9.104
 8259SOL    HW126218   3.264   2.891   9.097
 8259SOL    HW226219   3.235   2.768   9.013
 8260SOL     OW26220   2.666   2.395   7.813
 8260SOL    HW126221   2.684   2.361   7.725
 8260SOL    HW226222   2.607   2.469   7.798
 8261SOL     OW26223   3.505   2.444   8.630
 8261SOL    HW126224   3.501   2.390   8.709
 8261SOL    HW226225   3.593   2.428   8.596
 8262SOL     OW26226   2.072   3.405   9.215
 8262SOL    HW126227   2.155   3.451   9.229
 8262SOL    HW226228   2.092   3.314   9.235
 8263SOL     OW26229   2.479   2.340   8.723
 8263SOL    HW126230   2.478   2.249   8.693
 8263SOL    HW226231   2.514   2.389   8.648
 8264SOL     OW26232   2.747   3.542   8.927
 8264SOL    HW126233   2.754   3.496   8.843
 8264SOL    HW226234   2.799   3.621   8.916
 8265SOL     OW26235   2.317   2.356   7.642
 8265SOL    HW126236   2.379   2.427   7.657
 8265SOL    HW226237   2.234   2.400   7.625
 8266SOL     OW26238   1.972   2.994   8.922
 8266SOL    HW126239   2.047   2.990   8.980
 8266SOL    HW226240   1.991   2.930   8.854
 8267SOL     OW26241   3.156   2.896   8.678
 8267SOL    HW126242   3.182   2.832   8.612
 8267SOL    HW226243   3.104   2.960   8.630
 8268SOL     OW26244   3.148   2.627   7.735
 8268SOL    HW126245   3.126   2.695   7.798
 8268SOL    HW226246   3.154   2.672   7.651
 8269SOL     OW26247   3.108   3.599   8.555
 8269SOL    HW126248   3.179   3.610   8.492
 8269SOL    HW226249   3.109   3.505   8.576
 8270SOL     OW26250   1.929   3.084   8.488
 8270SOL    HW126251   1.904   3.116   8.575
 8270SOL    HW226252   1.913   3.159   8.430
 8271SOL     OW26253   2.552   3.534   9.183
 8271SOL    HW126254   2.506   3.617   9.171
 8271SOL    HW226255   2.629   3.540   9.127
 8272SOL     OW26256   3.590   1.967   7.992
 8272SOL    HW126257   3.663   1.984   7.933
 8272SOL    HW226258   3.603   2.029   8.064
 8273SOL     OW26259   3.237   3.405   7.847
 8273SOL    HW126260   3.330   3.398   7.825
 8273SOL    HW226261   3.216   3.498   7.834
 8274SOL     OW26262   1.962   3.698   9.307
 8274SOL    HW126263   1.926   3.619   9.348
 8274SOL    HW226264   2.038   3.720   9.360
 8275SOL     OW26265   3.131   2.779   8.109
 8275SOL    HW126266   3.207   2.724   8.125
 8275SOL    HW226267   3.166   2.853   8.058
 8276SOL     OW26268   2.663   3.140   8.881
 8276SOL    HW126269   2.625   3.185   8.956
 8276SOL    HW226270   2.619   3.178   8.805
 8277SOL     OW26271   2.521   3.501   7.595
 8277SOL    HW126272   2.546   3.513   7.504
 8277SOL    HW226273   2.474   3.418   7.597
 8278SOL     OW26274   3.693   2.030   8.423
 8278SOL    HW126275   3.722   1.948   8.382
 8278SOL    HW226276   3.609   2.049   8.379
 8279SOL     OW26277   2.056   2.193   8.161
 8279SOL    HW126278   2.126   2.226   8.105
 8279SOL    HW226279   2.096   2.185   8.247
 8280SOL     OW26280   3.030   3.424   7.505
 8280SOL    HW126281   3.123   3.442   7.522
 8280SOL    HW226282   3.005   3.490   7.441
 8281SOL     OW26283   2.663   2.869   8.827
 8281SOL    HW126284   2.729   2.839   8.765
 8281SOL    HW226285   2.677   2.963   8.834
 8282SOL     OW26286   2.764   2.766   7.743
 8282SOL    HW126287   2.823   2.792   7.673
 8282SOL    HW226288   2.815   2.706   7.797
 8283SOL     OW26289   3.344   3.475   7.464
 8283SOL    HW126290   3.306   3.563   7.465
 8283SOL    HW226291   3.389   3.469   7.381
 8284SOL     OW26292   2.205   3.176   8.943
 8284SOL    HW126293   2.231   3.255   8.895
 8284SOL    HW226294   2.179   3.115   8.874
 8285SOL     OW26295   3.454   3.120   8.738
 8285SOL    HW126296   3.542   3.152   8.717
 8285SOL    HW226297   3.402   3.199   8.752
 8286SOL     OW26298   2.916   2.960   8.173
 8286SOL    HW126299   2.849   2.898   8.202
 8286SOL    HW226300   2.986   2.905   8.137
 8287SOL     OW26301   2.927   2.083   8.435
 8287SOL    HW126302   2.903   2.050   8.348
 8287SOL    HW226303   2.899   2.014   8.495
 8288SOL     OW26304   2.447   3.333   7.933
 8288SOL    HW126305   2.509   3.280   7.881
 8288SOL    HW226306   2.423   3.405   7.875
 8289SOL     OW26307   3.582   2.227   8.849
 8289SOL    HW126308   3.653   2.290   8.855
 8289SOL    HW226309   3.615   2.160   8.788
 8290SOL     OW26310   2.113   3.201   7.738
 8290SOL    HW126311   2.021   3.210   7.712
 8290SOL    HW226312   2.116   3.239   7.826
 8291SOL     OW26313   1.942   2.829   9.242
 8291SOL    HW126314   1.948   2.765   9.171
 8291SOL    HW226315   2.032   2.843   9.270
 8292SOL     OW26316   2.518   2.059   8.979
 8292SOL    HW126317   2.580   2.054   8.906
 8292SOL    HW226318   2.572   2.077   9.056
 8293SOL     OW26319   1.942   2.187   7.465
 8293SOL    HW126320   1.867   2.177   7.406
 8293SOL    HW226321   1.985   2.267   7.436
 8294SOL     OW26322   3.281   2.717   8.847
 8294SOL    HW126323   3.231   2.778   8.792
 8294SOL    HW226324   3.369   2.716   8.808
 8295SOL     OW26325   1.923   2.015   7.745
 8295SOL    HW126326   1.905   2.088   7.686
 8295SOL    HW226327   2.010   1.985   7.720
 8296SOL     OW26328   3.047   3.162   7.575
 8296SOL    HW126329   3.032   3.254   7.556
 8296SOL    HW226330   3.067   3.159   7.669
 8297SOL     OW26331   2.488   2.679   8.883
 8297SOL    HW126332   2.541   2.757   8.867
 8297SOL    HW226333   2.550   2.606   8.882
 8298SOL     OW26334   2.570   2.424   9.176
 8298SOL    HW126335   2.603   2.507   9.212
 8298SOL    HW226336   2.646   2.367   9.175
 8299SOL     OW26337   3.339   3.054   9.075
 8299SOL    HW126338   3.337   3.074   9.169
 8299SOL    HW226339   3.430   3.066   9.050
 8300SOL     OW26340   2.229   3.610   9.019
 8300SOL    HW126341   2.144   3.653   9.009
 8300SOL    HW226342   2.213   3.519   8.995
 8301SOL     OW26343   3.521   2.728   8.708
 8301SOL    HW126344   3.525   2.645   8.660
 8301SOL    HW226345   3.500   2.793   8.641
 8302SOL     OW26346   3.069   2.175   7.908
 8302SOL    HW126347   3.154   2.137   7.884
 8302SOL    HW226348   3.086   2.224   7.988
 8303SOL     OW26349   2.434   2.589   8.116
 8303SOL    HW126350   2.482   2.672   8.112
 8303SOL    HW226351   2.375   2.593   8.040
 8304SOL     OW26352   3.615   2.194   9.127
 8304SOL    HW126353   3.601   2.213   9.034
 8304SOL    HW226354   3.539   2.142   9.152
 8305SOL     OW26355   3.619   2.784   8.961
 8305SOL    HW126356   3.614   2.880   8.968
 8305SOL    HW226357   3.599   2.766   8.869
 8306SOL     OW26358   2.662   3.246   7.465
 8306SOL    HW126359   2.711   3.259   7.546
 8306SOL    HW226360   2.712   3.293   7.398
 8307SOL     OW26361   2.541   3.646   8.402
 8307SOL    HW126362   2.538   3.719   8.340
 8307SOL    HW226363   2.630   3.613   8.396
 8308SOL     OW26364   2.715   2.819   8.307
 8308SOL    HW126365   2.765   2.744   8.341
 8308SOL    HW226366   2.697   2.873   8.384
 8309SOL     OW26367   2.911   2.811   7.522
 8309SOL    HW126368   2.899   2.882   7.459
 8309SOL    HW226369   3.000   2.779   7.506
 8310SOL     OW26370   2.086   3.144   9.312
 8310SOL    HW126371   2.008   3.089   9.306
 8310SOL    HW226372   2.101   3.157   9.405
 8311SOL     OW26373   1.949   3.041   8.109
 8311SOL    HW126374   2.003   3.013   8.183
 8311SOL    HW226375   2.011   3.050   8.036
 8312SOL     OW26376   2.530   3.276   9.073
 8312SOL    HW126377   2.460   3.237   9.127
 8312SOL    HW226378   2.545   3.362   9.112
 8313SOL     OW26379   3.679   2.025   8.694
 8313SOL    HW126380   3.668   1.930   8.689
 8313SOL    HW226381   3.687   2.054   8.603
 8314SOL     OW26382   2.270   2.266   8.003
 8314SOL    HW126383   2.308   2.223   7.926
 8314SOL    HW226384   2.345   2.284   8.060
 8315SOL     OW26385   2.215   2.402   8.729
 8315SOL    HW126386   2.304   2.374   8.747
 8315SOL    HW226387   2.206   2.398   8.634
 8316SOL     OW26388   2.682   3.469   8.133
 8316SOL    HW126389   2.692   3.528   8.057
 8316SOL    HW226390   2.635   3.394   8.098
 8317SOL     OW26391   3.301   2.085   8.585
 8317SOL    HW126392   3.352   2.036   8.649
 8317SOL    HW226393   3.237   2.133   8.637
 8318SOL     OW26394   2.862   1.858   8.590
 8318SOL    HW126395   2.812   1.803   8.529
 8318SOL    HW226396   2.950   1.820   8.590
 8319SOL     OW26397   2.627   3.182   7.798
 8319SOL    HW126398   2.620   3.087   7.795
 8319SOL    HW226399   2.715   3.199   7.831
 8320SOL     OW26400   2.481   3.426   8.735
 8320SOL    HW126401   2.484   3.515   8.770
 8320SOL    HW226402   2.570   3.411   8.701
 8321SOL     OW26403   3.201   1.920   7.644
 8321SOL    HW126404   3.236   1.881   7.564
 8321SOL    HW226405   3.115   1.878   7.656
 8322SOL     OW26406   3.128   2.311   8.128
 8322SOL    HW126407   3.094   2.400   8.133
 8322SOL    HW226408   3.150   2.289   8.219
 8323SOL     OW26409   3.440   2.065   8.325
 8323SOL    HW126410   3.385   2.088   8.400
 8323SOL    HW226411   3.438   2.142   8.269
 8324SOL     OW26412   1.897   2.935   7.752
 8324SOL    HW126413   1.993   2.937   7.748
 8324SOL    HW226414   1.875   2.843   7.763
 8325SOL     OW26415   2.713   3.518   7.827
 8325SOL    HW126416   2.673   3.516   7.740
 8325SOL    HW226417   2.781   3.586   7.820
 8326SOL     OW26418   2.083   2.460   9.424
 8326SOL    HW126419   2.048   2.498   9.504
 8326SOL    HW226420   2.071   2.527   9.358
 8327SOL     OW26421   2.083   2.143  10.301
 8327SOL    HW126422   2.121   2.114  10.384
 8327SOL    HW226423   1.991   2.116  10.306
 8328SOL     OW26424   1.853   2.214   9.968
 8328SOL    HW126425   1.773   2.261   9.992
 8328SOL    HW226426   1.822   2.145   9.909
 8329SOL     OW26427   2.998   2.554  10.007
 8329SOL    HW126428   3.046   2.636   9.993
 8329SOL    HW226429   2.948   2.569  10.087
 8330SOL     OW26430   3.608   2.455   9.544
 8330SOL    HW126431   3.599   2.478   9.451
 8330SOL    HW226432   3.594   2.361   9.546
 8331SOL     OW26433   2.662   3.002  10.352
 8331SOL    HW126434   2.586   3.005  10.409
 8331SOL    HW226435   2.671   3.092  10.320
 8332SOL     OW26436   2.732   2.637  11.138
 8332SOL    HW126437   2.699   2.708  11.194
 8332SOL    HW226438   2.751   2.680  11.054
 8333SOL     OW26439   2.539   2.849   9.957
 8333SOL    HW126440   2.609   2.841  10.021
 8333SOL    HW226441   2.476   2.910   9.996
 8334SOL     OW26442   2.583   3.021  11.141
 8334SOL    HW126443   2.626   3.099  11.174
 8334SOL    HW226444   2.504   3.054  11.098
 8335SOL     OW26445   2.145   3.362  10.360
 8335SOL    HW126446   2.113   3.279  10.326
 8335SOL    HW226447   2.223   3.381  10.308
 8336SOL     OW26448   3.322   3.352  10.674
 8336SOL    HW126449   3.375   3.431  10.679
 8336SOL    HW226450   3.250   3.368  10.735
 8337SOL     OW26451   3.462   2.311  10.043
 8337SOL    HW126452   3.390   2.297   9.981
 8337SOL    HW226453   3.478   2.405  10.040
 8338SOL     OW26454   2.123   3.587   9.779
 8338SOL    HW126455   2.145   3.659   9.839
 8338SOL    HW226456   2.202   3.574   9.727
 8339SOL     OW26457   3.005   3.198  11.007
 8339SOL    HW126458   3.036   3.197  11.097
 8339SOL    HW226459   2.952   3.120  10.998
 8340SOL     OW26460   2.049   3.310   9.827
 8340SOL    HW126461   2.090   3.390   9.859
 8340SOL    HW226462   2.022   3.263   9.906
 8341SOL     OW26463   2.098   2.933  10.187
 8341SOL    HW126464   2.135   2.854  10.228
 8341SOL    HW226465   2.088   2.994  10.260
 8342SOL     OW26466   2.486   3.661  10.760
 8342SOL    HW126467   2.399   3.640  10.794
 8342SOL    HW226468   2.500   3.752  10.786
 8343SOL     OW26469   2.425   2.851   9.449
 8343SOL    HW126470   2.480   2.895   9.384
 8343SOL    HW226471   2.466   2.874   9.533
 8344SOL     OW26472   3.444   1.994  10.764
 8344SOL    HW126473   3.486   2.075  10.737
 8344SOL    HW226474   3.416   2.010  10.855
 8345SOL     OW26475   1.936   2.520   9.889
 8345SOL    HW126476   1.946   2.425   9.898
 8345SOL    HW226477   2.020   2.550   9.856
 8346SOL     OW26478   1.880   3.477   9.498
 8346SOL    HW126479   1.952   3.436   9.449
 8346SOL    HW226480   1.814   3.408   9.507
 8347SOL     OW26481   3.552   2.774   9.951
 8347SOL    HW126482   3.614   2.731   9.893
 8347SOL    HW226483   3.501   2.832   9.894
 8348SOL     OW26484   3.463   2.932   9.745
 8348SOL    HW126485   3.544   2.908   9.698
 8348SOL    HW226486   3.470   3.027   9.757
 8349SOL     OW26487   1.988   2.604  10.893
 8349SOL    HW126488   2.081   2.626  10.896
 8349SOL    HW226489   1.944   2.680  10.932
 8350SOL     OW26490   2.480   3.255  10.048
 8350SOL    HW126491   2.439   3.170  10.059
 8350SOL    HW226492   2.460   3.279   9.957
 8351SOL     OW26493   3.134   3.089  10.740
 8351SOL    HW126494   3.172   3.032  10.673
 8351SOL    HW226495   3.201   3.094  10.808
 8352SOL     OW26496   2.683   1.859   9.833
 8352SOL    HW126497   2.725   1.939   9.801
 8352SOL    HW226498   2.590   1.879   9.832
 8353SOL     OW26499   2.041   2.822  10.567
 8353SOL    HW126500   2.135   2.835  10.556
 8353SOL    HW226501   2.029   2.728  10.554
 8354SOL     OW26502   3.371   2.856   9.497
 8354SOL    HW126503   3.302   2.789   9.504
 8354SOL    HW226504   3.391   2.878   9.588
 8355SOL     OW26505   3.060   3.677  10.942
 8355SOL    HW126506   3.062   3.742  10.871
 8355SOL    HW226507   3.072   3.593  10.898
 8356SOL     OW26508   2.206   2.097  11.130
 8356SOL    HW126509   2.234   2.163  11.065
 8356SOL    HW226510   2.120   2.127  11.160
 8357SOL     OW26511   3.356   3.248  10.308
 8357SOL    HW126512   3.274   3.280  10.345
 8357SOL    HW226513   3.330   3.203  10.228
 8358SOL     OW26514   2.452   2.568   9.579
 8358SOL    HW126515   2.469   2.650   9.533
 8358SOL    HW226516   2.381   2.589   9.640
 8359SOL     OW26517   3.160   2.220  10.259
 8359SOL    HW126518   3.066   2.204  10.251
 8359SOL    HW226519   3.189   2.161  10.328
 8360SOL     OW26520   2.674   2.484  10.751
 8360SOL    HW126521   2.648   2.456  10.839
 8360SOL    HW226522   2.633   2.419  10.693
 8361SOL     OW26523   3.249   2.336  10.990
 8361SOL    HW126524   3.261   2.379  11.075
 8361SOL    HW226525   3.299   2.254  10.998
 8362SOL     OW26526   2.814   2.755  10.895
 8362SOL    HW126527   2.865   2.682  10.859
 8362SOL    HW226528   2.770   2.793  10.819
 8363SOL     OW26529   2.863   2.262  10.539
 8363SOL    HW126530   2.775   2.285  10.570
 8363SOL    HW226531   2.851   2.242  10.446
 8364SOL     OW26532   2.918   2.555   9.734
 8364SOL    HW126533   2.935   2.548   9.828
 8364SOL    HW226534   2.835   2.509   9.722
 8365SOL     OW26535   1.909   2.744  10.112
 8365SOL    HW126536   1.950   2.659  10.093
 8365SOL    HW226537   1.983   2.804  10.124
 8366SOL     OW26538   1.974   3.693  10.867
 8366SOL    HW126539   1.972   3.681  10.962
 8366SOL    HW226540   1.981   3.787  10.854
 8367SOL     OW26541   2.766   2.199   9.483
 8367SOL    HW126542   2.801   2.276   9.439
 8367SOL    HW226543   2.818   2.126   9.450
 8368SOL     OW26544   3.549   2.435  11.135
 8368SOL    HW126545   3.532   2.510  11.078
 8368SOL    HW226546   3.582   2.367  11.076
 8369SOL     OW26547   3.211   2.991   9.846
 8369SOL    HW126548   3.288   2.968   9.794
 8369SOL    HW226549   3.176   3.070   9.804
 8370SOL     OW26550   2.408   2.029  10.217
 8370SOL    HW126551   2.418   2.067  10.305
 8370SOL    HW226552   2.412   2.105  10.158
 8371SOL     OW26553   2.874   3.311   9.782
 8371SOL    HW126554   2.819   3.377   9.740
 8371SOL    HW226555   2.864   3.327   9.876
 8372SOL     OW26556   2.215   3.679  10.183
 8372SOL    HW126557   2.265   3.598  10.193
 8372SOL    HW226558   2.277   3.748  10.207
 8373SOL     OW26559   3.648   2.855  10.197
 8373SOL    HW126560   3.607   2.848  10.111
 8373SOL    HW226561   3.593   2.916  10.245
 8374SOL     OW26562   3.089   3.397  10.822
 8374SOL    HW126563   3.078   3.324  10.882
 8374SOL    HW226564   3.016   3.390  10.761
 8375SOL     OW26565   2.154   2.857   9.537
 8375SOL    HW126566   2.240   2.862   9.495
 8375SOL    HW226567   2.161   2.783   9.597
 8376SOL     OW26568   3.344   2.615  10.038
 8376SOL    HW126569   3.353   2.569  10.121
 8376SOL    HW226570   3.427   2.662  10.028
 8377SOL     OW26571   2.333   3.130  11.056
 8377SOL    HW126572   2.303   3.138  10.965
 8377SOL    HW226573   2.252   3.121  11.107
 8378SOL     OW26574   2.881   3.646   9.529
 8378SOL    HW126575   2.955   3.690   9.572
 8378SOL    HW226576   2.922   3.583   9.470
 8379SOL     OW26577   2.002   2.098  10.809
 8379SOL    HW126578   1.942   2.164  10.843
 8379SOL    HW226579   2.089   2.131  10.832
 8380SOL     OW26580   2.349   3.595   9.629
 8380SOL    HW126581   2.396   3.657   9.685
 8380SOL    HW226582   2.416   3.564   9.567
 8381SOL     OW26583   3.258   1.958   9.753
 8381SOL    HW126584   3.255   1.933   9.661
 8381SOL    HW226585   3.317   2.033   9.756
 8382SOL     OW26586   2.113   3.633  10.544
 8382SOL    HW126587   2.168   3.577  10.599
 8382SOL    HW226588   2.115   3.592  10.458
 8383SOL     OW26589   2.851   3.530  10.206
 8383SOL    HW126590   2.935   3.498  10.174
 8383SOL    HW226591   2.787   3.496  10.144
 8384SOL     OW26592   3.375   2.080  11.033
 8384SOL    HW126593   3.392   2.103  11.124
 8384SOL    HW226594   3.308   2.012  11.037
 8385SOL     OW26595   2.481   1.949   9.429
 8385SOL    HW126596   2.567   1.976   9.396
 8385SOL    HW226597   2.432   1.926   9.350
 8386SOL     OW26598   2.647   2.161  11.104
 8386SOL    HW126599   2.712   2.095  11.078
 8386SOL    HW226600   2.581   2.111  11.152
 8387SOL     OW26601   2.752   3.402  10.496
 8387SOL    HW126602   2.721   3.353  10.420
 8387SOL    HW226603   2.799   3.337  10.548
 8388SOL     OW26604   3.215   2.445  10.733
 8388SOL    HW126605   3.235   2.419  10.823
 8388SOL    HW226606   3.250   2.534  10.726
 8389SOL     OW26607   2.686   3.261  10.261
 8389SOL    HW126608   2.771   3.251  10.219
 8389SOL    HW226609   2.624   3.265  10.188
 8390SOL     OW26610   2.795   2.365  10.208
 8390SOL    HW126611   2.767   2.360  10.117
 8390SOL    HW226612   2.823   2.276  10.230
 8391SOL     OW26613   2.415   1.918   9.803
 8391SOL    HW126614   2.340   1.917   9.863
 8391SOL    HW226615   2.414   2.006   9.766
 8392SOL     OW26616   3.303   3.077   9.344
 8392SOL    HW126617   3.328   3.000   9.395
 8392SOL    HW226618   3.222   3.108   9.385
 8393SOL     OW26619   2.163   1.912   9.516
 8393SOL    HW126620   2.222   1.985   9.537
 8393SOL    HW226621   2.212   1.833   9.538
 8394SOL     OW26622   2.801   2.103   9.760
 8394SOL    HW126623   2.775   2.140   9.675
 8394SOL    HW226624   2.894   2.123   9.767
 8395SOL     OW26625   2.944   2.547  10.776
 8395SOL    HW126626   2.862   2.499  10.772
 8395SOL    HW226627   3.012   2.481  10.763
 8396SOL     OW26628   3.083   3.450  10.085
 8396SOL    HW126629   3.084   3.515  10.015
 8396SOL    HW226630   3.175   3.443  10.113
 8397SOL     OW26631   2.330   3.018  10.040
 8397SOL    HW126632   2.267   2.990  10.106
 8397SOL    HW226633   2.284   3.006   9.957
 8398SOL     OW26634   3.091   3.666   9.912
 8398SOL    HW126635   3.121   3.688   9.824
 8398SOL    HW226636   3.077   3.750   9.955
 8399SOL     OW26637   2.864   2.409   9.344
 8399SOL    HW126638   2.829   2.493   9.315
 8399SOL    HW226639   2.949   2.430   9.381
 8400SOL     OW26640   1.932   2.418  10.703
 8400SOL    HW126641   2.025   2.411  10.680
 8400SOL    HW226642   1.930   2.484  10.772
 8401SOL     OW26643   2.425   2.091  10.495
 8401SOL    HW126644   2.466   2.056  10.574
 8401SOL    HW226645   2.331   2.088  10.515
 8402SOL     OW26646   2.728   2.314   9.949
 8402SOL    HW126647   2.677   2.372   9.892
 8402SOL    HW226648   2.749   2.238   9.894
 8403SOL     OW26649   2.888   1.920  10.056
 8403SOL    HW126650   2.829   1.927   9.981
 8403SOL    HW226651   2.853   1.847  10.107
 8404SOL     OW26652   3.318   3.030  10.129
 8404SOL    HW126653   3.241   2.983  10.097
 8404SOL    HW226654   3.345   3.085  10.055
 8405SOL     OW26655   3.315   2.464  10.280
 8405SOL    HW126656   3.265   2.383  10.268
 8405SOL    HW226657   3.380   2.442  10.347
 8406SOL     OW26658   3.686   2.680   9.725
 8406SOL    HW126659   3.756   2.625   9.760
 8406SOL    HW226660   3.666   2.642   9.639
 8407SOL     OW26661   2.343   3.292   9.440
 8407SOL    HW126662   2.277   3.257   9.500
 8407SOL    HW226663   2.367   3.218   9.385
 8408SOL     OW26664   3.261   2.434   9.375
 8408SOL    HW126665   3.208   2.406   9.450
 8408SOL    HW226666   3.350   2.408   9.398
 8409SOL     OW26667   2.347   2.110   9.598
 8409SOL    HW126668   2.409   2.058   9.546
 8409SOL    HW226669   2.352   2.198   9.560
 8410SOL     OW26670   3.614   3.099  10.893
 8410SOL    HW126671   3.699   3.068  10.861
 8410SOL    HW226672   3.631   3.189  10.921
 8411SOL     OW26673   2.898   3.222  10.655
 8411SOL    HW126674   2.819   3.183  10.693
 8411SOL    HW226675   2.970   3.172  10.693
 8412SOL     OW26676   3.477   3.490  10.979
 8412SOL    HW126677   3.460   3.525  10.891
 8412SOL    HW226678   3.556   3.438  10.970
 8413SOL     OW26679   3.001   3.081  10.417
 8413SOL    HW126680   2.922   3.095  10.469
 8413SOL    HW226681   2.978   3.112  10.330
 8414SOL     OW26682   3.450   2.954  10.378
 8414SOL    HW126683   3.452   3.018  10.449
 8414SOL    HW226684   3.400   2.996  10.308
 8415SOL     OW26685   2.812   1.923  10.707
 8415SOL    HW126686   2.820   1.929  10.612
 8415SOL    HW226687   2.882   1.979  10.741
 8416SOL     OW26688   2.848   2.973  11.049
 8416SOL    HW126689   2.758   2.996  11.072
 8416SOL    HW226690   2.839   2.899  10.988
 8417SOL     OW26691   2.563   2.910   9.683
 8417SOL    HW126692   2.551   2.890   9.776
 8417SOL    HW226693   2.641   2.862   9.658
 8418SOL     OW26694   2.280   2.672  10.565
 8418SOL    HW126695   2.344   2.692  10.633
 8418SOL    HW226696   2.246   2.585  10.589
 8419SOL     OW26697   3.128   2.231  10.586
 8419SOL    HW126698   3.160   2.310  10.628
 8419SOL    HW226699   3.036   2.250  10.566
 8420SOL     OW26700   1.947   3.425  10.665
 8420SOL    HW126701   1.941   3.520  10.652
 8420SOL    HW226702   2.041   3.407  10.664
 8421SOL     OW26703   2.172   2.958   9.820
 8421SOL    HW126704   2.199   2.991   9.734
 8421SOL    HW226705   2.179   2.862   9.811
 8422SOL     OW26706   2.402   2.391  10.169
 8422SOL    HW126707   2.414   2.444  10.090
 8422SOL    HW226708   2.470   2.421  10.229
 8423SOL     OW26709   3.127   3.219   9.710
 8423SOL    HW126710   3.195   3.283   9.731
 8423SOL    HW226711   3.046   3.259   9.740
 8424SOL     OW26712   3.142   3.323  10.465
 8424SOL    HW126713   3.202   3.321  10.540
 8424SOL    HW226714   3.091   3.242  10.472
 8425SOL     OW26715   3.458   2.460   9.791
 8425SOL    HW126716   3.400   2.534   9.810
 8425SOL    HW226717   3.508   2.488   9.715
 8426SOL     OW26718   2.213   3.371  10.622
 8426SOL    HW126719   2.194   3.354  10.530
 8426SOL    HW226720   2.308   3.389  10.623
 8427SOL     OW26721   2.272   2.597  10.908
 8427SOL    HW126722   2.344   2.637  10.859
 8427SOL    HW226723   2.290   2.503  10.905
 8428SOL     OW26724   3.468   2.651  10.986
 8428SOL    HW126725   3.380   2.688  10.981
 8428SOL    HW226726   3.518   2.698  10.919
 8429SOL     OW26727   2.854   1.989  11.052
 8429SOL    HW126728   2.911   2.066  11.042
 8429SOL    HW226729   2.910   1.915  11.031
 8430SOL     OW26730   2.353   1.881  11.067
 8430SOL    HW126731   2.304   1.839  10.996
 8430SOL    HW226732   2.301   1.958  11.089
 8431SOL     OW26733   2.438   2.743  10.356
 8431SOL    HW126734   2.458   2.836  10.367
 8431SOL    HW226735   2.382   2.721  10.431
 8432SOL     OW26736   3.221   2.711  10.333
 8432SOL    HW126737   3.157   2.745  10.270
 8432SOL    HW226738   3.230   2.619  10.311
 8433SOL     OW26739   3.072   2.379   9.576
 8433SOL    HW126740   3.073   2.303   9.633
 8433SOL    HW226741   3.028   2.447   9.628
 8434SOL     OW26742   2.155   2.067  10.552
 8434SOL    HW126743   2.143   2.102  10.641
 8434SOL    HW226744   2.142   1.973  10.562
 8435SOL     OW26745   1.889   3.175  10.577
 8435SOL    HW126746   1.924   3.112  10.640
 8435SOL    HW226747   1.911   3.260  10.614
 8436SOL     OW26748   2.573   2.500  10.356
 8436SOL    HW126749   2.654   2.500  10.305
 8436SOL    HW226750   2.540   2.589  10.349
 8437SOL     OW26751   3.597   2.821  11.172
 8437SOL    HW126752   3.549   2.756  11.121
 8437SOL    HW226753   3.538   2.842  11.245
 8438SOL     OW26754   2.168   1.915   9.937
 8438SOL    HW126755   2.152   2.008   9.951
 8438SOL    HW226756   2.180   1.879  10.024
 8439SOL     OW26757   3.405   2.188   9.767
 8439SOL    HW126758   3.493   2.155   9.783
 8439SOL    HW226759   3.415   2.283   9.764
 8440SOL     OW26760   2.887   2.614  10.262
 8440SOL    HW126761   2.883   2.629  10.357
 8440SOL    HW226762   2.861   2.522  10.252
 8441SOL     OW26763   2.852   3.425  11.030
 8441SOL    HW126764   2.833   3.475  10.951
 8441SOL    HW226765   2.896   3.346  10.998
 8442SOL     OW26766   3.719   3.355  10.942
 8442SOL    HW126767   3.726   3.389  10.852
 8442SOL    HW226768   3.806   3.366  10.978
 8443SOL     OW26769   2.214   2.779  11.114
 8443SOL    HW126770   2.295   2.798  11.162
 8443SOL    HW226771   2.240   2.712  11.050
 8444SOL     OW26772   3.481   2.185   9.483
 8444SOL    HW126773   3.456   2.142   9.401
 8444SOL    HW226774   3.412   2.161   9.545
 8445SOL     OW26775   3.156   2.687   9.340
 8445SOL    HW126776   3.197   2.601   9.337
 8445SOL    HW226777   3.182   2.730   9.259
 8446SOL     OW26778   2.939   3.208  10.170
 8446SOL    HW126779   2.938   3.134  10.110
 8446SOL    HW226780   2.996   3.273  10.128
 8447SOL     OW26781   2.181   2.680  10.257
 8447SOL    HW126782   2.275   2.697  10.268
 8447SOL    HW226783   2.171   2.587  10.279
 8448SOL     OW26784   2.174   2.396  10.310
 8448SOL    HW126785   2.144   2.306  10.301
 8448SOL    HW226786   2.255   2.400  10.258
 8449SOL     OW26787   2.994   2.229  10.997
 8449SOL    HW126788   2.939   2.285  11.052
 8449SOL    HW226789   3.079   2.273  10.995
 8450SOL     OW26790   3.041   2.057  10.785
 8450SOL    HW126791   3.019   2.118  10.856
 8450SOL    HW226792   3.075   2.112  10.715
 8451SOL     OW26793   1.850   3.182   9.516
 8451SOL    HW126794   1.763   3.196   9.479
 8451SOL    HW226795   1.851   3.090   9.541
 8452SOL     OW26796   1.944   3.651  10.239
 8452SOL    HW126797   1.925   3.568  10.195
 8452SOL    HW226798   2.037   3.665  10.224
 8453SOL     OW26799   2.366   3.448  10.214
 8453SOL    HW126800   2.439   3.503  10.242
 8453SOL    HW226801   2.406   3.380  10.160
 8454SOL     OW26802   2.846   2.632  10.528
 8454SOL    HW126803   2.900   2.621  10.607
 8454SOL    HW226804   2.756   2.632  10.561
 8455SOL     OW26805   1.905   2.408  10.425
 8455SOL    HW126806   1.989   2.416  10.379
 8455SOL    HW226807   1.929   2.410  10.518
 8456SOL     OW26808   2.059   2.385  11.045
 8456SOL    HW126809   2.128   2.349  10.988
 8456SOL    HW226810   2.022   2.458  10.994
 8457SOL     OW26811   3.233   2.795  10.961
 8457SOL    HW126812   3.271   2.883  10.957
 8457SOL    HW226813   3.154   2.800  10.907
 8458SOL     OW26814   2.679   2.425   9.675
 8458SOL    HW126815   2.687   2.361   9.605
 8458SOL    HW226816   2.605   2.480   9.649
 8459SOL     OW26817   3.507   2.508  10.486
 8459SOL    HW126818   3.488   2.463  10.568
 8459SOL    HW226819   3.591   2.471  10.458
 8460SOL     OW26820   2.099   3.408  11.034
 8460SOL    HW126821   2.084   3.479  11.096
 8460SOL    HW226822   2.109   3.330  11.088
 8461SOL     OW26823   2.588   2.313  10.555
 8461SOL    HW126824   2.526   2.243  10.535
 8461SOL    HW226825   2.575   2.378  10.486
 8462SOL     OW26826   2.796   3.545  10.778
 8462SOL    HW126827   2.729   3.499  10.728
 8462SOL    HW226828   2.785   3.637  10.755
 8463SOL     OW26829   2.325   2.349   9.469
 8463SOL    HW126830   2.392   2.412   9.496
 8463SOL    HW226831   2.243   2.395   9.484
 8464SOL     OW26832   1.978   2.993  10.770
 8464SOL    HW126833   1.994   2.951  10.855
 8464SOL    HW226834   2.007   2.928  10.706
 8465SOL     OW26835   3.172   2.899  10.532
 8465SOL    HW126836   3.175   2.834  10.463
 8465SOL    HW226837   3.113   2.967  10.499
 8466SOL     OW26838   3.164   2.696   9.617
 8466SOL    HW126839   3.082   2.672   9.661
 8466SOL    HW226840   3.144   2.688   9.524
 8467SOL     OW26841   3.595   3.627  10.419
 8467SOL    HW126842   3.676   3.647  10.372
 8467SOL    HW226843   3.594   3.532  10.428
 8468SOL     OW26844   3.094   3.585  10.415
 8468SOL    HW126845   3.172   3.624  10.377
 8468SOL    HW226846   3.117   3.494  10.431
 8469SOL     OW26847   1.953   3.144  10.310
 8469SOL    HW126848   1.936   3.145  10.404
 8469SOL    HW226849   1.881   3.093  10.273
 8470SOL     OW26850   2.532   3.537  11.046
 8470SOL    HW126851   2.468   3.607  11.061
 8470SOL    HW226852   2.588   3.569  10.976
 8471SOL     OW26853   3.633   2.023   9.833
 8471SOL    HW126854   3.679   2.019   9.750
 8471SOL    HW226855   3.599   1.934   9.846
 8472SOL     OW26856   1.998   3.654  11.140
 8472SOL    HW126857   1.943   3.593  11.189
 8472SOL    HW226858   2.058   3.691  11.205
 8473SOL     OW26859   3.138   2.786   9.996
 8473SOL    HW126860   3.215   2.728   9.999
 8473SOL    HW226861   3.162   2.854   9.934
 8474SOL     OW26862   2.645   3.137  10.728
 8474SOL    HW126863   2.611   3.187  10.802
 8474SOL    HW226864   2.569   3.121  10.672
 8475SOL     OW26865   2.533   3.485   9.457
 8475SOL    HW126866   2.553   3.503   9.365
 8475SOL    HW226867   2.472   3.411   9.453
 8476SOL     OW26868   3.475   3.578  10.716
 8476SOL    HW126869   3.561   3.567  10.676
 8476SOL    HW226870   3.462   3.673  10.722
 8477SOL     OW26871   3.691   2.006  10.272
 8477SOL    HW126872   3.726   1.968  10.191
 8477SOL    HW226873   3.606   2.042  10.247
 8478SOL     OW26874   2.114   2.170  10.025
 8478SOL    HW126875   2.024   2.196  10.004
 8478SOL    HW226876   2.118   2.168  10.120
 8479SOL     OW26877   2.994   3.455   9.363
 8479SOL    HW126878   3.046   3.375   9.358
 8479SOL    HW226879   2.944   3.456   9.281
 8480SOL     OW26880   2.696   2.870  10.679
 8480SOL    HW126881   2.680   2.872  10.584
 8480SOL    HW226882   2.676   2.959  10.708
 8481SOL     OW26883   2.779   2.770   9.612
 8481SOL    HW126884   2.831   2.797   9.536
 8481SOL    HW226885   2.831   2.701   9.653
 8482SOL     OW26886   2.216   3.167  10.818
 8482SOL    HW126887   2.232   3.233  10.750
 8482SOL    HW226888   2.159   3.103  10.776
 8483SOL     OW26889   3.462   3.119  10.598
 8483SOL    HW126890   3.553   3.142  10.619
 8483SOL    HW226891   3.412   3.196  10.625
 8484SOL     OW26892   2.923   2.979  10.030
 8484SOL    HW126893   2.850   2.925  10.060
 8484SOL    HW226894   2.984   2.917   9.991
 8485SOL     OW26895   2.898   2.109  10.269
 8485SOL    HW126896   2.895   2.062  10.186
 8485SOL    HW226897   2.886   2.042  10.336
 8486SOL     OW26898   2.439   3.332   9.791
 8486SOL    HW126899   2.503   3.282   9.740
 8486SOL    HW226900   2.423   3.411   9.739
 8487SOL     OW26901   3.595   2.234  10.691
 8487SOL    HW126902   3.662   2.302  10.690
 8487SOL    HW226903   3.621   2.173  10.622
 8488SOL     OW26904   2.112   3.209   9.581
 8488SOL    HW126905   2.017   3.205   9.567
 8488SOL    HW226906   2.122   3.240   9.671
 8489SOL     OW26907   1.971   2.876  11.023
 8489SOL    HW126908   1.898   2.849  11.078
 8489SOL    HW226909   2.049   2.846  11.068
 8490SOL     OW26910   2.517   2.033  10.756
 8490SOL    HW126911   2.608   2.044  10.785
 8490SOL    HW226912   2.468   2.100  10.803
 8491SOL     OW26913   1.986   2.184   9.324
 8491SOL    HW126914   1.924   2.127   9.279
 8491SOL    HW226915   1.959   2.273   9.300
 8492SOL     OW26916   3.338   2.722  10.666
 8492SOL    HW126917   3.269   2.787  10.651
 8492SOL    HW226918   3.398   2.765  10.727
 8493SOL     OW26919   1.923   2.011   9.607
 8493SOL    HW126920   1.913   2.090   9.554
 8493SOL    HW226921   2.009   1.978   9.585
 8494SOL     OW26922   3.067   3.174   9.443
 8494SOL    HW126923   2.973   3.161   9.437
 8494SOL    HW226924   3.084   3.185   9.537
 8495SOL     OW26925   2.481   2.689  10.752
 8495SOL    HW126926   2.523   2.772  10.730
 8495SOL    HW226927   2.553   2.626  10.755
 8496SOL     OW26928   3.339   3.652  10.306
 8496SOL    HW126929   3.360   3.683  10.217
 8496SOL    HW226930   3.425   3.644  10.348
 8497SOL     OW26931   2.613   2.413  10.999
 8497SOL    HW126932   2.614   2.473  11.074
 8497SOL    HW226933   2.613   2.326  11.039
 8498SOL     OW26934   3.341   3.045  10.942
 8498SOL    HW126935   3.328   3.070  11.033
 8498SOL    HW226936   3.430   3.075  10.921
 8499SOL     OW26937   2.231   3.594  10.862
 8499SOL    HW126938   2.145   3.634  10.849
 8499SOL    HW226939   2.213   3.510  10.905
 8500SOL     OW26940   3.068   2.173   9.773
 8500SOL    HW126941   3.130   2.102   9.760
 8500SOL    HW226942   3.103   2.225   9.846
 8501SOL     OW26943   2.427   2.586   9.970
 8501SOL    HW126944   2.473   2.670   9.963
 8501SOL    HW226945   2.355   2.593   9.907
 8502SOL     OW26946   3.603   2.225  10.968
 8502SOL    HW126947   3.599   2.235  10.873
 8502SOL    HW226948   3.532   2.165  10.989
 8503SOL     OW26949   3.566   2.827  10.797
 8503SOL    HW126950   3.560   2.914  10.836
 8503SOL    HW226951   3.653   2.823  10.760
 8504SOL     OW26952   2.702   3.236   9.344
 8504SOL    HW126953   2.692   3.290   9.423
 8504SOL    HW226954   2.740   3.295   9.279
 8505SOL     OW26955   2.552   3.659  10.245
 8505SOL    HW126956   2.506   3.743  10.237
 8505SOL    HW226957   2.622   3.664  10.180
 8506SOL     OW26958   2.732   2.825  10.155
 8506SOL    HW126959   2.783   2.754  10.195
 8506SOL    HW226960   2.707   2.881  10.229
 8507SOL     OW26961   2.922   2.824   9.390
 8507SOL    HW126962   2.907   2.888   9.320
 8507SOL    HW226963   3.006   2.784   9.368
 8508SOL     OW26964   3.717   3.427  10.134
 8508SOL    HW126965   3.657   3.439  10.061
 8508SOL    HW226966   3.662   3.396  10.206
 8509SOL     OW26967   2.082   3.152  11.170
 8509SOL    HW126968   2.034   3.087  11.119
 8509SOL    HW226969   2.027   3.169  11.246
 8510SOL     OW26970   1.957   3.069   9.970
 8510SOL    HW126971   1.991   3.035  10.053
 8510SOL    HW226972   2.020   3.039   9.904
 8511SOL     OW26973   2.547   3.275  10.946
 8511SOL    HW126974   2.468   3.233  10.979
 8511SOL    HW226975   2.544   3.364  10.981
 8512SOL     OW26976   3.685   2.000  10.541
 8512SOL    HW126977   3.774   2.014  10.574
 8512SOL    HW226978   3.690   2.023  10.448
 8513SOL     OW26979   2.353   2.195   9.881
 8513SOL    HW126980   2.330   2.217   9.790
 8513SOL    HW226981   2.275   2.217   9.932
 8514SOL     OW26982   3.597   3.343  10.372
 8514SOL    HW126983   3.509   3.313  10.350
 8514SOL    HW226984   3.613   3.309  10.460
 8515SOL     OW26985   2.182   2.420  10.600
 8515SOL    HW126986   2.226   2.366  10.666
 8515SOL    HW226987   2.217   2.389  10.517
 8516SOL     OW26988   2.691   3.453   9.996
 8516SOL    HW126989   2.687   3.498   9.911
 8516SOL    HW226990   2.618   3.391   9.994
 8517SOL     OW26991   3.287   2.052  10.459
 8517SOL    HW126992   3.344   2.021  10.529
 8517SOL    HW226993   3.226   2.112  10.503
 8518SOL     OW26994   2.878   1.880  10.431
 8518SOL    HW126995   2.812   1.822  10.393
 8518SOL    HW226996   2.960   1.832  10.424
 8519SOL     OW26997   2.625   3.184   9.657
 8519SOL    HW126998   2.607   3.090   9.654
 8519SOL    HW226999   2.716   3.191   9.684
 8520SOL     OW27000   2.471   3.446  10.594
 8520SOL    HW127001   2.487   3.524  10.648
 8520SOL    HW227002   2.557   3.426  10.556
 8521SOL     OW27003   3.245   1.911   9.486
 8521SOL    HW127004   3.281   1.943   9.403
 8521SOL    HW227005   3.155   1.885   9.465
 8522SOL     OW27006   3.156   2.319   9.990
 8522SOL    HW127007   3.107   2.401   9.989
 8522SOL    HW227008   3.157   2.292  10.081
 8523SOL     OW27009   3.447   2.092  10.202
 8523SOL    HW127010   3.366   2.113  10.247
 8523SOL    HW227011   3.457   2.161  10.136
 8524SOL     OW27012   1.889   2.913   9.579
 8524SOL    HW127013   1.983   2.911   9.563
 8524SOL    HW227014   1.870   2.830   9.622
 8525SOL     OW27015   2.688   3.499   9.704
 8525SOL    HW127016   2.664   3.495   9.612
 8525SOL    HW227017   2.720   3.588   9.717
 8526SOL     OW27018   2.091   2.495  11.299
 8526SOL    HW127019   2.003   2.489  11.335
 8526SOL    HW227020   2.083   2.465  11.209
 8527SOL     OW27021   2.081   2.147  12.162
 8527SOL    HW127022   2.114   2.106  12.242
 8527SOL    HW227023   1.994   2.109  12.149
 8528SOL     OW27024   1.870   2.254  11.808
 8528SOL    HW127025   1.788   2.260  11.857
 8528SOL    HW227026   1.862   2.172  11.758
 8529SOL     OW27027   2.408   3.141  12.331
 8529SOL    HW127028   2.325   3.176  12.298
 8529SOL    HW227029   2.413   3.175  12.421
 8530SOL     OW27030   3.435   3.374  11.879
 8530SOL    HW127031   3.387   3.347  11.957
 8530SOL    HW227032   3.368   3.385  11.812
 8531SOL     OW27033   3.005   2.571  11.876
 8531SOL    HW127034   3.049   2.656  11.875
 8531SOL    HW227035   2.962   2.567  11.961
 8532SOL     OW27036   3.637   2.457  11.393
 8532SOL    HW127037   3.611   2.449  11.301
 8532SOL    HW227038   3.605   2.377  11.434
 8533SOL     OW27039   2.600   3.011  12.188
 8533SOL    HW127040   2.538   3.043  12.254
 8533SOL    HW227041   2.623   3.089  12.138
 8534SOL     OW27042   2.540   2.864  11.825
 8534SOL    HW127043   2.609   2.854  11.890
 8534SOL    HW227044   2.477   2.923  11.865
 8535SOL     OW27045   2.177   3.274  12.221
 8535SOL    HW127046   2.089   3.243  12.199
 8535SOL    HW227047   2.186   3.357  12.173
 8536SOL     OW27048   3.456   2.289  11.926
 8536SOL    HW127049   3.375   2.317  11.883
 8536SOL    HW227050   3.465   2.347  12.002
 8537SOL     OW27051   2.080   3.571  11.635
 8537SOL    HW127052   2.099   3.641  11.696
 8537SOL    HW227053   2.115   3.601  11.551
 8538SOL     OW27054   2.127   3.325  11.750
 8538SOL    HW127055   2.105   3.412  11.717
 8538SOL    HW227056   2.044   3.289  11.782
 8539SOL     OW27057   2.124   2.942  12.075
 8539SOL    HW127058   2.138   2.847  12.078
 8539SOL    HW227059   2.101   2.966  12.164
 8540SOL     OW27060   2.437   2.852  11.313
 8540SOL    HW127061   2.485   2.901  11.247
 8540SOL    HW227062   2.474   2.881  11.397
 8541SOL     OW27063   1.982   2.518  11.733
 8541SOL    HW127064   1.957   2.428  11.754
 8541SOL    HW227065   1.974   2.566  11.815
 8542SOL     OW27066   3.717   3.576  11.467
 8542SOL    HW127067   3.778   3.562  11.539
 8542SOL    HW227068   3.718   3.671  11.453
 8543SOL     OW27069   1.879   3.456  11.286
 8543SOL    HW127070   1.876   3.365  11.315
 8543SOL    HW227071   1.867   3.508  11.365
 8544SOL     OW27072   3.558   2.779  11.841
 8544SOL    HW127073   3.646   2.742  11.854
 8544SOL    HW227074   3.560   2.816  11.753
 8545SOL     OW27075   3.518   2.968  11.603
 8545SOL    HW127076   3.606   2.961  11.568
 8545SOL    HW227077   3.527   3.025  11.680
 8546SOL     OW27078   2.053   2.611   0.251
 8546SOL    HW127079   2.107   2.574   0.322
 8546SOL    HW227080   1.992   2.669   0.296
 8547SOL     OW27081   2.741   1.869  11.686
 8547SOL    HW127082   2.739   1.961  11.661
 8547SOL    HW227083   2.650   1.846  11.703
 8548SOL     OW27084   2.042   2.868  12.388
 8548SOL    HW127085   2.123   2.855  12.437
 8548SOL    HW227086   2.002   2.782  12.384
 8549SOL     OW27087   3.394   2.863  11.377
 8549SOL    HW127088   3.349   2.784  11.408
 8549SOL    HW227089   3.436   2.899  11.454
 8550SOL     OW27090   3.312   3.252  12.097
 8550SOL    HW127091   3.251   3.283  12.163
 8550SOL    HW227092   3.388   3.220  12.147
 8551SOL     OW27093   3.525   3.617  11.736
 8551SOL    HW127094   3.489   3.579  11.656
 8551SOL    HW227095   3.514   3.548  11.802
 8552SOL     OW27096   2.449   2.592  11.446
 8552SOL    HW127097   2.443   2.677  11.403
 8552SOL    HW227098   2.384   2.595  11.516
 8553SOL     OW27099   3.151   2.225  12.105
 8553SOL    HW127100   3.062   2.192  12.117
 8553SOL    HW227101   3.204   2.174  12.166
 8554SOL     OW27102   3.438   3.534  11.481
 8554SOL    HW127103   3.531   3.551  11.468
 8554SOL    HW227104   3.402   3.528  11.393
 8555SOL     OW27105   2.863   2.276  12.371
 8555SOL    HW127106   2.779   2.253  12.409
 8555SOL    HW227107   2.866   2.228  12.288
 8556SOL     OW27108   2.892   2.548  11.619
 8556SOL    HW127109   2.879   2.561  11.713
 8556SOL    HW227110   2.810   2.510  11.588
 8557SOL     OW27111   1.944   2.689  11.948
 8557SOL    HW127112   2.025   2.674  11.996
 8557SOL    HW227113   1.906   2.767  11.990
 8558SOL     OW27114   2.772   2.222  11.363
 8558SOL    HW127115   2.816   2.283  11.304
 8558SOL    HW227116   2.719   2.166  11.305
 8559SOL     OW27117   3.244   2.993  11.692
 8559SOL    HW127118   3.332   3.003  11.658
 8559SOL    HW227119   3.194   3.065  11.653
 8560SOL     OW27120   2.417   2.015  12.042
 8560SOL    HW127121   2.410   2.034  12.135
 8560SOL    HW227122   2.410   2.101  12.000
 8561SOL     OW27123   2.864   3.305  11.634
 8561SOL    HW127124   2.833   3.379  11.583
 8561SOL    HW227125   2.833   3.322  11.723
 8562SOL     OW27126   2.221   3.677  12.045
 8562SOL    HW127127   2.284   3.607  12.063
 8562SOL    HW227128   2.270   3.758  12.060
 8563SOL     OW27129   3.662   2.935  12.062
 8563SOL    HW127130   3.621   2.911  11.979
 8563SOL    HW227131   3.593   2.926  12.127
 8564SOL     OW27132   2.171   2.820  11.424
 8564SOL    HW127133   2.251   2.842  11.376
 8564SOL    HW227134   2.142   2.737  11.385
 8565SOL     OW27135   3.355   2.600  11.884
 8565SOL    HW127136   3.346   2.557  11.970
 8565SOL    HW227137   3.435   2.651  11.892
 8566SOL     OW27138   2.988   3.634  11.410
 8566SOL    HW127139   2.907   3.600  11.448
 8566SOL    HW227140   3.008   3.574  11.338
 8567SOL     OW27141   3.496   3.266  11.260
 8567SOL    HW127142   3.445   3.346  11.246
 8567SOL    HW227143   3.437   3.195  11.238
 8568SOL     OW27144   2.395   3.566  11.542
 8568SOL    HW127145   2.403   3.645  11.595
 8568SOL    HW227146   2.335   3.590  11.471
 8569SOL     OW27147   3.266   1.971  11.616
 8569SOL    HW127148   3.264   1.939  11.526
 8569SOL    HW227149   3.359   1.977  11.637
 8570SOL     OW27150   2.791   3.563  12.055
 8570SOL    HW127151   2.864   3.521  12.099
 8570SOL    HW227152   2.764   3.501  11.988
 8571SOL     OW27153   2.263   2.551  11.650
 8571SOL    HW127154   2.281   2.457  11.659
 8571SOL    HW227155   2.168   2.559  11.665
 8572SOL     OW27156   2.518   1.980  11.266
 8572SOL    HW127157   2.571   1.905  11.292
 8572SOL    HW227158   2.456   1.945  11.202
 8573SOL     OW27159   2.660   3.245  12.045
 8573SOL    HW127160   2.755   3.231  12.053
 8573SOL    HW227161   2.651   3.312  11.977
 8574SOL     OW27162   2.805   2.383  12.064
 8574SOL    HW127163   2.778   2.373  11.973
 8574SOL    HW227164   2.824   2.293  12.093
 8575SOL     OW27165   3.297   3.074  11.216
 8575SOL    HW127166   3.320   2.998  11.270
 8575SOL    HW227167   3.210   3.100  11.246
 8576SOL     OW27168   2.140   1.917  11.354
 8576SOL    HW127169   2.194   1.991  11.328
 8576SOL    HW227170   2.201   1.859  11.400
 8577SOL     OW27171   2.811   2.132  11.621
 8577SOL    HW127172   2.790   2.160  11.532
 8577SOL    HW227173   2.907   2.129  11.623
 8578SOL     OW27174   3.076   3.432  11.958
 8578SOL    HW127175   3.090   3.499  11.891
 8578SOL    HW227176   3.138   3.454  12.028
 8579SOL     OW27177   2.309   3.042  11.891
 8579SOL    HW127178   2.254   3.005  11.961
 8579SOL    HW227179   2.272   3.006  11.810
 8580SOL     OW27180   3.120   3.652  11.782
 8580SOL    HW127181   3.166   3.720  11.732
 8580SOL    HW227182   3.046   3.697  11.822
 8581SOL     OW27183   2.896   2.419  11.185
 8581SOL    HW127184   2.824   2.479  11.164
 8581SOL    HW227185   2.969   2.476  11.210
 8582SOL     OW27186   2.399   2.063  12.298
 8582SOL    HW127187   2.464   2.104  12.356
 8582SOL    HW227188   2.318   2.064  12.348
 8583SOL     OW27189   2.738   2.334  11.804
 8583SOL    HW127190   2.659   2.373  11.767
 8583SOL    HW227191   2.755   2.257  11.749
 8584SOL     OW27192   2.899   1.915  11.910
 8584SOL    HW127193   2.842   1.905  11.833
 8584SOL    HW227194   2.867   1.849  11.972
 8585SOL     OW27195   3.329   2.466  12.122
 8585SOL    HW127196   3.266   2.396  12.142
 8585SOL    HW227197   3.389   2.465  12.196
 8586SOL     OW27198   3.675   2.673  11.555
 8586SOL    HW127199   3.731   2.631  11.620
 8586SOL    HW227200   3.666   2.608  11.485
 8587SOL     OW27201   2.353   3.283  11.320
 8587SOL    HW127202   2.283   3.254  11.377
 8587SOL    HW227203   2.336   3.239  11.236
 8588SOL     OW27204   3.540   3.116  11.826
 8588SOL    HW127205   3.634   3.116  11.841
 8588SOL    HW227206   3.513   3.207  11.843
 8589SOL     OW27207   3.300   2.447  11.240
 8589SOL    HW127208   3.298   2.402  11.325
 8589SOL    HW227209   3.392   2.443  11.213
 8590SOL     OW27210   2.374   2.129  11.463
 8590SOL    HW127211   2.430   2.080  11.403
 8590SOL    HW227212   2.358   2.212  11.419
 8591SOL     OW27213   2.963   3.104  12.290
 8591SOL    HW127214   2.884   3.103  12.344
 8591SOL    HW227215   2.934   3.139  12.206
 8592SOL     OW27216   3.418   2.965  12.213
 8592SOL    HW127217   3.436   3.034  12.276
 8592SOL    HW227218   3.431   2.883  12.262
 8593SOL     OW27219   2.565   2.916  11.549
 8593SOL    HW127220   2.551   2.896  11.641
 8593SOL    HW227221   2.645   2.868  11.526
 8594SOL     OW27222   2.309   2.673  12.430
 8594SOL    HW127223   2.348   2.704  12.511
 8594SOL    HW227224   2.258   2.596  12.455
 8595SOL     OW27225   3.117   2.212  12.439
 8595SOL    HW127226   3.162   2.287  12.478
 8595SOL    HW227227   3.032   2.246  12.411
 8596SOL     OW27228   2.192   2.984  11.653
 8596SOL    HW127229   2.186   3.056  11.590
 8596SOL    HW227230   2.194   2.905  11.599
 8597SOL     OW27231   2.418   2.395  12.027
 8597SOL    HW127232   2.435   2.455  11.955
 8597SOL    HW227233   2.491   2.408  12.088
 8598SOL     OW27234   3.112   3.210  11.568
 8598SOL    HW127235   3.166   3.283  11.598
 8598SOL    HW227236   3.024   3.233  11.596
 8599SOL     OW27237   3.151   3.306  12.307
 8599SOL    HW127238   3.197   3.310  12.390
 8599SOL    HW227239   3.085   3.237  12.318
 8600SOL     OW27240   3.402   2.491  11.638
 8600SOL    HW127241   3.387   2.526  11.726
 8600SOL    HW227242   3.480   2.538  11.607
 8601SOL     OW27243   2.226   3.379  12.474
 8601SOL    HW127244   2.208   3.343  12.387
 8601SOL    HW227245   2.175   3.460  12.478
 8602SOL     OW27246   2.426   2.736  12.198
 8602SOL    HW127247   2.462   2.824  12.211
 8602SOL    HW227248   2.384   2.715  12.282
 8603SOL     OW27249   3.199   2.744  12.159
 8603SOL    HW127250   3.114   2.699  12.153
 8603SOL    HW227251   3.258   2.677  12.194
 8604SOL     OW27252   2.151   2.035  12.412
 8604SOL    HW127253   2.122   2.065  12.498
 8604SOL    HW227254   2.146   1.940  12.416
 8605SOL     OW27255   1.897   3.157  12.472
 8605SOL    HW127256   1.943   3.079  12.502
 8605SOL    HW227257   1.947   3.230  12.509
 8606SOL     OW27258   2.666   2.600  12.221
 8606SOL    HW127259   2.669   2.508  12.193
 8606SOL    HW227260   2.575   2.626  12.211
 8607SOL     OW27261   2.104   1.923  11.790
 8607SOL    HW127262   2.118   2.016  11.807
 8607SOL    HW227263   2.148   1.878  11.863
 8608SOL     OW27264   3.485   2.248  11.525
 8608SOL    HW127265   3.510   2.176  11.583
 8608SOL    HW227266   3.459   2.318  11.584
 8609SOL     OW27267   2.954   2.607  12.153
 8609SOL    HW127268   2.927   2.641  12.238
 8609SOL    HW227269   2.899   2.530  12.139
 8610SOL     OW27270   3.387   2.138  11.294
 8610SOL    HW127271   3.334   2.064  11.323
 8610SOL    HW227272   3.426   2.172  11.375
 8611SOL     OW27273   3.156   2.674  11.198
 8611SOL    HW127274   3.210   2.595  11.203
 8611SOL    HW227275   3.185   2.718  11.118
 8612SOL     OW27276   2.928   3.210  12.035
 8612SOL    HW127277   2.940   3.136  11.976
 8612SOL    HW227278   2.986   3.278  12.000
 8613SOL     OW27279   2.172   2.672  12.101
 8613SOL    HW127280   2.264   2.690  12.123
 8613SOL    HW227281   2.161   2.579  12.123
 8614SOL     OW27282   2.169   2.401  12.137
 8614SOL    HW127283   2.144   2.310  12.153
 8614SOL    HW227284   2.256   2.395  12.098
 8615SOL     OW27285   3.027   2.055   0.151
 8615SOL    HW127286   3.011   2.121   0.219
 8615SOL    HW227287   3.060   2.105   0.077
 8616SOL     OW27288   1.881   3.179  11.369
 8616SOL    HW127289   1.793   3.194  11.335
 8616SOL    HW227290   1.878   3.091  11.407
 8617SOL     OW27291   1.940   3.659  12.078
 8617SOL    HW127292   1.918   3.569  12.055
 8617SOL    HW227293   2.035   3.661  12.079
 8618SOL     OW27294   2.403   3.395  12.038
 8618SOL    HW127295   2.444   3.480  12.049
 8618SOL    HW227296   2.445   3.339  12.103
 8619SOL     OW27297   2.847   2.663  12.415
 8619SOL    HW127298   2.852   2.588  12.475
 8619SOL    HW227299   2.771   2.644  12.360
 8620SOL     OW27300   1.960   2.464  12.336
 8620SOL    HW127301   1.995   2.428  12.255
 8620SOL    HW227302   1.866   2.445  12.332
 8621SOL     OW27303   2.669   2.444  11.520
 8621SOL    HW127304   2.667   2.364  11.468
 8621SOL    HW227305   2.591   2.492  11.494
 8622SOL     OW27306   3.516   2.475  12.317
 8622SOL    HW127307   3.509   2.417  12.393
 8622SOL    HW227308   3.609   2.475  12.296
 8623SOL     OW27309   2.790   3.514   0.032
 8623SOL    HW127310   2.764   3.559  -0.048
 8623SOL    HW227311   2.785   3.582   0.100
 8624SOL     OW27312   2.334   2.367  11.342
 8624SOL    HW127313   2.385   2.441  11.374
 8624SOL    HW227314   2.246   2.402  11.329
 8625SOL     OW27315   3.097   2.896  12.398
 8625SOL    HW127316   3.149   2.858  12.327
 8625SOL    HW227317   3.057   2.974  12.359
 8626SOL     OW27318   3.135   2.632  11.475
 8626SOL    HW127319   3.076   2.698  11.511
 8626SOL    HW227320   3.140   2.652  11.382
 8627SOL     OW27321   3.602   3.595  12.279
 8627SOL    HW127322   3.680   3.625  12.231
 8627SOL    HW227323   3.605   3.500  12.273
 8628SOL     OW27324   3.105   3.587  12.266
 8628SOL    HW127325   3.190   3.614  12.231
 8628SOL    HW227326   3.118   3.495  12.291
 8629SOL     OW27327   1.902   3.158  12.186
 8629SOL    HW127328   1.909   3.134  12.279
 8629SOL    HW227329   1.882   3.075  12.142
 8630SOL     OW27330   3.552   2.010  11.654
 8630SOL    HW127331   3.637   2.004  11.610
 8630SOL    HW227332   3.547   1.930  11.707
 8631SOL     OW27333   3.255   3.431  11.663
 8631SOL    HW127334   3.310   3.467  11.594
 8631SOL    HW227335   3.202   3.504  11.693
 8632SOL     OW27336   3.168   2.796  11.852
 8632SOL    HW127337   3.232   2.725  11.846
 8632SOL    HW227338   3.192   2.856  11.782
 8633SOL     OW27339   2.576   3.447  11.308
 8633SOL    HW127340   2.563   3.480  11.219
 8633SOL    HW227341   2.495   3.400  11.328
 8634SOL     OW27342   3.485   3.649   0.023
 8634SOL    HW127343   3.532   3.638  -0.060
 8634SOL    HW227344   3.540   3.708   0.074
 8635SOL     OW27345   3.714   2.030  12.079
 8635SOL    HW127346   3.748   1.942  12.089
 8635SOL    HW227347   3.619   2.020  12.074
 8636SOL     OW27348   2.130   2.181  11.885
 8636SOL    HW127349   2.045   2.220  11.866
 8636SOL    HW227350   2.131   2.169  11.980
 8637SOL     OW27351   3.073   3.465  11.206
 8637SOL    HW127352   3.058   3.374  11.232
 8637SOL    HW227353   3.007   3.481  11.138
 8638SOL     OW27354   2.792   2.926   0.029
 8638SOL    HW127355   2.738   2.871  -0.028
 8638SOL    HW227356   2.730   2.970   0.087
 8639SOL     OW27357   2.788   2.785  11.478
 8639SOL    HW127358   2.846   2.810  11.406
 8639SOL    HW227359   2.820   2.699  11.506
 8640SOL     OW27360   3.348   3.500  11.218
 8640SOL    HW127361   3.254   3.489  11.205
 8640SOL    HW227362   3.384   3.505  11.130
 8641SOL     OW27363   2.938   2.971  11.906
 8641SOL    HW127364   2.862   2.925  11.942
 8641SOL    HW227365   2.983   2.905  11.853
 8642SOL     OW27366   2.894   2.114  12.129
 8642SOL    HW127367   2.887   2.068  12.045
 8642SOL    HW227368   2.886   2.046  12.195
 8643SOL     OW27369   2.466   3.345  11.676
 8643SOL    HW127370   2.513   3.290  11.615
 8643SOL    HW227371   2.436   3.419  11.623
 8644SOL     OW27372   3.565   2.296   0.013
 8644SOL    HW127373   3.613   2.335   0.086
 8644SOL    HW227374   3.599   2.207   0.007
 8645SOL     OW27375   2.137   3.203  11.491
 8645SOL    HW127376   2.048   3.207  11.457
 8645SOL    HW227377   2.137   3.264  11.564
 8646SOL     OW27378   1.942   2.194  11.199
 8646SOL    HW127379   1.858   2.181  11.154
 8646SOL    HW227380   1.981   2.269  11.155
 8647SOL     OW27381   1.911   2.019  11.469
 8647SOL    HW127382   1.902   2.093  11.408
 8647SOL    HW227383   1.999   1.985  11.451
 8648SOL     OW27384   3.035   3.197  11.289
 8648SOL    HW127385   2.940   3.190  11.286
 8648SOL    HW227386   3.056   3.195  11.383
 8649SOL     OW27387   3.356   3.654  12.163
 8649SOL    HW127388   3.377   3.720  12.097
 8649SOL    HW227389   3.440   3.632  12.203
 8650SOL     OW27390   3.477   2.746  12.358
 8650SOL    HW127391   3.491   2.653  12.344
 8650SOL    HW227392   3.526   2.766  12.438
 8651SOL     OW27393   3.103   2.196  11.629
 8651SOL    HW127394   3.150   2.115  11.611
 8651SOL    HW227395   3.115   2.211  11.723
 8652SOL     OW27396   2.468   2.588  11.836
 8652SOL    HW127397   2.493   2.681  11.829
 8652SOL    HW227398   2.396   2.578  11.774
 8653SOL     OW27399   2.752   3.242  11.227
 8653SOL    HW127400   2.691   3.289  11.285
 8653SOL    HW227401   2.770   3.304  11.157
 8654SOL     OW27402   2.517   3.636  12.087
 8654SOL    HW127403   2.495   3.728  12.078
 8654SOL    HW227404   2.612   3.634  12.096
 8655SOL     OW27405   2.732   2.831  12.030
 8655SOL    HW127406   2.740   2.748  12.077
 8655SOL    HW227407   2.690   2.890  12.093
 8656SOL     OW27408   2.954   2.847  11.274
 8656SOL    HW127409   2.922   2.901  11.202
 8656SOL    HW227410   3.021   2.792  11.235
 8657SOL     OW27411   3.713   3.409  12.018
 8657SOL    HW127412   3.625   3.396  11.982
 8657SOL    HW227413   3.726   3.334  12.076
 8658SOL     OW27414   1.957   3.093  11.835
 8658SOL    HW127415   1.969   3.042  11.915
 8658SOL    HW227416   2.010   3.049  11.770
 8659SOL     OW27417   2.303   2.288  11.690
 8659SOL    HW127418   2.326   2.218  11.629
 8659SOL    HW227419   2.255   2.244  11.760
 8660SOL     OW27420   3.559   3.319  12.283
 8660SOL    HW127421   3.481   3.339  12.335
 8660SOL    HW227422   3.621   3.282  12.346
 8661SOL     OW27423   2.677   3.441  11.829
 8661SOL    HW127424   2.687   3.531  11.797
 8661SOL    HW227425   2.605   3.405  11.777
 8662SOL     OW27426   3.321   2.101  12.296
 8662SOL    HW127427   3.398   2.091  12.352
 8662SOL    HW227428   3.252   2.131  12.356
 8663SOL     OW27429   2.887   1.894  12.288
 8663SOL    HW127430   2.813   1.835  12.279
 8663SOL    HW227431   2.964   1.839  12.274
 8664SOL     OW27432   2.622   3.186  11.528
 8664SOL    HW127433   2.602   3.093  11.522
 8664SOL    HW227434   2.716   3.190  11.544
 8665SOL     OW27435   3.238   1.911  11.345
 8665SOL    HW127436   3.278   1.835  11.303
 8665SOL    HW227437   3.148   1.884  11.363
 8666SOL     OW27438   3.148   2.341  11.856
 8666SOL    HW127439   3.096   2.418  11.878
 8666SOL    HW227440   3.153   2.291  11.938
 8667SOL     OW27441   3.432   2.031  12.054
 8667SOL    HW127442   3.392   2.060  12.136
 8667SOL    HW227443   3.439   2.110  12.000
 8668SOL     OW27444   1.910   2.930  11.490
 8668SOL    HW127445   2.001   2.917  11.464
 8668SOL    HW227446   1.878   2.842  11.509
 8669SOL     OW27447   2.750   3.522  11.508
 8669SOL    HW127448   2.685   3.498  11.443
 8669SOL    HW227449   2.707   3.589  11.562
 8670SOL     OW27450   2.085   4.290   0.035
 8670SOL    HW127451   2.069   4.353   0.105
 8670SOL    HW227452   2.108   4.344  -0.041
 8671SOL     OW27453   2.065   4.063   1.020
 8671SOL    HW127454   2.109   4.015   1.091
 8671SOL    HW227455   1.990   4.008   0.997
 8672SOL     OW27456   1.848   4.100   0.632
 8672SOL    HW127457   1.772   4.133   0.679
 8672SOL    HW227458   1.816   4.022   0.587
 8673SOL     OW27459   2.419   5.022   1.185
 8673SOL    HW127460   2.339   5.039   1.135
 8673SOL    HW227461   2.441   5.106   1.226
 8674SOL     OW27462   3.418   5.246   0.713
 8674SOL    HW127463   3.380   5.233   0.800
 8674SOL    HW227464   3.342   5.252   0.654
 8675SOL     OW27465   2.978   4.446   0.780
 8675SOL    HW127466   3.027   4.516   0.738
 8675SOL    HW227467   2.894   4.444   0.735
 8676SOL     OW27468   3.540   4.335   0.238
 8676SOL    HW127469   3.598   4.387   0.181
 8676SOL    HW227470   3.555   4.245   0.211
 8677SOL     OW27471   2.585   4.870   1.032
 8677SOL    HW127472   2.523   4.907   1.094
 8677SOL    HW227473   2.630   4.946   0.995
 8678SOL     OW27474   2.767   4.530   1.841
 8678SOL    HW127475   2.676   4.546   1.866
 8678SOL    HW227476   2.768   4.543   1.746
 8679SOL     OW27477   2.554   4.709   0.649
 8679SOL    HW127478   2.620   4.711   0.719
 8679SOL    HW227479   2.481   4.760   0.684
 8680SOL     OW27480   2.564   4.871   1.811
 8680SOL    HW127481   2.597   4.957   1.784
 8680SOL    HW227482   2.473   4.871   1.783
 8681SOL     OW27483   2.195   5.141   1.068
 8681SOL    HW127484   2.122   5.109   1.016
 8681SOL    HW227485   2.243   5.199   1.009
 8682SOL     OW27486   3.337   5.222   1.378
 8682SOL    HW127487   3.371   5.311   1.377
 8682SOL    HW227488   3.249   5.229   1.416
 8683SOL     OW27489   2.315   4.147   1.505
 8683SOL    HW127490   2.394   4.094   1.495
 8683SOL    HW227491   2.253   4.089   1.548
 8684SOL     OW27492   3.482   4.189   0.744
 8684SOL    HW127493   3.450   4.228   0.663
 8684SOL    HW227494   3.450   4.247   0.813
 8685SOL     OW27495   2.101   5.430   0.476
 8685SOL    HW127496   2.120   5.505   0.532
 8685SOL    HW227497   2.175   5.426   0.415
 8686SOL     OW27498   3.019   5.043   1.694
 8686SOL    HW127499   3.029   5.058   1.788
 8686SOL    HW227500   2.956   4.972   1.687
 8687SOL     OW27501   2.026   5.167   0.506
 8687SOL    HW127502   2.068   5.253   0.514
 8687SOL    HW227503   2.024   5.133   0.595
 8688SOL     OW27504   2.123   4.811   0.901
 8688SOL    HW127505   2.110   4.743   0.967
 8688SOL    HW227506   2.077   4.887   0.935
 8689SOL     OW27507   2.437   5.528   1.399
 8689SOL    HW127508   2.373   5.504   1.465
 8689SOL    HW227509   2.480   5.606   1.434
 8690SOL     OW27510   2.441   4.693   0.159
 8690SOL    HW127511   2.510   4.710   0.094
 8690SOL    HW227512   2.474   4.732   0.240
 8691SOL     OW27513   3.368   3.900   1.461
 8691SOL    HW127514   3.434   3.948   1.411
 8691SOL    HW227515   3.403   3.897   1.550
 8692SOL     OW27516   1.993   4.354   0.548
 8692SOL    HW127517   1.938   4.276   0.558
 8692SOL    HW227518   1.974   4.406   0.626
 8693SOL     OW27519   3.716   5.467   0.315
 8693SOL    HW127520   3.787   5.435   0.372
 8693SOL    HW227521   3.736   5.559   0.301
 8694SOL     OW27522   1.872   5.211   0.181
 8694SOL    HW127523   1.793   5.184   0.135
 8694SOL    HW227524   1.895   5.296   0.142
 8695SOL     OW27525   3.531   4.646   0.642
 8695SOL    HW127526   3.595   4.598   0.589
 8695SOL    HW227527   3.497   4.713   0.584
 8696SOL     OW27528   3.498   4.844   0.444
 8696SOL    HW127529   3.587   4.838   0.410
 8696SOL    HW227530   3.502   4.911   0.512
 8697SOL     OW27531   2.425   5.100   0.775
 8697SOL    HW127532   2.414   5.011   0.742
 8697SOL    HW227533   2.497   5.136   0.724
 8698SOL     OW27534   3.139   4.937   1.422
 8698SOL    HW127535   3.193   4.886   1.361
 8698SOL    HW227536   3.196   4.948   1.499
 8699SOL     OW27537   2.690   3.746   0.518
 8699SOL    HW127538   2.723   3.834   0.498
 8699SOL    HW227539   2.595   3.756   0.521
 8700SOL     OW27540   2.045   4.684   1.272
 8700SOL    HW127541   2.128   4.638   1.265
 8700SOL    HW227542   1.980   4.622   1.238
 8701SOL     OW27543   3.364   4.739   0.227
 8701SOL    HW127544   3.300   4.677   0.262
 8701SOL    HW227545   3.410   4.772   0.305
 8702SOL     OW27546   3.085   5.563   1.635
 8702SOL    HW127547   3.067   5.615   1.557
 8702SOL    HW227548   3.069   5.472   1.608
 8703SOL     OW27549   2.168   4.049   1.763
 8703SOL    HW127550   2.241   3.988   1.754
 8703SOL    HW227551   2.119   4.017   1.839
 8704SOL     OW27552   3.339   5.130   0.956
 8704SOL    HW127553   3.268   5.148   1.017
 8704SOL    HW227554   3.321   5.041   0.925
 8705SOL     OW27555   3.502   5.490   0.585
 8705SOL    HW127556   3.489   5.441   0.503
 8705SOL    HW227557   3.481   5.427   0.654
 8706SOL     OW27558   2.443   4.438   0.271
 8706SOL    HW127559   2.455   4.526   0.235
 8706SOL    HW227560   2.379   4.450   0.341
 8707SOL     OW27561   3.123   4.109   0.959
 8707SOL    HW127562   3.041   4.060   0.954
 8707SOL    HW227563   3.183   4.050   1.005
 8708SOL     OW27564   3.453   5.392   0.326
 8708SOL    HW127565   3.544   5.419   0.320
 8708SOL    HW227566   3.437   5.343   0.245
 8709SOL     OW27567   2.652   4.346   1.455
 8709SOL    HW127568   2.634   4.316   1.545
 8709SOL    HW227569   2.626   4.272   1.400
 8710SOL     OW27570   3.273   4.200   1.685
 8710SOL    HW127571   3.268   4.249   1.767
 8710SOL    HW227572   3.339   4.133   1.702
 8711SOL     OW27573   2.808   4.617   1.575
 8711SOL    HW127574   2.864   4.552   1.534
 8711SOL    HW227575   2.760   4.657   1.502
 8712SOL     OW27576   2.872   4.138   1.211
 8712SOL    HW127577   2.785   4.157   1.246
 8712SOL    HW227578   2.857   4.065   1.151
 8713SOL     OW27579   2.906   4.415   0.425
 8713SOL    HW127580   2.917   4.376   0.512
 8713SOL    HW227581   2.823   4.381   0.393
 8714SOL     OW27582   1.968   4.482   0.785
 8714SOL    HW127583   2.019   4.537   0.845
 8714SOL    HW227584   1.890   4.534   0.764
 8715SOL     OW27585   1.960   5.557   1.561
 8715SOL    HW127586   1.968   5.555   1.656
 8715SOL    HW227587   1.962   5.650   1.538
 8716SOL     OW27588   2.755   4.082   0.226
 8716SOL    HW127589   2.786   4.152   0.168
 8716SOL    HW227590   2.737   4.009   0.167
 8717SOL     OW27591   3.562   4.301   1.837
 8717SOL    HW127592   3.533   4.374   1.781
 8717SOL    HW227593   3.586   4.232   1.776
 8718SOL     OW27594   3.234   4.860   0.542
 8718SOL    HW127595   3.314   4.858   0.490
 8718SOL    HW227596   3.179   4.926   0.499
 8719SOL     OW27597   2.383   3.911   0.896
 8719SOL    HW127598   2.401   3.927   0.989
 8719SOL    HW227599   2.422   3.985   0.850
 8720SOL     OW27600   2.855   5.169   0.455
 8720SOL    HW127601   2.835   5.248   0.404
 8720SOL    HW227602   2.812   5.183   0.540
 8721SOL     OW27603   2.213   5.548   0.880
 8721SOL    HW127604   2.260   5.464   0.888
 8721SOL    HW227605   2.280   5.614   0.898
 8722SOL     OW27606   3.663   4.771   0.848
 8722SOL    HW127607   3.601   4.734   0.785
 8722SOL    HW227608   3.611   4.785   0.927
 8723SOL     OW27609   3.087   5.255   1.497
 8723SOL    HW127610   3.067   5.190   1.564
 8723SOL    HW227611   3.003   5.296   1.476
 8724SOL     OW27612   2.180   4.718   0.244
 8724SOL    HW127613   2.265   4.718   0.199
 8724SOL    HW227614   2.146   4.630   0.230
 8725SOL     OW27615   3.330   4.488   0.743
 8725SOL    HW127616   3.351   4.433   0.819
 8725SOL    HW227617   3.411   4.534   0.724
 8726SOL     OW27618   2.301   4.901   1.749
 8726SOL    HW127619   2.303   4.936   1.660
 8726SOL    HW227620   2.227   4.945   1.790
 8727SOL     OW27621   3.000   5.519   0.251
 8727SOL    HW127622   2.935   5.481   0.310
 8727SOL    HW227623   3.022   5.447   0.191
 8728SOL     OW27624   2.054   3.984   1.482
 8728SOL    HW127625   1.969   4.020   1.506
 8728SOL    HW227626   2.060   3.901   1.530
 8729SOL     OW27627   3.503   5.146   0.106
 8729SOL    HW127628   3.444   5.203   0.057
 8729SOL    HW227629   3.462   5.060   0.102
 8730SOL     OW27630   2.319   5.467   0.316
 8730SOL    HW127631   2.368   5.521   0.378
 8730SOL    HW227632   2.387   5.416   0.270
 8731SOL     OW27633   3.273   3.843   0.417
 8731SOL    HW127634   3.243   3.762   0.376
 8731SOL    HW227635   3.349   3.816   0.469
 8732SOL     OW27636   2.122   5.501   1.245
 8732SOL    HW127637   2.208   5.485   1.286
 8732SOL    HW227638   2.139   5.495   1.151
 8733SOL     OW27639   2.792   5.432   0.902
 8733SOL    HW127640   2.864   5.375   0.933
 8733SOL    HW227641   2.750   5.381   0.833
 8734SOL     OW27642   2.251   4.414   0.474
 8734SOL    HW127643   2.278   4.323   0.485
 8734SOL    HW227644   2.160   4.416   0.503
 8735SOL     OW27645   3.396   3.922   1.738
 8735SOL    HW127646   3.390   3.964   1.824
 8735SOL    HW227647   3.390   3.828   1.757
 8736SOL     OW27648   2.439   3.826   0.132
 8736SOL    HW127649   2.534   3.827   0.122
 8736SOL    HW227650   2.407   3.776   0.057
 8737SOL     OW27651   2.659   4.018   1.770
 8737SOL    HW127652   2.722   3.953   1.740
 8737SOL    HW227653   2.575   3.972   1.769
 8738SOL     OW27654   2.720   5.227   1.196
 8738SOL    HW127655   2.707   5.192   1.107
 8738SOL    HW227656   2.802   5.186   1.226
 8739SOL     OW27657   3.198   4.313   1.441
 8739SOL    HW127658   3.238   4.285   1.523
 8739SOL    HW227659   3.235   4.400   1.425
 8740SOL     OW27660   2.696   5.106   0.945
 8740SOL    HW127661   2.786   5.094   0.914
 8740SOL    HW227662   2.652   5.152   0.874
 8741SOL     OW27663   2.808   4.233   0.907
 8741SOL    HW127664   2.784   4.230   0.814
 8741SOL    HW227665   2.817   4.141   0.932
 8742SOL     OW27666   2.418   3.785   0.503
 8742SOL    HW127667   2.337   3.784   0.554
 8742SOL    HW227668   2.413   3.865   0.450
 8743SOL     OW27669   3.323   4.944   0.051
 8743SOL    HW127670   3.334   4.864   0.103
 8743SOL    HW227671   3.232   4.970   0.068
 8744SOL     OW27672   2.169   3.811   0.223
 8744SOL    HW127673   2.261   3.832   0.208
 8744SOL    HW227674   2.165   3.716   0.212
 8745SOL     OW27675   2.808   3.994   0.477
 8745SOL    HW127676   2.781   4.021   0.389
 8745SOL    HW227677   2.904   3.998   0.474
 8746SOL     OW27678   2.939   4.417   1.436
 8746SOL    HW127679   2.872   4.353   1.461
 8746SOL    HW227680   3.022   4.371   1.448
 8747SOL     OW27681   3.098   5.297   0.813
 8747SOL    HW127682   3.106   5.364   0.745
 8747SOL    HW227683   3.126   5.340   0.893
 8748SOL     OW27684   2.330   4.840   0.723
 8748SOL    HW127685   2.266   4.834   0.794
 8748SOL    HW227686   2.277   4.843   0.644
 8749SOL     OW27687   3.120   5.512   0.608
 8749SOL    HW127688   3.168   5.584   0.566
 8749SOL    HW227689   3.046   5.555   0.652
 8750SOL     OW27690   2.867   4.306   0.109
 8750SOL    HW127691   2.862   4.360   0.030
 8750SOL    HW227692   2.960   4.302   0.130
 8751SOL     OW27693   1.950   4.292   1.373
 8751SOL    HW127694   2.043   4.271   1.362
 8751SOL    HW227695   1.946   4.333   1.459
 8752SOL     OW27696   2.425   3.955   1.168
 8752SOL    HW127697   2.476   3.890   1.215
 8752SOL    HW227698   2.336   3.944   1.200
 8753SOL     OW27699   2.751   4.216   0.637
 8753SOL    HW127700   2.694   4.257   0.571
 8753SOL    HW227701   2.769   4.129   0.603
 8754SOL     OW27702   2.849   3.789   0.757
 8754SOL    HW127703   2.804   3.768   0.675
 8754SOL    HW227704   2.848   3.708   0.806
 8755SOL     OW27705   3.297   4.874   0.851
 8755SOL    HW127706   3.202   4.871   0.840
 8755SOL    HW227707   3.332   4.886   0.763
 8756SOL     OW27708   3.342   4.319   0.965
 8756SOL    HW127709   3.288   4.240   0.976
 8756SOL    HW227710   3.401   4.318   1.040
 8757SOL     OW27711   3.686   4.545   0.441
 8757SOL    HW127712   3.749   4.474   0.454
 8757SOL    HW227713   3.655   4.532   0.351
 8758SOL     OW27714   2.362   5.124   0.125
 8758SOL    HW127715   2.345   5.059   0.193
 8758SOL    HW227716   2.386   5.073   0.048
 8759SOL     OW27717   3.531   5.006   0.653
 8759SOL    HW127718   3.621   5.016   0.682
 8759SOL    HW227719   3.490   5.091   0.672
 8760SOL     OW27720   3.280   4.259   0.107
 8760SOL    HW127721   3.213   4.272   0.174
 8760SOL    HW227722   3.359   4.300   0.143
 8761SOL     OW27723   2.398   4.000   0.340
 8761SOL    HW127724   2.429   3.941   0.271
 8761SOL    HW227725   2.365   4.077   0.293
 8762SOL     OW27726   3.615   4.964   1.561
 8762SOL    HW127727   3.702   4.926   1.548
 8762SOL    HW227728   3.633   5.056   1.583
 8763SOL     OW27729   2.923   5.056   1.306
 8763SOL    HW127730   2.846   5.038   1.359
 8763SOL    HW227731   2.997   5.028   1.360
 8764SOL     OW27732   3.488   5.353   1.671
 8764SOL    HW127733   3.465   5.388   1.584
 8764SOL    HW227734   3.565   5.298   1.654
 8765SOL     OW27735   2.965   4.890   1.089
 8765SOL    HW127736   2.945   4.947   1.163
 8765SOL    HW227737   2.964   4.949   1.013
 8766SOL     OW27738   3.491   4.821   1.064
 8766SOL    HW127739   3.486   4.884   1.136
 8766SOL    HW227740   3.415   4.841   1.009
 8767SOL     OW27741   2.757   3.829   1.384
 8767SOL    HW127742   2.799   3.799   1.303
 8767SOL    HW227743   2.822   3.812   1.452
 8768SOL     OW27744   2.850   4.811   1.766
 8768SOL    HW127745   2.766   4.854   1.778
 8768SOL    HW227746   2.839   4.757   1.688
 8769SOL     OW27747   2.570   4.785   0.383
 8769SOL    HW127748   2.561   4.763   0.476
 8769SOL    HW227749   2.649   4.740   0.355
 8770SOL     OW27750   2.270   4.523   1.239
 8770SOL    HW127751   2.338   4.544   1.303
 8770SOL    HW227752   2.249   4.432   1.256
 8771SOL     OW27753   3.110   4.073   1.338
 8771SOL    HW127754   3.147   4.158   1.361
 8771SOL    HW227755   3.029   4.094   1.293
 8772SOL     OW27756   2.204   4.864   0.481
 8772SOL    HW127757   2.276   4.923   0.458
 8772SOL    HW227758   2.201   4.801   0.410
 8773SOL     OW27759   2.374   4.268   0.862
 8773SOL    HW127760   2.402   4.321   0.787
 8773SOL    HW227761   2.442   4.281   0.928
 8774SOL     OW27762   3.105   5.069   0.406
 8774SOL    HW127763   3.159   5.143   0.434
 8774SOL    HW227764   3.016   5.093   0.432
 8775SOL     OW27765   3.142   5.166   1.139
 8775SOL    HW127766   3.157   5.258   1.160
 8775SOL    HW227767   3.076   5.138   1.202
 8776SOL     OW27768   3.437   4.323   0.500
 8776SOL    HW127769   3.377   4.394   0.523
 8776SOL    HW227770   3.475   4.350   0.416
 8777SOL     OW27771   2.181   5.212   1.326
 8777SOL    HW127772   2.187   5.191   1.233
 8777SOL    HW227773   2.267   5.248   1.348
 8778SOL     OW27774   2.269   4.449   1.593
 8778SOL    HW127775   2.333   4.493   1.536
 8778SOL    HW227776   2.292   4.356   1.588
 8779SOL     OW27777   3.476   4.512   1.688
 8779SOL    HW127778   3.388   4.548   1.680
 8779SOL    HW227779   3.526   4.555   1.619
 8780SOL     OW27780   2.866   3.832   1.715
 8780SOL    HW127781   2.927   3.893   1.758
 8780SOL    HW227782   2.858   3.759   1.777
 8781SOL     OW27783   2.474   4.608   1.041
 8781SOL    HW127784   2.505   4.697   1.030
 8781SOL    HW227785   2.415   4.611   1.116
 8782SOL     OW27786   3.159   4.526   1.013
 8782SOL    HW127787   3.174   4.589   0.943
 8782SOL    HW227788   3.236   4.470   1.012
 8783SOL     OW27789   3.090   4.262   0.292
 8783SOL    HW127790   3.074   4.179   0.337
 8783SOL    HW227791   3.030   4.323   0.334
 8784SOL     OW27792   2.161   3.928   1.239
 8784SOL    HW127793   2.127   3.954   1.324
 8784SOL    HW227794   2.147   3.834   1.235
 8785SOL     OW27795   1.944   5.055   1.272
 8785SOL    HW127796   1.945   4.986   1.339
 8785SOL    HW227797   2.018   5.111   1.295
 8786SOL     OW27798   2.571   4.348   1.034
 8786SOL    HW127799   2.654   4.339   0.988
 8786SOL    HW227800   2.550   4.441   1.028
 8787SOL     OW27801   3.552   4.698   1.876
 8787SOL    HW127802   3.543   4.629   1.810
 8787SOL    HW227803   3.482   4.680   1.939
 8788SOL     OW27804   2.177   3.799   0.633
 8788SOL    HW127805   2.155   3.888   0.659
 8788SOL    HW227806   2.186   3.751   0.715
 8789SOL     OW27807   3.440   4.080   0.363
 8789SOL    HW127808   3.493   4.019   0.413
 8789SOL    HW227809   3.438   4.159   0.416
 8790SOL     OW27810   2.893   5.319   1.712
 8790SOL    HW127811   2.847   5.372   1.648
 8790SOL    HW227812   2.845   5.236   1.713
 8791SOL     OW27813   3.718   5.216   1.605
 8791SOL    HW127814   3.732   5.249   1.516
 8791SOL    HW227815   3.801   5.229   1.649
 8792SOL     OW27816   2.245   4.619   1.818
 8792SOL    HW127817   2.288   4.701   1.845
 8792SOL    HW227818   2.296   4.590   1.742
 8793SOL     OW27819   3.167   4.536   0.049
 8793SOL    HW127820   3.216   4.460   0.016
 8793SOL    HW227821   3.186   4.605  -0.015
 8794SOL     OW27822   2.953   5.059   0.867
 8794SOL    HW127823   2.949   5.002   0.791
 8794SOL    HW227824   3.005   5.134   0.838
 8795SOL     OW27825   2.195   4.489   0.968
 8795SOL    HW127826   2.271   4.525   0.922
 8795SOL    HW227827   2.215   4.503   1.061
 8796SOL     OW27828   3.030   4.081   1.664
 8796SOL    HW127829   2.962   4.123   1.716
 8796SOL    HW227830   3.108   4.135   1.677
 8797SOL     OW27831   1.946   5.507   0.925
 8797SOL    HW127832   1.923   5.425   0.881
 8797SOL    HW227833   2.038   5.520   0.905
 8798SOL     OW27834   2.341   5.311   0.915
 8798SOL    HW127835   2.417   5.367   0.933
 8798SOL    HW227836   2.376   5.240   0.861
 8799SOL     OW27837   2.849   4.470   1.182
 8799SOL    HW127838   2.894   4.466   1.267
 8799SOL    HW227839   2.756   4.475   1.205
 8800SOL     OW27840   1.904   4.268   1.106
 8800SOL    HW127841   1.949   4.187   1.084
 8800SOL    HW227842   1.926   4.284   1.198
 8801SOL     OW27843   2.015   4.260   1.662
 8801SOL    HW127844   2.080   4.196   1.690
 8801SOL    HW227845   1.932   4.211   1.663
 8802SOL     OW27846   3.242   4.654   1.653
 8802SOL    HW127847   3.267   4.746   1.649
 8802SOL    HW227848   3.238   4.627   1.561
 8803SOL     OW27849   2.664   4.301   0.378
 8803SOL    HW127850   2.680   4.224   0.322
 8803SOL    HW227851   2.590   4.346   0.336
 8804SOL     OW27852   3.509   4.324   1.177
 8804SOL    HW127853   3.504   4.271   1.256
 8804SOL    HW227854   3.599   4.311   1.146
 8805SOL     OW27855   2.107   5.262   1.718
 8805SOL    HW127856   2.086   5.333   1.778
 8805SOL    HW227857   2.119   5.186   1.774
 8806SOL     OW27858   2.595   4.176   1.247
 8806SOL    HW127859   2.536   4.101   1.241
 8806SOL    HW227860   2.571   4.231   1.172
 8807SOL     OW27861   2.831   5.402   1.445
 8807SOL    HW127862   2.769   5.354   1.390
 8807SOL    HW227863   2.807   5.494   1.433
 8808SOL     OW27864   2.305   4.208   0.201
 8808SOL    HW127865   2.360   4.286   0.208
 8808SOL    HW227866   2.240   4.231   0.135
 8809SOL     OW27867   1.988   4.855   1.475
 8809SOL    HW127868   1.995   4.802   1.554
 8809SOL    HW227869   2.010   4.795   1.404
 8810SOL     OW27870   3.171   4.742   1.204
 8810SOL    HW127871   3.163   4.669   1.142
 8810SOL    HW227872   3.106   4.806   1.175
 8811SOL     OW27873   3.173   4.565   0.323
 8811SOL    HW127874   3.088   4.546   0.363
 8811SOL    HW227875   3.161   4.543   0.231
 8812SOL     OW27876   3.660   5.449   1.173
 8812SOL    HW127877   3.704   5.485   1.096
 8812SOL    HW227878   3.607   5.377   1.139
 8813SOL     OW27879   1.954   5.014   0.997
 8813SOL    HW127880   1.939   5.028   1.090
 8813SOL    HW227881   1.888   4.950   0.971
 8814SOL     OW27882   2.580   5.432   1.797
 8814SOL    HW127883   2.519   5.488   1.749
 8814SOL    HW227884   2.588   5.353   1.743
 8815SOL     OW27885   3.600   3.892   0.502
 8815SOL    HW127886   3.668   3.863   0.441
 8815SOL    HW227887   3.571   3.811   0.545
 8816SOL     OW27888   3.245   5.293   0.490
 8816SOL    HW127889   3.309   5.332   0.430
 8816SOL    HW227890   3.196   5.367   0.524
 8817SOL     OW27891   2.005   5.503   1.823
 8817SOL    HW127892   1.957   5.446   1.882
 8817SOL    HW227893   2.049   5.566   1.880
 8818SOL     OW27894   3.125   4.643   0.663
 8818SOL    HW127895   3.201   4.588   0.681
 8818SOL    HW227896   3.158   4.716   0.612
 8819SOL     OW27897   2.673   4.995   1.415
 8819SOL    HW127898   2.662   5.036   1.501
 8819SOL    HW227899   2.607   5.036   1.360
 8820SOL     OW27900   2.524   5.333   0.182
 8820SOL    HW127901   2.559   5.347   0.094
 8820SOL    HW227902   2.469   5.255   0.175
 8821SOL     OW27903   3.502   5.457   1.408
 8821SOL    HW127904   3.545   5.457   1.323
 8821SOL    HW227905   3.483   5.549   1.426
 8822SOL     OW27906   3.709   3.912   0.934
 8822SOL    HW127907   3.738   3.823   0.916
 8822SOL    HW227908   3.617   3.913   0.908
 8823SOL     OW27909   2.097   4.059   0.733
 8823SOL    HW127910   2.012   4.070   0.691
 8823SOL    HW227911   2.079   4.005   0.810
 8824SOL     OW27912   3.057   5.326   0.072
 8824SOL    HW127913   3.062   5.233   0.093
 8824SOL    HW227914   2.980   5.335   0.016
 8825SOL     OW27915   2.684   4.732   1.354
 8825SOL    HW127916   2.729   4.741   1.270
 8825SOL    HW227917   2.675   4.822   1.386
 8826SOL     OW27918   2.789   4.651   0.308
 8826SOL    HW127919   2.840   4.670   0.230
 8826SOL    HW227920   2.831   4.574   0.346
 8827SOL     OW27921   3.319   5.305  -0.004
 8827SOL    HW127922   3.230   5.333   0.019
 8827SOL    HW227923   3.370   5.386  -0.005
 8828SOL     OW27924   2.229   4.996   1.504
 8828SOL    HW127925   2.228   5.076   1.450
 8828SOL    HW227926   2.145   4.954   1.487
 8829SOL     OW27927   3.475   5.010   1.277
 8829SOL    HW127928   3.522   4.992   1.358
 8829SOL    HW227929   3.411   5.077   1.300
 8830SOL     OW27930   2.926   4.838   0.707
 8830SOL    HW127931   2.852   4.794   0.749
 8830SOL    HW227932   2.981   4.766   0.675
 8831SOL     OW27933   2.882   3.962   0.967
 8831SOL    HW127934   2.870   3.917   0.884
 8831SOL    HW227935   2.883   3.892   1.032
 8832SOL     OW27936   2.425   5.162   0.451
 8832SOL    HW127937   2.500   5.135   0.398
 8832SOL    HW227938   2.462   5.220   0.517
 8833SOL     OW27939   3.577   4.111   1.391
 8833SOL    HW127940   3.647   4.176   1.400
 8833SOL    HW227941   3.610   4.049   1.326
 8834SOL     OW27942   1.986   4.709   1.716
 8834SOL    HW127943   1.900   4.706   1.759
 8834SOL    HW227944   2.041   4.758   1.777
 8835SOL     OW27945   2.526   3.968   1.466
 8835SOL    HW127946   2.607   3.923   1.442
 8835SOL    HW227947   2.500   3.928   1.549
 8836SOL     OW27948   3.283   4.576   1.392
 8836SOL    HW127949   3.234   4.638   1.337
 8836SOL    HW227950   3.373   4.583   1.361
 8837SOL     OW27951   1.924   3.882   0.313
 8837SOL    HW127952   1.918   3.972   0.282
 8837SOL    HW227953   2.012   3.854   0.289
 8838SOL     OW27954   3.060   5.057   0.126
 8838SOL    HW127955   2.965   5.050   0.114
 8838SOL    HW227956   3.072   5.048   0.221
 8839SOL     OW27957   2.474   4.551   1.420
 8839SOL    HW127958   2.530   4.629   1.408
 8839SOL    HW227959   2.536   4.480   1.435
 8840SOL     OW27960   3.442   5.485   0.934
 8840SOL    HW127961   3.436   5.573   0.897
 8840SOL    HW227962   3.362   5.474   0.985
 8841SOL     OW27963   2.603   4.277   1.713
 8841SOL    HW127964   2.580   4.309   1.801
 8841SOL    HW227965   2.625   4.185   1.726
 8842SOL     OW27966   3.340   4.909   1.631
 8842SOL    HW127967   3.320   4.940   1.719
 8842SOL    HW227968   3.428   4.940   1.613
 8843SOL     OW27969   2.226   5.455   1.557
 8843SOL    HW127970   2.148   5.509   1.568
 8843SOL    HW227971   2.207   5.375   1.606
 8844SOL     OW27972   3.523   4.607   1.254
 8844SOL    HW127973   3.532   4.521   1.214
 8844SOL    HW227974   3.521   4.668   1.180
 8845SOL     OW27975   3.087   4.043   0.467
 8845SOL    HW127976   3.150   3.971   0.463
 8845SOL    HW227977   3.111   4.091   0.547
 8846SOL     OW27978   2.435   4.460   0.678
 8846SOL    HW127979   2.483   4.541   0.664
 8846SOL    HW227980   2.379   4.452   0.601
 8847SOL     OW27981   3.607   4.090   1.670
 8847SOL    HW127982   3.603   4.101   1.575
 8847SOL    HW227983   3.547   4.018   1.688
 8848SOL     OW27984   3.586   4.680   1.511
 8848SOL    HW127985   3.578   4.775   1.513
 8848SOL    HW227986   3.578   4.657   1.418
 8849SOL     OW27987   2.789   5.082   0.084
 8849SOL    HW127988   2.726   5.074   0.156
 8849SOL    HW227989   2.756   5.156   0.032
 8850SOL     OW27990   2.521   5.511   0.951
 8850SOL    HW127991   2.508   5.603   0.926
 8850SOL    HW227992   2.614   5.495   0.938
 8851SOL     OW27993   2.735   4.707   0.868
 8851SOL    HW127994   2.797   4.672   0.932
 8851SOL    HW227995   2.679   4.766   0.918
 8852SOL     OW27996   2.951   4.703   0.090
 8852SOL    HW127997   2.967   4.781   0.038
 8852SOL    HW227998   3.033   4.654   0.086
 8853SOL     OW27999   3.695   5.272   0.848
 8853SOL    HW128000   3.614   5.294   0.803
 8853SOL    HW228001   3.667   5.239   0.933
 8854SOL     OW28002   2.089   5.024   1.870
 8854SOL    HW128003   1.993   5.022   1.879
 8854SOL    HW228004   2.120   5.036   1.960
 8855SOL     OW28005   1.937   4.940   0.663
 8855SOL    HW128006   1.924   4.897   0.747
 8855SOL    HW228007   2.012   4.896   0.624
 8856SOL     OW28008   3.672   3.938   1.213
 8856SOL    HW128009   3.670   3.843   1.225
 8856SOL    HW228010   3.684   3.949   1.118
 8857SOL     OW28011   2.296   4.159   0.545
 8857SOL    HW128012   2.335   4.099   0.482
 8857SOL    HW228013   2.238   4.105   0.598
 8858SOL     OW28014   3.570   5.198   1.084
 8858SOL    HW128015   3.486   5.192   1.038
 8858SOL    HW228016   3.562   5.135   1.156
 8859SOL     OW28017   2.215   4.258   1.285
 8859SOL    HW128018   2.253   4.228   1.368
 8859SOL    HW228019   2.233   4.187   1.223
 8860SOL     OW28020   3.289   3.944   1.095
 8860SOL    HW128021   3.315   3.852   1.085
 8860SOL    HW228022   3.269   3.953   1.188
 8861SOL     OW28023   2.877   3.743   1.139
 8861SOL    HW128024   2.825   3.678   1.092
 8861SOL    HW228025   2.964   3.703   1.146
 8862SOL     OW28026   2.644   5.047   0.317
 8862SOL    HW128027   2.621   4.958   0.344
 8862SOL    HW228028   2.716   5.071   0.375
 8863SOL     OW28029   2.465   5.279   1.284
 8863SOL    HW128030   2.463   5.366   1.323
 8863SOL    HW228031   2.554   5.270   1.249
 8864SOL     OW28032   3.255   3.787   0.125
 8864SOL    HW128033   3.305   3.717   0.082
 8864SOL    HW228034   3.177   3.742   0.159
 8865SOL     OW28035   3.144   4.188   0.691
 8865SOL    HW128036   3.119   4.279   0.708
 8865SOL    HW228037   3.145   4.148   0.778
 8866SOL     OW28038   3.451   3.937   0.860
 8866SOL    HW128039   3.392   3.944   0.935
 8866SOL    HW228040   3.445   4.022   0.817
 8867SOL     OW28041   1.936   4.820   0.314
 8867SOL    HW128042   2.020   4.794   0.277
 8867SOL    HW228043   1.900   4.739   0.351
 8868SOL     OW28044   2.753   5.394   0.322
 8868SOL    HW128045   2.667   5.363   0.294
 8868SOL    HW228046   2.735   5.452   0.396
 8869SOL     OW28047   2.055   4.364   1.953
 8869SOL    HW128048   1.989   4.359   2.023
 8869SOL    HW228049   2.125   4.305   1.983
 8870SOL     OW28050   2.094   3.947   2.833
 8870SOL    HW128051   2.135   4.028   2.864
 8870SOL    HW228052   2.001   3.958   2.854
 8871SOL     OW28053   1.861   4.133   2.486
 8871SOL    HW128054   1.787   4.103   2.538
 8871SOL    HW228055   1.899   4.053   2.450
 8872SOL     OW28056   2.426   5.014   3.034
 8872SOL    HW128057   2.364   4.993   3.104
 8872SOL    HW228058   2.447   5.106   3.048
 8873SOL     OW28059   3.433   5.242   2.579
 8873SOL    HW128060   3.391   5.208   2.658
 8873SOL    HW228061   3.363   5.243   2.514
 8874SOL     OW28062   3.006   4.413   2.563
 8874SOL    HW128063   3.041   4.502   2.559
 8874SOL    HW228064   2.953   4.413   2.642
 8875SOL     OW28065   3.643   4.323   2.093
 8875SOL    HW128066   3.616   4.318   2.001
 8875SOL    HW228067   3.602   4.248   2.135
 8876SOL     OW28068   2.614   4.868   2.903
 8876SOL    HW128069   2.541   4.901   2.955
 8876SOL    HW228070   2.658   4.947   2.870
 8877SOL     OW28071   2.679   4.542   3.686
 8877SOL    HW128072   2.739   4.564   3.757
 8877SOL    HW228073   2.730   4.558   3.606
 8878SOL     OW28074   2.549   4.720   2.508
 8878SOL    HW128075   2.614   4.712   2.579
 8878SOL    HW228076   2.480   4.776   2.545
 8879SOL     OW28077   2.576   4.880   3.663
 8879SOL    HW128078   2.614   4.959   3.702
 8879SOL    HW228079   2.485   4.905   3.645
 8880SOL     OW28080   2.154   5.193   2.918
 8880SOL    HW128081   2.108   5.122   2.874
 8880SOL    HW228082   2.225   5.215   2.859
 8881SOL     OW28083   3.328   5.219   3.222
 8881SOL    HW128084   3.377   5.301   3.229
 8881SOL    HW228085   3.271   5.218   3.298
 8882SOL     OW28086   2.286   4.109   3.424
 8882SOL    HW128087   2.370   4.068   3.401
 8882SOL    HW228088   2.220   4.052   3.383
 8883SOL     OW28089   3.471   4.191   2.602
 8883SOL    HW128090   3.385   4.174   2.563
 8883SOL    HW228091   3.451   4.224   2.690
 8884SOL     OW28092   2.084   5.438   2.325
 8884SOL    HW128093   2.103   5.511   2.384
 8884SOL    HW228094   2.160   5.435   2.266
 8885SOL     OW28095   2.993   5.065   3.567
 8885SOL    HW128096   3.044   5.046   3.645
 8885SOL    HW228097   2.941   4.986   3.553
 8886SOL     OW28098   2.091   5.167   2.386
 8886SOL    HW128099   2.080   5.263   2.386
 8886SOL    HW228100   2.043   5.138   2.463
 8887SOL     OW28101   2.121   4.824   2.739
 8887SOL    HW128102   2.131   4.733   2.767
 8887SOL    HW228103   2.076   4.867   2.811
 8888SOL     OW28104   2.509   5.494   3.331
 8888SOL    HW128105   2.421   5.463   3.351
 8888SOL    HW228106   2.501   5.589   3.328
 8889SOL     OW28107   2.449   4.719   2.016
 8889SOL    HW128108   2.493   4.771   1.949
 8889SOL    HW228109   2.488   4.750   2.098
 8890SOL     OW28110   1.979   4.383   2.423
 8890SOL    HW128111   1.944   4.297   2.445
 8890SOL    HW228112   1.967   4.435   2.502
 8891SOL     OW28113   3.706   5.474   2.181
 8891SOL    HW128114   3.765   5.451   2.252
 8891SOL    HW228115   3.721   5.568   2.167
 8892SOL     OW28116   1.894   5.309   1.974
 8892SOL    HW128117   1.877   5.220   2.003
 8892SOL    HW228118   1.875   5.363   2.051
 8893SOL     OW28119   3.565   4.659   2.593
 8893SOL    HW128120   3.647   4.614   2.572
 8893SOL    HW228121   3.536   4.695   2.509
 8894SOL     OW28122   3.517   4.833   2.286
 8894SOL    HW128123   3.607   4.809   2.262
 8894SOL    HW228124   3.528   4.898   2.355
 8895SOL     OW28125   1.998   4.469   3.449
 8895SOL    HW128126   2.091   4.493   3.452
 8895SOL    HW228127   1.951   4.551   3.459
 8896SOL     OW28128   2.487   5.119   2.594
 8896SOL    HW128129   2.443   5.035   2.607
 8896SOL    HW228130   2.467   5.144   2.504
 8897SOL     OW28131   3.149   4.959   3.277
 8897SOL    HW128132   3.186   4.894   3.216
 8897SOL    HW228133   3.201   4.949   3.357
 8898SOL     OW28134   2.691   3.751   2.390
 8898SOL    HW128135   2.718   3.840   2.367
 8898SOL    HW228136   2.596   3.756   2.395
 8899SOL     OW28137   2.051   4.689   3.103
 8899SOL    HW128138   2.140   4.653   3.100
 8899SOL    HW228139   1.997   4.619   3.067
 8900SOL     OW28140   3.367   4.729   2.080
 8900SOL    HW128141   3.291   4.679   2.111
 8900SOL    HW228142   3.414   4.754   2.159
 8901SOL     OW28143   2.980   5.501   3.411
 8901SOL    HW128144   3.014   5.586   3.384
 8901SOL    HW228145   3.047   5.438   3.385
 8902SOL     OW28146   3.332   5.133   2.808
 8902SOL    HW128147   3.265   5.151   2.875
 8902SOL    HW228148   3.311   5.045   2.776
 8903SOL     OW28149   3.517   5.478   2.437
 8903SOL    HW128150   3.485   5.447   2.353
 8903SOL    HW228151   3.502   5.405   2.497
 8904SOL     OW28152   2.446   4.451   2.124
 8904SOL    HW128153   2.447   4.540   2.088
 8904SOL    HW228154   2.388   4.457   2.200
 8905SOL     OW28155   3.155   4.087   2.803
 8905SOL    HW128156   3.070   4.046   2.816
 8905SOL    HW228157   3.216   4.014   2.797
 8906SOL     OW28158   3.437   5.404   2.177
 8906SOL    HW128159   3.528   5.431   2.165
 8906SOL    HW228160   3.404   5.388   2.089
 8907SOL     OW28161   2.559   4.351   3.338
 8907SOL    HW128162   2.578   4.313   3.424
 8907SOL    HW228163   2.554   4.276   3.279
 8908SOL     OW28164   3.231   4.225   3.516
 8908SOL    HW128165   3.165   4.197   3.580
 8908SOL    HW228166   3.309   4.177   3.540
 8909SOL     OW28167   2.825   4.594   3.451
 8909SOL    HW128168   2.889   4.528   3.424
 8909SOL    HW228169   2.779   4.618   3.371
 8910SOL     OW28170   2.929   4.418   2.300
 8910SOL    HW128171   2.945   4.404   2.393
 8910SOL    HW228172   2.844   4.377   2.284
 8911SOL     OW28173   1.933   4.553   2.633
 8911SOL    HW128174   2.016   4.546   2.681
 8911SOL    HW228175   1.890   4.629   2.672
 8912SOL     OW28176   2.011   5.611   3.448
 8912SOL    HW128177   2.009   5.585   3.540
 8912SOL    HW228178   1.922   5.595   3.417
 8913SOL     OW28179   2.729   4.071   2.060
 8913SOL    HW128180   2.770   4.098   1.979
 8913SOL    HW228181   2.675   3.996   2.036
 8914SOL     OW28182   3.605   4.287   3.667
 8914SOL    HW128183   3.551   4.360   3.636
 8914SOL    HW228184   3.599   4.221   3.598
 8915SOL     OW28185   3.248   4.874   2.411
 8915SOL    HW128186   3.328   4.874   2.358
 8915SOL    HW228187   3.189   4.935   2.366
 8916SOL     OW28188   2.431   3.933   2.741
 8916SOL    HW128189   2.419   3.941   2.835
 8916SOL    HW228190   2.439   4.023   2.709
 8917SOL     OW28191   2.853   5.167   2.330
 8917SOL    HW128192   2.830   5.244   2.278
 8917SOL    HW228193   2.825   5.189   2.419
 8918SOL     OW28194   2.215   5.540   2.734
 8918SOL    HW128195   2.259   5.455   2.741
 8918SOL    HW228196   2.282   5.604   2.755
 8919SOL     OW28197   3.082   5.244   3.369
 8919SOL    HW128198   3.078   5.180   3.440
 8919SOL    HW228199   3.040   5.199   3.295
 8920SOL     OW28200   2.178   4.697   2.116
 8920SOL    HW128201   2.264   4.705   2.073
 8920SOL    HW228202   2.153   4.606   2.102
 8921SOL     OW28203   3.336   4.473   2.575
 8921SOL    HW128204   3.306   4.404   2.634
 8921SOL    HW228205   3.412   4.511   2.618
 8922SOL     OW28206   2.328   4.995   3.634
 8922SOL    HW128207   2.324   5.002   3.539
 8922SOL    HW228208   2.236   4.994   3.662
 8923SOL     OW28209   2.999   5.491   2.103
 8923SOL    HW128210   2.915   5.463   2.140
 8923SOL    HW228211   3.015   5.431   2.030
 8924SOL     OW28212   2.042   3.976   3.361
 8924SOL    HW128213   1.983   4.038   3.405
 8924SOL    HW228214   2.017   3.890   3.395
 8925SOL     OW28215   3.509   5.090   1.945
 8925SOL    HW128216   3.477   5.180   1.941
 8925SOL    HW228217   3.430   5.036   1.934
 8926SOL     OW28218   2.326   5.458   2.186
 8926SOL    HW128219   2.367   5.521   2.245
 8926SOL    HW228220   2.397   5.427   2.130
 8927SOL     OW28221   3.268   3.840   2.303
 8927SOL    HW128222   3.269   3.803   2.214
 8927SOL    HW228223   3.360   3.836   2.331
 8928SOL     OW28224   2.125   5.523   3.072
 8928SOL    HW128225   2.161   5.444   3.115
 8928SOL    HW228226   2.100   5.494   2.985
 8929SOL     OW28227   2.792   5.430   2.757
 8929SOL    HW128228   2.838   5.367   2.812
 8929SOL    HW228229   2.760   5.378   2.682
 8930SOL     OW28230   2.245   4.421   2.320
 8930SOL    HW128231   2.265   4.331   2.344
 8930SOL    HW228232   2.156   4.436   2.351
 8931SOL     OW28233   3.420   4.033   3.633
 8931SOL    HW128234   3.396   4.028   3.725
 8931SOL    HW228235   3.426   3.942   3.604
 8932SOL     OW28236   2.537   3.833   2.011
 8932SOL    HW128237   2.573   3.747   2.032
 8932SOL    HW228238   2.498   3.821   1.924
 8933SOL     OW28239   2.577   3.979   3.617
 8933SOL    HW128240   2.670   3.962   3.630
 8933SOL    HW228241   2.555   4.045   3.683
 8934SOL     OW28242   2.771   5.264   3.048
 8934SOL    HW128243   2.737   5.213   2.974
 8934SOL    HW228244   2.822   5.201   3.099
 8935SOL     OW28245   2.694   5.124   2.814
 8935SOL    HW128246   2.774   5.106   2.765
 8935SOL    HW228247   2.625   5.127   2.748
 8936SOL     OW28248   2.814   4.237   2.761
 8936SOL    HW128249   2.787   4.224   2.670
 8936SOL    HW228250   2.838   4.150   2.792
 8937SOL     OW28251   2.414   3.784   2.361
 8937SOL    HW128252   2.338   3.783   2.419
 8937SOL    HW228253   2.403   3.863   2.308
 8938SOL     OW28254   3.291   4.937   1.910
 8938SOL    HW128255   3.300   4.859   1.965
 8938SOL    HW228256   3.205   4.972   1.932
 8939SOL     OW28257   2.161   3.776   2.043
 8939SOL    HW128258   2.231   3.827   2.003
 8939SOL    HW228259   2.206   3.709   2.094
 8940SOL     OW28260   2.803   3.997   2.320
 8940SOL    HW128261   2.785   4.018   2.228
 8940SOL    HW228262   2.898   4.000   2.327
 8941SOL     OW28263   3.095   5.280   2.644
 8941SOL    HW128264   3.099   5.357   2.586
 8941SOL    HW228265   3.124   5.313   2.729
 8942SOL     OW28266   2.338   4.882   2.582
 8942SOL    HW128267   2.273   4.865   2.650
 8942SOL    HW228268   2.290   4.872   2.500
 8943SOL     OW28269   3.126   5.514   2.484
 8943SOL    HW128270   3.166   5.577   2.424
 8943SOL    HW228271   3.050   5.561   2.519
 8944SOL     OW28272   2.906   4.248   1.873
 8944SOL    HW128273   2.860   4.332   1.869
 8944SOL    HW228274   2.953   4.250   1.957
 8945SOL     OW28275   1.949   4.283   3.253
 8945SOL    HW128276   2.041   4.274   3.227
 8945SOL    HW228277   1.950   4.351   3.321
 8946SOL     OW28278   2.430   3.941   3.018
 8946SOL    HW128279   2.465   3.853   3.031
 8946SOL    HW228280   2.343   3.939   3.059
 8947SOL     OW28281   2.741   4.204   2.498
 8947SOL    HW128282   2.646   4.215   2.502
 8947SOL    HW228283   2.753   4.126   2.445
 8948SOL     OW28284   2.886   3.763   2.591
 8948SOL    HW128285   2.822   3.756   2.520
 8948SOL    HW228286   2.858   3.698   2.656
 8949SOL     OW28287   3.280   4.883   2.708
 8949SOL    HW128288   3.225   4.809   2.733
 8949SOL    HW228289   3.275   4.885   2.612
 8950SOL     OW28290   3.332   4.300   2.834
 8950SOL    HW128291   3.264   4.232   2.831
 8950SOL    HW228292   3.379   4.282   2.915
 8951SOL     OW28293   3.706   4.542   2.239
 8951SOL    HW128294   3.756   4.496   2.306
 8951SOL    HW228295   3.679   4.474   2.178
 8952SOL     OW28296   2.363   5.147   2.019
 8952SOL    HW128297   2.284   5.118   2.065
 8952SOL    HW228298   2.366   5.094   1.940
 8953SOL     OW28299   3.565   5.005   2.483
 8953SOL    HW128300   3.654   5.001   2.519
 8953SOL    HW228301   3.526   5.082   2.525
 8954SOL     OW28302   3.251   4.313   1.937
 8954SOL    HW128303   3.188   4.280   2.001
 8954SOL    HW228304   3.335   4.279   1.966
 8955SOL     OW28305   2.390   3.990   2.176
 8955SOL    HW128306   2.447   3.936   2.122
 8955SOL    HW228307   2.363   4.061   2.119
 8956SOL     OW28308   3.622   5.003   3.454
 8956SOL    HW128309   3.691   4.937   3.450
 8956SOL    HW228310   3.610   5.020   3.547
 8957SOL     OW28311   2.911   5.072   3.199
 8957SOL    HW128312   2.831   5.037   3.238
 8957SOL    HW228313   2.981   5.019   3.237
 8958SOL     OW28314   3.448   5.361   3.515
 8958SOL    HW128315   3.472   5.378   3.424
 8958SOL    HW228316   3.518   5.304   3.549
 8959SOL     OW28317   3.008   4.947   2.958
 8959SOL    HW128318   2.938   4.966   3.021
 8959SOL    HW228319   2.972   4.975   2.874
 8960SOL     OW28320   3.502   4.870   2.912
 8960SOL    HW128321   3.497   4.907   3.000
 8960SOL    HW228322   3.411   4.869   2.881
 8961SOL     OW28323   2.832   4.846   3.553
 8961SOL    HW128324   2.744   4.848   3.591
 8961SOL    HW228325   2.839   4.760   3.513
 8962SOL     OW28326   2.587   4.779   2.242
 8962SOL    HW128327   2.566   4.762   2.334
 8962SOL    HW228328   2.664   4.727   2.225
 8963SOL     OW28329   2.282   4.543   3.106
 8963SOL    HW128330   2.341   4.563   3.179
 8963SOL    HW228331   2.255   4.452   3.122
 8964SOL     OW28332   1.928   5.305   3.221
 8964SOL    HW128333   1.902   5.372   3.158
 8964SOL    HW228334   2.023   5.299   3.211
 8965SOL     OW28335   2.193   4.852   2.350
 8965SOL    HW128336   2.194   4.931   2.296
 8965SOL    HW228337   2.190   4.780   2.287
 8966SOL     OW28338   2.455   4.238   2.697
 8966SOL    HW128339   2.456   4.315   2.641
 8966SOL    HW228340   2.374   4.246   2.748
 8967SOL     OW28341   3.103   5.074   2.260
 8967SOL    HW128342   3.158   5.146   2.291
 8967SOL    HW228343   3.015   5.096   2.290
 8968SOL     OW28344   3.157   5.185   3.010
 8968SOL    HW128345   3.211   5.186   3.089
 8968SOL    HW228346   3.103   5.106   3.019
 8969SOL     OW28347   3.413   4.357   2.326
 8969SOL    HW128348   3.374   4.386   2.409
 8969SOL    HW228349   3.491   4.411   2.316
 8970SOL     OW28350   2.191   5.276   3.172
 8970SOL    HW128351   2.190   5.237   3.084
 8970SOL    HW228352   2.233   5.210   3.227
 8971SOL     OW28353   2.278   4.475   3.472
 8971SOL    HW128354   2.332   4.531   3.416
 8971SOL    HW228355   2.328   4.394   3.481
 8972SOL     OW28356   3.463   4.487   3.551
 8972SOL    HW128357   3.370   4.471   3.566
 8972SOL    HW228358   3.468   4.525   3.464
 8973SOL     OW28359   2.293   3.806   3.625
 8973SOL    HW128360   2.293   3.763   3.540
 8973SOL    HW228361   2.303   3.734   3.688
 8974SOL     OW28362   2.437   4.601   2.889
 8974SOL    HW128363   2.480   4.684   2.908
 8974SOL    HW228364   2.385   4.583   2.967
 8975SOL     OW28365   3.198   4.577   2.869
 8975SOL    HW128366   3.107   4.551   2.855
 8975SOL    HW228367   3.245   4.494   2.881
 8976SOL     OW28368   3.053   4.253   2.119
 8976SOL    HW128369   3.071   4.175   2.172
 8976SOL    HW228370   3.010   4.313   2.180
 8977SOL     OW28371   2.185   3.920   3.136
 8977SOL    HW128372   2.132   3.949   3.211
 8977SOL    HW228373   2.150   3.834   3.113
 8978SOL     OW28374   1.902   5.046   3.124
 8978SOL    HW128375   1.939   4.984   3.186
 8978SOL    HW228376   1.913   5.131   3.166
 8979SOL     OW28377   2.616   4.373   2.949
 8979SOL    HW128378   2.641   4.322   2.872
 8979SOL    HW228379   2.552   4.436   2.915
 8980SOL     OW28380   3.572   4.716   3.681
 8980SOL    HW128381   3.540   4.626   3.671
 8980SOL    HW228382   3.555   4.737   3.772
 8981SOL     OW28383   2.163   3.782   2.490
 8981SOL    HW128384   2.146   3.874   2.509
 8981SOL    HW228385   2.180   3.742   2.575
 8982SOL     OW28386   3.493   4.113   2.216
 8982SOL    HW128387   3.513   4.043   2.278
 8982SOL    HW228388   3.453   4.181   2.270
 8983SOL     OW28389   2.903   4.487   2.822
 8983SOL    HW128390   2.892   4.506   2.915
 8983SOL    HW228391   2.868   4.398   2.812
 8984SOL     OW28392   2.853   5.300   3.552
 8984SOL    HW128393   2.928   5.346   3.515
 8984SOL    HW228394   2.879   5.207   3.550
 8985SOL     OW28395   3.734   5.276   3.441
 8985SOL    HW128396   3.705   5.185   3.444
 8985SOL    HW228397   3.805   5.280   3.505
 8986SOL     OW28398   2.210   4.619   3.698
 8986SOL    HW128399   2.291   4.658   3.733
 8986SOL    HW228400   2.239   4.569   3.621
 8987SOL     OW28401   3.373   4.017   1.988
 8987SOL    HW128402   3.323   3.940   2.017
 8987SOL    HW228403   3.417   4.049   2.066
 8988SOL     OW28404   3.117   4.546   1.868
 8988SOL    HW128405   3.164   4.464   1.883
 8988SOL    HW228406   3.161   4.584   1.792
 8989SOL     OW28407   2.933   5.060   2.707
 8989SOL    HW128408   2.936   4.988   2.644
 8989SOL    HW228409   2.993   5.126   2.671
 8990SOL     OW28410   2.174   4.554   2.785
 8990SOL    HW128411   2.266   4.573   2.803
 8990SOL    HW228412   2.164   4.461   2.806
 8991SOL     OW28413   1.862   5.038   2.041
 8991SOL    HW128414   1.774   5.051   2.007
 8991SOL    HW228415   1.860   4.951   2.083
 8992SOL     OW28416   1.952   5.501   2.806
 8992SOL    HW128417   1.924   5.422   2.760
 8992SOL    HW228418   2.041   5.517   2.773
 8993SOL     OW28419   2.356   5.303   2.761
 8993SOL    HW128420   2.424   5.359   2.799
 8993SOL    HW228421   2.404   5.239   2.709
 8994SOL     OW28422   2.860   4.518   3.087
 8994SOL    HW128423   2.915   4.477   3.154
 8994SOL    HW228424   2.780   4.466   3.088
 8995SOL     OW28425   1.891   4.273   2.977
 8995SOL    HW128426   1.970   4.266   2.923
 8995SOL    HW228427   1.924   4.274   3.067
 8996SOL     OW28428   2.085   4.234   3.573
 8996SOL    HW128429   2.158   4.208   3.517
 8996SOL    HW228430   2.048   4.311   3.530
 8997SOL     OW28431   3.220   4.650   3.506
 8997SOL    HW128432   3.257   4.738   3.513
 8997SOL    HW228433   3.236   4.625   3.415
 8998SOL     OW28434   2.702   4.335   2.168
 8998SOL    HW128435   2.701   4.242   2.147
 8998SOL    HW228436   2.610   4.361   2.165
 8999SOL     OW28437   2.097   5.271   3.590
 8999SOL    HW128438   2.073   5.320   3.668
 8999SOL    HW228439   2.102   5.180   3.620
 9000SOL     OW28440   2.533   4.172   3.133
 9000SOL    HW128441   2.504   4.096   3.085
 9000SOL    HW228442   2.560   4.235   3.066
 9001SOL     OW28443   2.285   4.234   2.065
 9001SOL    HW128444   2.353   4.300   2.063
 9001SOL    HW228445   2.256   4.231   2.156
 9002SOL     OW28446   2.007   4.868   3.306
 9002SOL    HW128447   2.092   4.892   3.343
 9002SOL    HW228448   2.027   4.801   3.240
 9003SOL     OW28449   3.214   4.787   3.052
 9003SOL    HW128450   3.211   4.709   2.997
 9003SOL    HW228451   3.140   4.840   3.021
 9004SOL     OW28452   3.138   4.594   2.159
 9004SOL    HW128453   3.104   4.553   2.239
 9004SOL    HW228454   3.147   4.521   2.098
 9005SOL     OW28455   3.637   5.470   2.979
 9005SOL    HW128456   3.718   5.454   3.028
 9005SOL    HW228457   3.599   5.383   2.968
 9006SOL     OW28458   3.094   5.451   2.962
 9006SOL    HW128459   3.182   5.480   2.937
 9006SOL    HW228460   3.105   5.360   2.990
 9007SOL     OW28461   1.936   4.996   2.863
 9007SOL    HW128462   1.930   5.017   2.956
 9007SOL    HW228463   1.874   4.924   2.851
 9008SOL     OW28464   2.553   5.430   3.622
 9008SOL    HW128465   2.481   5.488   3.597
 9008SOL    HW228466   2.537   5.350   3.572
 9009SOL     OW28467   3.573   3.881   2.361
 9009SOL    HW128468   3.647   3.867   2.302
 9009SOL    HW228469   3.561   3.797   2.405
 9010SOL     OW28470   3.255   5.291   2.356
 9010SOL    HW128471   3.307   5.330   2.286
 9010SOL    HW228472   3.199   5.362   2.387
 9011SOL     OW28473   2.010   5.541   3.711
 9011SOL    HW128474   1.962   5.468   3.750
 9011SOL    HW228475   2.059   5.580   3.784
 9012SOL     OW28476   3.136   4.653   2.523
 9012SOL    HW128477   3.209   4.593   2.540
 9012SOL    HW228478   3.176   4.727   2.477
 9013SOL     OW28479   2.655   5.000   3.277
 9013SOL    HW128480   2.643   5.038   3.364
 9013SOL    HW228481   2.567   5.002   3.239
 9014SOL     OW28482   2.539   5.351   2.047
 9014SOL    HW128483   2.561   5.379   1.959
 9014SOL    HW228484   2.486   5.272   2.036
 9015SOL     OW28485   3.478   5.447   3.242
 9015SOL    HW128486   3.562   5.440   3.196
 9015SOL    HW228487   3.470   5.540   3.264
 9016SOL     OW28488   2.131   4.043   2.570
 9016SOL    HW128489   2.072   4.118   2.584
 9016SOL    HW228490   2.155   4.016   2.659
 9017SOL     OW28491   3.090   5.320   1.900
 9017SOL    HW128492   3.072   5.231   1.928
 9017SOL    HW228493   3.028   5.336   1.829
 9018SOL     OW28494   2.693   4.725   3.242
 9018SOL    HW128495   2.739   4.714   3.159
 9018SOL    HW228496   2.685   4.820   3.253
 9019SOL     OW28497   2.829   4.641   2.148
 9019SOL    HW128498   2.882   4.670   2.223
 9019SOL    HW228499   2.811   4.549   2.167
 9020SOL     OW28500   3.369   5.336   1.915
 9020SOL    HW128501   3.274   5.334   1.906
 9020SOL    HW228502   3.401   5.350   1.826
 9021SOL     OW28503   3.491   5.008   3.152
 9021SOL    HW128504   3.542   4.985   3.230
 9021SOL    HW228505   3.426   5.071   3.183
 9022SOL     OW28506   2.924   4.828   2.562
 9022SOL    HW128507   2.853   4.784   2.609
 9022SOL    HW228508   2.991   4.761   2.551
 9023SOL     OW28509   2.905   3.965   2.802
 9023SOL    HW128510   2.898   3.909   2.724
 9023SOL    HW228511   2.882   3.906   2.875
 9024SOL     OW28512   2.464   5.210   2.337
 9024SOL    HW128513   2.507   5.167   2.263
 9024SOL    HW228514   2.399   5.267   2.296
 9025SOL     OW28515   2.122   5.068   2.141
 9025SOL    HW128516   2.029   5.060   2.121
 9025SOL    HW228517   2.125   5.110   2.226
 9026SOL     OW28518   1.986   4.771   3.636
 9026SOL    HW128519   1.907   4.733   3.675
 9026SOL    HW228520   2.056   4.711   3.663
 9027SOL     OW28521   2.521   3.916   3.362
 9027SOL    HW128522   2.595   3.952   3.313
 9027SOL    HW228523   2.542   3.934   3.454
 9028SOL     OW28524   1.915   4.059   1.942
 9028SOL    HW128525   1.836   4.017   1.908
 9028SOL    HW228526   1.911   4.149   1.909
 9029SOL     OW28527   3.325   4.619   3.248
 9029SOL    HW128528   3.292   4.686   3.189
 9029SOL    HW228529   3.408   4.653   3.280
 9030SOL     OW28530   1.925   3.879   2.163
 9030SOL    HW128531   1.915   3.954   2.104
 9030SOL    HW228532   2.013   3.846   2.146
 9031SOL     OW28533   3.044   5.049   1.984
 9031SOL    HW128534   2.950   5.062   1.974
 9031SOL    HW228535   3.059   5.055   2.078
 9032SOL     OW28536   2.458   4.592   3.302
 9032SOL    HW128537   2.530   4.655   3.291
 9032SOL    HW228538   2.503   4.508   3.313
 9033SOL     OW28539   3.347   5.515   2.862
 9033SOL    HW128540   3.345   5.521   2.766
 9033SOL    HW228541   3.410   5.445   2.880
 9034SOL     OW28542   2.604   4.288   3.602
 9034SOL    HW128543   2.623   4.375   3.636
 9034SOL    HW228544   2.677   4.234   3.632
 9035SOL     OW28545   3.327   4.919   3.489
 9035SOL    HW128546   3.309   4.922   3.583
 9035SOL    HW228547   3.420   4.941   3.482
 9036SOL     OW28548   2.245   5.449   3.427
 9036SOL    HW128549   2.164   5.492   3.401
 9036SOL    HW228550   2.217   5.364   3.461
 9037SOL     OW28551   3.555   4.587   3.021
 9037SOL    HW128552   3.576   4.504   3.062
 9037SOL    HW228553   3.512   4.638   3.089
 9038SOL     OW28554   3.092   4.056   2.316
 9038SOL    HW128555   3.147   3.978   2.311
 9038SOL    HW228556   3.119   4.100   2.396
 9039SOL     OW28557   2.459   4.452   2.512
 9039SOL    HW128558   2.493   4.541   2.515
 9039SOL    HW228559   2.380   4.459   2.458
 9040SOL     OW28560   3.616   4.100   3.452
 9040SOL    HW128561   3.596   4.036   3.383
 9040SOL    HW228562   3.565   4.072   3.527
 9041SOL     OW28563   3.576   4.672   3.349
 9041SOL    HW128564   3.578   4.712   3.436
 9041SOL    HW228565   3.658   4.623   3.343
 9042SOL     OW28566   2.785   5.096   1.942
 9042SOL    HW128567   2.721   5.091   2.013
 9042SOL    HW228568   2.734   5.125   1.866
 9043SOL     OW28569   2.525   5.519   2.811
 9043SOL    HW128570   2.507   5.608   2.782
 9043SOL    HW228571   2.618   5.506   2.793
 9044SOL     OW28572   2.736   4.699   2.715
 9044SOL    HW128573   2.779   4.623   2.754
 9044SOL    HW228574   2.693   4.743   2.788
 9045SOL     OW28575   3.693   5.305   2.708
 9045SOL    HW128576   3.614   5.274   2.665
 9045SOL    HW228577   3.698   5.255   2.790
 9046SOL     OW28578   2.063   5.021   3.702
 9046SOL    HW128579   2.036   4.937   3.665
 9046SOL    HW228580   2.005   5.033   3.777
 9047SOL     OW28581   1.962   4.948   2.533
 9047SOL    HW128582   1.999   4.916   2.616
 9047SOL    HW228583   2.019   4.912   2.466
 9048SOL     OW28584   2.540   5.193   3.482
 9048SOL    HW128585   2.467   5.153   3.434
 9048SOL    HW228586   2.547   5.139   3.562
 9049SOL     OW28587   2.277   4.160   2.363
 9049SOL    HW128588   2.325   4.088   2.323
 9049SOL    HW228589   2.239   4.123   2.443
 9050SOL     OW28590   3.553   5.217   2.950
 9050SOL    HW128591   3.476   5.177   2.911
 9050SOL    HW228592   3.573   5.161   3.025
 9051SOL     OW28593   2.204   4.277   3.155
 9051SOL    HW128594   2.276   4.223   3.188
 9051SOL    HW228595   2.202   4.259   3.061
 9052SOL     OW28596   2.697   5.303   2.534
 9052SOL    HW128597   2.668   5.370   2.473
 9052SOL    HW228598   2.622   5.244   2.542
 9053SOL     OW28599   2.860   3.761   2.983
 9053SOL    HW128600   2.783   3.707   2.966
 9053SOL    HW228601   2.934   3.700   2.978
 9054SOL     OW28602   2.644   5.047   2.178
 9054SOL    HW128603   2.618   4.958   2.202
 9054SOL    HW228604   2.716   5.068   2.238
 9055SOL     OW28605   2.503   5.271   3.108
 9055SOL    HW128606   2.481   5.329   3.181
 9055SOL    HW228607   2.597   5.283   3.096
 9056SOL     OW28608   3.245   3.772   2.027
 9056SOL    HW128609   3.283   3.691   1.993
 9056SOL    HW228610   3.152   3.751   2.039
 9057SOL     OW28611   3.176   4.192   2.551
 9057SOL    HW128612   3.112   4.264   2.551
 9057SOL    HW228613   3.163   4.149   2.635
 9058SOL     OW28614   3.394   3.952   2.752
 9058SOL    HW128615   3.436   3.926   2.833
 9058SOL    HW228616   3.465   3.987   2.698
 9059SOL     OW28617   1.908   4.794   2.156
 9059SOL    HW128618   2.003   4.784   2.145
 9059SOL    HW228619   1.877   4.707   2.181
 9060SOL     OW28620   2.760   5.392   2.206
 9060SOL    HW128621   2.685   5.375   2.148
 9060SOL    HW228622   2.731   5.463   2.262
 9061SOL     OW28623   2.073   4.343   3.863
 9061SOL    HW128624   1.982   4.343   3.892
 9061SOL    HW228625   2.069   4.359   3.769
 9062SOL     OW28626   2.075   4.035   4.725
 9062SOL    HW128627   2.117   3.980   4.792
 9062SOL    HW228628   1.992   3.992   4.708
 9063SOL     OW28629   1.859   4.118   4.359
 9063SOL    HW128630   1.777   4.137   4.403
 9063SOL    HW228631   1.843   4.036   4.313
 9064SOL     OW28632   2.440   5.033   4.888
 9064SOL    HW128633   2.351   5.039   4.855
 9064SOL    HW228634   2.456   5.118   4.930
 9065SOL     OW28635   3.415   5.279   4.441
 9065SOL    HW128636   3.365   5.275   4.523
 9065SOL    HW228637   3.353   5.249   4.374
 9066SOL     OW28638   3.663   4.311   3.934
 9066SOL    HW128639   3.624   4.299   3.847
 9066SOL    HW228640   3.613   4.254   3.991
 9067SOL     OW28641   2.599   4.839   4.772
 9067SOL    HW128642   2.545   4.908   4.813
 9067SOL    HW228643   2.689   4.870   4.781
 9068SOL     OW28644   2.731   4.500   5.534
 9068SOL    HW128645   2.758   4.566   5.598
 9068SOL    HW228646   2.763   4.532   5.450
 9069SOL     OW28647   2.551   4.729   4.366
 9069SOL    HW128648   2.621   4.706   4.427
 9069SOL    HW228649   2.490   4.781   4.418
 9070SOL     OW28650   2.565   4.867   5.537
 9070SOL    HW128651   2.614   4.943   5.570
 9070SOL    HW228652   2.488   4.905   5.496
 9071SOL     OW28653   2.192   5.143   4.791
 9071SOL    HW128654   2.124   5.104   4.736
 9071SOL    HW228655   2.242   5.199   4.732
 9072SOL     OW28656   3.329   5.239   5.084
 9072SOL    HW128657   3.388   5.314   5.082
 9072SOL    HW228658   3.297   5.236   5.174
 9073SOL     OW28659   2.318   4.123   5.251
 9073SOL    HW128660   2.385   4.055   5.240
 9073SOL    HW228661   2.235   4.077   5.245
 9074SOL     OW28662   3.484   4.190   4.483
 9074SOL    HW128663   3.419   4.254   4.455
 9074SOL    HW228664   3.544   4.240   4.539
 9075SOL     OW28665   2.078   5.439   4.194
 9075SOL    HW128666   2.098   5.513   4.252
 9075SOL    HW228667   2.158   5.427   4.143
 9076SOL     OW28668   3.002   5.057   5.410
 9076SOL    HW128669   3.037   5.060   5.499
 9076SOL    HW228670   2.955   4.974   5.405
 9077SOL     OW28671   2.114   5.170   4.274
 9077SOL    HW128672   2.083   5.260   4.274
 9077SOL    HW228673   2.050   5.122   4.327
 9078SOL     OW28674   2.124   4.808   4.634
 9078SOL    HW128675   2.147   4.717   4.656
 9078SOL    HW228676   2.029   4.809   4.630
 9079SOL     OW28677   2.442   5.539   5.118
 9079SOL    HW128678   2.372   5.511   5.178
 9079SOL    HW228679   2.483   5.613   5.163
 9080SOL     OW28680   2.438   4.721   3.857
 9080SOL    HW128681   2.496   4.749   3.786
 9080SOL    HW228682   2.484   4.746   3.937
 9081SOL     OW28683   2.004   4.366   4.288
 9081SOL    HW128684   1.957   4.284   4.305
 9081SOL    HW228685   1.981   4.423   4.362
 9082SOL     OW28686   3.692   5.489   4.058
 9082SOL    HW128687   3.767   5.451   4.104
 9082SOL    HW228688   3.721   5.577   4.034
 9083SOL     OW28689   1.911   5.321   3.838
 9083SOL    HW128690   1.894   5.228   3.855
 9083SOL    HW228691   1.881   5.365   3.917
 9084SOL     OW28692   3.537   4.592   4.237
 9084SOL    HW128693   3.622   4.588   4.193
 9084SOL    HW228694   3.523   4.685   4.253
 9085SOL     OW28695   1.979   4.475   5.321
 9085SOL    HW128696   2.044   4.534   5.359
 9085SOL    HW228697   1.907   4.531   5.293
 9086SOL     OW28698   2.448   5.100   4.479
 9086SOL    HW128699   2.427   5.006   4.487
 9086SOL    HW228700   2.386   5.132   4.414
 9087SOL     OW28701   3.158   4.959   5.140
 9087SOL    HW128702   3.236   4.950   5.085
 9087SOL    HW228703   3.189   4.944   5.229
 9088SOL     OW28704   2.689   3.731   4.234
 9088SOL    HW128705   2.728   3.815   4.213
 9088SOL    HW228706   2.596   3.749   4.243
 9089SOL     OW28707   2.040   4.674   5.010
 9089SOL    HW128708   2.128   4.638   5.001
 9089SOL    HW228709   2.002   4.665   4.923
 9090SOL     OW28710   3.430   4.757   3.927
 9090SOL    HW128711   3.388   4.701   3.991
 9090SOL    HW228712   3.507   4.792   3.972
 9091SOL     OW28713   2.986   5.520   5.301
 9091SOL    HW128714   3.039   5.589   5.261
 9091SOL    HW228715   3.036   5.440   5.287
 9092SOL     OW28716   2.215   3.976   5.576
 9092SOL    HW128717   2.269   4.052   5.598
 9092SOL    HW228718   2.125   4.006   5.590
 9093SOL     OW28719   3.519   5.498   4.308
 9093SOL    HW128720   3.572   5.443   4.249
 9093SOL    HW228721   3.487   5.438   4.375
 9094SOL     OW28722   2.455   4.439   3.972
 9094SOL    HW128723   2.484   4.486   3.894
 9094SOL    HW228724   2.468   4.501   4.043
 9095SOL     OW28725   3.417   5.432   4.024
 9095SOL    HW128726   3.512   5.436   4.034
 9095SOL    HW228727   3.403   5.403   3.934
 9096SOL     OW28728   2.674   4.320   5.170
 9096SOL    HW128729   2.767   4.318   5.192
 9096SOL    HW228730   2.669   4.273   5.086
 9097SOL     OW28731   2.831   4.597   5.292
 9097SOL    HW128732   2.918   4.573   5.260
 9097SOL    HW228733   2.787   4.635   5.217
 9098SOL     OW28734   2.898   4.423   4.170
 9098SOL    HW128735   2.931   4.416   4.260
 9098SOL    HW228736   2.823   4.364   4.166
 9099SOL     OW28737   1.962   4.528   4.497
 9099SOL    HW128738   2.037   4.530   4.558
 9099SOL    HW228739   1.907   4.601   4.525
 9100SOL     OW28740   1.974   5.530   5.278
 9100SOL    HW128741   1.974   5.526   5.373
 9100SOL    HW228742   1.938   5.616   5.257
 9101SOL     OW28743   2.745   4.098   3.912
 9101SOL    HW128744   2.793   4.173   3.875
 9101SOL    HW228745   2.770   4.024   3.857
 9102SOL     OW28746   2.412   3.931   4.609
 9102SOL    HW128747   2.429   3.950   4.701
 9102SOL    HW228748   2.472   3.987   4.561
 9103SOL     OW28749   2.838   5.174   4.217
 9103SOL    HW128750   2.882   5.241   4.164
 9103SOL    HW228751   2.908   5.114   4.243
 9104SOL     OW28752   2.219   5.537   4.593
 9104SOL    HW128753   2.265   5.454   4.605
 9104SOL    HW228754   2.284   5.605   4.612
 9105SOL     OW28755   3.068   5.262   5.236
 9105SOL    HW128756   3.062   5.188   5.296
 9105SOL    HW228757   3.071   5.222   5.149
 9106SOL     OW28758   2.199   4.666   3.994
 9106SOL    HW128759   2.280   4.693   3.952
 9106SOL    HW228760   2.156   4.610   3.929
 9107SOL     OW28761   3.298   4.401   4.424
 9107SOL    HW128762   3.222   4.383   4.479
 9107SOL    HW228763   3.283   4.489   4.389
 9108SOL     OW28764   2.327   4.988   5.463
 9108SOL    HW128765   2.301   4.995   5.371
 9108SOL    HW228766   2.245   4.997   5.512
 9109SOL     OW28767   3.016   5.529   3.924
 9109SOL    HW128768   2.955   5.504   3.994
 9109SOL    HW228769   3.035   5.447   3.878
 9110SOL     OW28770   2.074   3.998   5.231
 9110SOL    HW128771   1.998   4.044   5.195
 9110SOL    HW228772   2.040   3.915   5.263
 9111SOL     OW28773   3.513   5.112   3.749
 9111SOL    HW128774   3.575   5.116   3.822
 9111SOL    HW228775   3.449   5.047   3.777
 9112SOL     OW28776   2.320   5.455   4.052
 9112SOL    HW128777   2.362   5.516   4.113
 9112SOL    HW228778   2.389   5.431   3.990
 9113SOL     OW28779   3.246   3.816   4.108
 9113SOL    HW128780   3.228   3.744   4.048
 9113SOL    HW228781   3.335   3.801   4.139
 9114SOL     OW28782   2.130   5.519   4.953
 9114SOL    HW128783   2.182   5.447   4.988
 9114SOL    HW228784   2.098   5.487   4.868
 9115SOL     OW28785   2.804   5.423   4.633
 9115SOL    HW128786   2.896   5.401   4.646
 9115SOL    HW228787   2.759   5.339   4.630
 9116SOL     OW28788   2.507   3.844   3.850
 9116SOL    HW128789   2.588   3.810   3.886
 9116SOL    HW228790   2.522   3.845   3.755
 9117SOL     OW28791   2.614   4.003   5.496
 9117SOL    HW128792   2.692   3.948   5.485
 9117SOL    HW228793   2.622   4.037   5.585
 9118SOL     OW28794   2.735   5.227   4.926
 9118SOL    HW128795   2.732   5.207   4.832
 9118SOL    HW228796   2.812   5.180   4.958
 9119SOL     OW28797   2.693   5.170   4.637
 9119SOL    HW128798   2.775   5.124   4.618
 9119SOL    HW228799   2.625   5.109   4.610
 9120SOL     OW28800   2.698   4.188   4.651
 9120SOL    HW128801   2.765   4.246   4.615
 9120SOL    HW228802   2.739   4.101   4.651
 9121SOL     OW28803   2.416   3.784   4.230
 9121SOL    HW128804   2.345   3.780   4.294
 9121SOL    HW228805   2.397   3.862   4.178
 9122SOL     OW28806   3.284   4.913   3.759
 9122SOL    HW128807   3.337   4.849   3.806
 9122SOL    HW228808   3.214   4.936   3.820
 9123SOL     OW28809   2.189   3.817   3.914
 9123SOL    HW128810   2.241   3.875   3.970
 9123SOL    HW228811   2.220   3.729   3.936
 9124SOL     OW28812   2.798   3.980   4.173
 9124SOL    HW128813   2.794   4.005   4.081
 9124SOL    HW228814   2.892   3.985   4.195
 9125SOL     OW28815   3.085   5.301   4.534
 9125SOL    HW128816   3.100   5.365   4.465
 9125SOL    HW228817   3.125   5.339   4.612
 9126SOL     OW28818   2.323   4.860   4.453
 9126SOL    HW128819   2.259   4.845   4.523
 9126SOL    HW228820   2.274   4.848   4.372
 9127SOL     OW28821   3.110   5.512   4.348
 9127SOL    HW128822   3.173   5.569   4.305
 9127SOL    HW228823   3.058   5.570   4.403
 9128SOL     OW28824   2.867   4.290   3.754
 9128SOL    HW128825   2.926   4.360   3.782
 9128SOL    HW228826   2.925   4.221   3.722
 9129SOL     OW28827   1.972   4.273   5.127
 9129SOL    HW128828   2.060   4.272   5.090
 9129SOL    HW228829   1.970   4.351   5.182
 9130SOL     OW28830   2.443   3.942   4.888
 9130SOL    HW128831   2.487   3.857   4.877
 9130SOL    HW228832   2.354   3.920   4.913
 9131SOL     OW28833   2.608   4.185   4.344
 9131SOL    HW128834   2.632   4.217   4.257
 9131SOL    HW228835   2.677   4.122   4.366
 9132SOL     OW28836   2.885   3.751   4.444
 9132SOL    HW128837   2.824   3.727   4.374
 9132SOL    HW228838   2.862   3.692   4.516
 9133SOL     OW28839   3.748   4.540   4.066
 9133SOL    HW128840   3.793   4.495   4.138
 9133SOL    HW228841   3.710   4.469   4.014
 9134SOL     OW28842   2.356   5.133   3.880
 9134SOL    HW128843   2.281   5.103   3.931
 9134SOL    HW228844   2.356   5.079   3.801
 9135SOL     OW28845   3.249   4.315   3.814
 9135SOL    HW128846   3.184   4.283   3.877
 9135SOL    HW228847   3.323   4.254   3.823
 9136SOL     OW28848   2.368   3.983   4.037
 9136SOL    HW128849   2.435   3.934   3.988
 9136SOL    HW228850   2.370   4.071   3.999
 9137SOL     OW28851   3.591   4.955   5.278
 9137SOL    HW128852   3.657   4.885   5.275
 9137SOL    HW228853   3.636   5.028   5.320
 9138SOL     OW28854   2.922   5.052   5.046
 9138SOL    HW128855   2.857   5.027   5.112
 9138SOL    HW228856   3.004   5.017   5.080
 9139SOL     OW28857   3.457   5.341   5.369
 9139SOL    HW128858   3.464   5.387   5.285
 9139SOL    HW228859   3.538   5.291   5.376
 9140SOL     OW28860   2.854   4.924   4.811
 9140SOL    HW128861   2.893   4.965   4.888
 9140SOL    HW228862   2.898   4.965   4.736
 9141SOL     OW28863   2.842   4.833   5.440
 9141SOL    HW128864   2.749   4.846   5.459
 9141SOL    HW228865   2.844   4.756   5.383
 9142SOL     OW28866   2.572   4.774   4.094
 9142SOL    HW128867   2.564   4.762   4.188
 9142SOL    HW228868   2.648   4.721   4.069
 9143SOL     OW28869   2.283   4.547   4.990
 9143SOL    HW128870   2.360   4.549   5.047
 9143SOL    HW228871   2.262   4.454   4.981
 9144SOL     OW28872   1.945   5.294   5.078
 9144SOL    HW128873   1.933   5.389   5.084
 9144SOL    HW228874   2.039   5.282   5.073
 9145SOL     OW28875   2.182   4.840   4.212
 9145SOL    HW128876   2.186   4.917   4.156
 9145SOL    HW228877   2.195   4.766   4.152
 9146SOL     OW28878   2.440   4.254   4.568
 9146SOL    HW128879   2.475   4.238   4.480
 9146SOL    HW228880   2.516   4.245   4.626
 9147SOL     OW28881   3.094   5.080   4.124
 9147SOL    HW128882   3.152   5.151   4.152
 9147SOL    HW228883   3.120   5.005   4.178
 9148SOL     OW28884   3.159   5.196   4.875
 9148SOL    HW128885   3.223   5.211   4.945
 9148SOL    HW228886   3.165   5.102   4.857
 9149SOL     OW28887   3.422   4.349   4.186
 9149SOL    HW128888   3.372   4.354   4.267
 9149SOL    HW228889   3.479   4.426   4.188
 9150SOL     OW28890   2.212   5.242   5.039
 9150SOL    HW128891   2.201   5.203   4.952
 9150SOL    HW228892   2.306   5.260   5.046
 9151SOL     OW28893   2.843   3.863   5.510
 9151SOL    HW128894   2.890   3.942   5.481
 9151SOL    HW228895   2.887   3.792   5.465
 9152SOL     OW28896   2.357   3.752   5.485
 9152SOL    HW128897   2.307   3.708   5.416
 9152SOL    HW228898   2.311   3.835   5.498
 9153SOL     OW28899   2.421   4.630   4.741
 9153SOL    HW128900   2.484   4.702   4.738
 9153SOL    HW228901   2.393   4.626   4.832
 9154SOL     OW28902   3.062   4.255   4.005
 9154SOL    HW128903   3.074   4.175   4.057
 9154SOL    HW228904   3.023   4.317   4.066
 9155SOL     OW28905   2.176   3.920   4.970
 9155SOL    HW128906   2.150   3.947   5.058
 9155SOL    HW228907   2.161   3.825   4.969
 9156SOL     OW28908   1.887   5.032   5.005
 9156SOL    HW128909   1.929   4.979   5.073
 9156SOL    HW228910   1.904   5.123   5.032
 9157SOL     OW28911   2.593   4.371   4.824
 9157SOL    HW128912   2.653   4.317   4.772
 9157SOL    HW228913   2.576   4.447   4.768
 9158SOL     OW28914   2.149   3.801   4.336
 9158SOL    HW128915   2.134   3.889   4.370
 9158SOL    HW228916   2.180   3.751   4.411
 9159SOL     OW28917   3.504   4.113   4.084
 9159SOL    HW128918   3.522   4.050   4.153
 9159SOL    HW228919   3.476   4.192   4.131
 9160SOL     OW28920   2.834   5.265   5.458
 9160SOL    HW128921   2.810   5.310   5.377
 9160SOL    HW228922   2.892   5.194   5.429
 9161SOL     OW28923   3.707   5.225   5.344
 9161SOL    HW128924   3.734   5.246   5.255
 9161SOL    HW228925   3.784   5.244   5.398
 9162SOL     OW28926   2.230   4.639   5.506
 9162SOL    HW128927   2.281   4.645   5.587
 9162SOL    HW228928   2.291   4.665   5.437
 9163SOL     OW28929   3.359   3.997   3.891
 9163SOL    HW128930   3.303   3.937   3.939
 9163SOL    HW228931   3.415   4.037   3.958
 9164SOL     OW28932   3.099   4.522   3.721
 9164SOL    HW128933   3.156   4.452   3.753
 9164SOL    HW228934   3.148   4.563   3.650
 9165SOL     OW28935   2.933   5.062   4.583
 9165SOL    HW128936   2.938   4.991   4.518
 9165SOL    HW228937   3.000   5.124   4.555
 9166SOL     OW28938   2.177   4.535   4.668
 9166SOL    HW128939   2.267   4.566   4.680
 9166SOL    HW228940   2.180   4.443   4.691
 9167SOL     OW28941   2.214   4.267   4.726
 9167SOL    HW128942   2.173   4.182   4.714
 9167SOL    HW228943   2.292   4.264   4.672
 9168SOL     OW28944   2.966   4.098   5.457
 9168SOL    HW128945   2.974   4.178   5.509
 9168SOL    HW228946   3.053   4.087   5.417
 9169SOL     OW28947   1.879   5.043   3.911
 9169SOL    HW128948   1.789   5.061   3.885
 9169SOL    HW228949   1.876   4.955   3.950
 9170SOL     OW28950   1.958   5.508   4.681
 9170SOL    HW128951   1.923   5.428   4.640
 9170SOL    HW228952   2.045   5.517   4.643
 9171SOL     OW28953   2.357   5.301   4.642
 9171SOL    HW128954   2.426   5.365   4.662
 9171SOL    HW228955   2.403   5.230   4.596
 9172SOL     OW28956   1.895   4.260   4.842
 9172SOL    HW128957   1.953   4.220   4.777
 9172SOL    HW228958   1.951   4.274   4.918
 9173SOL     OW28959   2.049   4.241   5.455
 9173SOL    HW128960   2.093   4.184   5.392
 9173SOL    HW228961   2.021   4.317   5.403
 9174SOL     OW28962   3.219   4.663   5.356
 9174SOL    HW128963   3.256   4.751   5.354
 9174SOL    HW228964   3.287   4.608   5.317
 9175SOL     OW28965   2.664   4.283   4.097
 9175SOL    HW128966   2.696   4.211   4.042
 9175SOL    HW228967   2.614   4.338   4.037
 9176SOL     OW28968   2.093   5.265   5.443
 9176SOL    HW128969   2.075   5.341   5.498
 9176SOL    HW228970   2.107   5.193   5.505
 9177SOL     OW28971   2.483   4.194   4.997
 9177SOL    HW128972   2.483   4.108   4.957
 9177SOL    HW228973   2.518   4.252   4.930
 9178SOL     OW28974   2.750   5.407   5.231
 9178SOL    HW128975   2.757   5.375   5.141
 9178SOL    HW228976   2.830   5.457   5.245
 9179SOL     OW28977   2.305   4.198   3.867
 9179SOL    HW128978   2.375   4.262   3.884
 9179SOL    HW228979   2.224   4.249   3.872
 9180SOL     OW28980   1.985   4.860   5.200
 9180SOL    HW128981   2.001   4.818   5.284
 9180SOL    HW228982   2.006   4.793   5.135
 9181SOL     OW28983   3.139   4.625   4.033
 9181SOL    HW128984   3.164   4.629   4.125
 9181SOL    HW228985   3.165   4.537   4.005
 9182SOL     OW28986   3.605   5.447   4.859
 9182SOL    HW128987   3.684   5.472   4.810
 9182SOL    HW228988   3.593   5.354   4.840
 9183SOL     OW28989   3.084   5.446   4.794
 9183SOL    HW128990   3.169   5.487   4.775
 9183SOL    HW228991   3.107   5.361   4.831
 9184SOL     OW28992   1.901   5.048   4.731
 9184SOL    HW128993   1.914   5.028   4.824
 9184SOL    HW228994   1.878   4.965   4.690
 9185SOL     OW28995   2.554   5.399   5.451
 9185SOL    HW128996   2.501   5.480   5.446
 9185SOL    HW228997   2.621   5.411   5.385
 9186SOL     OW28998   3.542   3.887   4.248
 9186SOL    HW128999   3.599   3.829   4.197
 9186SOL    HW229000   3.519   3.836   4.325
 9187SOL     OW29001   3.240   5.298   4.204
 9187SOL    HW129002   3.306   5.337   4.146
 9187SOL    HW229003   3.198   5.373   4.246
 9188SOL     OW29004   1.990   5.505   5.551
 9188SOL    HW129005   1.943   5.445   5.610
 9188SOL    HW229006   2.034   5.566   5.610
 9189SOL     OW29007   2.667   4.995   5.156
 9189SOL    HW129008   2.630   5.040   5.232
 9189SOL    HW229009   2.625   5.038   5.080
 9190SOL     OW29010   2.519   5.344   3.894
 9190SOL    HW129011   2.537   5.378   3.806
 9190SOL    HW229012   2.463   5.268   3.880
 9191SOL     OW29013   3.486   5.460   5.111
 9191SOL    HW129014   3.532   5.463   5.027
 9191SOL    HW229015   3.468   5.552   5.132
 9192SOL     OW29016   3.690   3.895   4.702
 9192SOL    HW129017   3.731   3.814   4.672
 9192SOL    HW229018   3.608   3.900   4.653
 9193SOL     OW29019   2.117   4.050   4.445
 9193SOL    HW129020   2.026   4.079   4.434
 9193SOL    HW229021   2.127   4.037   4.539
 9194SOL     OW29022   3.055   5.304   3.770
 9194SOL    HW129023   3.059   5.216   3.808
 9194SOL    HW229024   2.980   5.301   3.710
 9195SOL     OW29025   2.695   4.731   5.094
 9195SOL    HW129026   2.732   4.736   5.006
 9195SOL    HW229027   2.686   4.823   5.122
 9196SOL     OW29028   2.777   4.622   4.014
 9196SOL    HW129029   2.840   4.662   3.953
 9196SOL    HW229030   2.830   4.562   4.067
 9197SOL     OW29031   3.318   5.425   3.754
 9197SOL    HW129032   3.240   5.369   3.757
 9197SOL    HW229033   3.369   5.391   3.681
 9198SOL     OW29034   2.218   5.021   5.221
 9198SOL    HW129035   2.220   5.099   5.165
 9198SOL    HW229036   2.138   4.976   5.196
 9199SOL     OW29037   3.410   4.978   5.036
 9199SOL    HW129038   3.502   4.958   5.054
 9199SOL    HW229039   3.402   5.072   5.049
 9200SOL     OW29040   2.910   4.853   4.410
 9200SOL    HW129041   2.879   4.765   4.431
 9200SOL    HW229042   2.995   4.839   4.369
 9201SOL     OW29043   2.795   3.930   4.648
 9201SOL    HW129044   2.847   3.897   4.575
 9201SOL    HW229045   2.823   3.878   4.723
 9202SOL     OW29046   2.136   5.056   4.031
 9202SOL    HW129047   2.048   5.062   3.994
 9202SOL    HW229048   2.131   5.104   4.114
 9203SOL     OW29049   1.981   4.752   5.453
 9203SOL    HW129050   1.910   4.723   5.511
 9203SOL    HW229051   2.060   4.716   5.494
 9204SOL     OW29052   2.521   3.939   5.240
 9204SOL    HW129053   2.601   3.940   5.186
 9204SOL    HW229054   2.553   3.954   5.329
 9205SOL     OW29055   2.005   4.039   3.742
 9205SOL    HW129056   1.917   4.006   3.723
 9205SOL    HW229057   2.013   4.117   3.688
 9206SOL     OW29058   1.926   3.874   4.043
 9206SOL    HW129059   1.932   3.947   3.981
 9206SOL    HW229060   2.016   3.844   4.054
 9207SOL     OW29061   3.025   5.042   3.864
 9207SOL    HW129062   2.985   4.955   3.865
 9207SOL    HW229063   3.053   5.057   3.954
 9208SOL     OW29064   2.499   4.535   5.160
 9208SOL    HW129065   2.528   4.626   5.156
 9208SOL    HW229066   2.579   4.484   5.143
 9209SOL     OW29067   3.339   5.502   4.687
 9209SOL    HW129068   3.353   5.584   4.639
 9209SOL    HW229069   3.421   5.488   4.735
 9210SOL     OW29070   2.553   4.301   5.463
 9210SOL    HW129071   2.609   4.370   5.500
 9210SOL    HW229072   2.598   4.219   5.486
 9211SOL     OW29073   3.332   4.920   5.361
 9211SOL    HW129074   3.340   4.972   5.441
 9211SOL    HW229075   3.418   4.928   5.319
 9212SOL     OW29076   2.240   5.459   5.291
 9212SOL    HW129077   2.153   5.493   5.270
 9212SOL    HW229078   2.223   5.372   5.328
 9213SOL     OW29079   3.080   4.033   4.185
 9213SOL    HW129080   3.134   3.961   4.154
 9213SOL    HW229081   3.120   4.058   4.269
 9214SOL     OW29082   2.419   4.487   4.316
 9214SOL    HW129083   2.500   4.437   4.331
 9214SOL    HW229084   2.439   4.575   4.350
 9215SOL     OW29085   2.673   5.115   3.753
 9215SOL    HW129086   2.686   5.097   3.846
 9215SOL    HW229087   2.735   5.184   3.733
 9216SOL     OW29088   2.531   5.506   4.661
 9216SOL    HW129089   2.511   5.598   4.642
 9216SOL    HW229090   2.626   5.500   4.651
 9217SOL     OW29091   2.737   4.642   4.550
 9217SOL    HW129092   2.781   4.558   4.560
 9217SOL    HW229093   2.733   4.678   4.639
 9218SOL     OW29094   2.929   4.727   3.806
 9218SOL    HW129095   2.927   4.748   3.713
 9218SOL    HW229096   2.999   4.663   3.815
 9219SOL     OW29097   3.693   5.301   4.578
 9219SOL    HW129098   3.621   5.283   4.517
 9219SOL    HW229099   3.691   5.228   4.640
 9220SOL     OW29100   2.091   5.024   5.591
 9220SOL    HW129101   2.016   4.971   5.564
 9220SOL    HW229102   2.084   5.029   5.687
 9221SOL     OW29103   1.954   4.963   4.380
 9221SOL    HW129104   1.922   4.905   4.449
 9221SOL    HW229105   2.019   4.910   4.333
 9222SOL     OW29106   2.533   5.137   5.344
 9222SOL    HW129107   2.461   5.098   5.394
 9222SOL    HW229108   2.546   5.223   5.385
 9223SOL     OW29109   3.698   3.857   4.993
 9223SOL    HW129110   3.730   3.797   4.926
 9223SOL    HW229111   3.671   3.935   4.945
 9224SOL     OW29112   2.265   4.151   4.240
 9224SOL    HW129113   2.316   4.083   4.196
 9224SOL    HW229114   2.226   4.107   4.316
 9225SOL     OW29115   3.559   5.175   4.812
 9225SOL    HW129116   3.489   5.111   4.802
 9225SOL    HW229117   3.621   5.132   4.872
 9226SOL     OW29118   2.212   4.273   4.998
 9226SOL    HW129119   2.288   4.220   5.022
 9226SOL    HW229120   2.210   4.270   4.903
 9227SOL     OW29121   2.614   5.280   4.343
 9227SOL    HW129122   2.709   5.268   4.346
 9227SOL    HW229123   2.581   5.237   4.422
 9228SOL     OW29124   3.293   3.955   4.789
 9228SOL    HW129125   3.277   3.866   4.820
 9228SOL    HW229126   3.205   3.991   4.777
 9229SOL     OW29127   2.657   5.034   4.048
 9229SOL    HW129128   2.619   4.946   4.054
 9229SOL    HW229129   2.736   5.030   4.102
 9230SOL     OW29130   2.482   5.285   5.007
 9230SOL    HW129131   2.480   5.374   5.044
 9230SOL    HW229132   2.573   5.272   4.980
 9231SOL     OW29133   3.447   3.920   4.570
 9231SOL    HW129134   3.396   3.935   4.649
 9231SOL    HW229135   3.454   4.006   4.529
 9232SOL     OW29136   1.906   4.792   4.033
 9232SOL    HW129137   2.002   4.795   4.029
 9232SOL    HW229138   1.885   4.700   4.046
 9233SOL     OW29139   2.759   5.398   4.039
 9233SOL    HW129140   2.705   5.423   3.963
 9233SOL    HW229141   2.743   5.467   4.103
 9234SOL     OW29142   2.085   4.352   5.708
 9234SOL    HW129143   1.998   4.391   5.717
 9234SOL    HW229144   2.091   4.328   5.616
 9235SOL     OW29145   2.075   4.010   6.588
 9235SOL    HW129146   2.102   3.982   6.676
 9235SOL    HW229147   1.987   3.974   6.577
 9236SOL     OW29148   1.863   4.133   6.201
 9236SOL    HW129149   1.789   4.084   6.237
 9236SOL    HW229150   1.938   4.073   6.207
 9237SOL     OW29151   2.458   5.022   6.800
 9237SOL    HW129152   2.370   5.001   6.769
 9237SOL    HW229153   2.459   5.118   6.809
 9238SOL     OW29154   3.398   5.242   6.271
 9238SOL    HW129155   3.385   5.207   6.359
 9238SOL    HW229156   3.398   5.165   6.214
 9239SOL     OW29157   2.617   4.866   6.630
 9239SOL    HW129158   2.556   4.898   6.697
 9239SOL    HW229159   2.647   4.944   6.584
 9240SOL     OW29160   2.691   4.510   7.401
 9240SOL    HW129161   2.764   4.511   7.462
 9240SOL    HW229162   2.728   4.539   7.318
 9241SOL     OW29163   2.563   4.731   6.233
 9241SOL    HW129164   2.627   4.677   6.279
 9241SOL    HW229165   2.578   4.819   6.267
 9242SOL     OW29166   2.567   4.875   7.398
 9242SOL    HW129167   2.612   4.952   7.431
 9242SOL    HW229168   2.484   4.908   7.364
 9243SOL     OW29169   2.205   5.143   6.661
 9243SOL    HW129170   2.130   5.109   6.613
 9243SOL    HW229171   2.253   5.195   6.596
 9244SOL     OW29172   3.292   5.235   6.964
 9244SOL    HW129173   3.360   5.303   6.959
 9244SOL    HW229174   3.334   5.164   7.012
 9245SOL     OW29175   2.286   4.103   7.095
 9245SOL    HW129176   2.382   4.105   7.097
 9245SOL    HW229177   2.265   4.012   7.074
 9246SOL     OW29178   2.099   5.409   6.055
 9246SOL    HW129179   2.110   5.486   6.109
 9246SOL    HW229180   2.171   5.413   5.992
 9247SOL     OW29181   3.007   5.043   7.275
 9247SOL    HW129182   3.093   5.002   7.268
 9247SOL    HW229183   2.946   4.970   7.279
 9248SOL     OW29184   2.049   5.160   6.205
 9248SOL    HW129185   2.078   5.235   6.153
 9248SOL    HW229186   1.982   5.197   6.263
 9249SOL     OW29187   2.083   4.810   6.440
 9249SOL    HW129188   2.109   4.724   6.474
 9249SOL    HW229189   2.051   4.857   6.517
 9250SOL     OW29190   2.449   5.532   6.992
 9250SOL    HW129191   2.380   5.502   7.051
 9250SOL    HW229192   2.530   5.522   7.042
 9251SOL     OW29193   2.417   4.725   5.726
 9251SOL    HW129194   2.474   4.761   5.658
 9251SOL    HW229195   2.461   4.747   5.808
 9252SOL     OW29196   3.421   3.842   7.062
 9252SOL    HW129197   3.458   3.816   6.978
 9252SOL    HW229198   3.474   3.916   7.090
 9253SOL     OW29199   1.967   4.388   6.140
 9253SOL    HW129200   1.940   4.299   6.159
 9253SOL    HW229201   1.960   4.433   6.225
 9254SOL     OW29202   3.689   5.507   5.923
 9254SOL    HW129203   3.765   5.475   5.970
 9254SOL    HW229204   3.715   5.592   5.887
 9255SOL     OW29205   1.883   5.316   5.712
 9255SOL    HW129206   1.877   5.224   5.739
 9255SOL    HW229207   1.872   5.365   5.793
 9256SOL     OW29208   2.012   4.470   7.164
 9256SOL    HW129209   2.107   4.484   7.164
 9256SOL    HW229210   1.976   4.554   7.192
 9257SOL     OW29211   2.471   5.122   6.314
 9257SOL    HW129212   2.437   5.033   6.325
 9257SOL    HW229213   2.454   5.143   6.222
 9258SOL     OW29214   3.173   4.944   7.043
 9258SOL    HW129215   3.201   4.888   6.971
 9258SOL    HW229216   3.218   4.909   7.119
 9259SOL     OW29217   2.656   3.685   6.061
 9259SOL    HW129218   2.721   3.750   6.087
 9259SOL    HW229219   2.572   3.726   6.080
 9260SOL     OW29220   2.050   4.680   6.857
 9260SOL    HW129221   2.140   4.648   6.850
 9260SOL    HW229222   1.997   4.615   6.811
 9261SOL     OW29223   2.978   5.524   7.166
 9261SOL    HW129224   3.029   5.594   7.123
 9261SOL    HW229225   3.027   5.444   7.146
 9262SOL     OW29226   2.173   3.963   7.368
 9262SOL    HW129227   2.235   4.034   7.380
 9262SOL    HW229228   2.098   3.987   7.423
 9263SOL     OW29229   3.307   5.142   6.518
 9263SOL    HW129230   3.257   5.137   6.599
 9263SOL    HW229231   3.306   5.053   6.483
 9264SOL     OW29232   3.477   5.495   6.164
 9264SOL    HW129233   3.486   5.459   6.076
 9264SOL    HW229234   3.460   5.419   6.219
 9265SOL     OW29235   2.467   4.428   5.842
 9265SOL    HW129236   2.510   4.508   5.812
 9265SOL    HW229237   2.408   4.457   5.912
 9266SOL     OW29238   3.431   5.412   5.895
 9266SOL    HW129239   3.524   5.430   5.890
 9266SOL    HW229240   3.406   5.389   5.805
 9267SOL     OW29241   2.592   4.352   7.045
 9267SOL    HW129242   2.588   4.313   7.132
 9267SOL    HW229243   2.621   4.281   6.988
 9268SOL     OW29244   3.259   4.185   7.284
 9268SOL    HW129245   3.266   4.211   7.376
 9268SOL    HW229246   3.313   4.107   7.277
 9269SOL     OW29247   2.817   4.599   7.164
 9269SOL    HW129248   2.903   4.557   7.165
 9269SOL    HW229249   2.772   4.559   7.090
 9270SOL     OW29250   2.785   4.106   6.816
 9270SOL    HW129251   2.860   4.122   6.874
 9270SOL    HW229252   2.818   4.045   6.751
 9271SOL     OW29253   2.833   4.476   6.037
 9271SOL    HW129254   2.909   4.494   6.093
 9271SOL    HW229255   2.815   4.383   6.052
 9272SOL     OW29256   1.917   4.550   6.360
 9272SOL    HW129257   1.999   4.537   6.409
 9272SOL    HW229258   1.883   4.633   6.393
 9273SOL     OW29259   1.978   5.580   7.166
 9273SOL    HW129260   1.988   5.563   7.260
 9273SOL    HW229261   1.885   5.564   7.149
 9274SOL     OW29262   2.759   4.076   5.734
 9274SOL    HW129263   2.809   4.151   5.703
 9274SOL    HW229264   2.809   4.000   5.706
 9275SOL     OW29265   3.512   4.346   7.411
 9275SOL    HW129266   3.476   4.401   7.342
 9275SOL    HW229267   3.555   4.274   7.365
 9276SOL     OW29268   2.368   3.921   6.466
 9276SOL    HW129269   2.383   3.919   6.561
 9276SOL    HW229270   2.426   3.990   6.434
 9277SOL     OW29271   2.828   5.154   6.084
 9277SOL    HW129272   2.792   5.232   6.042
 9277SOL    HW229273   2.911   5.183   6.121
 9278SOL     OW29274   2.222   5.537   6.454
 9278SOL    HW129275   2.270   5.455   6.464
 9278SOL    HW229276   2.287   5.606   6.472
 9279SOL     OW29277   3.671   4.841   6.424
 9279SOL    HW129278   3.635   4.826   6.336
 9279SOL    HW229279   3.606   4.802   6.483
 9280SOL     OW29280   3.060   5.267   7.100
 9280SOL    HW129281   3.075   5.192   7.157
 9280SOL    HW229282   3.133   5.265   7.039
 9281SOL     OW29283   2.169   4.674   5.836
 9281SOL    HW129284   2.252   4.700   5.796
 9281SOL    HW229285   2.168   4.578   5.830
 9282SOL     OW29286   2.333   4.996   7.320
 9282SOL    HW129287   2.305   5.002   7.229
 9282SOL    HW229288   2.252   4.995   7.370
 9283SOL     OW29289   2.907   5.514   5.824
 9283SOL    HW129290   2.962   5.436   5.827
 9283SOL    HW229291   2.957   5.578   5.773
 9284SOL     OW29292   2.012   3.962   7.118
 9284SOL    HW129293   1.997   4.057   7.124
 9284SOL    HW229294   2.074   3.943   7.187
 9285SOL     OW29295   2.332   5.453   5.909
 9285SOL    HW129296   2.379   5.516   5.965
 9285SOL    HW229297   2.398   5.427   5.844
 9286SOL     OW29298   2.134   5.507   6.811
 9286SOL    HW129299   2.169   5.433   6.861
 9286SOL    HW229300   2.100   5.467   6.731
 9287SOL     OW29301   2.821   5.418   6.488
 9287SOL    HW129302   2.907   5.376   6.483
 9287SOL    HW229303   2.770   5.378   6.419
 9288SOL     OW29304   2.246   4.426   6.041
 9288SOL    HW129305   2.266   4.333   6.052
 9288SOL    HW229306   2.154   4.434   6.068
 9289SOL     OW29307   3.402   3.954   7.319
 9289SOL    HW129308   3.401   3.933   7.413
 9289SOL    HW229309   3.383   3.870   7.276
 9290SOL     OW29310   2.483   3.801   5.726
 9290SOL    HW129311   2.577   3.814   5.714
 9290SOL    HW229312   2.450   3.783   5.637
 9291SOL     OW29313   2.631   4.019   7.356
 9291SOL    HW129314   2.713   3.973   7.339
 9291SOL    HW229315   2.603   3.988   7.442
 9292SOL     OW29316   2.732   5.187   6.791
 9292SOL    HW129317   2.716   5.172   6.697
 9292SOL    HW229318   2.827   5.183   6.800
 9293SOL     OW29319   3.203   4.323   7.038
 9293SOL    HW129320   3.246   4.290   7.117
 9293SOL    HW229321   3.243   4.408   7.022
 9294SOL     OW29322   2.681   5.112   6.526
 9294SOL    HW129323   2.769   5.097   6.490
 9294SOL    HW229324   2.628   5.137   6.451
 9295SOL     OW29325   2.716   4.171   6.487
 9295SOL    HW129326   2.714   4.169   6.391
 9295SOL    HW229327   2.805   4.142   6.509
 9296SOL     OW29328   2.403   3.792   6.095
 9296SOL    HW129329   2.331   3.801   6.158
 9296SOL    HW229330   2.399   3.873   6.043
 9297SOL     OW29331   2.147   3.766   5.767
 9297SOL    HW129332   2.201   3.828   5.717
 9297SOL    HW229333   2.211   3.712   5.814
 9298SOL     OW29334   2.796   3.958   6.029
 9298SOL    HW129335   2.786   4.015   5.953
 9298SOL    HW229336   2.889   3.965   6.052
 9299SOL     OW29337   2.940   4.380   7.038
 9299SOL    HW129338   2.918   4.289   7.057
 9299SOL    HW229339   3.036   4.380   7.030
 9300SOL     OW29340   3.074   5.299   6.390
 9300SOL    HW129341   3.100   5.362   6.323
 9300SOL    HW229342   3.156   5.265   6.424
 9301SOL     OW29343   2.348   4.872   6.334
 9301SOL    HW129344   2.347   4.826   6.419
 9301SOL    HW229345   2.388   4.809   6.274
 9302SOL     OW29346   3.125   5.524   6.210
 9302SOL    HW129347   3.168   5.571   6.139
 9302SOL    HW229348   3.071   5.590   6.253
 9303SOL     OW29349   2.893   4.299   5.645
 9303SOL    HW129350   2.840   4.370   5.607
 9303SOL    HW229351   2.975   4.342   5.670
 9304SOL     OW29352   1.956   4.275   6.979
 9304SOL    HW129353   2.047   4.267   6.949
 9304SOL    HW229354   1.959   4.347   7.042
 9305SOL     OW29355   2.418   3.900   6.730
 9305SOL    HW129356   2.447   3.837   6.796
 9305SOL    HW229357   2.431   3.985   6.772
 9306SOL     OW29358   2.686   4.151   6.208
 9306SOL    HW129359   2.665   4.206   6.132
 9306SOL    HW229360   2.712   4.067   6.170
 9307SOL     OW29361   2.812   3.773   6.305
 9307SOL    HW129362   2.772   3.712   6.368
 9307SOL    HW229363   2.875   3.822   6.357
 9308SOL     OW29364   3.284   4.894   6.393
 9308SOL    HW129365   3.288   4.799   6.389
 9308SOL    HW229366   3.315   4.923   6.307
 9309SOL     OW29367   3.258   4.305   6.660
 9309SOL    HW129368   3.239   4.213   6.644
 9309SOL    HW229369   3.348   4.306   6.692
 9310SOL     OW29370   3.783   4.551   5.922
 9310SOL    HW129371   3.813   4.517   6.007
 9310SOL    HW229372   3.723   4.484   5.890
 9311SOL     OW29373   2.354   5.148   5.726
 9311SOL    HW129374   2.283   5.107   5.774
 9311SOL    HW229375   2.375   5.087   5.656
 9312SOL     OW29376   2.376   3.987   5.902
 9312SOL    HW129377   2.422   3.925   5.845
 9312SOL    HW229378   2.362   4.064   5.847
 9313SOL     OW29379   2.888   5.030   6.995
 9313SOL    HW129380   2.933   5.069   7.069
 9313SOL    HW229381   2.956   4.980   6.949
 9314SOL     OW29382   3.462   5.363   7.246
 9314SOL    HW129383   3.450   5.392   7.155
 9314SOL    HW229384   3.554   5.335   7.250
 9315SOL     OW29385   2.969   4.957   6.698
 9315SOL    HW129386   2.896   4.895   6.704
 9315SOL    HW229387   2.973   4.981   6.606
 9316SOL     OW29388   3.494   4.806   6.651
 9316SOL    HW129389   3.495   4.859   6.730
 9316SOL    HW229390   3.401   4.792   6.631
 9317SOL     OW29391   2.742   3.854   6.994
 9317SOL    HW129392   2.760   3.801   6.916
 9317SOL    HW229393   2.828   3.884   7.023
 9318SOL     OW29394   2.825   4.836   7.296
 9318SOL    HW129395   2.734   4.840   7.327
 9318SOL    HW229396   2.829   4.754   7.246
 9319SOL     OW29397   2.550   4.777   5.962
 9319SOL    HW129398   2.555   4.758   6.056
 9319SOL    HW229399   2.623   4.729   5.924
 9320SOL     OW29400   2.282   4.536   6.833
 9320SOL    HW129401   2.351   4.556   6.896
 9320SOL    HW229402   2.261   4.444   6.848
 9321SOL     OW29403   3.075   4.127   6.877
 9321SOL    HW129404   3.139   4.191   6.910
 9321SOL    HW229405   3.114   4.095   6.796
 9322SOL     OW29406   1.936   5.296   6.879
 9322SOL    HW129407   1.905   5.382   6.910
 9322SOL    HW229408   2.019   5.283   6.924
 9323SOL     OW29409   2.193   4.844   6.058
 9323SOL    HW129410   2.222   4.907   5.992
 9323SOL    HW229411   2.190   4.760   6.012
 9324SOL     OW29412   2.399   4.273   6.450
 9324SOL    HW129413   2.412   4.336   6.379
 9324SOL    HW229414   2.477   4.282   6.505
 9325SOL     OW29415   3.092   5.063   5.942
 9325SOL    HW129416   3.162   5.122   5.972
 9325SOL    HW229417   3.053   5.030   6.023
 9326SOL     OW29418   3.131   5.183   6.747
 9326SOL    HW129419   3.189   5.185   6.823
 9326SOL    HW229420   3.089   5.097   6.751
 9327SOL     OW29421   2.214   5.251   6.906
 9327SOL    HW129422   2.203   5.208   6.821
 9327SOL    HW229423   2.308   5.264   6.914
 9328SOL     OW29424   2.297   4.465   7.195
 9328SOL    HW129425   2.349   4.516   7.133
 9328SOL    HW229426   2.354   4.394   7.221
 9329SOL     OW29427   2.860   3.874   7.349
 9329SOL    HW129428   2.923   3.945   7.332
 9329SOL    HW229429   2.897   3.798   7.305
 9330SOL     OW29430   2.378   3.790   7.311
 9330SOL    HW129431   2.386   3.783   7.216
 9330SOL    HW229432   2.297   3.838   7.325
 9331SOL     OW29433   2.380   4.672   6.593
 9331SOL    HW129434   2.475   4.686   6.586
 9331SOL    HW229435   2.369   4.623   6.674
 9332SOL     OW29436   3.187   4.571   6.636
 9332SOL    HW129437   3.194   4.571   6.541
 9332SOL    HW229438   3.218   4.484   6.663
 9333SOL     OW29439   2.102   3.939   6.848
 9333SOL    HW129440   2.075   3.958   6.938
 9333SOL    HW229441   2.173   3.875   6.857
 9334SOL     OW29442   1.890   5.031   6.862
 9334SOL    HW129443   1.929   4.981   6.934
 9334SOL    HW229444   1.903   5.122   6.887
 9335SOL     OW29445   2.603   4.359   6.637
 9335SOL    HW129446   2.648   4.286   6.594
 9335SOL    HW229447   2.671   4.426   6.649
 9336SOL     OW29448   2.145   3.776   6.220
 9336SOL    HW129449   2.127   3.868   6.240
 9336SOL    HW229450   2.167   3.738   6.304
 9337SOL     OW29451   2.878   4.498   6.620
 9337SOL    HW129452   2.965   4.502   6.660
 9337SOL    HW229453   2.894   4.478   6.528
 9338SOL     OW29454   2.830   5.257   7.298
 9338SOL    HW129455   2.832   5.311   7.219
 9338SOL    HW229456   2.894   5.188   7.282
 9339SOL     OW29457   3.725   5.297   7.209
 9339SOL    HW129458   3.746   5.320   7.119
 9339SOL    HW229459   3.748   5.204   7.216
 9340SOL     OW29460   2.215   4.631   7.403
 9340SOL    HW129461   2.294   4.661   7.449
 9340SOL    HW229462   2.248   4.573   7.335
 9341SOL     OW29463   3.135   4.530   5.574
 9341SOL    HW129464   3.210   4.538   5.633
 9341SOL    HW229465   3.161   4.576   5.494
 9342SOL     OW29466   2.927   5.049   6.436
 9342SOL    HW129467   2.938   4.974   6.378
 9342SOL    HW229468   2.990   5.113   6.404
 9343SOL     OW29469   2.147   4.542   6.516
 9343SOL    HW129470   2.234   4.577   6.534
 9343SOL    HW229471   2.153   4.450   6.540
 9344SOL     OW29472   2.160   4.266   6.569
 9344SOL    HW129473   2.141   4.172   6.578
 9344SOL    HW229474   2.248   4.268   6.531
 9345SOL     OW29475   2.995   4.128   7.310
 9345SOL    HW129476   2.981   4.186   7.385
 9345SOL    HW229477   3.088   4.140   7.287
 9346SOL     OW29478   2.987   3.951   7.069
 9346SOL    HW129479   3.013   4.009   7.141
 9346SOL    HW229480   3.033   3.986   6.992
 9347SOL     OW29481   1.861   5.049   5.803
 9347SOL    HW129482   1.775   5.063   5.763
 9347SOL    HW229483   1.861   4.957   5.830
 9348SOL     OW29484   1.958   5.495   6.506
 9348SOL    HW129485   1.941   5.419   6.451
 9348SOL    HW229486   2.050   5.518   6.488
 9349SOL     OW29487   2.360   5.300   6.493
 9349SOL    HW129488   2.427   5.362   6.522
 9349SOL    HW229489   2.405   5.245   6.429
 9350SOL     OW29490   2.793   4.547   6.875
 9350SOL    HW129491   2.848   4.487   6.925
 9350SOL    HW229492   2.814   4.528   6.784
 9351SOL     OW29493   1.910   4.291   6.699
 9351SOL    HW129494   1.989   4.284   6.646
 9351SOL    HW229495   1.940   4.278   6.789
 9352SOL     OW29496   2.071   4.247   7.314
 9352SOL    HW129497   2.146   4.222   7.260
 9352SOL    HW229498   2.033   4.321   7.267
 9353SOL     OW29499   2.658   4.246   5.945
 9353SOL    HW129500   2.683   4.195   5.869
 9353SOL    HW229501   2.604   4.317   5.910
 9354SOL     OW29502   3.508   4.327   6.778
 9354SOL    HW129503   3.511   4.264   6.851
 9354SOL    HW229504   3.591   4.314   6.732
 9355SOL     OW29505   2.113   5.278   7.316
 9355SOL    HW129506   2.085   5.341   7.383
 9355SOL    HW229507   2.119   5.195   7.362
 9356SOL     OW29508   2.493   4.168   6.808
 9356SOL    HW129509   2.575   4.125   6.831
 9356SOL    HW229510   2.520   4.245   6.757
 9357SOL     OW29511   2.743   5.418   7.067
 9357SOL    HW129512   2.778   5.379   6.987
 9357SOL    HW229513   2.811   5.479   7.096
 9358SOL     OW29514   2.319   4.208   5.751
 9358SOL    HW129515   2.386   4.274   5.772
 9358SOL    HW229516   2.237   4.257   5.752
 9359SOL     OW29517   1.999   4.861   7.055
 9359SOL    HW129518   1.999   4.812   7.137
 9359SOL    HW229519   2.020   4.797   6.987
 9360SOL     OW29520   3.178   4.787   6.799
 9360SOL    HW129521   3.190   4.709   6.745
 9360SOL    HW229522   3.116   4.840   6.751
 9361SOL     OW29523   3.650   5.464   6.747
 9361SOL    HW129524   3.705   5.483   6.672
 9361SOL    HW229525   3.613   5.377   6.728
 9362SOL     OW29526   3.105   5.457   6.708
 9362SOL    HW129527   3.186   5.481   6.664
 9362SOL    HW229528   3.111   5.362   6.720
 9363SOL     OW29529   1.959   4.989   6.604
 9363SOL    HW129530   1.952   5.006   6.698
 9363SOL    HW229531   1.872   4.959   6.578
 9364SOL     OW29532   2.544   5.388   7.312
 9364SOL    HW129533   2.502   5.474   7.315
 9364SOL    HW229534   2.631   5.405   7.277
 9365SOL     OW29535   3.205   5.306   6.028
 9365SOL    HW129536   3.290   5.322   5.986
 9365SOL    HW229537   3.207   5.359   6.108
 9366SOL     OW29538   2.005   5.525   7.429
 9366SOL    HW129539   1.959   5.456   7.477
 9366SOL    HW229540   2.054   5.572   7.496
 9367SOL     OW29541   2.525   5.360   5.732
 9367SOL    HW129542   2.552   5.370   5.641
 9367SOL    HW229543   2.473   5.280   5.733
 9368SOL     OW29544   3.471   5.450   6.977
 9368SOL    HW129545   3.528   5.450   6.899
 9368SOL    HW229546   3.460   5.543   6.998
 9369SOL     OW29547   3.699   3.910   6.601
 9369SOL    HW129548   3.727   3.820   6.585
 9369SOL    HW229549   3.620   3.920   6.548
 9370SOL     OW29550   2.109   4.033   6.311
 9370SOL    HW129551   2.106   4.129   6.316
 9370SOL    HW229552   2.135   4.006   6.399
 9371SOL     OW29553   3.069   5.331   5.615
 9371SOL    HW129554   3.065   5.241   5.647
 9371SOL    HW229555   2.993   5.340   5.558
 9372SOL     OW29556   2.695   4.789   6.965
 9372SOL    HW129557   2.718   4.719   6.903
 9372SOL    HW229558   2.757   4.778   7.037
 9373SOL     OW29559   2.736   4.631   5.846
 9373SOL    HW129560   2.809   4.655   5.789
 9373SOL    HW229561   2.775   4.575   5.914
 9374SOL     OW29562   3.351   5.370   5.632
 9374SOL    HW129563   3.257   5.359   5.621
 9374SOL    HW229564   3.388   5.356   5.545
 9375SOL     OW29565   2.224   5.027   7.078
 9375SOL    HW129566   2.210   5.108   7.028
 9375SOL    HW229567   2.144   4.976   7.065
 9376SOL     OW29568   3.507   4.965   6.876
 9376SOL    HW129569   3.586   4.930   6.917
 9376SOL    HW229570   3.511   5.060   6.892
 9377SOL     OW29571   2.928   4.812   6.296
 9377SOL    HW129572   2.871   4.744   6.332
 9377SOL    HW229573   3.009   4.766   6.272
 9378SOL     OW29574   2.422   5.179   6.053
 9378SOL    HW129575   2.490   5.135   6.002
 9378SOL    HW229576   2.417   5.267   6.014
 9379SOL     OW29577   3.588   4.136   6.980
 9379SOL    HW129578   3.670   4.183   6.965
 9379SOL    HW229579   3.598   4.053   6.933
 9380SOL     OW29580   2.125   5.066   5.877
 9380SOL    HW129581   2.030   5.071   5.869
 9380SOL    HW229582   2.148   5.137   5.937
 9381SOL     OW29583   1.978   4.727   7.296
 9381SOL    HW129584   1.904   4.715   7.356
 9381SOL    HW229585   2.055   4.699   7.346
 9382SOL     OW29586   2.543   4.007   7.094
 9382SOL    HW129587   2.607   3.953   7.047
 9382SOL    HW229588   2.574   4.008   7.185
 9383SOL     OW29589   1.916   4.071   5.632
 9383SOL    HW129590   1.862   4.042   5.559
 9383SOL    HW229591   1.966   4.144   5.597
 9384SOL     OW29592   3.270   4.580   6.970
 9384SOL    HW129593   3.241   4.656   6.920
 9384SOL    HW229594   3.365   4.582   6.964
 9385SOL     OW29595   1.919   3.881   5.873
 9385SOL    HW129596   1.914   3.956   5.814
 9385SOL    HW229597   2.006   3.843   5.857
 9386SOL     OW29598   3.029   5.064   5.683
 9386SOL    HW129599   2.959   4.999   5.694
 9386SOL    HW229600   3.070   5.069   5.769
 9387SOL     OW29601   2.474   4.588   7.016
 9387SOL    HW129602   2.539   4.657   7.007
 9387SOL    HW229603   2.524   4.507   7.020
 9388SOL     OW29604   3.346   5.519   6.590
 9388SOL    HW129605   3.369   5.549   6.502
 9388SOL    HW229606   3.412   5.453   6.611
 9389SOL     OW29607   2.546   4.286   7.308
 9389SOL    HW129608   2.600   4.351   7.352
 9389SOL    HW229609   2.586   4.202   7.330
 9390SOL     OW29610   2.232   5.468   7.151
 9390SOL    HW129611   2.147   5.509   7.138
 9390SOL    HW229612   2.213   5.387   7.197
 9391SOL     OW29613   3.526   4.594   6.854
 9391SOL    HW129614   3.521   4.503   6.824
 9391SOL    HW229615   3.533   4.645   6.773
 9392SOL     OW29616   2.415   4.473   6.262
 9392SOL    HW129617   2.481   4.541   6.247
 9392SOL    HW229618   2.369   4.465   6.179
 9393SOL     OW29619   3.599   4.125   7.258
 9393SOL    HW129620   3.595   4.136   7.163
 9393SOL    HW229621   3.533   4.058   7.277
 9394SOL     OW29622   3.699   4.657   7.064
 9394SOL    HW129623   3.717   4.747   7.037
 9394SOL    HW229624   3.629   4.627   7.006
 9395SOL     OW29625   2.685   5.093   5.621
 9395SOL    HW129626   2.693   5.123   5.711
 9395SOL    HW229627   2.733   5.158   5.570
 9396SOL     OW29628   2.529   5.511   6.542
 9396SOL    HW129629   2.513   5.602   6.517
 9396SOL    HW229630   2.620   5.495   6.519
 9397SOL     OW29631   2.722   4.674   6.443
 9397SOL    HW129632   2.787   4.607   6.462
 9397SOL    HW229633   2.713   4.722   6.526
 9398SOL     OW29634   2.922   4.680   5.658
 9398SOL    HW129635   2.918   4.747   5.590
 9398SOL    HW229636   3.003   4.631   5.640
 9399SOL     OW29637   3.714   5.257   6.444
 9399SOL    HW129638   3.699   5.221   6.357
 9399SOL    HW229639   3.741   5.182   6.497
 9400SOL     OW29640   2.087   5.025   7.438
 9400SOL    HW129641   2.023   4.977   7.386
 9400SOL    HW229642   2.045   5.036   7.524
 9401SOL     OW29643   2.551   5.118   7.154
 9401SOL    HW129644   2.484   5.075   7.208
 9401SOL    HW229645   2.567   5.202   7.197
 9402SOL     OW29646   3.650   3.898   6.868
 9402SOL    HW129647   3.728   3.846   6.890
 9402SOL    HW229648   3.657   3.912   6.773
 9403SOL     OW29649   2.270   4.161   6.094
 9403SOL    HW129650   2.315   4.103   6.033
 9403SOL    HW229651   2.272   4.115   6.178
 9404SOL     OW29652   3.541   5.220   6.702
 9404SOL    HW129653   3.485   5.193   6.629
 9404SOL    HW229654   3.612   5.155   6.702
 9405SOL     OW29655   2.209   4.267   6.881
 9405SOL    HW129656   2.252   4.218   6.951
 9405SOL    HW229657   2.253   4.238   6.801
 9406SOL     OW29658   2.670   5.335   6.280
 9406SOL    HW129659   2.682   5.380   6.197
 9406SOL    HW229660   2.631   5.251   6.257
 9407SOL     OW29661   2.800   3.706   6.765
 9407SOL    HW129662   2.798   3.652   6.686
 9407SOL    HW229663   2.863   3.776   6.745
 9408SOL     OW29664   2.627   5.049   5.927
 9408SOL    HW129665   2.616   4.954   5.930
 9408SOL    HW229666   2.707   5.066   5.976
 9409SOL     OW29667   2.486   5.288   6.864
 9409SOL    HW129668   2.483   5.377   6.897
 9409SOL    HW229669   2.576   5.275   6.834
 9410SOL     OW29670   3.426   4.016   6.550
 9410SOL    HW129671   3.339   4.019   6.590
 9410SOL    HW229672   3.424   4.086   6.485
 9411SOL     OW29673   1.900   4.792   5.899
 9411SOL    HW129674   1.993   4.788   5.876
 9411SOL    HW229675   1.875   4.702   5.917
 9412SOL     OW29676   2.690   5.368   5.979
 9412SOL    HW129677   2.659   5.360   5.888
 9412SOL    HW229678   2.738   5.450   5.981
 9413SOL     OW29679   2.068   4.358   7.578
 9413SOL    HW129680   1.975   4.340   7.591
 9413SOL    HW229681   2.084   4.338   7.486
 9414SOL     OW29682   2.081   4.026   8.439
 9414SOL    HW129683   2.120   3.982   8.515
 9414SOL    HW229684   1.995   3.985   8.430
 9415SOL     OW29685   2.435   5.029   8.630
 9415SOL    HW129686   2.350   5.035   8.586
 9415SOL    HW229687   2.451   5.118   8.664
 9416SOL     OW29688   3.417   5.277   8.155
 9416SOL    HW129689   3.384   5.221   8.224
 9416SOL    HW229690   3.357   5.264   8.082
 9417SOL     OW29691   2.977   4.411   8.188
 9417SOL    HW129692   3.033   4.383   8.116
 9417SOL    HW229693   2.986   4.507   8.189
 9418SOL     OW29694   2.602   4.869   8.484
 9418SOL    HW129695   2.540   4.912   8.544
 9418SOL    HW229696   2.644   4.941   8.437
 9419SOL     OW29697   2.690   4.558   9.266
 9419SOL    HW129698   2.755   4.567   9.336
 9419SOL    HW229699   2.741   4.566   9.185
 9420SOL     OW29700   2.539   4.719   8.092
 9420SOL    HW129701   2.606   4.715   8.160
 9420SOL    HW229702   2.475   4.782   8.124
 9421SOL     OW29703   2.563   4.871   9.251
 9421SOL    HW129704   2.616   4.943   9.283
 9421SOL    HW229705   2.490   4.914   9.206
 9422SOL     OW29706   2.200   5.130   8.511
 9422SOL    HW129707   2.121   5.094   8.472
 9422SOL    HW229708   2.236   5.188   8.444
 9423SOL     OW29709   3.295   5.263   8.829
 9423SOL    HW129710   3.358   5.335   8.840
 9423SOL    HW229711   3.232   5.276   8.899
 9424SOL     OW29712   2.304   4.122   8.980
 9424SOL    HW129713   2.383   4.071   8.962
 9424SOL    HW229714   2.232   4.063   8.960
 9425SOL     OW29715   2.088   5.437   7.910
 9425SOL    HW129716   2.106   5.512   7.966
 9425SOL    HW229717   2.163   5.433   7.851
 9426SOL     OW29718   3.000   5.072   9.150
 9426SOL    HW129719   3.051   5.058   9.230
 9426SOL    HW229720   2.955   4.988   9.136
 9427SOL     OW29721   2.085   5.175   7.992
 9427SOL    HW129722   2.081   5.269   7.977
 9427SOL    HW229723   2.030   5.160   8.069
 9428SOL     OW29724   2.127   4.815   8.324
 9428SOL    HW129725   2.126   4.727   8.362
 9428SOL    HW229726   2.076   4.867   8.385
 9429SOL     OW29727   2.470   5.526   8.864
 9429SOL    HW129728   2.387   5.507   8.908
 9429SOL    HW229729   2.537   5.507   8.931
 9430SOL     OW29730   2.428   4.717   7.583
 9430SOL    HW129731   2.485   4.750   7.514
 9430SOL    HW229732   2.472   4.743   7.665
 9431SOL     OW29733   1.938   4.331   8.047
 9431SOL    HW129734   1.894   4.378   7.976
 9431SOL    HW229735   1.951   4.397   8.116
 9432SOL     OW29736   3.692   5.496   7.786
 9432SOL    HW129737   3.767   5.464   7.836
 9432SOL    HW229738   3.722   5.577   7.746
 9433SOL     OW29739   1.916   5.313   7.571
 9433SOL    HW129740   1.891   5.223   7.588
 9433SOL    HW229741   1.883   5.362   7.647
 9434SOL     OW29742   1.991   4.462   9.044
 9434SOL    HW129743   2.074   4.510   9.045
 9434SOL    HW229744   1.925   4.530   9.026
 9435SOL     OW29745   2.479   5.121   8.184
 9435SOL    HW129746   2.434   5.037   8.188
 9435SOL    HW229747   2.468   5.151   8.094
 9436SOL     OW29748   3.144   4.973   8.885
 9436SOL    HW129749   3.160   4.905   8.819
 9436SOL    HW229750   3.213   4.958   8.951
 9437SOL     OW29751   2.654   3.753   8.021
 9437SOL    HW129752   2.700   3.807   7.957
 9437SOL    HW229753   2.563   3.752   7.990
 9438SOL     OW29754   2.042   4.659   8.774
 9438SOL    HW129755   2.127   4.627   8.742
 9438SOL    HW229756   1.996   4.688   8.695
 9439SOL     OW29757   3.028   5.538   9.074
 9439SOL    HW129758   3.044   5.597   9.001
 9439SOL    HW229759   3.046   5.451   9.039
 9440SOL     OW29760   2.218   3.976   9.290
 9440SOL    HW129761   2.285   4.043   9.304
 9440SOL    HW229762   2.143   4.024   9.254
 9441SOL     OW29763   3.296   5.167   8.374
 9441SOL    HW129764   3.248   5.171   8.457
 9441SOL    HW229765   3.293   5.074   8.350
 9442SOL     OW29766   3.500   5.505   8.030
 9442SOL    HW129767   3.492   5.473   7.940
 9442SOL    HW229768   3.480   5.429   8.085
 9443SOL     OW29769   2.459   4.443   7.698
 9443SOL    HW129770   2.485   4.512   7.637
 9443SOL    HW229771   2.414   4.488   7.769
 9444SOL     OW29772   3.177   4.062   8.446
 9444SOL    HW129773   3.126   4.015   8.380
 9444SOL    HW229774   3.268   4.041   8.427
 9445SOL     OW29775   3.433   5.413   7.775
 9445SOL    HW129776   3.525   5.434   7.760
 9445SOL    HW229777   3.394   5.413   7.687
 9446SOL     OW29778   2.630   4.334   8.900
 9446SOL    HW129779   2.613   4.297   8.987
 9446SOL    HW229780   2.592   4.270   8.839
 9447SOL     OW29781   2.817   4.599   9.033
 9447SOL    HW129782   2.868   4.526   9.000
 9447SOL    HW229783   2.770   4.633   8.956
 9448SOL     OW29784   2.804   4.177   8.664
 9448SOL    HW129785   2.768   4.102   8.712
 9448SOL    HW229786   2.845   4.138   8.587
 9449SOL     OW29787   2.874   4.442   7.881
 9449SOL    HW129788   2.962   4.405   7.890
 9449SOL    HW229789   2.824   4.374   7.835
 9450SOL     OW29790   1.949   4.543   8.225
 9450SOL    HW129791   2.031   4.543   8.275
 9450SOL    HW229792   1.900   4.618   8.260
 9451SOL     OW29793   2.000   5.608   9.026
 9451SOL    HW129794   1.985   5.570   9.113
 9451SOL    HW229795   1.950   5.552   8.966
 9452SOL     OW29796   2.808   4.096   7.624
 9452SOL    HW129797   2.868   4.167   7.604
 9452SOL    HW229798   2.838   4.023   7.570
 9453SOL     OW29799   3.574   4.337   9.321
 9453SOL    HW129800   3.494   4.389   9.323
 9453SOL    HW229801   3.619   4.365   9.242
 9454SOL     OW29802   3.267   4.847   7.961
 9454SOL    HW129803   3.328   4.833   7.888
 9454SOL    HW229804   3.212   4.920   7.933
 9455SOL     OW29805   2.393   3.901   8.333
 9455SOL    HW129806   2.415   3.924   8.423
 9455SOL    HW229807   2.461   3.943   8.280
 9456SOL     OW29808   2.860   5.256   7.983
 9456SOL    HW129809   2.865   5.270   7.888
 9456SOL    HW229810   2.945   5.218   8.006
 9457SOL     OW29811   2.208   5.529   8.314
 9457SOL    HW129812   2.258   5.449   8.325
 9457SOL    HW229813   2.262   5.597   8.354
 9458SOL     OW29814   3.063   5.276   8.975
 9458SOL    HW129815   3.061   5.203   9.036
 9458SOL    HW229816   3.024   5.241   8.894
 9459SOL     OW29817   2.171   4.673   7.700
 9459SOL    HW129818   2.255   4.705   7.666
 9459SOL    HW229819   2.146   4.602   7.641
 9460SOL     OW29820   3.300   4.527   8.249
 9460SOL    HW129821   3.296   4.466   8.323
 9460SOL    HW229822   3.371   4.494   8.195
 9461SOL     OW29823   2.322   4.982   9.176
 9461SOL    HW129824   2.295   4.990   9.084
 9461SOL    HW229825   2.241   4.993   9.225
 9462SOL     OW29826   2.965   5.493   7.704
 9462SOL    HW129827   2.986   5.431   7.635
 9462SOL    HW229828   3.025   5.566   7.690
 9463SOL     OW29829   2.067   3.982   8.946
 9463SOL    HW129830   1.985   4.027   8.927
 9463SOL    HW229831   2.041   3.896   8.978
 9464SOL     OW29832   3.465   5.149   7.602
 9464SOL    HW129833   3.439   5.236   7.572
 9464SOL    HW229834   3.414   5.089   7.549
 9465SOL     OW29835   2.332   5.455   7.768
 9465SOL    HW129836   2.377   5.521   7.820
 9465SOL    HW229837   2.395   5.432   7.699
 9466SOL     OW29838   2.146   5.520   8.665
 9466SOL    HW129839   2.157   5.433   8.703
 9466SOL    HW229840   2.097   5.506   8.585
 9467SOL     OW29841   2.818   5.411   8.347
 9467SOL    HW129842   2.905   5.376   8.326
 9467SOL    HW229843   2.764   5.334   8.362
 9468SOL     OW29844   2.252   4.398   7.962
 9468SOL    HW129845   2.273   4.305   7.952
 9468SOL    HW229846   2.157   4.400   7.971
 9469SOL     OW29847   2.490   3.835   7.558
 9469SOL    HW129848   2.564   3.776   7.572
 9469SOL    HW229849   2.458   3.814   7.470
 9470SOL     OW29850   2.626   4.012   9.214
 9470SOL    HW129851   2.704   3.960   9.194
 9470SOL    HW229852   2.618   4.007   9.310
 9471SOL     OW29853   2.742   5.254   8.650
 9471SOL    HW129854   2.731   5.221   8.561
 9471SOL    HW229855   2.813   5.201   8.687
 9472SOL     OW29856   2.685   5.163   8.378
 9472SOL    HW129857   2.764   5.121   8.342
 9472SOL    HW229858   2.618   5.145   8.312
 9473SOL     OW29859   2.811   4.210   8.319
 9473SOL    HW129860   2.892   4.222   8.270
 9473SOL    HW229861   2.822   4.125   8.362
 9474SOL     OW29862   2.398   3.790   7.943
 9474SOL    HW129863   2.313   3.796   7.988
 9474SOL    HW229864   2.397   3.864   7.883
 9475SOL     OW29865   2.159   3.765   7.628
 9475SOL    HW129866   2.222   3.818   7.579
 9475SOL    HW229867   2.212   3.699   7.673
 9476SOL     OW29868   2.762   3.944   7.862
 9476SOL    HW129869   2.773   4.000   7.785
 9476SOL    HW229870   2.835   3.882   7.857
 9477SOL     OW29871   2.929   4.382   8.908
 9477SOL    HW129872   2.853   4.328   8.886
 9477SOL    HW229873   3.004   4.323   8.898
 9478SOL     OW29874   3.070   5.315   8.258
 9478SOL    HW129875   3.098   5.379   8.193
 9478SOL    HW229876   3.151   5.273   8.286
 9479SOL     OW29877   2.335   4.887   8.165
 9479SOL    HW129878   2.268   4.863   8.230
 9479SOL    HW229879   2.292   4.875   8.081
 9480SOL     OW29880   3.127   5.529   8.083
 9480SOL    HW129881   3.176   5.582   8.021
 9480SOL    HW229882   3.047   5.580   8.100
 9481SOL     OW29883   1.961   4.274   8.840
 9481SOL    HW129884   2.053   4.273   8.812
 9481SOL    HW229885   1.956   4.346   8.903
 9482SOL     OW29886   2.429   3.940   8.609
 9482SOL    HW129887   2.474   3.860   8.635
 9482SOL    HW229888   2.339   3.929   8.640
 9483SOL     OW29889   2.683   4.172   8.036
 9483SOL    HW129890   2.672   4.212   7.950
 9483SOL    HW229891   2.715   4.084   8.018
 9484SOL     OW29892   2.812   3.807   8.228
 9484SOL    HW129893   2.765   3.791   8.147
 9484SOL    HW229894   2.844   3.722   8.256
 9485SOL     OW29895   3.283   4.914   8.283
 9485SOL    HW129896   3.235   4.837   8.251
 9485SOL    HW229897   3.361   4.918   8.228
 9486SOL     OW29898   3.293   4.359   8.467
 9486SOL    HW129899   3.280   4.265   8.457
 9486SOL    HW229900   3.388   4.369   8.479
 9487SOL     OW29901   2.347   5.137   7.606
 9487SOL    HW129902   2.269   5.104   7.652
 9487SOL    HW229903   2.350   5.084   7.526
 9488SOL     OW29904   3.523   4.995   8.155
 9488SOL    HW129905   3.612   4.967   8.136
 9488SOL    HW229906   3.498   5.047   8.079
 9489SOL     OW29907   2.385   3.989   7.760
 9489SOL    HW129908   2.433   3.940   7.693
 9489SOL    HW229909   2.358   4.069   7.715
 9490SOL     OW29910   2.916   5.097   8.801
 9490SOL    HW129911   2.840   5.052   8.838
 9490SOL    HW229912   2.991   5.046   8.830
 9491SOL     OW29913   3.478   5.367   9.121
 9491SOL    HW129914   3.465   5.394   9.030
 9491SOL    HW229915   3.563   5.324   9.121
 9492SOL     OW29916   3.003   4.965   8.549
 9492SOL    HW129917   2.923   4.972   8.600
 9492SOL    HW229918   2.976   4.981   8.459
 9493SOL     OW29919   2.773   3.866   8.823
 9493SOL    HW129920   2.798   3.817   8.745
 9493SOL    HW229921   2.856   3.895   8.860
 9494SOL     OW29922   2.856   4.838   9.161
 9494SOL    HW129923   2.764   4.851   9.185
 9494SOL    HW229924   2.856   4.758   9.109
 9495SOL     OW29925   2.557   4.776   7.819
 9495SOL    HW129926   2.552   4.755   7.912
 9495SOL    HW229927   2.638   4.735   7.789
 9496SOL     OW29928   2.286   4.547   8.709
 9496SOL    HW129929   2.355   4.556   8.775
 9496SOL    HW229930   2.258   4.456   8.716
 9497SOL     OW29931   3.148   4.093   8.725
 9497SOL    HW129932   3.243   4.098   8.739
 9497SOL    HW229933   3.139   4.089   8.630
 9498SOL     OW29934   1.937   5.364   8.835
 9498SOL    HW129935   1.889   5.398   8.760
 9498SOL    HW229936   1.989   5.291   8.799
 9499SOL     OW29937   2.194   4.847   7.931
 9499SOL    HW129938   2.190   4.919   7.868
 9499SOL    HW229939   2.199   4.769   7.876
 9500SOL     OW29940   3.112   5.062   7.881
 9500SOL    HW129941   3.163   5.143   7.885
 9500SOL    HW229942   3.053   5.075   7.807
 9501SOL     OW29943   3.148   5.196   8.601
 9501SOL    HW129944   3.201   5.193   8.681
 9501SOL    HW229945   3.104   5.111   8.599
 9502SOL     OW29946   2.207   5.250   8.752
 9502SOL    HW129947   2.193   5.203   8.670
 9502SOL    HW229948   2.302   5.265   8.754
 9503SOL     OW29949   2.316   4.469   9.095
 9503SOL    HW129950   2.354   4.503   9.014
 9503SOL    HW229951   2.317   4.374   9.084
 9504SOL     OW29952   2.843   3.859   9.159
 9504SOL    HW129953   2.889   3.892   9.082
 9504SOL    HW229954   2.879   3.772   9.174
 9505SOL     OW29955   2.366   3.754   9.205
 9505SOL    HW129956   2.319   3.704   9.138
 9505SOL    HW229957   2.313   3.833   9.216
 9506SOL     OW29958   2.442   4.598   8.482
 9506SOL    HW129959   2.484   4.684   8.479
 9506SOL    HW229960   2.390   4.600   8.563
 9507SOL     OW29961   3.162   4.594   8.496
 9507SOL    HW129962   3.192   4.621   8.409
 9507SOL    HW229963   3.203   4.509   8.511
 9508SOL     OW29964   2.166   3.917   8.687
 9508SOL    HW129965   2.132   3.945   8.773
 9508SOL    HW229966   2.148   3.823   8.684
 9509SOL     OW29967   2.567   4.350   8.448
 9509SOL    HW129968   2.660   4.362   8.466
 9509SOL    HW229969   2.529   4.437   8.459
 9510SOL     OW29970   3.602   4.662   9.316
 9510SOL    HW129971   3.594   4.685   9.224
 9510SOL    HW229972   3.514   4.640   9.344
 9511SOL     OW29973   2.157   3.800   8.076
 9511SOL    HW129974   2.099   3.873   8.100
 9511SOL    HW229975   2.175   3.755   8.158
 9512SOL     OW29976   2.829   4.477   8.432
 9512SOL    HW129977   2.887   4.514   8.499
 9512SOL    HW229978   2.885   4.417   8.383
 9513SOL     OW29979   2.830   5.281   9.179
 9513SOL    HW129980   2.816   5.326   9.095
 9513SOL    HW229981   2.883   5.204   9.157
 9514SOL     OW29982   3.740   5.270   9.082
 9514SOL    HW129983   3.761   5.286   8.990
 9514SOL    HW229984   3.745   5.175   9.091
 9515SOL     OW29985   3.378   3.960   7.592
 9515SOL    HW129986   3.284   3.971   7.601
 9515SOL    HW229987   3.413   4.049   7.589
 9516SOL     OW29988   2.919   5.057   8.302
 9516SOL    HW129989   2.915   4.981   8.244
 9516SOL    HW229990   2.985   5.114   8.264
 9517SOL     OW29991   2.172   4.538   8.394
 9517SOL    HW129992   2.265   4.562   8.394
 9517SOL    HW229993   2.170   4.448   8.427
 9518SOL     OW29994   2.211   4.262   8.466
 9518SOL    HW129995   2.171   4.177   8.447
 9518SOL    HW229996   2.296   4.258   8.423
 9519SOL     OW29997   3.010   3.968   8.928
 9519SOL    HW129998   3.078   3.981   8.993
 9519SOL    HW229999   3.043   4.010   8.849
 9520SOL     OW30000   1.872   5.040   7.640
 9520SOL    HW130001   1.784   5.060   7.607
 9520SOL    HW230002   1.866   4.952   7.675
 9521SOL     OW30003   1.953   5.501   8.399
 9521SOL    HW130004   1.920   5.427   8.349
 9521SOL    HW230005   2.040   5.518   8.362
 9522SOL     OW30006   2.358   5.302   8.355
 9522SOL    HW130007   2.428   5.364   8.376
 9522SOL    HW230008   2.399   5.239   8.296
 9523SOL     OW30009   2.835   4.547   8.708
 9523SOL    HW130010   2.903   4.516   8.768
 9523SOL    HW230011   2.789   4.468   8.680
 9524SOL     OW30012   1.896   4.269   8.566
 9524SOL    HW130013   1.972   4.256   8.509
 9524SOL    HW230014   1.934   4.277   8.654
 9525SOL     OW30015   2.060   4.227   9.176
 9525SOL    HW130016   2.115   4.187   9.109
 9525SOL    HW230017   2.023   4.305   9.133
 9526SOL     OW30018   2.662   4.271   7.788
 9526SOL    HW130019   2.697   4.215   7.719
 9526SOL    HW230020   2.598   4.327   7.744
 9527SOL     OW30021   2.121   5.276   9.168
 9527SOL    HW130022   2.091   5.347   9.225
 9527SOL    HW230023   2.118   5.198   9.224
 9528SOL     OW30024   2.493   4.194   8.698
 9528SOL    HW130025   2.481   4.103   8.671
 9528SOL    HW230026   2.534   4.236   8.622
 9529SOL     OW30027   2.742   5.413   8.941
 9529SOL    HW130028   2.744   5.356   8.865
 9529SOL    HW230029   2.778   5.496   8.910
 9530SOL     OW30030   2.301   4.223   7.658
 9530SOL    HW130031   2.367   4.292   7.661
 9530SOL    HW230032   2.220   4.269   7.634
 9531SOL     OW30033   1.981   4.856   8.973
 9531SOL    HW130034   2.029   4.781   8.939
 9531SOL    HW230035   1.950   4.902   8.894
 9532SOL     OW30036   3.161   4.790   8.689
 9532SOL    HW130037   3.179   4.710   8.639
 9532SOL    HW230038   3.114   4.847   8.628
 9533SOL     OW30039   3.630   5.476   8.596
 9533SOL    HW130040   3.699   5.486   8.530
 9533SOL    HW230041   3.598   5.387   8.584
 9534SOL     OW30042   3.113   5.468   8.574
 9534SOL    HW130043   3.186   5.479   8.514
 9534SOL    HW230044   3.109   5.374   8.591
 9535SOL     OW30045   1.963   4.976   8.467
 9535SOL    HW130046   1.933   4.994   8.556
 9535SOL    HW230047   1.887   4.937   8.424
 9536SOL     OW30048   2.545   5.391   9.197
 9536SOL    HW130049   2.490   5.466   9.174
 9536SOL    HW230050   2.624   5.402   9.143
 9537SOL     OW30051   3.546   3.768   7.977
 9537SOL    HW130052   3.600   3.847   7.966
 9537SOL    HW230053   3.581   3.706   7.913
 9538SOL     OW30054   3.243   5.300   7.935
 9538SOL    HW130055   3.305   5.326   7.868
 9538SOL    HW230056   3.192   5.379   7.953
 9539SOL     OW30057   2.000   5.493   9.290
 9539SOL    HW130058   1.933   5.441   9.335
 9539SOL    HW230059   2.039   5.547   9.359
 9540SOL     OW30060   3.121   4.688   8.129
 9540SOL    HW130061   3.182   4.620   8.158
 9540SOL    HW230062   3.168   4.734   8.059
 9541SOL     OW30063   2.662   5.005   8.862
 9541SOL    HW130064   2.631   5.046   8.943
 9541SOL    HW230065   2.592   5.018   8.799
 9542SOL     OW30066   2.522   5.340   7.586
 9542SOL    HW130067   2.530   5.355   7.492
 9542SOL    HW230068   2.463   5.265   7.593
 9543SOL     OW30069   3.479   5.465   8.852
 9543SOL    HW130070   3.547   5.452   8.786
 9543SOL    HW230071   3.474   5.560   8.864
 9544SOL     OW30072   2.035   4.051   8.155
 9544SOL    HW130073   2.090   4.121   8.119
 9544SOL    HW230074   2.061   4.046   8.247
 9545SOL     OW30075   3.016   5.319   7.509
 9545SOL    HW130076   3.021   5.225   7.527
 9545SOL    HW230077   2.973   5.324   7.424
 9546SOL     OW30078   2.674   4.730   8.835
 9546SOL    HW130079   2.732   4.698   8.766
 9546SOL    HW230080   2.684   4.825   8.833
 9547SOL     OW30081   2.781   4.660   7.735
 9547SOL    HW130082   2.841   4.676   7.663
 9547SOL    HW230083   2.820   4.587   7.783
 9548SOL     OW30084   3.362   5.380   7.504
 9548SOL    HW130085   3.292   5.446   7.505
 9548SOL    HW230086   3.390   5.377   7.413
 9549SOL     OW30087   2.215   5.036   8.938
 9549SOL    HW130088   2.210   5.109   8.877
 9549SOL    HW230089   2.129   4.994   8.933
 9550SOL     OW30090   3.415   5.046   8.727
 9550SOL    HW130091   3.458   4.983   8.784
 9550SOL    HW230092   3.368   5.104   8.787
 9551SOL     OW30093   2.896   4.836   8.160
 9551SOL    HW130094   2.831   4.771   8.189
 9551SOL    HW230095   2.972   4.784   8.136
 9552SOL     OW30096   2.846   3.968   8.441
 9552SOL    HW130097   2.838   3.923   8.357
 9552SOL    HW230098   2.870   3.900   8.503
 9553SOL     OW30099   2.470   5.228   7.925
 9553SOL    HW130100   2.513   5.161   7.871
 9553SOL    HW230101   2.396   5.258   7.871
 9554SOL     OW30102   2.123   5.056   7.755
 9554SOL    HW130103   2.034   5.060   7.721
 9554SOL    HW230104   2.120   5.104   7.838
 9555SOL     OW30105   2.001   4.722   9.261
 9555SOL    HW130106   1.908   4.703   9.273
 9555SOL    HW230107   2.043   4.688   9.340
 9556SOL     OW30108   2.534   3.931   8.954
 9556SOL    HW130109   2.615   3.913   8.907
 9556SOL    HW230110   2.562   3.952   9.043
 9557SOL     OW30111   1.939   4.066   7.487
 9557SOL    HW130112   1.861   4.043   7.437
 9557SOL    HW230113   1.977   4.139   7.438
 9558SOL     OW30114   1.935   3.884   7.739
 9558SOL    HW130115   1.918   3.953   7.675
 9558SOL    HW230116   2.021   3.849   7.714
 9559SOL     OW30117   3.011   5.054   7.613
 9559SOL    HW130118   2.970   4.999   7.547
 9559SOL    HW230119   3.099   5.016   7.624
 9560SOL     OW30120   2.481   4.557   8.901
 9560SOL    HW130121   2.538   4.630   8.877
 9560SOL    HW230122   2.538   4.480   8.895
 9561SOL     OW30123   3.369   5.504   8.440
 9561SOL    HW130124   3.356   5.486   8.347
 9561SOL    HW230125   3.416   5.426   8.472
 9562SOL     OW30126   2.583   4.288   9.177
 9562SOL    HW130127   2.656   4.325   9.227
 9562SOL    HW230128   2.593   4.193   9.187
 9563SOL     OW30129   2.246   5.473   9.012
 9563SOL    HW130130   2.168   5.520   8.985
 9563SOL    HW230131   2.213   5.388   9.044
 9564SOL     OW30132   2.471   4.457   8.120
 9564SOL    HW130133   2.490   4.549   8.104
 9564SOL    HW230134   2.395   4.437   8.066
 9565SOL     OW30135   2.686   5.104   7.476
 9565SOL    HW130136   2.674   5.158   7.554
 9565SOL    HW230137   2.732   5.160   7.414
 9566SOL     OW30138   2.532   5.514   8.380
 9566SOL    HW130139   2.498   5.603   8.370
 9566SOL    HW230140   2.626   5.523   8.362
 9567SOL     OW30141   2.710   4.685   8.305
 9567SOL    HW130142   2.754   4.613   8.350
 9567SOL    HW230143   2.679   4.742   8.375
 9568SOL     OW30144   2.944   4.721   7.516
 9568SOL    HW130145   2.906   4.766   7.440
 9568SOL    HW230146   3.022   4.678   7.482
 9569SOL     OW30147   3.695   5.284   8.289
 9569SOL    HW130148   3.625   5.271   8.225
 9569SOL    HW230149   3.714   5.196   8.322
 9570SOL     OW30150   2.086   5.029   9.302
 9570SOL    HW130151   2.036   4.956   9.264
 9570SOL    HW230152   2.081   5.015   9.396
 9571SOL     OW30153   1.947   4.932   8.111
 9571SOL    HW130154   1.992   4.894   8.187
 9571SOL    HW230155   2.010   4.923   8.039
 9572SOL     OW30156   2.537   5.134   9.069
 9572SOL    HW130157   2.451   5.099   9.090
 9572SOL    HW230158   2.544   5.215   9.120
 9573SOL     OW30159   2.281   4.121   7.988
 9573SOL    HW130160   2.333   4.108   7.909
 9573SOL    HW230161   2.268   4.033   8.023
 9574SOL     OW30162   3.509   5.237   8.552
 9574SOL    HW130163   3.468   5.200   8.474
 9574SOL    HW230164   3.491   5.174   8.622
 9575SOL     OW30165   2.212   4.282   8.743
 9575SOL    HW130166   2.284   4.233   8.784
 9575SOL    HW230167   2.222   4.265   8.649
 9576SOL     OW30168   2.872   3.730   8.597
 9576SOL    HW130169   2.822   3.677   8.534
 9576SOL    HW230170   2.961   3.696   8.593
 9577SOL     OW30171   2.625   5.045   7.801
 9577SOL    HW130172   2.588   4.956   7.799
 9577SOL    HW230173   2.716   5.033   7.772
 9578SOL     OW30174   2.484   5.282   8.731
 9578SOL    HW130175   2.478   5.371   8.765
 9578SOL    HW230176   2.573   5.275   8.698
 9579SOL     OW30177   3.215   3.719   7.551
 9579SOL    HW130178   3.295   3.769   7.566
 9579SOL    HW230179   3.184   3.696   7.639
 9580SOL     OW30180   1.898   4.791   7.761
 9580SOL    HW130181   1.991   4.786   7.738
 9580SOL    HW230182   1.874   4.701   7.782
 9581SOL     OW30183   2.720   5.389   7.768
 9581SOL    HW130184   2.660   5.383   7.693
 9581SOL    HW230185   2.796   5.437   7.734
 9582SOL     OW30186   2.061   4.364   9.446
 9582SOL    HW130187   2.052   4.270   9.457
 9582SOL    HW230188   2.081   4.375   9.353
 9583SOL     OW30189   2.080   3.986  10.308
 9583SOL    HW130190   2.112   3.969  10.397
 9583SOL    HW230191   1.987   3.966  10.312
 9584SOL     OW30192   1.858   4.127   9.906
 9584SOL    HW130193   1.779   4.132   9.959
 9584SOL    HW230194   1.920   4.078   9.961
 9585SOL     OW30195   2.435   5.027  10.507
 9585SOL    HW130196   2.353   5.029  10.459
 9585SOL    HW230197   2.454   5.120  10.525
 9586SOL     OW30198   3.446   5.255  10.018
 9586SOL    HW130199   3.399   5.216  10.092
 9586SOL    HW230200   3.382   5.257   9.947
 9587SOL     OW30201   3.607   4.321   9.589
 9587SOL    HW130202   3.594   4.331   9.494
 9587SOL    HW230203   3.616   4.227   9.602
 9588SOL     OW30204   2.605   4.867  10.364
 9588SOL    HW130205   2.541   4.900  10.427
 9588SOL    HW230206   2.642   4.945  10.323
 9589SOL     OW30207   2.726   4.476  11.142
 9589SOL    HW130208   2.689   4.551  11.190
 9589SOL    HW230209   2.755   4.513  11.059
 9590SOL     OW30210   2.530   4.721   9.948
 9590SOL    HW130211   2.602   4.714  10.011
 9590SOL    HW230212   2.467   4.779   9.990
 9591SOL     OW30213   2.579   4.875  11.133
 9591SOL    HW130214   2.626   4.954  11.161
 9591SOL    HW230215   2.498   4.908  11.094
 9592SOL     OW30216   2.183   5.103  10.386
 9592SOL    HW130217   2.102   5.090  10.337
 9592SOL    HW230218   2.234   5.164  10.332
 9593SOL     OW30219   3.319   5.222  10.679
 9593SOL    HW130220   3.369   5.299  10.704
 9593SOL    HW230221   3.244   5.221  10.739
 9594SOL     OW30222   2.274   4.156  10.861
 9594SOL    HW130223   2.348   4.098  10.847
 9594SOL    HW230224   2.248   4.184  10.773
 9595SOL     OW30225   3.466   4.179  10.032
 9595SOL    HW130226   3.373   4.168  10.012
 9595SOL    HW230227   3.492   4.258   9.983
 9596SOL     OW30228   2.088   5.438   9.769
 9596SOL    HW130229   2.107   5.512   9.827
 9596SOL    HW230230   2.163   5.435   9.709
 9597SOL     OW30231   2.998   5.066  11.006
 9597SOL    HW130232   3.028   5.060  11.097
 9597SOL    HW230233   2.945   4.987  10.993
 9598SOL     OW30234   2.075   5.171   9.835
 9598SOL    HW130235   2.080   5.266   9.825
 9598SOL    HW230236   2.098   5.156   9.927
 9599SOL     OW30237   2.106   4.810  10.197
 9599SOL    HW130238   2.126   4.717  10.208
 9599SOL    HW230239   2.104   4.845  10.286
 9600SOL     OW30240   2.464   5.528  10.745
 9600SOL    HW130241   2.385   5.499  10.790
 9600SOL    HW230242   2.479   5.617  10.777
 9601SOL     OW30243   2.431   4.727   9.435
 9601SOL    HW130244   2.478   4.789   9.380
 9601SOL    HW230245   2.467   4.739   9.523
 9602SOL     OW30246   3.453   3.849  10.767
 9602SOL    HW130247   3.491   3.926  10.726
 9602SOL    HW230248   3.432   3.877  10.857
 9603SOL     OW30249   1.962   4.388   9.862
 9603SOL    HW130250   1.940   4.297   9.881
 9603SOL    HW230251   1.958   4.433   9.947
 9604SOL     OW30252   3.770   5.473   9.692
 9604SOL    HW130253   3.704   5.474   9.762
 9604SOL    HW230254   3.771   5.562   9.658
 9605SOL     OW30255   1.846   5.309   9.435
 9605SOL    HW130256   1.868   5.220   9.462
 9605SOL    HW230257   1.847   5.359   9.517
 9606SOL     OW30258   3.608   4.670   9.955
 9606SOL    HW130259   3.645   4.600   9.900
 9606SOL    HW230260   3.548   4.717   9.898
 9607SOL     OW30261   3.506   4.822   9.743
 9607SOL    HW130262   3.584   4.818   9.689
 9607SOL    HW230263   3.523   4.892   9.806
 9608SOL     OW30264   2.001   4.478  10.907
 9608SOL    HW130265   2.096   4.483  10.899
 9608SOL    HW230266   1.974   4.567  10.929
 9609SOL     OW30267   2.523   5.085  10.021
 9609SOL    HW130268   2.458   5.019  10.047
 9609SOL    HW230269   2.484   5.127   9.944
 9610SOL     OW30270   3.152   4.962  10.722
 9610SOL    HW130271   3.173   4.887  10.667
 9610SOL    HW230272   3.204   4.950  10.801
 9611SOL     OW30273   2.686   3.745   9.844
 9611SOL    HW130274   2.726   3.824   9.807
 9611SOL    HW230275   2.592   3.760   9.837
 9612SOL     OW30276   2.049   4.678  10.568
 9612SOL    HW130277   2.140   4.647  10.563
 9612SOL    HW230278   1.996   4.602  10.547
 9613SOL     OW30279   3.361   4.713   9.492
 9613SOL    HW130280   3.347   4.624   9.460
 9613SOL    HW230281   3.404   4.702   9.576
 9614SOL     OW30282   3.077   5.541  10.932
 9614SOL    HW130283   3.060   5.593  10.853
 9614SOL    HW230284   3.076   5.450  10.902
 9615SOL     OW30285   2.176   3.954  11.080
 9615SOL    HW130286   2.216   4.040  11.093
 9615SOL    HW230287   2.115   3.945  11.154
 9616SOL     OW30288   3.319   5.158  10.243
 9616SOL    HW130289   3.256   5.166  10.314
 9616SOL    HW230290   3.316   5.066  10.218
 9617SOL     OW30291   3.540   5.480   9.855
 9617SOL    HW130292   3.491   5.455   9.777
 9617SOL    HW230293   3.516   5.414   9.920
 9618SOL     OW30294   2.474   4.444   9.564
 9618SOL    HW130295   2.542   4.511   9.567
 9618SOL    HW230296   2.422   4.458   9.643
 9619SOL     OW30297   3.159   4.089  10.245
 9619SOL    HW130298   3.069   4.057  10.241
 9619SOL    HW230299   3.201   4.034  10.311
 9620SOL     OW30300   3.439   5.409   9.607
 9620SOL    HW130301   3.530   5.412   9.576
 9620SOL    HW230302   3.387   5.396   9.528
 9621SOL     OW30303   2.617   4.360  10.742
 9621SOL    HW130304   2.617   4.326  10.832
 9621SOL    HW230305   2.595   4.285  10.688
 9622SOL     OW30306   3.268   4.180  10.987
 9622SOL    HW130307   3.269   4.231  11.068
 9622SOL    HW230308   3.324   4.105  11.005
 9623SOL     OW30309   2.809   4.597  10.909
 9623SOL    HW130310   2.865   4.525  10.881
 9623SOL    HW230311   2.762   4.624  10.830
 9624SOL     OW30312   2.835   4.080  10.529
 9624SOL    HW130313   2.783   4.131  10.591
 9624SOL    HW230314   2.824   4.125  10.445
 9625SOL     OW30315   2.898   4.469   9.758
 9625SOL    HW130316   2.935   4.460   9.845
 9625SOL    HW230317   2.868   4.381   9.735
 9626SOL     OW30318   1.932   4.563  10.081
 9626SOL    HW130319   2.016   4.544  10.123
 9626SOL    HW230320   1.898   4.638  10.129
 9627SOL     OW30321   1.978   5.592  10.884
 9627SOL    HW130322   1.993   5.596  10.978
 9627SOL    HW230323   1.906   5.529  10.874
 9628SOL     OW30324   2.757   4.064   9.482
 9628SOL    HW130325   2.789   4.139   9.433
 9628SOL    HW230326   2.823   3.996   9.470
 9629SOL     OW30327   3.540   4.300  11.138
 9629SOL    HW130328   3.523   4.374  11.081
 9629SOL    HW230329   3.575   4.232  11.080
 9630SOL     OW30330   3.250   4.873   9.844
 9630SOL    HW130331   3.323   4.845   9.788
 9630SOL    HW230332   3.192   4.922   9.786
 9631SOL     OW30333   2.408   3.894  10.213
 9631SOL    HW130334   2.406   3.922  10.305
 9631SOL    HW230335   2.428   3.974  10.164
 9632SOL     OW30336   2.859   5.181   9.788
 9632SOL    HW130337   2.830   5.254   9.732
 9632SOL    HW230338   2.820   5.198   9.873
 9633SOL     OW30339   2.205   5.572  10.190
 9633SOL    HW130340   2.246   5.486  10.202
 9633SOL    HW230341   2.279   5.633  10.185
 9634SOL     OW30342   3.680   4.801  10.187
 9634SOL    HW130343   3.647   4.767  10.104
 9634SOL    HW230344   3.609   4.784  10.250
 9635SOL     OW30345   3.089   5.261  10.827
 9635SOL    HW130346   3.076   5.195  10.895
 9635SOL    HW230347   3.024   5.241  10.761
 9636SOL     OW30348   2.159   4.666   9.509
 9636SOL    HW130349   2.247   4.696   9.484
 9636SOL    HW230350   2.169   4.572   9.523
 9637SOL     OW30351   3.394   4.486  10.095
 9637SOL    HW130352   3.308   4.447  10.078
 9637SOL    HW230353   3.437   4.487  10.010
 9638SOL     OW30354   2.338   4.984  11.042
 9638SOL    HW130355   2.308   4.990  10.951
 9638SOL    HW230356   2.257   4.981  11.093
 9639SOL     OW30357   2.993   5.493   9.549
 9639SOL    HW130358   2.911   5.461   9.587
 9639SOL    HW230359   3.013   5.432   9.478
 9640SOL     OW30360   2.036   3.961  10.825
 9640SOL    HW130361   2.017   4.053  10.809
 9640SOL    HW230362   2.091   3.961  10.904
 9641SOL     OW30363   3.496   5.135   9.410
 9641SOL    HW130364   3.478   5.183   9.329
 9641SOL    HW230365   3.435   5.061   9.408
 9642SOL     OW30366   2.325   5.462   9.623
 9642SOL    HW130367   2.370   5.517   9.687
 9642SOL    HW230368   2.394   5.429   9.566
 9643SOL     OW30369   2.126   5.498  10.522
 9643SOL    HW130370   2.172   5.434  10.577
 9643SOL    HW230371   2.158   5.480  10.434
 9644SOL     OW30372   2.828   5.420  10.196
 9644SOL    HW130373   2.906   5.365  10.199
 9644SOL    HW230374   2.768   5.373  10.139
 9645SOL     OW30375   2.245   4.426   9.766
 9645SOL    HW130376   2.265   4.333   9.779
 9645SOL    HW230377   2.156   4.437   9.800
 9646SOL     OW30378   3.388   3.934  11.035
 9646SOL    HW130379   3.397   3.950  11.128
 9646SOL    HW230380   3.311   3.878  11.027
 9647SOL     OW30381   2.496   3.826   9.438
 9647SOL    HW130382   2.580   3.782   9.446
 9647SOL    HW230383   2.461   3.796   9.354
 9648SOL     OW30384   2.640   4.005  11.077
 9648SOL    HW130385   2.720   3.955  11.064
 9648SOL    HW230386   2.589   3.954  11.140
 9649SOL     OW30387   2.741   5.259  10.513
 9649SOL    HW130388   2.722   5.220  10.428
 9649SOL    HW230389   2.809   5.202  10.550
 9650SOL     OW30390   3.274   4.304  10.731
 9650SOL    HW130391   3.289   4.262  10.815
 9650SOL    HW230392   3.190   4.350  10.742
 9651SOL     OW30393   2.683   5.118  10.275
 9651SOL    HW130394   2.761   5.103  10.221
 9651SOL    HW230395   2.612   5.132  10.211
 9652SOL     OW30396   2.765   4.202  10.225
 9652SOL    HW130397   2.741   4.215  10.133
 9652SOL    HW230398   2.834   4.135  10.222
 9653SOL     OW30399   2.415   3.794   9.808
 9653SOL    HW130400   2.338   3.798   9.865
 9653SOL    HW230401   2.408   3.871   9.751
 9654SOL     OW30402   3.295   4.953   9.385
 9654SOL    HW130403   3.332   4.866   9.405
 9654SOL    HW230404   3.200   4.940   9.390
 9655SOL     OW30405   2.166   3.761   9.485
 9655SOL    HW130406   2.212   3.828   9.435
 9655SOL    HW230407   2.235   3.708   9.525
 9656SOL     OW30408   2.793   3.978   9.762
 9656SOL    HW130409   2.775   4.013   9.675
 9656SOL    HW230410   2.886   3.997   9.777
 9657SOL     OW30411   3.075   5.297  10.109
 9657SOL    HW130412   3.098   5.365  10.047
 9657SOL    HW230413   3.159   5.265  10.142
 9658SOL     OW30414   2.323   4.884  10.037
 9658SOL    HW130415   2.263   4.862  10.108
 9658SOL    HW230416   2.272   4.873   9.957
 9659SOL     OW30417   3.130   5.522   9.938
 9659SOL    HW130418   3.166   5.581   9.873
 9659SOL    HW230419   3.048   5.563   9.965
 9660SOL     OW30420   2.853   4.306   9.371
 9660SOL    HW130421   2.917   4.359   9.323
 9660SOL    HW230422   2.895   4.288   9.456
 9661SOL     OW30423   1.902   4.282  10.746
 9661SOL    HW130424   1.982   4.272  10.694
 9661SOL    HW230425   1.919   4.357  10.803
 9662SOL     OW30426   2.410   3.943  10.484
 9662SOL    HW130427   2.445   3.878  10.545
 9662SOL    HW230428   2.318   3.951  10.508
 9663SOL     OW30429   2.703   4.171   9.951
 9663SOL    HW130430   2.686   4.235   9.883
 9663SOL    HW230431   2.737   4.094   9.905
 9664SOL     OW30432   2.832   3.782  10.078
 9664SOL    HW130433   2.792   3.780   9.991
 9664SOL    HW230434   2.862   3.692  10.093
 9665SOL     OW30435   3.326   4.897  10.159
 9665SOL    HW130436   3.254   4.837  10.138
 9665SOL    HW230437   3.374   4.905  10.076
 9666SOL     OW30438   3.301   4.308  10.329
 9666SOL    HW130439   3.241   4.249  10.285
 9666SOL    HW230440   3.360   4.251  10.378
 9667SOL     OW30441   3.713   4.540   9.719
 9667SOL    HW130442   3.772   4.480   9.765
 9667SOL    HW230443   3.672   4.487   9.651
 9668SOL     OW30444   2.350   5.148   9.468
 9668SOL    HW130445   2.268   5.117   9.507
 9668SOL    HW230446   2.357   5.097   9.386
 9669SOL     OW30447   3.548   4.993   9.958
 9669SOL    HW130448   3.643   4.990   9.953
 9669SOL    HW230449   3.527   5.086   9.953
 9670SOL     OW30450   2.380   3.992   9.621
 9670SOL    HW130451   2.429   3.936   9.561
 9670SOL    HW230452   2.361   4.071   9.570
 9671SOL     OW30453   3.610   4.959  10.876
 9671SOL    HW130454   3.686   4.911  10.908
 9671SOL    HW230455   3.627   5.051  10.899
 9672SOL     OW30456   2.919   5.103  10.664
 9672SOL    HW130457   2.841   5.059  10.698
 9672SOL    HW230458   2.991   5.046  10.688
 9673SOL     OW30459   3.480   5.362  10.977
 9673SOL    HW130460   3.471   5.393  10.886
 9673SOL    HW230461   3.555   5.303  10.974
 9674SOL     OW30462   2.998   4.954  10.406
 9674SOL    HW130463   2.914   4.940  10.450
 9674SOL    HW230464   2.975   4.980  10.317
 9675SOL     OW30465   3.470   4.767  10.366
 9675SOL    HW130466   3.461   4.813  10.449
 9675SOL    HW230467   3.405   4.808  10.309
 9676SOL     OW30468   2.826   3.809  10.630
 9676SOL    HW130469   2.806   3.894  10.592
 9676SOL    HW230470   2.894   3.827  10.695
 9677SOL     OW30471   2.846   4.834  11.034
 9677SOL    HW130472   2.755   4.852  11.059
 9677SOL    HW230473   2.841   4.754  10.982
 9678SOL     OW30474   2.555   4.777   9.679
 9678SOL    HW130475   2.549   4.761   9.773
 9678SOL    HW230476   2.633   4.729   9.651
 9679SOL     OW30477   2.286   4.542  10.556
 9679SOL    HW130478   2.346   4.552  10.630
 9679SOL    HW230479   2.255   4.451  10.562
 9680SOL     OW30480   3.130   4.091  10.606
 9680SOL    HW130481   3.172   4.169  10.644
 9680SOL    HW230482   3.042   4.121  10.583
 9681SOL     OW30483   1.964   5.309  10.671
 9681SOL    HW130484   1.966   5.390  10.620
 9681SOL    HW230485   2.054   5.277  10.671
 9682SOL     OW30486   2.183   4.843   9.800
 9682SOL    HW130487   2.209   4.907   9.734
 9682SOL    HW230488   2.222   4.761   9.770
 9683SOL     OW30489   2.404   4.252  10.161
 9683SOL    HW130490   2.427   4.315  10.092
 9683SOL    HW230491   2.463   4.273  10.233
 9684SOL     OW30492   3.101   5.079   9.705
 9684SOL    HW130493   3.163   5.140   9.744
 9684SOL    HW230494   3.016   5.103   9.741
 9685SOL     OW30495   3.152   5.185  10.453
 9685SOL    HW130496   3.196   5.180  10.538
 9685SOL    HW230497   3.090   5.112  10.453
 9686SOL     OW30498   3.456   4.381   9.822
 9686SOL    HW130499   3.371   4.402   9.783
 9686SOL    HW230500   3.515   4.374   9.747
 9687SOL     OW30501   2.218   5.241  10.618
 9687SOL    HW130502   2.207   5.192  10.536
 9687SOL    HW230503   2.312   5.258  10.623
 9688SOL     OW30504   2.277   4.465  10.918
 9688SOL    HW130505   2.340   4.513  10.863
 9688SOL    HW230506   2.309   4.375  10.918
 9689SOL     OW30507   3.466   4.514  10.990
 9689SOL    HW130508   3.377   4.549  10.988
 9689SOL    HW230509   3.507   4.547  10.910
 9690SOL     OW30510   2.870   3.862  11.057
 9690SOL    HW130511   2.926   3.937  11.042
 9690SOL    HW230512   2.924   3.786  11.034
 9691SOL     OW30513   2.355   3.750  11.051
 9691SOL    HW130514   2.309   3.697  10.987
 9691SOL    HW230515   2.294   3.820  11.073
 9692SOL     OW30516   2.414   4.627  10.329
 9692SOL    HW130517   2.480   4.693  10.348
 9692SOL    HW230518   2.381   4.600  10.414
 9693SOL     OW30519   3.200   4.577  10.321
 9693SOL    HW130520   3.163   4.605  10.238
 9693SOL    HW230521   3.179   4.484  10.326
 9694SOL     OW30522   2.987   4.235   9.597
 9694SOL    HW130523   3.014   4.166   9.658
 9694SOL    HW230524   3.065   4.291   9.588
 9695SOL     OW30525   2.149   3.902  10.560
 9695SOL    HW130526   2.118   3.937  10.644
 9695SOL    HW230527   2.133   3.807  10.567
 9696SOL     OW30528   1.890   5.051  10.580
 9696SOL    HW130529   1.922   4.983  10.639
 9696SOL    HW230530   1.910   5.133  10.624
 9697SOL     OW30531   2.578   4.348  10.358
 9697SOL    HW130532   2.655   4.312  10.314
 9697SOL    HW230533   2.581   4.442  10.341
 9698SOL     OW30534   3.592   4.693  11.161
 9698SOL    HW130535   3.547   4.625  11.110
 9698SOL    HW230536   3.536   4.706  11.238
 9699SOL     OW30537   2.168   3.797   9.943
 9699SOL    HW130538   2.139   3.886   9.966
 9699SOL    HW230539   2.180   3.753  10.027
 9700SOL     OW30540   3.539   4.078   9.735
 9700SOL    HW130541   3.473   4.027   9.687
 9700SOL    HW230542   3.491   4.155   9.767
 9701SOL     OW30543   2.827   4.512  10.284
 9701SOL    HW130544   2.863   4.494  10.371
 9701SOL    HW230545   2.888   4.469  10.224
 9702SOL     OW30546   2.855   5.311  11.020
 9702SOL    HW130547   2.833   5.344  10.933
 9702SOL    HW230548   2.875   5.218  11.006
 9703SOL     OW30549   3.713   5.223  10.904
 9703SOL    HW130550   3.738   5.254  10.817
 9703SOL    HW230551   3.792   5.235  10.958
 9704SOL     OW30552   2.217   4.649  11.116
 9704SOL    HW130553   2.295   4.665  11.169
 9704SOL    HW230554   2.243   4.580  11.055
 9705SOL     OW30555   2.925   5.061  10.163
 9705SOL    HW130556   2.921   4.989  10.100
 9705SOL    HW230557   2.975   5.129  10.118
 9706SOL     OW30558   2.168   4.544  10.231
 9706SOL    HW130559   2.257   4.567  10.255
 9706SOL    HW230560   2.161   4.450  10.251
 9707SOL     OW30561   2.147   4.264  10.235
 9707SOL    HW130562   2.144   4.203  10.309
 9707SOL    HW230563   2.238   4.264  10.207
 9708SOL     OW30564   3.004   4.096  10.986
 9708SOL    HW130565   2.958   4.169  10.944
 9708SOL    HW230566   3.096   4.124  10.988
 9709SOL     OW30567   3.033   3.908  10.786
 9709SOL    HW130568   3.016   3.971  10.856
 9709SOL    HW230569   3.076   3.960  10.717
 9710SOL     OW30570   1.841   5.037   9.521
 9710SOL    HW130571   1.747   5.048   9.539
 9710SOL    HW230572   1.859   4.946   9.542
 9711SOL     OW30573   1.945   5.515  10.217
 9711SOL    HW130574   1.934   5.423  10.194
 9711SOL    HW230575   2.038   5.532  10.207
 9712SOL     OW30576   2.848   4.499  10.577
 9712SOL    HW130577   2.911   4.467  10.642
 9712SOL    HW230578   2.764   4.462  10.605
 9713SOL     OW30579   1.910   4.288  10.406
 9713SOL    HW130580   1.963   4.286  10.326
 9713SOL    HW230581   1.973   4.276  10.477
 9714SOL     OW30582   2.073   4.242  11.039
 9714SOL    HW130583   2.143   4.213  10.980
 9714SOL    HW230584   2.035   4.318  10.995
 9715SOL     OW30585   3.231   4.665  10.990
 9715SOL    HW130586   3.254   4.757  10.984
 9715SOL    HW230587   3.219   4.637  10.899
 9716SOL     OW30588   2.675   4.271   9.678
 9716SOL    HW130589   2.710   4.207   9.616
 9716SOL    HW230590   2.615   4.325   9.626
 9717SOL     OW30591   3.521   4.386  10.503
 9717SOL    HW130592   3.487   4.338  10.579
 9717SOL    HW230593   3.607   4.346  10.486
 9718SOL     OW30594   2.104   5.283  11.042
 9718SOL    HW130595   2.031   5.314  11.095
 9718SOL    HW230596   2.116   5.192  11.070
 9719SOL     OW30597   2.561   4.166  10.564
 9719SOL    HW130598   2.499   4.098  10.535
 9719SOL    HW230599   2.556   4.233  10.495
 9720SOL     OW30600   2.781   5.408  10.770
 9720SOL    HW130601   2.769   5.354  10.692
 9720SOL    HW230602   2.739   5.491  10.748
 9721SOL     OW30603   2.320   4.224   9.483
 9721SOL    HW130604   2.397   4.279   9.494
 9721SOL    HW230605   2.246   4.280   9.506
 9722SOL     OW30606   1.997   4.863  10.761
 9722SOL    HW130607   2.007   4.818  10.846
 9722SOL    HW230608   2.019   4.796  10.696
 9723SOL     OW30609   3.185   4.776  10.508
 9723SOL    HW130610   3.185   4.703  10.446
 9723SOL    HW230611   3.120   4.837  10.473
 9724SOL     OW30612   3.153   4.511   9.632
 9724SOL    HW130613   3.064   4.516   9.667
 9724SOL    HW230614   3.142   4.501   9.537
 9725SOL     OW30615   3.103   5.466  10.435
 9725SOL    HW130616   3.185   5.480  10.387
 9725SOL    HW230617   3.098   5.372  10.448
 9726SOL     OW30618   1.911   5.029  10.304
 9726SOL    HW130619   1.906   5.024  10.399
 9726SOL    HW230620   1.889   4.941  10.274
 9727SOL     OW30621   2.538   5.393  11.038
 9727SOL    HW130622   2.486   5.473  11.037
 9727SOL    HW230623   2.615   5.414  10.984
 9728SOL     OW30624   3.653   3.808   9.834
 9728SOL    HW130625   3.602   3.872   9.784
 9728SOL    HW230626   3.594   3.735   9.849
 9729SOL     OW30627   3.271   5.296   9.811
 9729SOL    HW130628   3.311   5.318   9.727
 9729SOL    HW230629   3.206   5.365   9.825
 9730SOL     OW30630   2.010   5.592  11.149
 9730SOL    HW130631   1.946   5.523  11.168
 9730SOL    HW230632   2.063   5.597  11.228
 9731SOL     OW30633   3.153   4.715  10.052
 9731SOL    HW130634   3.121   4.626  10.038
 9731SOL    HW230635   3.184   4.744   9.966
 9732SOL     OW30636   2.664   5.003  10.720
 9732SOL    HW130637   2.635   5.044  10.802
 9732SOL    HW230638   2.589   5.010  10.662
 9733SOL     OW30639   2.530   5.353   9.470
 9733SOL    HW130640   2.547   5.365   9.377
 9733SOL    HW230641   2.477   5.273   9.475
 9734SOL     OW30642   3.485   5.455  10.714
 9734SOL    HW130643   3.486   5.452  10.618
 9734SOL    HW230644   3.473   5.547  10.735
 9735SOL     OW30645   3.716   3.899  10.274
 9735SOL    HW130646   3.736   3.812  10.241
 9735SOL    HW230647   3.629   3.918  10.239
 9736SOL     OW30648   2.099   4.046  10.046
 9736SOL    HW130649   2.117   4.140  10.056
 9736SOL    HW230650   2.100   4.012  10.136
 9737SOL     OW30651   3.061   5.323   9.347
 9737SOL    HW130652   3.052   5.232   9.374
 9737SOL    HW230653   2.995   5.334   9.278
 9738SOL     OW30654   2.686   4.726  10.692
 9738SOL    HW130655   2.743   4.702  10.618
 9738SOL    HW230656   2.691   4.821  10.695
 9739SOL     OW30657   2.754   4.623   9.585
 9739SOL    HW130658   2.819   4.645   9.518
 9739SOL    HW230659   2.802   4.572   9.650
 9740SOL     OW30660   3.327   5.409   9.350
 9740SOL    HW130661   3.243   5.366   9.335
 9740SOL    HW230662   3.376   5.394   9.270
 9741SOL     OW30663   2.221   5.027  10.805
 9741SOL    HW130664   2.221   5.100  10.743
 9741SOL    HW230665   2.144   4.974  10.780
 9742SOL     OW30666   3.487   5.013  10.610
 9742SOL    HW130667   3.515   4.968  10.690
 9742SOL    HW230668   3.411   5.064  10.637
 9743SOL     OW30669   2.907   4.841  10.013
 9743SOL    HW130670   2.836   4.787  10.048
 9743SOL    HW230671   2.984   4.785  10.018
 9744SOL     OW30672   2.916   3.974  10.249
 9744SOL    HW130673   2.889   3.914  10.179
 9744SOL    HW230674   2.868   3.943  10.326
 9745SOL     OW30675   2.462   5.212   9.778
 9745SOL    HW130676   2.520   5.159   9.722
 9745SOL    HW230677   2.400   5.252   9.716
 9746SOL     OW30678   3.611   4.096  10.709
 9746SOL    HW130679   3.674   4.167  10.696
 9746SOL    HW230680   3.633   4.032  10.640
 9747SOL     OW30681   2.107   5.060   9.591
 9747SOL    HW130682   2.014   5.062   9.570
 9747SOL    HW230683   2.113   5.098   9.678
 9748SOL     OW30684   1.985   4.749  11.011
 9748SOL    HW130685   1.912   4.735  11.072
 9748SOL    HW230686   2.062   4.720  11.059
 9749SOL     OW30687   2.540   3.924  10.822
 9749SOL    HW130688   2.613   3.961  10.772
 9749SOL    HW230689   2.556   3.954  10.912
 9750SOL     OW30690   1.898   4.114   9.371
 9750SOL    HW130691   1.862   4.037   9.326
 9750SOL    HW230692   1.948   4.159   9.304
 9751SOL     OW30693   3.279   4.634  10.727
 9751SOL    HW130694   3.241   4.672  10.647
 9751SOL    HW230695   3.349   4.578  10.696
 9752SOL     OW30696   1.943   3.830   9.623
 9752SOL    HW130697   1.926   3.923   9.610
 9752SOL    HW230698   2.027   3.814   9.580
 9753SOL     OW30699   3.023   5.065   9.438
 9753SOL    HW130700   2.945   5.009   9.443
 9753SOL    HW230701   3.060   5.063   9.526
 9754SOL     OW30702   2.466   4.577  10.755
 9754SOL    HW130703   2.528   4.648  10.740
 9754SOL    HW230704   2.519   4.498  10.752
 9755SOL     OW30705   3.344   5.490  10.299
 9755SOL    HW130706   3.348   5.518  10.208
 9755SOL    HW230707   3.380   5.402  10.299
 9756SOL     OW30708   2.586   4.272  11.000
 9756SOL    HW130709   2.627   4.334  11.060
 9756SOL    HW230710   2.602   4.186  11.038
 9757SOL     OW30711   3.333   4.927  10.940
 9757SOL    HW130712   3.319   4.939  11.034
 9757SOL    HW230713   3.427   4.935  10.928
 9758SOL     OW30714   2.225   5.463  10.874
 9758SOL    HW130715   2.140   5.506  10.861
 9758SOL    HW230716   2.205   5.386  10.926
 9759SOL     OW30717   3.052   4.048   9.788
 9759SOL    HW130718   3.094   3.969   9.753
 9759SOL    HW230719   3.117   4.084   9.850
 9760SOL     OW30720   2.436   4.454   9.977
 9760SOL    HW130721   2.483   4.538   9.976
 9760SOL    HW230722   2.376   4.459   9.903
 9761SOL     OW30723   3.610   4.085  10.981
 9761SOL    HW130724   3.612   4.098  10.886
 9761SOL    HW230725   3.537   4.024  10.995
 9762SOL     OW30726   3.586   4.657  10.789
 9762SOL    HW130727   3.583   4.746  10.824
 9762SOL    HW230728   3.672   4.652  10.746
 9763SOL     OW30729   2.699   5.085   9.348
 9763SOL    HW130730   2.689   5.114   9.438
 9763SOL    HW230731   2.738   5.160   9.303
 9764SOL     OW30732   2.567   5.592  10.333
 9764SOL    HW130733   2.537   5.625  10.248
 9764SOL    HW230734   2.556   5.497  10.327
 9765SOL     OW30735   2.707   4.713  10.155
 9765SOL    HW130736   2.749   4.635  10.192
 9765SOL    HW230737   2.673   4.760  10.231
 9766SOL     OW30738   2.932   4.658   9.381
 9766SOL    HW130739   2.950   4.718   9.308
 9766SOL    HW230740   3.001   4.591   9.375
 9767SOL     OW30741   3.697   5.255  10.151
 9767SOL    HW130742   3.614   5.255  10.102
 9767SOL    HW230743   3.720   5.162  10.158
 9768SOL     OW30744   2.096   5.025  11.160
 9768SOL    HW130745   2.029   4.965  11.127
 9768SOL    HW230746   2.067   5.047  11.248
 9769SOL     OW30747   1.944   4.925   9.981
 9769SOL    HW130748   1.985   4.889  10.059
 9769SOL    HW230749   2.011   4.916   9.912
 9770SOL     OW30750   2.549   5.131  10.937
 9770SOL    HW130751   2.474   5.083  10.972
 9770SOL    HW230752   2.540   5.219  10.972
 9771SOL     OW30753   3.670   3.892  10.542
 9771SOL    HW130754   3.641   3.801  10.543
 9771SOL    HW230755   3.689   3.911  10.450
 9772SOL     OW30756   2.268   4.161   9.814
 9772SOL    HW130757   2.316   4.101   9.758
 9772SOL    HW230758   2.267   4.118   9.900
 9773SOL     OW30759   3.538   5.207  10.422
 9773SOL    HW130760   3.469   5.189  10.358
 9773SOL    HW230761   3.523   5.143  10.492
 9774SOL     OW30762   2.692   5.295   9.990
 9774SOL    HW130763   2.639   5.351   9.933
 9774SOL    HW230764   2.635   5.221  10.012
 9775SOL     OW30765   3.289   3.950  10.434
 9775SOL    HW130766   3.320   3.868  10.472
 9775SOL    HW230767   3.239   3.991  10.504
 9776SOL     OW30768   2.641   5.053   9.640
 9776SOL    HW130769   2.615   4.962   9.648
 9776SOL    HW230770   2.721   5.061   9.693
 9777SOL     OW30771   2.485   5.290  10.604
 9777SOL    HW130772   2.486   5.373  10.652
 9777SOL    HW230773   2.573   5.282  10.567
 9778SOL     OW30774   3.196   4.178   9.992
 9778SOL    HW130775   3.145   4.259   9.991
 9778SOL    HW230776   3.179   4.140  10.078
 9779SOL     OW30777   3.464   3.947  10.199
 9779SOL    HW130778   3.390   3.956  10.259
 9779SOL    HW230779   3.455   4.020  10.138
 9780SOL     OW30780   1.901   4.787   9.624
 9780SOL    HW130781   1.996   4.788   9.615
 9780SOL    HW230782   1.878   4.694   9.627
 9781SOL     OW30783   2.751   5.395   9.648
 9781SOL    HW130784   2.675   5.377   9.593
 9781SOL    HW230785   2.722   5.462   9.709
 9782SOL     OW30786   2.089   4.347  11.304
 9782SOL    HW130787   2.003   4.330  11.341
 9782SOL    HW230788   2.081   4.320  11.212
 9783SOL     OW30789   2.081   4.013  12.170
 9783SOL    HW130790   2.117   3.968  12.246
 9783SOL    HW230791   1.992   3.978  12.161
 9784SOL     OW30792   1.866   4.112  11.819
 9784SOL    HW130793   1.782   4.142  11.854
 9784SOL    HW230794   1.846   4.028  11.779
 9785SOL     OW30795   2.407   5.012  12.385
 9785SOL    HW130796   2.344   5.026  12.314
 9785SOL    HW230797   2.483   4.972  12.342
 9786SOL     OW30798   3.434   5.237  11.911
 9786SOL    HW130799   3.423   5.215  12.003
 9786SOL    HW230800   3.345   5.234  11.874
 9787SOL     OW30801   2.998   4.428  11.866
 9787SOL    HW130802   3.045   4.511  11.860
 9787SOL    HW230803   2.950   4.433  11.948
 9788SOL     OW30804   3.648   4.316  11.387
 9788SOL    HW130805   3.613   4.314  11.298
 9788SOL    HW230806   3.608   4.241  11.431
 9789SOL     OW30807   2.546   4.711  11.815
 9789SOL    HW130808   2.614   4.710  11.882
 9789SOL    HW230809   2.478   4.769  11.851
 9790SOL     OW30810   2.175   5.159  12.228
 9790SOL    HW130811   2.102   5.125  12.177
 9790SOL    HW230812   2.226   5.211  12.166
 9791SOL     OW30813   3.461   4.164  11.915
 9791SOL    HW130814   3.388   4.183  11.856
 9791SOL    HW230815   3.459   4.235  11.979
 9792SOL     OW30816   2.086   5.435  11.633
 9792SOL    HW130817   2.110   5.510  11.688
 9792SOL    HW230818   2.163   5.422  11.577
 9793SOL     OW30819   2.069   5.169  11.708
 9793SOL    HW130820   2.075   5.264  11.697
 9793SOL    HW230821   2.018   5.157  11.788
 9794SOL     OW30822   2.111   4.806  12.048
 9794SOL    HW130823   2.129   4.718  12.083
 9794SOL    HW230824   2.072   4.853  12.122
 9795SOL     OW30825   2.434   4.708  11.309
 9795SOL    HW130826   2.484   4.756  11.242
 9795SOL    HW230827   2.470   4.738  11.392
 9796SOL     OW30828   1.988   4.369  11.741
 9796SOL    HW130829   1.953   4.281  11.758
 9796SOL    HW230830   1.976   4.416  11.823
 9797SOL     OW30831   3.668   5.462  11.516
 9797SOL    HW130832   3.750   5.443  11.560
 9797SOL    HW230833   3.677   5.553  11.486
 9798SOL     OW30834   3.557   4.641  11.827
 9798SOL    HW130835   3.644   4.603  11.823
 9798SOL    HW230836   3.547   4.686  11.743
 9799SOL     OW30837   3.505   4.827  11.608
 9799SOL    HW130838   3.588   4.821  11.561
 9799SOL    HW230839   3.521   4.891  11.678
 9800SOL     OW30840   2.053   4.472   0.236
 9800SOL    HW130841   2.076   4.427   0.318
 9800SOL    HW230842   1.966   4.509   0.252
 9801SOL     OW30843   2.453   5.104  11.924
 9801SOL    HW130844   2.414   5.018  11.908
 9801SOL    HW230845   2.456   5.146  11.838
 9802SOL     OW30846   2.678   3.722  11.707
 9802SOL    HW130847   2.717   3.803  11.674
 9802SOL    HW230848   2.584   3.741  11.711
 9803SOL     OW30849   2.047   4.738  12.432
 9803SOL    HW130850   2.120   4.676  12.424
 9803SOL    HW230851   1.978   4.689  12.476
 9804SOL     OW30852   3.392   4.725  11.372
 9804SOL    HW130853   3.325   4.665  11.405
 9804SOL    HW230854   3.438   4.754  11.451
 9805SOL     OW30855   3.345   5.123  12.146
 9805SOL    HW130856   3.271   5.146  12.201
 9805SOL    HW230857   3.323   5.038  12.108
 9806SOL     OW30858   3.503   5.477  11.757
 9806SOL    HW130859   3.559   5.435  11.692
 9806SOL    HW230860   3.484   5.409  11.821
 9807SOL     OW30861   2.460   4.451  11.453
 9807SOL    HW130862   2.453   4.533  11.405
 9807SOL    HW230863   2.392   4.457  11.520
 9808SOL     OW30864   3.146   4.098  12.093
 9808SOL    HW130865   3.056   4.065  12.099
 9808SOL    HW230866   3.196   4.038  12.149
 9809SOL     OW30867   3.385   5.392  11.475
 9809SOL    HW130868   3.478   5.408  11.491
 9809SOL    HW230869   3.379   5.378  11.381
 9810SOL     OW30870   2.865   4.112  12.379
 9810SOL    HW130871   2.784   4.150  12.414
 9810SOL    HW230872   2.838   4.026  12.346
 9811SOL     OW30873   2.912   4.411  11.606
 9811SOL    HW130874   2.940   4.415  11.697
 9811SOL    HW230875   2.818   4.397  11.611
 9812SOL     OW30876   1.953   4.539  11.957
 9812SOL    HW130877   2.036   4.532  12.004
 9812SOL    HW230878   1.919   4.625  11.982
 9813SOL     OW30879   2.778   4.054  11.357
 9813SOL    HW130880   2.794   4.104  11.277
 9813SOL    HW230881   2.717   3.985  11.330
 9814SOL     OW30882   3.242   4.865  11.689
 9814SOL    HW130883   3.334   4.857  11.665
 9814SOL    HW230884   3.194   4.840  11.610
 9815SOL     OW30885   2.405   3.893  12.062
 9815SOL    HW130886   2.415   3.935  12.148
 9815SOL    HW230887   2.399   3.967  12.001
 9816SOL     OW30888   2.887   5.224  11.651
 9816SOL    HW130889   2.835   5.269  11.585
 9816SOL    HW230890   2.835   5.229  11.731
 9817SOL     OW30891   2.222   5.536  12.036
 9817SOL    HW130892   2.273   5.456  12.046
 9817SOL    HW230893   2.285   5.607  12.047
 9818SOL     OW30894   3.657   4.780  12.064
 9818SOL    HW130895   3.610   4.763  11.982
 9818SOL    HW230896   3.589   4.781  12.131
 9819SOL     OW30897   2.168   4.681  11.428
 9819SOL    HW130898   2.248   4.702  11.379
 9819SOL    HW230899   2.143   4.594  11.395
 9820SOL     OW30900   3.348   4.475  11.887
 9820SOL    HW130901   3.346   4.436  11.975
 9820SOL    HW230902   3.426   4.530  11.887
 9821SOL     OW30903   3.022   5.450  11.439
 9821SOL    HW130904   2.929   5.451  11.462
 9821SOL    HW230905   3.025   5.412  11.352
 9822SOL     OW30906   3.477   5.114  11.254
 9822SOL    HW130907   3.430   5.196  11.236
 9822SOL    HW230908   3.412   5.046  11.239
 9823SOL     OW30909   2.325   5.452  11.481
 9823SOL    HW130910   2.365   5.404  11.554
 9823SOL    HW230911   2.384   5.436  11.407
 9824SOL     OW30912   3.251   3.844  11.615
 9824SOL    HW130913   3.248   3.810  11.526
 9824SOL    HW230914   3.344   3.851  11.636
 9825SOL     OW30915   2.121   5.513  12.389
 9825SOL    HW130916   2.137   5.431  12.437
 9825SOL    HW230917   2.073   5.485  12.310
 9826SOL     OW30918   2.844   5.408  12.055
 9826SOL    HW130919   2.840   5.333  12.114
 9826SOL    HW230920   2.804   5.376  11.974
 9827SOL     OW30921   2.262   4.413  11.648
 9827SOL    HW130922   2.278   4.320  11.663
 9827SOL    HW230923   2.168   4.423  11.664
 9828SOL     OW30924   2.531   3.833  11.257
 9828SOL    HW130925   2.542   3.759  11.316
 9828SOL    HW230926   2.455   3.810  11.203
 9829SOL     OW30927   2.666   5.168  12.093
 9829SOL    HW130928   2.726   5.098  12.118
 9829SOL    HW230929   2.591   5.122  12.055
 9830SOL     OW30930   2.796   4.243  12.067
 9830SOL    HW130931   2.774   4.227  11.975
 9830SOL    HW230932   2.823   4.157  12.100
 9831SOL     OW30933   2.416   3.797  11.686
 9831SOL    HW130934   2.329   3.790  11.726
 9831SOL    HW230935   2.409   3.868  11.623
 9832SOL     OW30936   3.286   4.924  11.211
 9832SOL    HW130937   3.317   4.848  11.260
 9832SOL    HW230938   3.195   4.935  11.240
 9833SOL     OW30939   2.797   3.963  11.627
 9833SOL    HW130940   2.783   3.979  11.534
 9833SOL    HW230941   2.892   3.973  11.639
 9834SOL     OW30942   3.146   5.269  11.922
 9834SOL    HW130943   3.120   5.354  11.888
 9834SOL    HW230944   3.154   5.281  12.016
 9835SOL     OW30945   2.326   4.863  11.886
 9835SOL    HW130946   2.256   4.844  11.949
 9835SOL    HW230947   2.282   4.858  11.801
 9836SOL     OW30948   3.127   5.509  11.759
 9836SOL    HW130949   3.183   5.582  11.737
 9836SOL    HW230950   3.044   5.549  11.787
 9837SOL     OW30951   2.909   4.305  11.254
 9837SOL    HW130952   2.839   4.363  11.225
 9837SOL    HW230953   2.977   4.313  11.186
 9838SOL     OW30954   2.429   3.970  12.325
 9838SOL    HW130955   2.485   3.906  12.370
 9838SOL    HW230956   2.341   3.952  12.359
 9839SOL     OW30957   2.734   4.186  11.804
 9839SOL    HW130958   2.654   4.228  11.771
 9839SOL    HW230959   2.738   4.103  11.757
 9840SOL     OW30960   2.887   3.766  11.898
 9840SOL    HW130961   2.816   3.760  11.834
 9840SOL    HW230962   2.861   3.705  11.968
 9841SOL     OW30963   3.296   4.875  12.036
 9841SOL    HW130964   3.226   4.810  12.032
 9841SOL    HW230965   3.322   4.888  11.944
 9842SOL     OW30966   3.326   4.334  12.131
 9842SOL    HW130967   3.267   4.259  12.134
 9842SOL    HW230968   3.384   4.322  12.207
 9843SOL     OW30969   3.686   4.531  11.551
 9843SOL    HW130970   3.748   4.491  11.612
 9843SOL    HW230971   3.675   4.466  11.482
 9844SOL     OW30972   2.368   5.138  11.310
 9844SOL    HW130973   2.304   5.120  11.379
 9844SOL    HW230974   2.336   5.090  11.234
 9845SOL     OW30975   3.547   4.993  11.813
 9845SOL    HW130976   3.641   4.984  11.828
 9845SOL    HW230977   3.526   5.081  11.844
 9846SOL     OW30978   3.290   4.300  11.243
 9846SOL    HW130979   3.294   4.268  11.333
 9846SOL    HW230980   3.381   4.302  11.214
 9847SOL     OW30981   2.380   3.987  11.493
 9847SOL    HW130982   2.339   3.920  11.439
 9847SOL    HW230983   2.368   4.068  11.444
 9848SOL     OW30984   2.959   4.949  12.281
 9848SOL    HW130985   2.867   4.924  12.296
 9848SOL    HW230986   2.960   4.984  12.192
 9849SOL     OW30987   3.463   4.810  12.260
 9849SOL    HW130988   3.435   4.857  12.339
 9849SOL    HW230989   3.397   4.833  12.194
 9850SOL     OW30990   2.563   4.775  11.540
 9850SOL    HW130991   2.549   4.759  11.633
 9850SOL    HW230992   2.644   4.730  11.519
 9851SOL     OW30993   2.284   4.549  12.451
 9851SOL    HW130994   2.340   4.584  12.520
 9851SOL    HW230995   2.326   4.466  12.426
 9852SOL     OW30996   3.137   4.101  12.413
 9852SOL    HW130997   3.165   4.173  12.470
 9852SOL    HW230998   3.045   4.117  12.397
 9853SOL     OW30999   2.187   4.849  11.651
 9853SOL    HW131000   2.196   4.926  11.594
 9853SOL    HW231001   2.186   4.775  11.591
 9854SOL     OW31002   2.405   4.255  12.031
 9854SOL    HW131003   2.423   4.312  11.957
 9854SOL    HW231004   2.471   4.279  12.096
 9855SOL     OW31005   3.123   5.125  11.582
 9855SOL    HW131006   3.151   5.054  11.639
 9855SOL    HW231007   3.032   5.142  11.607
 9856SOL     OW31008   3.135   5.169  12.312
 9856SOL    HW131009   3.184   5.163  12.394
 9856SOL    HW231010   3.072   5.096  12.317
 9857SOL     OW31011   3.438   4.347  11.649
 9857SOL    HW131012   3.391   4.390  11.721
 9857SOL    HW231013   3.499   4.414  11.618
 9858SOL     OW31014   2.166   5.257  12.482
 9858SOL    HW131015   2.177   5.219  12.395
 9858SOL    HW231016   2.240   5.224  12.532
 9859SOL     OW31017   2.445   4.608  12.208
 9859SOL    HW131018   2.499   4.687  12.201
 9859SOL    HW231019   2.389   4.624  12.284
 9860SOL     OW31020   3.182   4.575  12.168
 9860SOL    HW131021   3.093   4.545  12.148
 9860SOL    HW231022   3.236   4.496  12.159
 9861SOL     OW31023   2.176   3.901  12.413
 9861SOL    HW131024   2.154   3.931  12.501
 9861SOL    HW231025   2.138   3.813  12.409
 9862SOL     OW31026   1.919   5.009  12.422
 9862SOL    HW131027   1.970   4.930  12.441
 9862SOL    HW231028   1.973   5.081  12.454
 9863SOL     OW31029   2.580   4.359  12.217
 9863SOL    HW131030   2.658   4.344  12.164
 9863SOL    HW231031   2.554   4.449  12.197
 9864SOL     OW31032   2.164   3.776  11.797
 9864SOL    HW131033   2.135   3.865  11.812
 9864SOL    HW231034   2.171   3.737  11.884
 9865SOL     OW31035   3.480   4.106  11.526
 9865SOL    HW131036   3.512   4.042  11.589
 9865SOL    HW231037   3.459   4.183  11.579
 9866SOL     OW31038   2.911   4.476  12.145
 9866SOL    HW131039   2.895   4.490  12.238
 9866SOL    HW231040   2.876   4.389  12.126
 9867SOL     OW31041   3.387   3.983  11.298
 9867SOL    HW131042   3.323   3.920  11.332
 9867SOL    HW231043   3.422   4.026  11.376
 9868SOL     OW31044   3.141   4.531  11.207
 9868SOL    HW131045   3.192   4.449  11.208
 9868SOL    HW231046   3.167   4.574  11.126
 9869SOL     OW31047   2.952   5.060  12.031
 9869SOL    HW131048   2.937   4.984  11.975
 9869SOL    HW231049   2.999   5.122  11.975
 9870SOL     OW31050   2.180   4.541  12.117
 9870SOL    HW131051   2.274   4.557  12.118
 9870SOL    HW231052   2.172   4.448  12.141
 9871SOL     OW31053   2.174   4.268  12.168
 9871SOL    HW131054   2.143   4.177  12.171
 9871SOL    HW231055   2.256   4.264  12.118
 9872SOL     OW31056   3.042   3.989   0.166
 9872SOL    HW131057   2.962   3.958   0.208
 9872SOL    HW231058   3.024   3.984   0.073
 9873SOL     OW31059   1.897   5.020  11.365
 9873SOL    HW131060   1.811   5.052  11.338
 9873SOL    HW231061   1.880   4.935  11.404
 9874SOL     OW31062   1.959   5.505  12.112
 9874SOL    HW131063   1.927   5.426  12.067
 9874SOL    HW231064   2.048   5.517  12.079
 9875SOL     OW31065   2.372   5.308  12.084
 9875SOL    HW131066   2.447   5.294  12.141
 9875SOL    HW231067   2.386   5.248  12.011
 9876SOL     OW31068   2.843   4.514  12.413
 9876SOL    HW131069   2.883   4.578  12.472
 9876SOL    HW231070   2.749   4.533  12.416
 9877SOL     OW31071   1.920   4.289  12.289
 9877SOL    HW131072   1.985   4.294  12.219
 9877SOL    HW231073   1.963   4.236  12.357
 9878SOL     OW31074   2.679   4.289  11.509
 9878SOL    HW131075   2.635   4.210  11.477
 9878SOL    HW231076   2.615   4.359  11.496
 9879SOL     OW31077   3.504   4.311  12.342
 9879SOL    HW131078   3.488   4.248  12.413
 9879SOL    HW231079   3.597   4.300  12.322
 9880SOL     OW31080   2.591   4.181  12.423
 9880SOL    HW131081   2.530   4.112  12.398
 9880SOL    HW231082   2.582   4.247  12.355
 9881SOL     OW31083   2.774   5.386   0.036
 9881SOL    HW131084   2.768   5.481   0.025
 9881SOL    HW231085   2.778   5.373   0.131
 9882SOL     OW31086   2.332   4.222  11.362
 9882SOL    HW131087   2.384   4.299  11.385
 9882SOL    HW231088   2.244   4.256  11.346
 9883SOL     OW31089   3.143   4.752  12.370
 9883SOL    HW131090   3.163   4.699  12.293
 9883SOL    HW231091   3.090   4.824  12.337
 9884SOL     OW31092   3.174   4.587  11.475
 9884SOL    HW131093   3.103   4.549  11.526
 9884SOL    HW231094   3.151   4.568  11.384
 9885SOL     OW31095   3.595   5.473  12.285
 9885SOL    HW131096   3.673   5.498  12.237
 9885SOL    HW231097   3.596   5.377  12.285
 9886SOL     OW31098   3.118   5.447  12.275
 9886SOL    HW131099   3.200   5.474  12.234
 9886SOL    HW231100   3.126   5.353  12.288
 9887SOL     OW31101   1.926   5.015  12.150
 9887SOL    HW131102   1.915   5.010  12.245
 9887SOL    HW231103   1.881   4.938  12.116
 9888SOL     OW31104   3.584   3.882  11.665
 9888SOL    HW131105   3.652   3.864  11.601
 9888SOL    HW231106   3.569   3.797  11.708
 9889SOL     OW31107   3.147   4.656  11.841
 9889SOL    HW131108   3.219   4.594  11.853
 9889SOL    HW231109   3.184   4.726  11.788
 9890SOL     OW31110   2.545   5.347  11.312
 9890SOL    HW131111   2.540   5.356  11.217
 9890SOL    HW231112   2.491   5.271  11.332
 9891SOL     OW31113   3.478   5.524   0.028
 9891SOL    HW131114   3.522   5.509  -0.056
 9891SOL    HW231115   3.537   5.580   0.077
 9892SOL     OW31116   3.699   3.890  12.150
 9892SOL    HW131117   3.735   3.806  12.122
 9892SOL    HW231118   3.616   3.897  12.102
 9893SOL     OW31119   2.119   4.033  11.886
 9893SOL    HW131120   2.034   4.066  11.861
 9893SOL    HW231121   2.117   4.032  11.982
 9894SOL     OW31122   3.062   5.323  11.202
 9894SOL    HW131123   3.051   5.231  11.227
 9894SOL    HW231124   2.995   5.338  11.136
 9895SOL     OW31125   2.656   4.757  12.514
 9895SOL    HW131126   2.649   4.786  12.423
 9895SOL    HW231127   2.714   4.821  12.555
 9896SOL     OW31128   2.787   4.640  11.467
 9896SOL    HW131129   2.842   4.678  11.398
 9896SOL    HW231130   2.841   4.569  11.503
 9897SOL     OW31131   3.336   5.367  11.208
 9897SOL    HW131132   3.244   5.349  11.187
 9897SOL    HW231133   3.380   5.369  11.124
 9898SOL     OW31134   2.934   4.834  11.884
 9898SOL    HW131135   2.857   4.786  11.914
 9898SOL    HW231136   2.998   4.767  11.862
 9899SOL     OW31137   2.897   3.971  12.095
 9899SOL    HW131138   2.892   3.918  12.016
 9899SOL    HW231139   2.893   3.908  12.167
 9900SOL     OW31140   3.597   4.121   0.051
 9900SOL    HW131141   3.680   4.159   0.022
 9900SOL    HW231142   3.596   4.033   0.014
 9901SOL     OW31143   2.143   5.067  11.469
 9901SOL    HW131144   2.054   5.058  11.438
 9901SOL    HW231145   2.135   5.112  11.554
 9902SOL     OW31146   1.939   4.065  11.209
 9902SOL    HW131147   1.859   4.046  11.160
 9902SOL    HW231148   1.985   4.129  11.155
 9903SOL     OW31149   1.916   3.870  11.468
 9903SOL    HW131150   1.908   3.953  11.420
 9903SOL    HW231151   2.005   3.840  11.448
 9904SOL     OW31152   3.029   5.061  11.289
 9904SOL    HW131153   2.936   5.040  11.280
 9904SOL    HW231154   3.046   5.062  11.383
 9905SOL     OW31155   3.353   5.512  12.154
 9905SOL    HW131156   3.370   5.581  12.089
 9905SOL    HW231157   3.437   5.499  12.197
 9906SOL     OW31158   3.555   4.585  12.414
 9906SOL    HW131159   3.528   4.502  12.375
 9906SOL    HW231160   3.522   4.652  12.354
 9907SOL     OW31161   3.064   4.071  11.605
 9907SOL    HW131162   3.122   3.996  11.596
 9907SOL    HW231163   3.093   4.115  11.684
 9908SOL     OW31164   2.461   4.447  11.840
 9908SOL    HW131165   2.494   4.536  11.831
 9908SOL    HW231166   2.390   4.441  11.775
 9909SOL     OW31167   3.663   4.618   0.160
 9909SOL    HW131168   3.637   4.708   0.180
 9909SOL    HW231169   3.627   4.601   0.072
 9910SOL     OW31170   2.747   5.090  11.217
 9910SOL    HW131171   2.713   5.083  11.306
 9910SOL    HW231172   2.723   5.179  11.190
 9911SOL     OW31173   2.591   5.573  12.133
 9911SOL    HW131174   2.519   5.621  12.093
 9911SOL    HW231175   2.600   5.493  12.081
 9912SOL     OW31176   2.746   4.681  12.012
 9912SOL    HW131177   2.795   4.615  12.060
 9912SOL    HW231178   2.712   4.740  12.079
 9913SOL     OW31179   2.951   4.723  11.266
 9913SOL    HW131180   2.920   4.767  11.186
 9913SOL    HW231181   3.011   4.656  11.234
 9914SOL     OW31182   3.732   5.263  12.003
 9914SOL    HW131183   3.640   5.254  11.980
 9914SOL    HW231184   3.750   5.191  12.063
 9915SOL     OW31185   1.943   4.933  11.837
 9915SOL    HW131186   1.992   4.894  11.910
 9915SOL    HW231187   2.003   4.929  11.763
 9916SOL     OW31188   3.666   3.886  12.426
 9916SOL    HW131189   3.746   3.834  12.440
 9916SOL    HW231190   3.662   3.898  12.331
 9917SOL     OW31191   2.303   4.154  11.708
 9917SOL    HW131192   2.321   4.087  11.642
 9917SOL    HW231193   2.243   4.111  11.769
 9918SOL     OW31194   3.578   5.206  12.277
 9918SOL    HW131195   3.497   5.167  12.246
 9918SOL    HW231196   3.613   5.141  12.340
 9919SOL     OW31197   2.718   5.296  11.853
 9919SOL    HW131198   2.645   5.305  11.792
 9919SOL    HW231199   2.685   5.237  11.920
 9920SOL     OW31200   3.300   3.947  12.268
 9920SOL    HW131201   3.306   3.860  12.309
 9920SOL    HW231202   3.247   3.998  12.329
 9921SOL     OW31203   2.897   3.782  12.288
 9921SOL    HW131204   2.853   3.785  12.373
 9921SOL    HW231205   2.962   3.713  12.296
 9922SOL     OW31206   2.663   5.049  11.470
 9922SOL    HW131207   2.617   4.967  11.486
 9922SOL    HW231208   2.627   5.110  11.534
 9923SOL     OW31209   3.215   3.771  11.351
 9923SOL    HW131210   3.243   3.712  11.281
 9923SOL    HW231211   3.128   3.740  11.376
 9924SOL     OW31212   3.149   4.192  11.836
 9924SOL    HW131213   3.101   4.274  11.847
 9924SOL    HW231214   3.149   4.153  11.923
 9925SOL     OW31215   3.449   3.911  12.043
 9925SOL    HW131216   3.396   3.934  12.119
 9925SOL    HW231217   3.448   3.990  11.988
 9926SOL     OW31218   1.896   4.773  11.482
 9926SOL    HW131219   1.989   4.772  11.464
 9926SOL    HW231220   1.876   4.685  11.514
 9927SOL     OW31221   2.752   5.412  11.497
 9927SOL    HW131222   2.680   5.382  11.443
 9927SOL    HW231223   2.710   5.449  11.575
 9928SOL     OW31224   2.070   6.182   0.012
 9928SOL    HW131225   2.057   6.240   0.087
 9928SOL    HW231226   2.153   6.138   0.031
 9929SOL     OW31227   2.085   5.866   0.992
 9929SOL    HW131228   2.112   5.834   1.078
 9929SOL    HW231229   1.995   5.836   0.983
 9930SOL     OW31230   1.871   6.007   0.642
 9930SOL    HW131231   1.787   6.020   0.686
 9930SOL    HW231232   1.849   5.952   0.567
 9931SOL     OW31233   2.443   6.881   1.178
 9931SOL    HW131234   2.351   6.865   1.160
 9931SOL    HW231235   2.445   6.969   1.216
 9932SOL     OW31236   3.437   7.102   0.717
 9932SOL    HW131237   3.396   7.076   0.800
 9932SOL    HW231238   3.365   7.100   0.653
 9933SOL     OW31239   3.003   6.274   0.696
 9933SOL    HW131240   3.049   6.357   0.687
 9933SOL    HW231241   2.956   6.282   0.780
 9934SOL     OW31242   3.567   6.197   0.283
 9934SOL    HW131243   3.577   6.187   0.188
 9934SOL    HW231244   3.549   6.109   0.315
 9935SOL     OW31245   2.646   6.738   1.053
 9935SOL    HW131246   2.571   6.755   1.110
 9935SOL    HW231247   2.666   6.823   1.014
 9936SOL     OW31248   2.647   6.387   1.797
 9936SOL    HW131249   2.589   6.441   1.851
 9936SOL    HW231250   2.723   6.443   1.780
 9937SOL     OW31251   2.558   6.570   0.644
 9937SOL    HW131252   2.622   6.567   0.715
 9937SOL    HW231253   2.486   6.621   0.679
 9938SOL     OW31254   2.612   6.755   1.760
 9938SOL    HW131255   2.633   6.824   1.823
 9938SOL    HW231256   2.548   6.700   1.804
 9939SOL     OW31257   2.176   7.016   1.069
 9939SOL    HW131258   2.098   6.975   1.031
 9939SOL    HW231259   2.223   7.053   0.994
 9940SOL     OW31260   3.319   7.091   1.358
 9940SOL    HW131261   3.368   7.172   1.365
 9940SOL    HW231262   3.253   7.097   1.428
 9941SOL     OW31263   2.315   5.951   1.465
 9941SOL    HW131264   2.400   5.906   1.468
 9941SOL    HW231265   2.274   5.931   1.549
 9942SOL     OW31266   3.445   6.044   0.725
 9942SOL    HW131267   3.354   6.047   0.696
 9942SOL    HW231268   3.446   6.094   0.806
 9943SOL     OW31269   2.073   7.324   0.465
 9943SOL    HW131270   2.100   7.395   0.523
 9943SOL    HW231271   2.151   7.269   0.456
 9944SOL     OW31272   3.008   6.938   1.696
 9944SOL    HW131273   3.053   6.931   1.780
 9944SOL    HW231274   2.959   6.856   1.688
 9945SOL     OW31275   2.114   7.043   0.542
 9945SOL    HW131276   2.053   7.112   0.571
 9945SOL    HW231277   2.085   6.965   0.588
 9946SOL     OW31278   2.060   6.648   0.896
 9946SOL    HW131279   2.118   6.572   0.897
 9946SOL    HW231280   2.119   6.724   0.893
 9947SOL     OW31281   2.431   7.410   1.409
 9947SOL    HW131282   2.358   7.371   1.458
 9947SOL    HW231283   2.502   7.416   1.473
 9948SOL     OW31284   2.424   6.542   0.119
 9948SOL    HW131285   2.506   6.567   0.076
 9948SOL    HW231286   2.451   6.486   0.192
 9949SOL     OW31287   3.467   5.719   1.469
 9949SOL    HW131288   3.417   5.777   1.411
 9949SOL    HW231289   3.437   5.740   1.557
 9950SOL     OW31290   1.974   6.254   0.563
 9950SOL    HW131291   1.947   6.166   0.589
 9950SOL    HW231292   1.967   6.306   0.643
 9951SOL     OW31293   3.712   7.344   0.310
 9951SOL    HW131294   3.775   7.316   0.376
 9951SOL    HW231295   3.732   7.437   0.297
 9952SOL     OW31296   1.884   7.111   0.128
 9952SOL    HW131297   1.944   7.068   0.189
 9952SOL    HW231298   1.865   7.196   0.169
 9953SOL     OW31299   3.551   6.518   0.656
 9953SOL    HW131300   3.633   6.473   0.634
 9953SOL    HW231301   3.529   6.566   0.577
 9954SOL     OW31302   3.499   6.696   0.432
 9954SOL    HW131303   3.571   6.696   0.370
 9954SOL    HW231304   3.525   6.760   0.499
 9955SOL     OW31305   2.002   6.349   1.563
 9955SOL    HW131306   2.097   6.342   1.573
 9955SOL    HW231307   1.978   6.424   1.617
 9956SOL     OW31308   2.503   6.998   0.740
 9956SOL    HW131309   2.473   6.908   0.753
 9956SOL    HW231310   2.431   7.041   0.694
 9957SOL     OW31311   3.147   6.828   1.405
 9957SOL    HW131312   3.179   6.754   1.353
 9957SOL    HW231313   3.199   6.825   1.485
 9958SOL     OW31314   2.693   5.612   0.481
 9958SOL    HW131315   2.720   5.704   0.482
 9958SOL    HW231316   2.599   5.614   0.500
 9959SOL     OW31317   2.052   6.542   1.267
 9959SOL    HW131318   2.138   6.499   1.266
 9959SOL    HW231319   2.004   6.500   1.197
 9960SOL     OW31320   3.319   6.544   0.287
 9960SOL    HW131321   3.388   6.514   0.228
 9960SOL    HW231322   3.364   6.602   0.348
 9961SOL     OW31323   3.034   7.400   1.603
 9961SOL    HW131324   3.097   7.416   1.532
 9961SOL    HW231325   3.034   7.305   1.614
 9962SOL     OW31326   3.329   7.006   0.949
 9962SOL    HW131327   3.263   7.023   1.017
 9962SOL    HW231328   3.314   6.915   0.925
 9963SOL     OW31329   3.511   7.345   0.585
 9963SOL    HW131330   3.489   7.307   0.500
 9963SOL    HW231331   3.500   7.273   0.647
 9964SOL     OW31332   2.450   6.322   0.293
 9964SOL    HW131333   2.423   6.256   0.230
 9964SOL    HW231334   2.384   6.319   0.362
 9965SOL     OW31335   3.144   5.949   0.929
 9965SOL    HW131336   3.054   5.919   0.936
 9965SOL    HW231337   3.193   5.893   0.989
 9966SOL     OW31338   3.453   7.261   0.327
 9966SOL    HW131339   3.547   7.279   0.323
 9966SOL    HW231340   3.423   7.271   0.237
 9967SOL     OW31341   2.666   6.204   1.440
 9967SOL    HW131342   2.641   6.181   1.530
 9967SOL    HW231343   2.628   6.134   1.387
 9968SOL     OW31344   3.281   6.063   1.670
 9968SOL    HW131345   3.274   6.104   1.756
 9968SOL    HW231346   3.318   5.977   1.688
 9969SOL     OW31347   2.847   6.489   1.567
 9969SOL    HW131348   2.885   6.405   1.540
 9969SOL    HW231349   2.776   6.504   1.506
 9970SOL     OW31350   2.864   5.993   1.227
 9970SOL    HW131351   2.781   6.022   1.266
 9970SOL    HW231352   2.839   5.928   1.162
 9971SOL     OW31353   2.923   6.300   0.433
 9971SOL    HW131354   2.931   6.285   0.527
 9971SOL    HW231355   2.839   6.262   0.409
 9972SOL     OW31356   1.954   6.418   0.775
 9972SOL    HW131357   2.030   6.383   0.822
 9972SOL    HW231358   1.944   6.507   0.809
 9973SOL     OW31359   1.985   7.463   1.565
 9973SOL    HW131360   2.005   7.471   1.658
 9973SOL    HW231361   1.907   7.408   1.561
 9974SOL     OW31362   2.739   5.946   0.209
 9974SOL    HW131363   2.785   5.979   0.132
 9974SOL    HW231364   2.699   5.865   0.180
 9975SOL     OW31365   3.618   6.173   1.798
 9975SOL    HW131366   3.561   6.242   1.765
 9975SOL    HW231367   3.601   6.099   1.740
 9976SOL     OW31368   3.247   6.735   0.550
 9976SOL    HW131369   3.334   6.736   0.510
 9976SOL    HW231370   3.196   6.798   0.499
 9977SOL     OW31371   2.405   5.768   0.906
 9977SOL    HW131372   2.412   5.789   1.000
 9977SOL    HW231373   2.409   5.852   0.862
 9978SOL     OW31374   2.863   7.009   0.475
 9978SOL    HW131375   2.834   7.099   0.456
 9978SOL    HW231376   2.850   7.000   0.570
 9979SOL     OW31377   2.219   7.394   0.864
 9979SOL    HW131378   2.252   7.305   0.873
 9979SOL    HW231379   2.291   7.450   0.892
 9980SOL     OW31380   3.663   6.643   0.883
 9980SOL    HW131381   3.611   6.620   0.805
 9980SOL    HW231382   3.599   6.650   0.953
 9981SOL     OW31383   3.083   7.126   1.509
 9981SOL    HW131384   3.077   7.064   1.582
 9981SOL    HW231385   3.021   7.094   1.444
 9982SOL     OW31386   2.163   6.595   0.198
 9982SOL    HW131387   2.254   6.588   0.168
 9982SOL    HW231388   2.131   6.505   0.200
 9983SOL     OW31389   3.341   6.348   0.730
 9983SOL    HW131390   3.337   6.298   0.812
 9983SOL    HW231391   3.421   6.401   0.739
 9984SOL     OW31392   2.322   6.893   1.739
 9984SOL    HW131393   2.303   6.873   1.648
 9984SOL    HW231394   2.243   6.868   1.787
 9985SOL     OW31395   2.932   7.355   0.235
 9985SOL    HW131396   2.939   7.321   0.324
 9985SOL    HW231397   2.990   7.300   0.183
 9986SOL     OW31398   2.003   5.818   1.484
 9986SOL    HW131399   1.935   5.883   1.500
 9986SOL    HW231400   2.062   5.826   1.559
 9987SOL     OW31401   3.506   6.972   0.022
 9987SOL    HW131402   3.441   7.042   0.026
 9987SOL    HW231403   3.461   6.895   0.057
 9988SOL     OW31404   2.413   7.326   0.268
 9988SOL    HW131405   2.407   7.370   0.353
 9988SOL    HW231406   2.437   7.395   0.206
 9989SOL     OW31407   3.272   5.698   0.446
 9989SOL    HW131408   3.269   5.665   0.356
 9989SOL    HW231409   3.361   5.681   0.475
 9990SOL     OW31410   2.126   7.373   1.214
 9990SOL    HW131411   2.166   7.301   1.262
 9990SOL    HW231412   2.097   7.334   1.132
 9991SOL     OW31413   2.791   7.288   0.901
 9991SOL    HW131414   2.835   7.225   0.958
 9991SOL    HW231415   2.766   7.237   0.824
 9992SOL     OW31416   2.242   6.282   0.480
 9992SOL    HW131417   2.265   6.189   0.490
 9992SOL    HW231418   2.155   6.289   0.519
 9993SOL     OW31419   3.384   5.808   1.727
 9993SOL    HW131420   3.399   5.820   1.820
 9993SOL    HW231421   3.305   5.753   1.722
 9994SOL     OW31422   2.491   5.714   0.117
 9994SOL    HW131423   2.580   5.679   0.116
 9994SOL    HW231424   2.475   5.742   0.027
 9995SOL     OW31425   2.620   5.847   1.741
 9995SOL    HW131426   2.703   5.801   1.752
 9995SOL    HW231427   2.573   5.832   1.823
 9996SOL     OW31428   2.750   7.122   1.197
 9996SOL    HW131429   2.723   7.076   1.117
 9996SOL    HW231430   2.807   7.061   1.242
 9997SOL     OW31431   3.223   6.171   1.424
 9997SOL    HW131432   3.249   6.143   1.512
 9997SOL    HW231433   3.236   6.266   1.424
 9998SOL     OW31434   2.693   6.995   0.951
 9998SOL    HW131435   2.774   6.973   0.904
 9998SOL    HW231436   2.625   6.990   0.884
 9999SOL     OW31437   2.806   6.103   0.900
 9999SOL    HW131438   2.778   6.092   0.810
 9999SOL    HW231439   2.828   6.015   0.931
10000SOL     OW31440   2.413   5.656   0.493
10000SOL    HW131441   2.337   5.651   0.551
10000SOL    HW231442   2.399   5.735   0.441
10001SOL     OW31443   3.315   6.793   0.099
10001SOL    HW131444   3.312   6.706   0.139
10001SOL    HW231445   3.224   6.823   0.099
10002SOL     OW31446   2.155   5.668   0.219
10002SOL    HW131447   2.227   5.730   0.203
10002SOL    HW231448   2.198   5.585   0.238
10003SOL     OW31449   2.806   5.866   0.462
10003SOL    HW131450   2.782   5.897   0.375
10003SOL    HW231451   2.901   5.868   0.463
10004SOL     OW31452   2.942   6.261   1.448
10004SOL    HW131453   2.860   6.214   1.465
10004SOL    HW231454   3.010   6.198   1.470
10005SOL     OW31455   3.096   7.142   0.779
10005SOL    HW131456   3.104   7.220   0.724
10005SOL    HW231457   3.154   7.159   0.854
10006SOL     OW31458   3.122   7.374   0.612
10006SOL    HW131459   3.173   7.441   0.565
10006SOL    HW231460   3.053   7.423   0.656
10007SOL     OW31461   2.917   6.106   0.017
10007SOL    HW131462   2.881   6.189  -0.014
10007SOL    HW231463   2.948   6.125   0.105
10008SOL     OW31464   1.952   6.154   1.383
10008SOL    HW131465   2.045   6.142   1.363
10008SOL    HW231466   1.950   6.225   1.447
10009SOL     OW31467   2.417   5.812   1.180
10009SOL    HW131468   2.463   5.754   1.241
10009SOL    HW231469   2.326   5.811   1.211
10010SOL     OW31470   2.731   6.065   0.643
10010SOL    HW131471   2.653   6.104   0.605
10010SOL    HW231472   2.749   5.989   0.588
10011SOL     OW31473   2.882   5.625   0.727
10011SOL    HW131474   2.818   5.608   0.657
10011SOL    HW231475   2.859   5.561   0.795
10012SOL     OW31476   3.293   6.746   0.865
10012SOL    HW131477   3.228   6.679   0.884
10012SOL    HW231478   3.301   6.746   0.769
10013SOL     OW31479   3.323   6.188   0.960
10013SOL    HW131480   3.262   6.116   0.971
10013SOL    HW231481   3.377   6.187   1.039
10014SOL     OW31482   3.706   6.410   0.408
10014SOL    HW131483   3.748   6.348   0.467
10014SOL    HW231484   3.646   6.357   0.355
10015SOL     OW31485   2.340   6.999   0.163
10015SOL    HW131486   2.278   6.944   0.211
10015SOL    HW231487   2.287   7.041   0.095
10016SOL     OW31488   3.558   6.861   0.630
10016SOL    HW131489   3.651   6.855   0.651
10016SOL    HW231490   3.531   6.946   0.666
10017SOL     OW31491   3.273   6.146   0.095
10017SOL    HW131492   3.209   6.145   0.166
10017SOL    HW231493   3.323   6.065   0.107
10018SOL     OW31494   2.379   5.865   0.311
10018SOL    HW131495   2.426   5.807   0.251
10018SOL    HW231496   2.366   5.946   0.262
10019SOL     OW31497   3.605   6.818   1.557
10019SOL    HW131498   3.697   6.800   1.539
10019SOL    HW231499   3.606   6.899   1.609
10020SOL     OW31500   2.910   6.945   1.339
10020SOL    HW131501   2.835   6.909   1.387
10020SOL    HW231502   2.986   6.900   1.376
10021SOL     OW31503   3.493   7.254   1.653
10021SOL    HW131504   3.504   7.208   1.570
10021SOL    HW231505   3.513   7.189   1.720
10022SOL     OW31506   3.001   6.808   1.106
10022SOL    HW131507   2.941   6.830   1.177
10022SOL    HW231508   2.948   6.816   1.027
10023SOL     OW31509   3.487   6.687   1.086
10023SOL    HW131510   3.486   6.747   1.161
10023SOL    HW231511   3.405   6.704   1.040
10024SOL     OW31512   2.784   5.673   1.381
10024SOL    HW131513   2.807   5.658   1.290
10024SOL    HW231514   2.863   5.711   1.420
10025SOL     OW31515   2.871   6.707   1.713
10025SOL    HW131516   2.779   6.726   1.730
10025SOL    HW231517   2.871   6.627   1.660
10026SOL     OW31518   2.588   6.688   0.390
10026SOL    HW131519   2.563   6.649   0.474
10026SOL    HW231520   2.652   6.626   0.354
10027SOL     OW31521   2.286   6.397   1.250
10027SOL    HW131522   2.351   6.410   1.319
10027SOL    HW231523   2.251   6.309   1.267
10028SOL     OW31524   3.131   5.960   1.274
10028SOL    HW131525   3.164   6.036   1.322
10028SOL    HW231526   3.040   5.981   1.255
10029SOL     OW31527   1.945   7.161   1.370
10029SOL    HW131528   1.921   7.240   1.322
10029SOL    HW231529   2.040   7.155   1.360
10030SOL     OW31530   2.170   6.707   0.491
10030SOL    HW131531   2.224   6.722   0.569
10030SOL    HW231532   2.213   6.635   0.446
10031SOL     OW31533   2.409   6.102   0.850
10031SOL    HW131534   2.425   6.162   0.777
10031SOL    HW231535   2.471   6.129   0.917
10032SOL     OW31536   3.114   6.933   0.396
10032SOL    HW131537   3.167   7.006   0.428
10032SOL    HW231538   3.026   6.950   0.431
10033SOL     OW31539   3.149   7.054   1.147
10033SOL    HW131540   3.202   7.055   1.226
10033SOL    HW231541   3.095   6.975   1.155
10034SOL     OW31542   3.358   6.279   0.448
10034SOL    HW131543   3.384   6.280   0.540
10034SOL    HW231544   3.438   6.257   0.400
10035SOL     OW31545   2.207   7.127   1.309
10035SOL    HW131546   2.193   7.078   1.227
10035SOL    HW231547   2.301   7.124   1.323
10036SOL     OW31548   2.275   6.317   1.600
10036SOL    HW131549   2.345   6.357   1.550
10036SOL    HW231550   2.317   6.246   1.648
10037SOL     OW31551   3.482   6.373   1.689
10037SOL    HW131552   3.392   6.406   1.689
10037SOL    HW231553   3.524   6.418   1.615
10038SOL     OW31554   2.866   5.725   1.760
10038SOL    HW131555   2.923   5.799   1.740
10038SOL    HW231556   2.920   5.648   1.742
10039SOL     OW31557   2.373   5.611   1.734
10039SOL    HW131558   2.323   5.553   1.676
10039SOL    HW231559   2.323   5.693   1.736
10040SOL     OW31560   2.442   6.452   1.028
10040SOL    HW131561   2.444   6.547   1.012
10040SOL    HW231562   2.390   6.442   1.108
10041SOL     OW31563   3.182   6.441   1.006
10041SOL    HW131564   3.092   6.412   0.995
10041SOL    HW231565   3.234   6.360   1.004
10042SOL     OW31566   3.084   6.139   0.290
10042SOL    HW131567   3.096   6.054   0.331
10042SOL    HW231568   3.010   6.179   0.337
10043SOL     OW31569   2.149   5.781   1.245
10043SOL    HW131570   2.113   5.822   1.323
10043SOL    HW231571   2.125   5.689   1.252
10044SOL     OW31572   1.889   6.905   1.272
10044SOL    HW131573   1.927   6.840   1.332
10044SOL    HW231574   1.902   6.989   1.316
10045SOL     OW31575   2.572   6.206   1.040
10045SOL    HW131576   2.659   6.203   0.999
10045SOL    HW231577   2.545   6.297   1.033
10046SOL     OW31578   3.622   6.528   1.868
10046SOL    HW131579   3.569   6.473   1.811
10046SOL    HW231580   3.561   6.561   1.934
10047SOL     OW31581   2.167   5.645   0.631
10047SOL    HW131582   2.146   5.736   0.650
10047SOL    HW231583   2.181   5.605   0.717
10048SOL     OW31584   3.480   5.958   0.387
10048SOL    HW131585   3.521   5.879   0.423
10048SOL    HW231586   3.421   5.988   0.456
10049SOL     OW31587   2.911   6.344   0.967
10049SOL    HW131588   2.889   6.361   1.059
10049SOL    HW231589   2.879   6.254   0.952
10050SOL     OW31590   2.845   7.167   1.713
10050SOL    HW131591   2.813   7.191   1.626
10050SOL    HW231592   2.872   7.075   1.705
10051SOL     OW31593   3.738   7.067   1.580
10051SOL    HW131594   3.758   7.112   1.498
10051SOL    HW231595   3.804   7.098   1.641
10052SOL     OW31596   2.189   6.516   1.776
10052SOL    HW131597   2.260   6.544   1.834
10052SOL    HW231598   2.226   6.442   1.727
10053SOL     OW31599   3.340   5.891   0.152
10053SOL    HW131600   3.311   5.800   0.157
10053SOL    HW231601   3.400   5.901   0.226
10054SOL     OW31602   3.166   6.396   0.069
10054SOL    HW131603   3.211   6.312   0.062
10054SOL    HW231604   3.210   6.452   0.005
10055SOL     OW31605   2.920   6.932   0.829
10055SOL    HW131606   2.941   6.852   0.781
10055SOL    HW231607   2.991   6.993   0.805
10056SOL     OW31608   2.185   6.376   0.921
10056SOL    HW131609   2.277   6.401   0.932
10056SOL    HW231610   2.178   6.290   0.963
10057SOL     OW31611   2.189   6.111   1.008
10057SOL    HW131612   2.152   6.023   1.001
10057SOL    HW231613   2.266   6.108   0.951
10058SOL     OW31614   3.019   5.956   1.648
10058SOL    HW131615   2.974   5.998   1.721
10058SOL    HW231616   3.105   5.998   1.646
10059SOL     OW31617   3.029   5.771   1.455
10059SOL    HW131618   3.017   5.834   1.525
10059SOL    HW231619   3.068   5.822   1.383
10060SOL     OW31620   1.952   7.366   0.935
10060SOL    HW131621   1.922   7.284   0.896
10060SOL    HW231622   2.043   7.375   0.904
10061SOL     OW31623   2.354   7.164   0.906
10061SOL    HW131624   2.419   7.228   0.936
10061SOL    HW231625   2.406   7.086   0.883
10062SOL     OW31626   2.832   6.372   1.222
10062SOL    HW131627   2.892   6.343   1.291
10062SOL    HW231628   2.745   6.352   1.257
10063SOL     OW31629   1.910   6.149   1.111
10063SOL    HW131630   1.995   6.139   1.070
10063SOL    HW231631   1.928   6.148   1.205
10064SOL     OW31632   2.050   6.122   1.760
10064SOL    HW131633   2.096   6.040   1.745
10064SOL    HW231634   2.034   6.157   1.672
10065SOL     OW31635   3.248   6.508   1.667
10065SOL    HW131636   3.242   6.602   1.680
10065SOL    HW231637   3.237   6.495   1.573
10066SOL     OW31638   2.698   6.196   0.334
10066SOL    HW131639   2.686   6.110   0.294
10066SOL    HW231640   2.612   6.238   0.324
10067SOL     OW31641   3.492   6.198   1.176
10067SOL    HW131642   3.475   6.142   1.252
10067SOL    HW231643   3.580   6.173   1.147
10068SOL     OW31644   2.119   7.141   1.732
10068SOL    HW131645   2.047   7.176   1.785
10068SOL    HW231646   2.128   7.050   1.761
10069SOL     OW31647   2.582   6.030   1.249
10069SOL    HW131648   2.521   5.959   1.233
10069SOL    HW231649   2.567   6.091   1.176
10070SOL     OW31650   2.757   7.262   1.468
10070SOL    HW131651   2.757   7.218   1.383
10070SOL    HW231652   2.774   7.354   1.447
10071SOL     OW31653   2.010   6.726   1.458
10071SOL    HW131654   2.008   6.678   1.541
10071SOL    HW231655   2.029   6.658   1.393
10072SOL     OW31656   3.190   6.632   1.203
10072SOL    HW131657   3.193   6.563   1.137
10072SOL    HW231658   3.123   6.692   1.172
10073SOL     OW31659   3.646   7.323   1.146
10073SOL    HW131660   3.704   7.344   1.073
10073SOL    HW231661   3.618   7.233   1.131
10074SOL     OW31662   3.113   7.332   1.124
10074SOL    HW131663   3.194   7.351   1.077
10074SOL    HW231664   3.116   7.237   1.139
10075SOL     OW31665   1.931   6.906   0.997
10075SOL    HW131666   1.916   6.894   1.090
10075SOL    HW231667   1.900   6.825   0.956
10076SOL     OW31668   2.549   7.270   1.756
10076SOL    HW131669   2.499   7.349   1.737
10076SOL    HW231670   2.632   7.283   1.710
10077SOL     OW31671   2.763   5.661   0.123
10077SOL    HW131672   2.842   5.708   0.098
10077SOL    HW231673   2.784   5.619   0.206
10078SOL     OW31674   3.583   5.737   0.506
10078SOL    HW131675   3.655   5.718   0.446
10078SOL    HW231676   3.565   5.654   0.549
10079SOL     OW31677   3.251   7.154   0.489
10079SOL    HW131678   3.317   7.191   0.430
10079SOL    HW231679   3.207   7.231   0.526
10080SOL     OW31680   2.036   7.482   1.828
10080SOL    HW131681   1.977   7.409   1.845
10080SOL    HW231682   2.085   7.493   1.909
10081SOL     OW31683   3.155   6.485   0.589
10081SOL    HW131684   3.221   6.441   0.642
10081SOL    HW231685   3.184   6.576   0.585
10082SOL     OW31686   2.666   6.858   1.431
10082SOL    HW131687   2.648   6.888   1.520
10082SOL    HW231688   2.583   6.869   1.385
10083SOL     OW31689   3.463   7.324   1.359
10083SOL    HW131690   3.533   7.328   1.294
10083SOL    HW231691   3.473   7.404   1.410
10084SOL     OW31692   3.700   5.747   0.964
10084SOL    HW131693   3.726   5.657   0.941
10084SOL    HW231694   3.611   5.755   0.930
10085SOL     OW31695   2.119   5.898   0.717
10085SOL    HW131696   2.038   5.947   0.701
10085SOL    HW231697   2.123   5.889   0.812
10086SOL     OW31698   3.052   7.184   0.064
10086SOL    HW131699   3.048   7.091   0.085
10086SOL    HW231700   3.016   7.191  -0.024
10087SOL     OW31701   2.677   6.590   1.370
10087SOL    HW131702   2.722   6.594   1.286
10087SOL    HW231703   2.676   6.680   1.402
10088SOL     OW31704   2.789   6.532   0.292
10088SOL    HW131705   2.853   6.537   0.221
10088SOL    HW231706   2.806   6.449   0.335
10089SOL     OW31707   3.317   7.162   0.007
10089SOL    HW131708   3.232   7.186   0.045
10089SOL    HW231709   3.371   7.241   0.016
10090SOL     OW31710   2.237   6.883   1.475
10090SOL    HW131711   2.203   6.970   1.454
10090SOL    HW231712   2.160   6.825   1.470
10091SOL     OW31713   3.479   6.875   1.294
10091SOL    HW131714   3.520   6.849   1.377
10091SOL    HW231715   3.413   6.939   1.320
10092SOL     OW31716   2.940   6.688   0.710
10092SOL    HW131717   2.867   6.647   0.756
10092SOL    HW231718   2.973   6.620   0.652
10093SOL     OW31719   2.891   5.829   0.947
10093SOL    HW131720   2.885   5.778   0.866
10093SOL    HW231721   2.888   5.763   1.017
10094SOL     OW31722   2.464   7.078   0.457
10094SOL    HW131723   2.483   6.987   0.478
10094SOL    HW231724   2.369   7.086   0.469
10095SOL     OW31725   3.603   5.992   1.378
10095SOL    HW131726   3.678   6.050   1.363
10095SOL    HW231727   3.622   5.914   1.327
10096SOL     OW31728   2.076   6.945   0.284
10096SOL    HW131729   2.056   6.853   0.298
10096SOL    HW231730   2.091   6.981   0.372
10097SOL     OW31731   1.952   6.605   1.695
10097SOL    HW131732   1.883   6.587   1.758
10097SOL    HW231733   2.032   6.576   1.739
10098SOL     OW31734   2.545   5.775   1.483
10098SOL    HW131735   2.632   5.750   1.452
10098SOL    HW231736   2.559   5.804   1.573
10099SOL     OW31737   3.286   6.452   1.396
10099SOL    HW131738   3.237   6.512   1.340
10099SOL    HW231739   3.375   6.453   1.360
10100SOL     OW31740   1.909   5.729   0.330
10100SOL    HW131741   1.887   5.804   0.274
10100SOL    HW231742   1.997   5.704   0.302
10101SOL     OW31743   3.057   6.917   0.127
10101SOL    HW131744   2.967   6.884   0.122
10101SOL    HW231745   3.078   6.915   0.220
10102SOL     OW31746   2.481   6.409   1.435
10102SOL    HW131747   2.537   6.487   1.428
10102SOL    HW231748   2.542   6.337   1.449
10103SOL     OW31749   3.353   7.386   1.003
10103SOL    HW131750   3.380   7.448   0.935
10103SOL    HW231751   3.434   7.350   1.038
10104SOL     OW31752   2.586   6.149   1.686
10104SOL    HW131753   2.609   6.225   1.739
10104SOL    HW231754   2.607   6.073   1.742
10105SOL     OW31755   3.325   6.795   1.613
10105SOL    HW131756   3.301   6.795   1.705
10105SOL    HW231757   3.420   6.807   1.612
10106SOL     OW31758   2.227   7.323   1.565
10106SOL    HW131759   2.142   7.365   1.552
10106SOL    HW231760   2.208   7.247   1.621
10107SOL     OW31761   3.531   6.466   1.258
10107SOL    HW131762   3.518   6.381   1.216
10107SOL    HW231763   3.517   6.530   1.187
10108SOL     OW31764   3.094   5.909   0.446
10108SOL    HW131765   3.151   5.832   0.445
10108SOL    HW231766   3.114   5.953   0.529
10109SOL     OW31767   2.462   6.304   0.661
10109SOL    HW131768   2.498   6.392   0.656
10109SOL    HW231769   2.386   6.305   0.603
10110SOL     OW31770   3.622   5.941   1.647
10110SOL    HW131771   3.602   5.963   1.555
10110SOL    HW231772   3.548   5.888   1.675
10111SOL     OW31773   3.626   6.520   1.509
10111SOL    HW131774   3.604   6.611   1.528
10111SOL    HW231775   3.598   6.507   1.418
10112SOL     OW31776   2.772   6.942   0.033
10112SOL    HW131777   2.726   6.917   0.114
10112SOL    HW231778   2.752   7.035   0.022
10113SOL     OW31779   2.521   7.383   0.931
10113SOL    HW131780   2.510   7.478   0.924
10113SOL    HW231781   2.616   7.370   0.933
10114SOL     OW31782   2.745   6.563   0.857
10114SOL    HW131783   2.785   6.487   0.899
10114SOL    HW231784   2.704   6.611   0.929
10115SOL     OW31785   2.958   6.566   0.074
10115SOL    HW131786   2.992   6.627   0.010
10115SOL    HW231787   3.027   6.501   0.085
10116SOL     OW31788   3.711   7.134   0.842
10116SOL    HW131789   3.625   7.121   0.802
10116SOL    HW231790   3.717   7.064   0.907
10117SOL     OW31791   2.066   6.882   1.839
10117SOL    HW131792   2.026   6.798   1.818
10117SOL    HW231793   2.020   6.912   1.917
10118SOL     OW31794   1.979   6.824   0.659
10118SOL    HW131795   1.965   6.774   0.739
10118SOL    HW231796   2.033   6.767   0.604
10119SOL     OW31797   2.537   7.022   1.620
10119SOL    HW131798   2.478   6.958   1.661
10119SOL    HW231799   2.526   7.101   1.672
10120SOL     OW31800   3.693   5.775   1.237
10120SOL    HW131801   3.661   5.689   1.264
10120SOL    HW231802   3.692   5.773   1.142
10121SOL     OW31803   2.287   6.023   0.525
10121SOL    HW131804   2.318   5.958   0.462
10121SOL    HW231805   2.245   5.972   0.594
10122SOL     OW31806   3.556   7.071   1.098
10122SOL    HW131807   3.478   7.050   1.047
10122SOL    HW231808   3.557   7.005   1.168
10123SOL     OW31809   2.206   6.136   1.295
10123SOL    HW131810   2.251   6.075   1.354
10123SOL    HW231811   2.225   6.102   1.207
10124SOL     OW31812   2.699   7.174   0.668
10124SOL    HW131813   2.651   7.253   0.644
10124SOL    HW231814   2.632   7.110   0.691
10125SOL     OW31815   3.280   5.796   1.107
10125SOL    HW131816   3.249   5.705   1.112
10125SOL    HW231817   3.234   5.841   1.178
10126SOL     OW31818   2.879   5.617   1.126
10126SOL    HW131819   2.832   5.547   1.081
10126SOL    HW231820   2.970   5.587   1.129
10127SOL     OW31821   2.662   6.925   0.286
10127SOL    HW131822   2.623   6.841   0.312
10127SOL    HW231823   2.733   6.938   0.348
10128SOL     OW31824   2.481   7.148   1.275
10128SOL    HW131825   2.477   7.229   1.325
10128SOL    HW231826   2.574   7.136   1.255
10129SOL     OW31827   3.237   5.639   0.177
10129SOL    HW131828   3.282   5.577   0.120
10129SOL    HW231829   3.152   5.598   0.194
10130SOL     OW31830   3.167   6.047   0.677
10130SOL    HW131831   3.110   6.124   0.680
10130SOL    HW231832   3.155   6.005   0.762
10131SOL     OW31833   3.446   5.780   0.887
10131SOL    HW131834   3.388   5.786   0.963
10131SOL    HW231835   3.417   5.850   0.829
10132SOL     OW31836   1.911   6.660   0.337
10132SOL    HW131837   2.006   6.659   0.329
10132SOL    HW231838   1.888   6.572   0.365
10133SOL     OW31839   2.703   7.225   0.378
10133SOL    HW131840   2.648   7.177   0.440
10133SOL    HW231841   2.711   7.312   0.416
10134SOL     OW31842   2.088   6.224   2.008
10134SOL    HW131843   2.007   6.193   2.048
10134SOL    HW231844   2.081   6.199   1.916
10135SOL     OW31845   2.089   5.859   2.843
10135SOL    HW131846   2.117   5.833   2.931
10135SOL    HW231847   1.998   5.830   2.838
10136SOL     OW31848   1.852   5.976   2.503
10136SOL    HW131849   1.771   6.004   2.546
10136SOL    HW231850   1.829   5.898   2.454
10137SOL     OW31851   2.455   6.880   3.050
10137SOL    HW131852   2.373   6.845   3.015
10137SOL    HW231853   2.439   6.973   3.061
10138SOL     OW31854   3.447   7.111   2.575
10138SOL    HW131855   3.401   7.084   2.655
10138SOL    HW231856   3.378   7.116   2.508
10139SOL     OW31857   3.018   6.271   2.561
10139SOL    HW131858   3.050   6.361   2.551
10139SOL    HW231859   2.958   6.275   2.635
10140SOL     OW31860   3.630   6.156   2.086
10140SOL    HW131861   3.559   6.176   2.024
10140SOL    HW231862   3.589   6.101   2.152
10141SOL     OW31863   2.679   6.758   2.931
10141SOL    HW131864   2.597   6.764   2.980
10141SOL    HW231865   2.676   6.831   2.869
10142SOL     OW31866   2.736   6.345   3.686
10142SOL    HW131867   2.737   6.410   3.757
10142SOL    HW231868   2.762   6.394   3.608
10143SOL     OW31869   2.549   6.573   2.524
10143SOL    HW131870   2.611   6.572   2.597
10143SOL    HW231871   2.478   6.630   2.554
10144SOL     OW31872   2.574   6.739   3.679
10144SOL    HW131873   2.604   6.819   3.722
10144SOL    HW231874   2.488   6.761   3.644
10145SOL     OW31875   2.180   7.006   2.926
10145SOL    HW131876   2.108   6.963   2.880
10145SOL    HW231877   2.229   7.052   2.857
10146SOL     OW31878   3.326   7.095   3.221
10146SOL    HW131879   3.385   7.169   3.238
10146SOL    HW231880   3.265   7.097   3.295
10147SOL     OW31881   3.453   6.030   2.604
10147SOL    HW131882   3.368   6.032   2.560
10147SOL    HW231883   3.448   6.102   2.667
10148SOL     OW31884   2.076   7.312   2.339
10148SOL    HW131885   2.091   7.392   2.389
10148SOL    HW231886   2.153   7.304   2.282
10149SOL     OW31887   2.992   6.939   3.578
10149SOL    HW131888   3.031   6.933   3.665
10149SOL    HW231889   2.946   6.856   3.567
10150SOL     OW31890   2.111   7.042   2.409
10150SOL    HW131891   2.078   7.131   2.403
10150SOL    HW231892   2.046   6.996   2.463
10151SOL     OW31893   2.128   6.686   2.756
10151SOL    HW131894   2.138   6.593   2.779
10151SOL    HW231895   2.065   6.719   2.820
10152SOL     OW31896   2.470   7.365   3.336
10152SOL    HW131897   2.378   7.355   3.361
10152SOL    HW231898   2.485   7.459   3.337
10153SOL     OW31899   3.467   5.716   3.308
10153SOL    HW131900   3.478   5.807   3.281
10153SOL    HW231901   3.450   5.721   3.402
10154SOL     OW31902   1.976   6.238   2.422
10154SOL    HW131903   1.952   6.149   2.448
10154SOL    HW231904   1.969   6.289   2.503
10155SOL     OW31905   3.754   7.321   2.226
10155SOL    HW131906   3.690   7.318   2.297
10155SOL    HW231907   3.754   7.413   2.198
10156SOL     OW31908   3.559   6.516   2.520
10156SOL    HW131909   3.629   6.460   2.487
10156SOL    HW231910   3.526   6.562   2.442
10157SOL     OW31911   3.508   6.684   2.296
10157SOL    HW131912   3.593   6.681   2.253
10157SOL    HW231913   3.516   6.753   2.362
10158SOL     OW31914   1.977   6.349   3.393
10158SOL    HW131915   2.052   6.344   3.453
10158SOL    HW231916   1.916   6.410   3.435
10159SOL     OW31917   2.461   6.971   2.604
10159SOL    HW131918   2.416   6.886   2.603
10159SOL    HW231919   2.458   7.000   2.513
10160SOL     OW31920   3.155   6.818   3.272
10160SOL    HW131921   3.197   6.752   3.217
10160SOL    HW231922   3.202   6.816   3.354
10161SOL     OW31923   2.682   5.591   2.383
10161SOL    HW131924   2.722   5.673   2.356
10161SOL    HW231925   2.588   5.608   2.383
10162SOL     OW31926   2.046   6.570   3.118
10162SOL    HW131927   2.125   6.523   3.143
10162SOL    HW231928   2.015   6.525   3.040
10163SOL     OW31929   3.406   6.582   2.053
10163SOL    HW131930   3.333   6.522   2.072
10163SOL    HW231931   3.432   6.616   2.139
10164SOL     OW31932   3.016   7.371   3.471
10164SOL    HW131933   3.045   7.447   3.419
10164SOL    HW231934   3.064   7.297   3.433
10165SOL     OW31935   2.219   5.886   3.684
10165SOL    HW131936   2.260   5.945   3.747
10165SOL    HW231937   2.129   5.877   3.715
10166SOL     OW31938   3.333   7.001   2.806
10166SOL    HW131939   3.272   7.015   2.878
10166SOL    HW231940   3.314   6.911   2.776
10167SOL     OW31941   3.546   7.332   2.410
10167SOL    HW131942   3.492   7.306   2.335
10167SOL    HW231943   3.523   7.271   2.479
10168SOL     OW31944   2.466   6.313   2.143
10168SOL    HW131945   2.469   6.391   2.087
10168SOL    HW231946   2.397   6.332   2.207
10169SOL     OW31947   3.146   5.953   2.800
10169SOL    HW131948   3.055   5.924   2.803
10169SOL    HW231949   3.191   5.898   2.863
10170SOL     OW31950   3.438   7.256   2.168
10170SOL    HW131951   3.520   7.216   2.136
10170SOL    HW231952   3.384   7.263   2.090
10171SOL     OW31953   2.672   6.186   3.318
10171SOL    HW131954   2.638   6.164   3.405
10171SOL    HW231955   2.629   6.124   3.259
10172SOL     OW31956   3.250   6.048   3.544
10172SOL    HW131957   3.258   6.101   3.623
10172SOL    HW231958   3.318   5.981   3.552
10173SOL     OW31959   2.818   6.475   3.452
10173SOL    HW131960   2.874   6.409   3.413
10173SOL    HW231961   2.765   6.509   3.379
10174SOL     OW31962   2.860   5.995   3.091
10174SOL    HW131963   2.774   6.017   3.126
10174SOL    HW231964   2.844   5.967   3.002
10175SOL     OW31965   2.925   6.287   2.284
10175SOL    HW131966   2.941   6.264   2.376
10175SOL    HW231967   2.845   6.241   2.261
10176SOL     OW31968   1.933   6.418   2.630
10176SOL    HW131969   2.007   6.391   2.684
10176SOL    HW231970   1.897   6.494   2.674
10177SOL     OW31971   1.939   7.366   3.448
10177SOL    HW131972   1.958   7.386   3.540
10177SOL    HW231973   1.914   7.450   3.410
10178SOL     OW31974   2.764   5.935   2.070
10178SOL    HW131975   2.823   5.997   2.027
10178SOL    HW231976   2.758   5.861   2.009
10179SOL     OW31977   3.558   6.147   3.695
10179SOL    HW131978   3.525   6.223   3.648
10179SOL    HW231979   3.606   6.097   3.630
10180SOL     OW31980   3.243   6.738   2.405
10180SOL    HW131981   3.318   6.714   2.350
10180SOL    HW231982   3.189   6.793   2.349
10181SOL     OW31983   2.424   5.773   2.756
10181SOL    HW131984   2.420   5.810   2.844
10181SOL    HW231985   2.429   5.849   2.698
10182SOL     OW31986   2.876   7.056   2.348
10182SOL    HW131987   2.846   7.115   2.280
10182SOL    HW231988   2.816   7.071   2.421
10183SOL     OW31989   2.213   7.398   2.733
10183SOL    HW131990   2.257   7.313   2.737
10183SOL    HW231991   2.285   7.462   2.742
10184SOL     OW31992   3.661   6.656   2.739
10184SOL    HW131993   3.615   6.621   2.662
10184SOL    HW231994   3.594   6.657   2.807
10185SOL     OW31995   3.084   7.114   3.376
10185SOL    HW131996   3.078   7.054   3.451
10185SOL    HW231997   3.026   7.075   3.310
10186SOL     OW31998   2.167   6.540   2.113
10186SOL    HW131999   2.249   6.567   2.070
10186SOL    HW232000   2.154   6.450   2.086
10187SOL     OW32001   3.357   6.330   2.576
10187SOL    HW132002   3.342   6.292   2.662
10187SOL    HW232003   3.430   6.391   2.589
10188SOL     OW32004   2.333   6.856   3.602
10188SOL    HW132005   2.303   6.863   3.511
10188SOL    HW232006   2.255   6.833   3.651
10189SOL     OW32007   2.994   7.366   2.087
10189SOL    HW132008   2.915   7.334   2.129
10189SOL    HW232009   3.014   7.301   2.019
10190SOL     OW32010   2.093   5.877   3.379
10190SOL    HW132011   2.028   5.944   3.354
10190SOL    HW232012   2.041   5.804   3.412
10191SOL     OW32013   2.313   7.329   2.189
10191SOL    HW132014   2.357   7.390   2.249
10191SOL    HW232015   2.385   7.287   2.141
10192SOL     OW32016   3.262   5.683   2.302
10192SOL    HW132017   3.243   5.665   2.210
10192SOL    HW232018   3.357   5.676   2.309
10193SOL     OW32019   2.126   7.377   3.079
10193SOL    HW132020   2.166   7.294   3.107
10193SOL    HW232021   2.096   7.360   2.990
10194SOL     OW32022   2.801   7.299   2.753
10194SOL    HW132023   2.879   7.249   2.777
10194SOL    HW232024   2.762   7.250   2.681
10195SOL     OW32025   2.258   6.281   2.342
10195SOL    HW132026   2.277   6.188   2.350
10195SOL    HW232027   2.163   6.288   2.356
10196SOL     OW32028   3.404   5.795   3.593
10196SOL    HW132029   3.424   5.816   3.685
10196SOL    HW232030   3.345   5.721   3.598
10197SOL     OW32031   2.503   5.687   1.966
10197SOL    HW132032   2.571   5.619   1.970
10197SOL    HW232033   2.451   5.664   1.889
10198SOL     OW32034   2.609   5.836   3.607
10198SOL    HW132035   2.689   5.786   3.591
10198SOL    HW232036   2.623   5.876   3.693
10199SOL     OW32037   2.743   7.106   3.043
10199SOL    HW132038   2.720   7.068   2.958
10199SOL    HW232039   2.799   7.040   3.085
10200SOL     OW32040   3.204   6.180   3.300
10200SOL    HW132041   3.234   6.147   3.385
10200SOL    HW232042   3.243   6.267   3.292
10201SOL     OW32043   2.682   6.988   2.769
10201SOL    HW132044   2.718   7.048   2.703
10201SOL    HW232045   2.597   6.962   2.734
10202SOL     OW32046   2.802   6.095   2.756
10202SOL    HW132047   2.764   6.091   2.668
10202SOL    HW232048   2.822   6.004   2.778
10203SOL     OW32049   2.416   5.649   2.358
10203SOL    HW132050   2.336   5.650   2.410
10203SOL    HW232051   2.409   5.725   2.301
10204SOL     OW32052   3.253   6.747   1.868
10204SOL    HW132053   3.306   6.698   1.932
10204SOL    HW232054   3.186   6.790   1.921
10205SOL     OW32055   2.146   5.639   2.027
10205SOL    HW132056   2.189   5.710   1.979
10205SOL    HW232057   2.217   5.593   2.072
10206SOL     OW32058   2.803   5.830   2.321
10206SOL    HW132059   2.778   5.869   2.238
10206SOL    HW232060   2.897   5.847   2.329
10207SOL     OW32061   2.942   6.280   3.307
10207SOL    HW132062   2.876   6.212   3.321
10207SOL    HW232063   3.026   6.233   3.311
10208SOL     OW32064   3.065   7.111   2.670
10208SOL    HW132065   3.067   7.160   2.588
10208SOL    HW232066   3.125   7.159   2.728
10209SOL     OW32067   2.333   6.734   2.585
10209SOL    HW132068   2.263   6.716   2.648
10209SOL    HW232069   2.291   6.723   2.500
10210SOL     OW32070   3.120   7.375   2.476
10210SOL    HW132071   3.165   7.439   2.421
10210SOL    HW232072   3.051   7.425   2.519
10211SOL     OW32073   1.961   6.119   3.253
10211SOL    HW132074   2.051   6.127   3.221
10211SOL    HW232075   1.948   6.197   3.307
10212SOL     OW32076   2.424   5.805   3.036
10212SOL    HW132077   2.449   5.713   3.038
10212SOL    HW232078   2.331   5.806   3.059
10213SOL     OW32079   2.738   6.048   2.493
10213SOL    HW132080   2.693   6.106   2.431
10213SOL    HW232081   2.752   5.967   2.445
10214SOL     OW32082   2.892   5.632   2.600
10214SOL    HW132083   2.828   5.638   2.530
10214SOL    HW232084   2.859   5.563   2.658
10215SOL     OW32085   3.232   6.766   2.686
10215SOL    HW132086   3.220   6.674   2.709
10215SOL    HW232087   3.259   6.765   2.595
10216SOL     OW32088   3.327   6.196   2.821
10216SOL    HW132089   3.264   6.124   2.830
10216SOL    HW232090   3.382   6.190   2.899
10217SOL     OW32091   3.730   6.381   2.232
10217SOL    HW132092   3.772   6.331   2.301
10217SOL    HW232093   3.663   6.322   2.197
10218SOL     OW32094   2.363   7.006   2.013
10218SOL    HW132095   2.289   6.974   2.064
10218SOL    HW232096   2.363   6.952   1.934
10219SOL     OW32097   3.549   6.861   2.493
10219SOL    HW132098   3.643   6.857   2.513
10219SOL    HW232099   3.522   6.948   2.521
10220SOL     OW32100   3.259   6.132   1.935
10220SOL    HW132101   3.166   6.118   1.917
10220SOL    HW232102   3.265   6.129   2.030
10221SOL     OW32103   2.386   5.844   2.171
10221SOL    HW132104   2.433   5.799   2.101
10221SOL    HW232105   2.364   5.929   2.135
10222SOL     OW32106   3.598   6.858   3.412
10222SOL    HW132107   3.646   6.786   3.453
10222SOL    HW232108   3.642   6.937   3.443
10223SOL     OW32109   2.927   6.926   3.176
10223SOL    HW132110   2.848   6.901   3.223
10223SOL    HW232111   2.998   6.882   3.224
10224SOL     OW32112   3.461   7.225   3.510
10224SOL    HW132113   3.485   7.255   3.422
10224SOL    HW232114   3.505   7.140   3.519
10225SOL     OW32115   2.949   6.814   2.922
10225SOL    HW132116   2.944   6.851   3.010
10225SOL    HW232117   2.868   6.764   2.912
10226SOL     OW32118   3.479   6.687   2.950
10226SOL    HW132119   3.494   6.750   3.021
10226SOL    HW232120   3.384   6.671   2.953
10227SOL     OW32121   2.776   5.654   3.254
10227SOL    HW132122   2.798   5.644   3.161
10227SOL    HW232123   2.850   5.704   3.290
10228SOL     OW32124   2.833   6.714   3.575
10228SOL    HW132125   2.743   6.715   3.607
10228SOL    HW232126   2.840   6.633   3.525
10229SOL     OW32127   2.602   6.688   2.279
10229SOL    HW132128   2.576   6.638   2.356
10229SOL    HW232129   2.657   6.628   2.229
10230SOL     OW32130   2.262   6.419   3.175
10230SOL    HW132131   2.349   6.413   3.213
10230SOL    HW232132   2.237   6.329   3.156
10231SOL     OW32133   3.128   5.962   3.147
10231SOL    HW132134   3.158   6.040   3.194
10231SOL    HW232135   3.037   5.981   3.123
10232SOL     OW32136   1.941   7.145   3.231
10232SOL    HW132137   1.902   7.208   3.170
10232SOL    HW232138   2.035   7.147   3.210
10233SOL     OW32139   2.193   6.710   2.347
10233SOL    HW132140   2.199   6.780   2.282
10233SOL    HW232141   2.197   6.629   2.297
10234SOL     OW32142   2.477   6.109   2.721
10234SOL    HW132143   2.473   6.167   2.645
10234SOL    HW232144   2.400   6.132   2.773
10235SOL     OW32145   3.108   6.938   2.265
10235SOL    HW132146   3.166   7.009   2.291
10235SOL    HW232147   3.021   6.967   2.293
10236SOL     OW32148   3.158   7.043   3.015
10236SOL    HW132149   3.220   7.058   3.086
10236SOL    HW232150   3.087   6.994   3.056
10237SOL     OW32151   3.427   6.235   2.321
10237SOL    HW132152   3.403   6.257   2.411
10237SOL    HW232153   3.353   6.266   2.268
10238SOL     OW32154   2.209   7.118   3.164
10238SOL    HW132155   2.196   7.073   3.080
10238SOL    HW232156   2.304   7.130   3.170
10239SOL     OW32157   2.289   6.354   3.490
10239SOL    HW132158   2.351   6.375   3.420
10239SOL    HW232159   2.308   6.263   3.512
10240SOL     OW32160   3.435   6.311   3.497
10240SOL    HW132161   3.405   6.364   3.571
10240SOL    HW232162   3.488   6.371   3.444
10241SOL     OW32163   2.844   5.710   3.577
10241SOL    HW132164   2.897   5.789   3.581
10241SOL    HW232165   2.902   5.639   3.605
10242SOL     OW32166   2.342   5.634   3.591
10242SOL    HW132167   2.299   5.564   3.543
10242SOL    HW232168   2.286   5.648   3.668
10243SOL     OW32169   2.458   6.456   2.900
10243SOL    HW132170   2.446   6.487   2.810
10243SOL    HW232171   2.369   6.433   2.929
10244SOL     OW32172   3.194   6.441   2.868
10244SOL    HW132173   3.107   6.418   2.837
10244SOL    HW232174   3.245   6.360   2.862
10245SOL     OW32175   3.158   6.112   2.195
10245SOL    HW132176   3.121   6.031   2.229
10245SOL    HW232177   3.083   6.163   2.165
10246SOL     OW32178   2.164   5.786   3.110
10246SOL    HW132179   2.111   5.814   3.185
10246SOL    HW232180   2.146   5.692   3.101
10247SOL     OW32181   1.881   6.889   3.143
10247SOL    HW132182   1.933   6.827   3.194
10247SOL    HW232183   1.909   6.975   3.174
10248SOL     OW32184   2.620   6.237   2.954
10248SOL    HW132185   2.629   6.191   2.870
10248SOL    HW232186   2.561   6.310   2.935
10249SOL     OW32187   3.527   6.481   3.705
10249SOL    HW132188   3.606   6.530   3.685
10249SOL    HW232189   3.493   6.521   3.785
10250SOL     OW32190   2.172   5.642   2.485
10250SOL    HW132191   2.145   5.732   2.503
10250SOL    HW232192   2.180   5.602   2.572
10251SOL     OW32193   3.489   5.974   2.236
10251SOL    HW132194   3.499   5.912   2.308
10251SOL    HW232195   3.446   6.049   2.276
10252SOL     OW32196   2.901   6.342   2.820
10252SOL    HW132197   2.883   6.360   2.913
10252SOL    HW232198   2.863   6.255   2.806
10253SOL     OW32199   2.822   7.152   3.538
10253SOL    HW132200   2.884   7.212   3.497
10253SOL    HW232201   2.876   7.078   3.566
10254SOL     OW32202   3.736   7.114   3.462
10254SOL    HW132203   3.702   7.192   3.505
10254SOL    HW232204   3.809   7.085   3.517
10255SOL     OW32205   2.213   6.538   3.668
10255SOL    HW132206   2.285   6.534   3.731
10255SOL    HW232207   2.235   6.473   3.602
10256SOL     OW32208   3.415   5.835   1.997
10256SOL    HW132209   3.337   5.784   2.018
10256SOL    HW232210   3.429   5.892   2.073
10257SOL     OW32211   3.159   6.420   1.914
10257SOL    HW132212   3.139   6.327   1.903
10257SOL    HW232213   3.190   6.448   1.828
10258SOL     OW32214   2.238   6.090   2.883
10258SOL    HW132215   2.181   6.021   2.849
10258SOL    HW232216   2.201   6.171   2.848
10259SOL     OW32217   2.993   5.952   3.548
10259SOL    HW132218   2.949   6.008   3.612
10259SOL    HW232219   3.082   5.987   3.543
10260SOL     OW32220   3.019   5.777   3.332
10260SOL    HW132221   3.006   5.838   3.405
10260SOL    HW232222   3.062   5.830   3.265
10261SOL     OW32223   1.898   6.889   2.061
10261SOL    HW132224   1.812   6.917   2.028
10261SOL    HW232225   1.882   6.801   2.096
10262SOL     OW32226   1.957   7.365   2.819
10262SOL    HW132227   1.921   7.289   2.773
10262SOL    HW232228   2.043   7.378   2.779
10263SOL     OW32229   2.351   7.161   2.770
10263SOL    HW132230   2.423   7.220   2.791
10263SOL    HW232231   2.388   7.098   2.708
10264SOL     OW32232   2.828   6.389   3.081
10264SOL    HW132233   2.873   6.356   3.158
10264SOL    HW232234   2.754   6.330   3.068
10265SOL     OW32235   1.901   6.142   2.974
10265SOL    HW132236   1.969   6.190   2.928
10265SOL    HW232237   1.934   6.133   3.063
10266SOL     OW32238   2.060   6.131   3.581
10266SOL    HW132239   2.063   6.046   3.538
10266SOL    HW232240   1.968   6.143   3.604
10267SOL     OW32241   3.220   6.525   3.525
10267SOL    HW132242   3.263   6.610   3.519
10267SOL    HW232243   3.233   6.485   3.438
10268SOL     OW32244   2.683   6.161   2.233
10268SOL    HW132245   2.689   6.091   2.169
10268SOL    HW232246   2.610   6.215   2.203
10269SOL     OW32247   3.502   6.192   3.032
10269SOL    HW132248   3.488   6.146   3.115
10269SOL    HW232249   3.590   6.166   3.005
10270SOL     OW32250   2.076   7.118   3.587
10270SOL    HW132251   2.079   7.173   3.665
10270SOL    HW232252   2.089   7.029   3.619
10271SOL     OW32253   2.569   6.024   3.126
10271SOL    HW132254   2.517   5.954   3.087
10271SOL    HW232255   2.568   6.094   3.060
10272SOL     OW32256   2.757   7.262   3.273
10272SOL    HW132257   2.769   7.224   3.186
10272SOL    HW232258   2.773   7.356   3.261
10273SOL     OW32259   2.327   6.086   2.067
10273SOL    HW132260   2.388   6.158   2.086
10273SOL    HW232261   2.245   6.129   2.045
10274SOL     OW32262   2.006   6.729   3.335
10274SOL    HW132263   2.006   6.678   3.416
10274SOL    HW232264   2.021   6.664   3.266
10275SOL     OW32265   3.205   6.637   3.051
10275SOL    HW132266   3.206   6.560   2.994
10275SOL    HW232267   3.117   6.674   3.041
10276SOL     OW32268   3.183   6.434   2.187
10276SOL    HW132269   3.106   6.400   2.231
10276SOL    HW232270   3.161   6.431   2.094
10277SOL     OW32271   3.615   7.324   2.988
10277SOL    HW132272   3.688   7.345   2.930
10277SOL    HW232273   3.603   7.230   2.978
10278SOL     OW32274   3.097   7.307   2.943
10278SOL    HW132275   3.183   7.342   2.919
10278SOL    HW232276   3.116   7.220   2.978
10279SOL     OW32277   1.922   6.881   2.861
10279SOL    HW132278   1.900   6.874   2.954
10279SOL    HW232279   1.875   6.809   2.820
10280SOL     OW32280   3.607   5.738   2.387
10280SOL    HW132281   3.668   5.722   2.315
10280SOL    HW232282   3.580   5.651   2.416
10281SOL     OW32283   3.261   7.158   2.368
10281SOL    HW132284   3.308   7.187   2.289
10281SOL    HW232285   3.205   7.232   2.391
10282SOL     OW32286   1.994   7.393   3.710
10282SOL    HW132287   1.953   7.320   3.757
10282SOL    HW232288   2.050   7.435   3.774
10283SOL     OW32289   3.151   6.513   2.539
10283SOL    HW132290   3.221   6.447   2.536
10283SOL    HW232291   3.178   6.579   2.475
10284SOL     OW32292   2.667   6.877   3.267
10284SOL    HW132293   2.637   6.905   3.353
10284SOL    HW232294   2.588   6.880   3.212
10285SOL     OW32295   2.525   7.221   2.026
10285SOL    HW132296   2.536   7.235   1.932
10285SOL    HW232297   2.474   7.140   2.033
10286SOL     OW32298   3.510   7.314   3.249
10286SOL    HW132299   3.545   7.324   3.160
10286SOL    HW232300   3.492   7.404   3.277
10287SOL     OW32301   2.111   5.893   2.569
10287SOL    HW132302   2.025   5.930   2.550
10287SOL    HW232303   2.113   5.885   2.665
10288SOL     OW32304   3.055   7.180   1.895
10288SOL    HW132305   3.053   7.090   1.927
10288SOL    HW232306   2.982   7.185   1.833
10289SOL     OW32307   2.686   6.594   3.243
10289SOL    HW132308   2.719   6.567   3.157
10289SOL    HW232309   2.686   6.690   3.240
10290SOL     OW32310   2.805   6.530   2.180
10290SOL    HW132311   2.848   6.553   2.098
10290SOL    HW232312   2.834   6.441   2.199
10291SOL     OW32313   3.315   7.273   1.922
10291SOL    HW132314   3.230   7.233   1.901
10291SOL    HW232315   3.380   7.213   1.886
10292SOL     OW32316   2.226   6.905   3.360
10292SOL    HW132317   2.215   6.970   3.290
10292SOL    HW232318   2.159   6.839   3.342
10293SOL     OW32319   3.489   6.877   3.155
10293SOL    HW132320   3.528   6.850   3.238
10293SOL    HW232321   3.422   6.940   3.180
10294SOL     OW32322   2.920   6.706   2.594
10294SOL    HW132323   2.846   6.657   2.630
10294SOL    HW232324   2.958   6.647   2.529
10295SOL     OW32325   2.894   5.828   2.819
10295SOL    HW132326   2.889   5.781   2.736
10295SOL    HW232327   2.882   5.761   2.886
10296SOL     OW32328   2.483   7.076   2.352
10296SOL    HW132329   2.528   7.028   2.283
10296SOL    HW232330   2.395   7.092   2.317
10297SOL     OW32331   3.593   5.974   3.226
10297SOL    HW132332   3.663   6.039   3.236
10297SOL    HW232333   3.616   5.924   3.148
10298SOL     OW32334   2.149   6.928   2.168
10298SOL    HW132335   2.061   6.920   2.130
10298SOL    HW232336   2.136   6.973   2.251
10299SOL     OW32337   1.971   6.648   3.603
10299SOL    HW132338   1.894   6.611   3.646
10299SOL    HW232339   2.044   6.595   3.633
10300SOL     OW32340   2.513   5.779   3.364
10300SOL    HW132341   2.583   5.787   3.299
10300SOL    HW232342   2.556   5.798   3.447
10301SOL     OW32343   1.904   5.919   1.942
10301SOL    HW132344   1.853   5.921   1.861
10301SOL    HW232345   1.994   5.935   1.913
10302SOL     OW32346   3.292   6.454   3.262
10302SOL    HW132347   3.271   6.518   3.194
10302SOL    HW232348   3.380   6.477   3.290
10303SOL     OW32349   1.918   5.738   2.150
10303SOL    HW132350   1.898   5.811   2.091
10303SOL    HW232351   2.005   5.708   2.123
10304SOL     OW32352   3.041   6.919   1.983
10304SOL    HW132353   2.953   6.883   1.974
10304SOL    HW232354   3.062   6.909   2.076
10305SOL     OW32355   2.499   6.401   3.307
10305SOL    HW132356   2.552   6.478   3.287
10305SOL    HW232357   2.561   6.329   3.309
10306SOL     OW32358   3.354   7.384   2.867
10306SOL    HW132359   3.373   7.444   2.795
10306SOL    HW232360   3.440   7.360   2.902
10307SOL     OW32361   2.577   6.143   3.567
10307SOL    HW132362   2.618   6.212   3.618
10307SOL    HW232363   2.595   6.063   3.616
10308SOL     OW32364   3.327   6.788   3.483
10308SOL    HW132365   3.316   6.794   3.578
10308SOL    HW232366   3.420   6.804   3.469
10309SOL     OW32367   2.221   7.315   3.435
10309SOL    HW132368   2.135   7.347   3.406
10309SOL    HW232369   2.203   7.230   3.475
10310SOL     OW32370   3.604   6.459   3.082
10310SOL    HW132371   3.556   6.378   3.066
10310SOL    HW232372   3.559   6.524   3.029
10311SOL     OW32373   3.074   5.886   2.342
10311SOL    HW132374   3.138   5.815   2.332
10311SOL    HW232375   3.109   5.939   2.414
10312SOL     OW32376   2.460   6.311   2.531
10312SOL    HW132377   2.497   6.397   2.514
10312SOL    HW232378   2.390   6.302   2.466
10313SOL     OW32379   3.631   5.935   3.503
10313SOL    HW132380   3.606   5.960   3.414
10313SOL    HW232381   3.558   5.881   3.533
10314SOL     OW32382   3.546   6.520   3.349
10314SOL    HW132383   3.611   6.554   3.412
10314SOL    HW232384   3.596   6.507   3.269
10315SOL     OW32385   2.745   6.960   1.918
10315SOL    HW132386   2.697   6.956   2.001
10315SOL    HW232387   2.725   7.047   1.883
10316SOL     OW32388   2.529   7.364   2.811
10316SOL    HW132389   2.498   7.451   2.789
10316SOL    HW232390   2.622   7.365   2.790
10317SOL     OW32391   2.734   6.561   2.733
10317SOL    HW132392   2.776   6.478   2.755
10317SOL    HW232393   2.699   6.593   2.816
10318SOL     OW32394   2.955   6.605   1.959
10318SOL    HW132395   2.926   6.638   1.874
10318SOL    HW232396   3.020   6.537   1.938
10319SOL     OW32397   3.710   7.133   2.694
10319SOL    HW132398   3.624   7.126   2.653
10319SOL    HW232399   3.707   7.070   2.766
10320SOL     OW32400   2.081   6.873   3.709
10320SOL    HW132401   2.038   6.797   3.672
10320SOL    HW232402   2.058   6.872   3.802
10321SOL     OW32403   1.963   6.820   2.522
10321SOL    HW132404   1.980   6.772   2.603
10321SOL    HW232405   2.023   6.781   2.458
10322SOL     OW32406   2.540   7.022   3.519
10322SOL    HW132407   2.459   6.972   3.530
10322SOL    HW232408   2.591   7.003   3.597
10323SOL     OW32409   3.685   5.737   3.062
10323SOL    HW132410   3.745   5.752   3.134
10323SOL    HW232411   3.636   5.659   3.087
10324SOL     OW32412   2.290   6.018   2.391
10324SOL    HW132413   2.320   5.952   2.328
10324SOL    HW232414   2.236   5.968   2.453
10325SOL     OW32415   3.564   7.059   2.950
10325SOL    HW132416   3.485   7.038   2.900
10325SOL    HW232417   3.561   7.003   3.027
10326SOL     OW32418   2.211   6.129   3.149
10326SOL    HW132419   2.259   6.051   3.175
10326SOL    HW232420   2.219   6.132   3.054
10327SOL     OW32421   2.691   7.175   2.534
10327SOL    HW132422   2.689   7.258   2.485
10327SOL    HW232423   2.615   7.127   2.502
10328SOL     OW32424   3.290   5.811   2.985
10328SOL    HW132425   3.288   5.721   3.019
10328SOL    HW232426   3.243   5.863   3.050
10329SOL     OW32427   2.868   5.605   2.990
10329SOL    HW132428   2.808   5.544   2.946
10329SOL    HW232429   2.952   5.559   2.991
10330SOL     OW32430   2.641   6.935   2.172
10330SOL    HW132431   2.590   6.854   2.173
10330SOL    HW232432   2.721   6.914   2.221
10331SOL     OW32433   2.483   7.151   3.153
10331SOL    HW132434   2.488   7.234   3.200
10331SOL    HW232435   2.569   7.141   3.114
10332SOL     OW32436   3.214   5.639   2.031
10332SOL    HW132437   3.228   5.589   1.950
10332SOL    HW232438   3.129   5.610   2.063
10333SOL     OW32439   3.181   6.044   2.544
10333SOL    HW132440   3.128   6.123   2.536
10333SOL    HW232441   3.160   6.011   2.632
10334SOL     OW32442   3.465   5.799   2.766
10334SOL    HW132443   3.395   5.808   2.831
10334SOL    HW232444   3.450   5.869   2.704
10335SOL     OW32445   1.903   6.633   2.170
10335SOL    HW132446   1.995   6.624   2.148
10335SOL    HW232447   1.876   6.545   2.197
10336SOL     OW32448   2.758   7.251   2.190
10336SOL    HW132449   2.682   7.226   2.137
10336SOL    HW232450   2.723   7.311   2.256
10337SOL     OW32451   2.084   6.228   3.841
10337SOL    HW132452   1.991   6.217   3.863
10337SOL    HW232453   2.089   6.207   3.748
10338SOL     OW32454   2.063   5.895   4.728
10338SOL    HW132455   2.090   5.848   4.808
10338SOL    HW232456   1.985   5.848   4.698
10339SOL     OW32457   1.866   5.976   4.357
10339SOL    HW132458   1.789   5.984   4.413
10339SOL    HW232459   1.850   5.897   4.305
10340SOL     OW32460   2.410   6.857   4.891
10340SOL    HW132461   2.344   6.920   4.863
10340SOL    HW232462   2.456   6.902   4.963
10341SOL     OW32463   3.441   7.107   4.431
10341SOL    HW132464   3.394   7.079   4.510
10341SOL    HW232465   3.373   7.111   4.363
10342SOL     OW32466   2.984   6.293   4.410
10342SOL    HW132467   3.038   6.372   4.402
10342SOL    HW232468   2.942   6.301   4.495
10343SOL     OW32469   3.663   6.181   3.944
10343SOL    HW132470   3.627   6.175   3.856
10343SOL    HW232471   3.621   6.110   3.992
10344SOL     OW32472   2.605   6.723   4.756
10344SOL    HW132473   2.534   6.758   4.810
10344SOL    HW232474   2.659   6.799   4.734
10345SOL     OW32475   2.773   6.345   5.560
10345SOL    HW132476   2.731   6.410   5.616
10345SOL    HW232477   2.774   6.385   5.473
10346SOL     OW32478   2.544   6.591   4.365
10346SOL    HW132479   2.613   6.577   4.430
10346SOL    HW232480   2.479   6.644   4.411
10347SOL     OW32481   2.587   6.740   5.555
10347SOL    HW132482   2.624   6.820   5.592
10347SOL    HW232483   2.508   6.769   5.509
10348SOL     OW32484   2.192   7.014   4.772
10348SOL    HW132485   2.150   6.961   4.704
10348SOL    HW232486   2.253   7.070   4.725
10349SOL     OW32487   3.312   7.121   5.053
10349SOL    HW132488   3.361   7.190   5.098
10349SOL    HW232489   3.270   7.072   5.123
10350SOL     OW32490   2.339   5.987   5.216
10350SOL    HW132491   2.407   5.919   5.212
10350SOL    HW232492   2.267   5.946   5.263
10351SOL     OW32493   3.483   6.077   4.446
10351SOL    HW132494   3.426   6.001   4.431
10351SOL    HW232495   3.497   6.077   4.541
10352SOL     OW32496   2.079   7.310   4.194
10352SOL    HW132497   2.106   7.382   4.251
10352SOL    HW232498   2.157   7.292   4.140
10353SOL     OW32499   3.012   6.919   5.426
10353SOL    HW132500   3.041   6.908   5.517
10353SOL    HW232501   2.961   6.841   5.407
10354SOL     OW32502   2.095   7.029   4.250
10354SOL    HW132503   2.076   7.121   4.267
10354SOL    HW232504   2.049   6.982   4.319
10355SOL     OW32505   2.118   6.666   4.636
10355SOL    HW132506   2.139   6.573   4.629
10355SOL    HW232507   2.107   6.681   4.730
10356SOL     OW32508   2.441   7.413   5.113
10356SOL    HW132509   2.373   7.387   5.176
10356SOL    HW232510   2.519   7.428   5.167
10357SOL     OW32511   2.431   6.573   3.872
10357SOL    HW132512   2.489   6.603   3.802
10357SOL    HW232513   2.475   6.602   3.952
10358SOL     OW32514   3.444   5.719   5.188
10358SOL    HW132515   3.489   5.792   5.147
10358SOL    HW232516   3.426   5.749   5.277
10359SOL     OW32517   1.978   6.244   4.285
10359SOL    HW132518   1.953   6.154   4.303
10359SOL    HW232519   1.976   6.287   4.371
10360SOL     OW32520   3.742   7.334   4.049
10360SOL    HW132521   3.807   7.316   4.117
10360SOL    HW232522   3.744   7.429   4.039
10361SOL     OW32523   1.900   7.177   3.843
10361SOL    HW132524   1.887   7.083   3.857
10361SOL    HW232525   1.877   7.217   3.927
10362SOL     OW32526   3.555   6.502   4.363
10362SOL    HW132527   3.632   6.452   4.336
10362SOL    HW232528   3.531   6.553   4.286
10363SOL     OW32529   3.515   6.686   4.148
10363SOL    HW132530   3.602   6.683   4.106
10363SOL    HW232531   3.523   6.755   4.214
10364SOL     OW32532   1.993   6.361   5.280
10364SOL    HW132533   2.075   6.331   5.319
10364SOL    HW232534   1.972   6.441   5.328
10365SOL     OW32535   2.473   6.977   4.449
10365SOL    HW132536   2.429   6.894   4.460
10365SOL    HW232537   2.462   6.998   4.356
10366SOL     OW32538   3.256   6.846   5.124
10366SOL    HW132539   3.221   6.773   5.073
10366SOL    HW232540   3.270   6.808   5.211
10367SOL     OW32541   2.674   5.582   4.212
10367SOL    HW132542   2.701   5.669   4.186
10367SOL    HW232543   2.583   5.592   4.240
10368SOL     OW32544   2.041   6.546   4.964
10368SOL    HW132545   2.125   6.515   4.930
10368SOL    HW232546   1.988   6.466   4.974
10369SOL     OW32547   3.384   6.590   3.928
10369SOL    HW132548   3.312   6.538   3.963
10369SOL    HW232549   3.432   6.620   4.005
10370SOL     OW32550   3.029   7.388   5.339
10370SOL    HW132551   3.063   7.443   5.269
10370SOL    HW232552   3.053   7.299   5.313
10371SOL     OW32553   3.317   7.014   4.657
10371SOL    HW132554   3.254   7.023   4.729
10371SOL    HW232555   3.305   6.924   4.626
10372SOL     OW32556   3.521   7.353   4.280
10372SOL    HW132557   3.507   7.326   4.189
10372SOL    HW232558   3.502   7.274   4.331
10373SOL     OW32559   2.444   6.284   3.987
10373SOL    HW132560   2.456   6.372   3.952
10373SOL    HW232561   2.382   6.295   4.059
10374SOL     OW32562   3.155   5.957   4.650
10374SOL    HW132563   3.081   5.905   4.683
10374SOL    HW232564   3.226   5.893   4.638
10375SOL     OW32565   2.628   6.187   5.169
10375SOL    HW132566   2.629   6.162   5.261
10375SOL    HW232567   2.658   6.108   5.122
10376SOL     OW32568   3.270   6.056   5.397
10376SOL    HW132569   3.285   6.094   5.483
10376SOL    HW232570   3.314   5.971   5.401
10377SOL     OW32571   2.802   6.460   5.309
10377SOL    HW132572   2.856   6.392   5.269
10377SOL    HW232573   2.762   6.505   5.234
10378SOL     OW32574   2.820   5.997   4.967
10378SOL    HW132575   2.803   5.916   5.014
10378SOL    HW232576   2.838   5.969   4.877
10379SOL     OW32577   2.923   6.297   4.140
10379SOL    HW132578   2.941   6.290   4.234
10379SOL    HW232579   2.840   6.250   4.128
10380SOL     OW32580   1.961   6.405   4.509
10380SOL    HW132581   2.036   6.388   4.567
10380SOL    HW232582   1.918   6.481   4.548
10381SOL     OW32583   1.962   7.410   5.309
10381SOL    HW132584   1.975   7.392   5.402
10381SOL    HW232585   1.877   7.453   5.304
10382SOL     OW32586   2.705   5.936   3.832
10382SOL    HW132587   2.779   5.995   3.817
10382SOL    HW232588   2.714   5.910   3.924
10383SOL     OW32589   3.571   6.169   5.567
10383SOL    HW132590   3.532   6.238   5.513
10383SOL    HW232591   3.591   6.098   5.506
10384SOL     OW32592   3.249   6.730   4.263
10384SOL    HW132593   3.330   6.716   4.214
10384SOL    HW232594   3.199   6.791   4.209
10385SOL     OW32595   2.404   5.756   4.623
10385SOL    HW132596   2.411   5.779   4.716
10385SOL    HW232597   2.417   5.839   4.576
10386SOL     OW32598   2.858   7.016   4.188
10386SOL    HW132599   2.831   7.100   4.151
10386SOL    HW232600   2.851   7.028   4.283
10387SOL     OW32601   2.216   7.399   4.595
10387SOL    HW132602   2.265   7.316   4.600
10387SOL    HW232603   2.280   7.465   4.622
10388SOL     OW32604   3.674   6.642   4.566
10388SOL    HW132605   3.613   6.605   4.503
10388SOL    HW232606   3.619   6.664   4.642
10389SOL     OW32607   3.081   7.126   5.251
10389SOL    HW132608   3.082   7.050   5.309
10389SOL    HW232609   3.029   7.099   5.176
10390SOL     OW32610   2.168   6.547   3.982
10390SOL    HW132611   2.254   6.560   3.942
10390SOL    HW232612   2.142   6.459   3.954
10391SOL     OW32613   3.329   6.354   4.462
10391SOL    HW132614   3.332   6.286   4.530
10391SOL    HW232615   3.419   6.386   4.456
10392SOL     OW32616   2.352   6.831   5.446
10392SOL    HW132617   2.296   6.845   5.370
10392SOL    HW232618   2.299   6.860   5.520
10393SOL     OW32619   2.955   7.395   3.933
10393SOL    HW132620   2.911   7.353   4.007
10393SOL    HW232621   2.980   7.322   3.876
10394SOL     OW32622   2.059   5.867   5.216
10394SOL    HW132623   1.964   5.874   5.220
10394SOL    HW232624   2.085   5.847   5.306
10395SOL     OW32625   3.499   6.958   3.793
10395SOL    HW132626   3.449   7.039   3.803
10395SOL    HW232627   3.433   6.890   3.778
10396SOL     OW32628   2.321   7.322   4.046
10396SOL    HW132629   2.367   7.375   4.111
10396SOL    HW232630   2.390   7.288   3.989
10397SOL     OW32631   3.307   5.625   4.186
10397SOL    HW132632   3.340   5.553   4.133
10397SOL    HW232633   3.364   5.626   4.263
10398SOL     OW32634   2.131   7.378   4.972
10398SOL    HW132635   2.182   7.346   5.047
10398SOL    HW232636   2.160   7.324   4.899
10399SOL     OW32637   2.800   7.287   4.607
10399SOL    HW132638   2.869   7.233   4.646
10399SOL    HW232639   2.765   7.233   4.536
10400SOL     OW32640   2.253   6.283   4.194
10400SOL    HW132641   2.272   6.190   4.209
10400SOL    HW232642   2.160   6.291   4.211
10401SOL     OW32643   3.387   5.802   5.454
10401SOL    HW132644   3.401   5.833   5.543
10401SOL    HW232645   3.338   5.720   5.464
10402SOL     OW32646   2.489   5.691   3.852
10402SOL    HW132647   2.579   5.714   3.874
10402SOL    HW232648   2.488   5.685   3.757
10403SOL     OW32649   2.621   5.871   5.481
10403SOL    HW132650   2.702   5.820   5.474
10403SOL    HW232651   2.573   5.829   5.552
10404SOL     OW32652   2.684   7.162   4.856
10404SOL    HW132653   2.677   7.099   4.784
10404SOL    HW232654   2.748   7.124   4.915
10405SOL     OW32655   3.205   6.198   5.169
10405SOL    HW132656   3.248   6.156   5.243
10405SOL    HW232657   3.261   6.273   5.147
10406SOL     OW32658   2.670   6.979   4.655
10406SOL    HW132659   2.759   6.962   4.624
10406SOL    HW232660   2.615   6.967   4.578
10407SOL     OW32661   2.799   6.085   4.631
10407SOL    HW132662   2.773   6.077   4.540
10407SOL    HW232663   2.833   5.999   4.654
10408SOL     OW32664   2.404   5.644   4.225
10408SOL    HW132665   2.325   5.648   4.280
10408SOL    HW232666   2.405   5.728   4.179
10409SOL     OW32667   3.294   6.780   3.753
10409SOL    HW132668   3.321   6.708   3.809
10409SOL    HW232669   3.211   6.810   3.790
10410SOL     OW32670   2.169   5.638   3.916
10410SOL    HW132671   2.227   5.712   3.933
10410SOL    HW232672   2.212   5.564   3.959
10411SOL     OW32673   2.943   6.257   5.191
10411SOL    HW132674   2.905   6.169   5.183
10411SOL    HW232675   3.037   6.243   5.186
10412SOL     OW32676   3.075   7.151   4.517
10412SOL    HW132677   3.097   7.225   4.462
10412SOL    HW232678   3.147   7.145   4.580
10413SOL     OW32679   2.323   6.745   4.455
10413SOL    HW132680   2.262   6.719   4.524
10413SOL    HW232681   2.277   6.727   4.374
10414SOL     OW32682   3.123   7.378   4.343
10414SOL    HW132683   3.172   7.439   4.287
10414SOL    HW232684   3.055   7.432   4.383
10415SOL     OW32685   2.896   6.119   3.746
10415SOL    HW132686   2.850   6.202   3.735
10415SOL    HW232687   2.953   6.133   3.822
10416SOL     OW32688   1.941   6.166   5.104
10416SOL    HW132689   2.031   6.141   5.086
10416SOL    HW232690   1.948   6.237   5.167
10417SOL     OW32691   2.421   5.791   4.896
10417SOL    HW132692   2.462   5.719   4.944
10417SOL    HW232693   2.330   5.790   4.925
10418SOL     OW32694   2.721   6.056   4.374
10418SOL    HW132695   2.684   6.124   4.318
10418SOL    HW232696   2.734   5.981   4.317
10419SOL     OW32697   2.873   5.647   4.481
10419SOL    HW132698   2.822   5.646   4.400
10419SOL    HW232699   2.847   5.568   4.528
10420SOL     OW32700   3.272   6.763   4.553
10420SOL    HW132701   3.234   6.680   4.582
10420SOL    HW232702   3.273   6.757   4.457
10421SOL     OW32703   3.308   6.192   4.696
10421SOL    HW132704   3.257   6.111   4.685
10421SOL    HW232705   3.367   6.173   4.769
10422SOL     OW32706   3.698   6.395   4.112
10422SOL    HW132707   3.757   6.346   4.170
10422SOL    HW232708   3.677   6.333   4.042
10423SOL     OW32709   2.339   7.012   3.865
10423SOL    HW132710   2.262   6.982   3.914
10423SOL    HW232711   2.343   6.952   3.790
10424SOL     OW32712   3.548   6.867   4.337
10424SOL    HW132713   3.639   6.864   4.368
10424SOL    HW232714   3.512   6.948   4.374
10425SOL     OW32715   3.260   6.165   3.795
10425SOL    HW132716   3.197   6.146   3.865
10425SOL    HW232717   3.344   6.170   3.839
10426SOL     OW32718   2.349   5.845   4.033
10426SOL    HW132719   2.416   5.799   3.982
10426SOL    HW232720   2.336   5.928   3.987
10427SOL     OW32721   3.617   6.809   5.326
10427SOL    HW132722   3.707   6.776   5.327
10427SOL    HW232723   3.626   6.903   5.342
10428SOL     OW32724   3.471   7.215   5.406
10428SOL    HW132725   3.458   7.253   5.319
10428SOL    HW232726   3.550   7.162   5.397
10429SOL     OW32727   2.956   6.779   4.842
10429SOL    HW132728   2.929   6.844   4.907
10429SOL    HW232729   2.954   6.826   4.759
10430SOL     OW32730   3.515   6.759   4.755
10430SOL    HW132731   3.538   6.705   4.831
10430SOL    HW232732   3.421   6.742   4.741
10431SOL     OW32733   2.775   5.748   5.083
10431SOL    HW132734   2.795   5.688   5.011
10431SOL    HW232735   2.855   5.749   5.136
10432SOL     OW32736   2.846   6.692   5.455
10432SOL    HW132737   2.755   6.713   5.477
10432SOL    HW232738   2.840   6.618   5.395
10433SOL     OW32739   2.575   6.653   4.096
10433SOL    HW132740   2.562   6.632   4.188
10433SOL    HW232741   2.648   6.597   4.069
10434SOL     OW32742   3.135   5.976   5.022
10434SOL    HW132743   3.172   6.053   5.063
10434SOL    HW232744   3.072   6.010   4.958
10435SOL     OW32745   1.943   7.161   5.074
10435SOL    HW132746   1.943   7.257   5.078
10435SOL    HW232747   2.036   7.137   5.069
10436SOL     OW32748   2.180   6.705   4.222
10436SOL    HW132749   2.200   6.771   4.155
10436SOL    HW232750   2.178   6.622   4.174
10437SOL     OW32751   2.415   6.120   4.581
10437SOL    HW132752   2.425   6.179   4.507
10437SOL    HW232753   2.485   6.145   4.641
10438SOL     OW32754   3.113   6.935   4.114
10438SOL    HW132755   3.167   7.005   4.150
10438SOL    HW232756   3.025   6.953   4.146
10439SOL     OW32757   3.140   7.059   4.859
10439SOL    HW132758   3.205   7.071   4.927
10439SOL    HW232759   3.060   7.033   4.906
10440SOL     OW32760   3.438   6.217   4.182
10440SOL    HW132761   3.408   6.212   4.273
10440SOL    HW232762   3.484   6.301   4.177
10441SOL     OW32763   2.198   7.086   5.032
10441SOL    HW132764   2.190   7.056   4.942
10441SOL    HW232765   2.290   7.112   5.040
10442SOL     OW32766   2.286   6.323   5.323
10442SOL    HW132767   2.363   6.369   5.291
10442SOL    HW232768   2.321   6.251   5.375
10443SOL     OW32769   3.459   6.368   5.423
10443SOL    HW132770   3.373   6.407   5.406
10443SOL    HW232771   3.515   6.404   5.355
10444SOL     OW32772   2.837   5.711   5.462
10444SOL    HW132773   2.918   5.762   5.472
10444SOL    HW232774   2.867   5.625   5.433
10445SOL     OW32775   2.371   5.621   5.471
10445SOL    HW132776   2.325   5.563   5.410
10445SOL    HW232777   2.313   5.696   5.481
10446SOL     OW32778   2.421   6.503   4.771
10446SOL    HW132779   2.481   6.552   4.715
10446SOL    HW232780   2.443   6.530   4.860
10447SOL     OW32781   3.212   6.460   4.745
10447SOL    HW132782   3.138   6.427   4.694
10447SOL    HW232783   3.274   6.386   4.748
10448SOL     OW32784   3.062   6.122   3.979
10448SOL    HW132785   3.080   6.047   4.035
10448SOL    HW232786   3.017   6.184   4.036
10449SOL     OW32787   2.157   5.788   4.973
10449SOL    HW132788   2.120   5.813   5.057
10449SOL    HW232789   2.143   5.694   4.967
10450SOL     OW32790   1.890   6.903   4.984
10450SOL    HW132791   1.921   6.840   5.049
10450SOL    HW232792   1.911   6.988   5.023
10451SOL     OW32793   2.601   6.213   4.763
10451SOL    HW132794   2.677   6.172   4.721
10451SOL    HW232795   2.611   6.306   4.745
10452SOL     OW32796   3.602   6.545   5.588
10452SOL    HW132797   3.560   6.478   5.534
10452SOL    HW232798   3.537   6.565   5.656
10453SOL     OW32799   2.160   5.648   4.353
10453SOL    HW132800   2.139   5.739   4.376
10453SOL    HW232801   2.173   5.604   4.437
10454SOL     OW32802   3.477   5.972   4.078
10454SOL    HW132803   3.531   5.921   4.138
10454SOL    HW232804   3.461   6.055   4.122
10455SOL     OW32805   2.880   6.343   4.673
10455SOL    HW132806   2.884   6.359   4.768
10455SOL    HW232807   2.866   6.249   4.665
10456SOL     OW32808   2.847   7.137   5.455
10456SOL    HW132809   2.814   7.184   5.378
10456SOL    HW232810   2.899   7.065   5.419
10457SOL     OW32811   3.705   7.083   5.337
10457SOL    HW132812   3.726   7.095   5.244
10457SOL    HW232813   3.791   7.082   5.380
10458SOL     OW32814   2.207   6.512   5.521
10458SOL    HW132815   2.285   6.530   5.574
10458SOL    HW232816   2.235   6.444   5.460
10459SOL     OW32817   3.131   6.405   3.751
10459SOL    HW132818   3.177   6.321   3.755
10459SOL    HW232819   3.166   6.448   3.672
10460SOL     OW32820   2.918   6.924   4.573
10460SOL    HW132821   2.933   6.849   4.515
10460SOL    HW232822   2.983   6.988   4.545
10461SOL     OW32823   2.179   6.400   4.689
10461SOL    HW132824   2.269   6.424   4.707
10461SOL    HW232825   2.176   6.305   4.704
10462SOL     OW32826   2.196   6.127   4.732
10462SOL    HW132827   2.151   6.043   4.720
10462SOL    HW232828   2.273   6.121   4.675
10463SOL     OW32829   3.009   5.985   5.417
10463SOL    HW132830   3.022   5.938   5.499
10463SOL    HW232831   3.097   6.014   5.392
10464SOL     OW32832   3.018   5.796   5.198
10464SOL    HW132833   3.013   5.861   5.268
10464SOL    HW232834   3.072   5.837   5.131
10465SOL     OW32835   1.859   6.904   3.917
10465SOL    HW132836   1.774   6.916   3.875
10465SOL    HW232837   1.858   6.815   3.952
10466SOL     OW32838   1.947   7.376   4.652
10466SOL    HW132839   1.917   7.288   4.627
10466SOL    HW232840   2.040   7.376   4.632
10467SOL     OW32841   2.360   7.164   4.623
10467SOL    HW132842   2.429   7.225   4.649
10467SOL    HW232843   2.404   7.100   4.567
10468SOL     OW32844   2.844   6.360   4.944
10468SOL    HW132845   2.910   6.356   5.013
10468SOL    HW232846   2.776   6.299   4.972
10469SOL     OW32847   1.891   6.153   4.829
10469SOL    HW132848   1.943   6.086   4.784
10469SOL    HW232849   1.920   6.149   4.920
10470SOL     OW32850   2.077   6.129   5.456
10470SOL    HW132851   2.118   6.045   5.476
10470SOL    HW232852   2.003   6.106   5.399
10471SOL     OW32853   3.227   6.508   5.376
10471SOL    HW132854   3.259   6.598   5.380
10471SOL    HW232855   3.235   6.484   5.284
10472SOL     OW32856   2.691   6.171   4.090
10472SOL    HW132857   2.694   6.076   4.093
10472SOL    HW232858   2.606   6.190   4.048
10473SOL     OW32859   3.483   6.141   4.898
10473SOL    HW132860   3.498   6.087   4.976
10473SOL    HW232861   3.570   6.164   4.867
10474SOL     OW32862   2.092   7.134   5.442
10474SOL    HW132863   2.110   7.194   5.514
10474SOL    HW232864   2.106   7.047   5.480
10475SOL     OW32865   2.493   6.050   4.953
10475SOL    HW132866   2.485   5.958   4.929
10475SOL    HW232867   2.543   6.090   4.882
10476SOL     OW32868   2.752   7.257   5.221
10476SOL    HW132869   2.778   7.184   5.165
10476SOL    HW232870   2.805   7.331   5.192
10477SOL     OW32871   2.307   6.069   3.877
10477SOL    HW132872   2.374   6.131   3.906
10477SOL    HW232873   2.226   6.119   3.876
10478SOL     OW32874   1.986   6.720   5.172
10478SOL    HW132875   1.998   6.678   5.257
10478SOL    HW232876   2.012   6.654   5.109
10479SOL     OW32877   3.165   6.631   4.953
10479SOL    HW132878   3.190   6.573   4.881
10479SOL    HW232879   3.090   6.680   4.920
10480SOL     OW32880   3.165   6.457   4.025
10480SOL    HW132881   3.105   6.412   4.084
10480SOL    HW232882   3.139   6.429   3.938
10481SOL     OW32883   3.090   7.333   4.830
10481SOL    HW132884   3.172   7.355   4.785
10481SOL    HW232885   3.099   7.240   4.852
10482SOL     OW32886   1.885   6.881   4.706
10482SOL    HW132887   1.937   6.867   4.786
10482SOL    HW232888   1.884   6.796   4.663
10483SOL     OW32889   2.519   7.264   5.396
10483SOL    HW132890   2.534   7.263   5.490
10483SOL    HW232891   2.606   7.268   5.357
10484SOL     OW32892   3.597   5.766   4.217
10484SOL    HW132893   3.668   5.729   4.165
10484SOL    HW232894   3.571   5.696   4.276
10485SOL     OW32895   3.250   7.153   4.227
10485SOL    HW132896   3.288   7.190   4.147
10485SOL    HW232897   3.197   7.224   4.264
10486SOL     OW32898   1.992   7.379   5.579
10486SOL    HW132899   1.942   7.321   5.637
10486SOL    HW232900   2.050   7.427   5.638
10487SOL     OW32901   3.133   6.520   4.392
10487SOL    HW132902   3.205   6.462   4.416
10487SOL    HW232903   3.173   6.587   4.336
10488SOL     OW32904   2.643   6.851   5.138
10488SOL    HW132905   2.611   6.897   5.216
10488SOL    HW232906   2.718   6.903   5.109
10489SOL     OW32907   2.525   7.202   3.895
10489SOL    HW132908   2.597   7.166   3.844
10489SOL    HW232909   2.455   7.138   3.887
10490SOL     OW32910   3.476   7.323   5.152
10490SOL    HW132911   3.542   7.319   5.083
10490SOL    HW232912   3.457   7.416   5.163
10491SOL     OW32913   3.687   5.766   4.679
10491SOL    HW132914   3.719   5.678   4.663
10491SOL    HW232915   3.603   5.770   4.633
10492SOL     OW32916   2.119   5.903   4.445
10492SOL    HW132917   2.032   5.934   4.420
10492SOL    HW232918   2.115   5.896   4.541
10493SOL     OW32919   3.021   7.193   3.762
10493SOL    HW132920   3.103   7.151   3.785
10493SOL    HW232921   3.040   7.243   3.683
10494SOL     OW32922   2.690   6.591   5.092
10494SOL    HW132923   2.750   6.590   5.017
10494SOL    HW232924   2.673   6.683   5.107
10495SOL     OW32925   2.776   6.500   4.004
10495SOL    HW132926   2.840   6.534   3.942
10495SOL    HW232927   2.823   6.434   4.054
10496SOL     OW32928   3.298   7.164   3.731
10496SOL    HW132929   3.320   7.213   3.809
10496SOL    HW232930   3.353   7.202   3.662
10497SOL     OW32931   2.200   6.891   5.231
10497SOL    HW132932   2.204   6.961   5.166
10497SOL    HW232933   2.128   6.836   5.202
10498SOL     OW32934   3.523   6.907   5.053
10498SOL    HW132935   3.540   6.819   5.088
10498SOL    HW232936   3.429   6.920   5.065
10499SOL     OW32937   2.919   6.693   4.429
10499SOL    HW132938   2.850   6.639   4.468
10499SOL    HW232939   2.990   6.631   4.411
10500SOL     OW32940   2.886   5.831   4.702
10500SOL    HW132941   2.888   5.785   4.618
10500SOL    HW232942   2.887   5.761   4.767
10501SOL     OW32943   2.468   7.059   4.188
10501SOL    HW132944   2.524   7.011   4.127
10501SOL    HW232945   2.396   7.090   4.134
10502SOL     OW32946   3.597   5.972   5.116
10502SOL    HW132947   3.669   6.035   5.113
10502SOL    HW232948   3.624   5.901   5.057
10503SOL     OW32949   2.117   6.930   4.004
10503SOL    HW132950   2.024   6.923   3.984
10503SOL    HW232951   2.120   6.967   4.093
10504SOL     OW32952   1.975   6.611   5.423
10504SOL    HW132953   1.905   6.599   5.487
10504SOL    HW232954   2.054   6.582   5.469
10505SOL     OW32955   2.540   5.798   5.220
10505SOL    HW132956   2.623   5.781   5.174
10505SOL    HW232957   2.566   5.814   5.310
10506SOL     OW32958   1.958   5.879   3.774
10506SOL    HW132959   1.901   5.816   3.731
10506SOL    HW232960   1.913   5.963   3.763
10507SOL     OW32961   3.311   6.455   5.115
10507SOL    HW132962   3.259   6.514   5.061
10507SOL    HW232963   3.400   6.461   5.079
10508SOL     OW32964   1.926   5.732   4.024
10508SOL    HW132965   1.915   5.808   3.966
10508SOL    HW232966   2.015   5.701   4.005
10509SOL     OW32967   3.049   6.870   3.849
10509SOL    HW132968   2.998   6.792   3.871
10509SOL    HW232969   3.076   6.905   3.934
10510SOL     OW32970   2.487   6.413   5.155
10510SOL    HW132971   2.528   6.497   5.136
10510SOL    HW232972   2.561   6.353   5.166
10511SOL     OW32973   3.328   7.368   4.697
10511SOL    HW132974   3.368   7.429   4.635
10511SOL    HW232975   3.391   7.297   4.706
10512SOL     OW32976   2.584   6.139   5.429
10512SOL    HW132977   2.620   6.183   5.506
10512SOL    HW232978   2.588   6.045   5.450
10513SOL     OW32979   3.348   6.755   5.370
10513SOL    HW132980   3.332   6.780   5.461
10513SOL    HW232981   3.441   6.773   5.356
10514SOL     OW32982   2.223   7.334   5.263
10514SOL    HW132983   2.132   7.359   5.278
10514SOL    HW232984   2.233   7.251   5.310
10515SOL     OW32985   3.142   5.916   4.155
10515SOL    HW132986   3.068   5.860   4.179
10515SOL    HW232987   3.159   5.968   4.233
10516SOL     OW32988   2.439   6.329   4.399
10516SOL    HW132989   2.484   6.411   4.379
10516SOL    HW232990   2.376   6.317   4.327
10517SOL     OW32991   3.606   5.961   5.397
10517SOL    HW132992   3.616   5.966   5.302
10517SOL    HW232993   3.540   5.893   5.410
10518SOL     OW32994   3.613   6.513   5.261
10518SOL    HW132995   3.607   6.604   5.288
10518SOL    HW232996   3.613   6.516   5.165
10519SOL     OW32997   2.673   6.989   3.767
10519SOL    HW132998   2.664   6.962   3.859
10519SOL    HW232999   2.766   7.012   3.758
10520SOL     OW33000   2.532   7.374   4.658
10520SOL    HW133001   2.549   7.468   4.671
10520SOL    HW233002   2.618   7.333   4.664
10521SOL     OW33003   2.725   6.551   4.572
10521SOL    HW133004   2.781   6.481   4.607
10521SOL    HW233005   2.702   6.604   4.648
10522SOL     OW33006   2.938   6.590   3.804
10522SOL    HW133007   2.921   6.631   3.719
10522SOL    HW233008   3.006   6.525   3.786
10523SOL     OW33009   3.709   7.108   4.573
10523SOL    HW133010   3.628   7.112   4.523
10523SOL    HW233011   3.731   7.015   4.576
10524SOL     OW33012   2.094   6.896   5.575
10524SOL    HW133013   2.047   6.813   5.568
10524SOL    HW233014   2.127   6.897   5.665
10525SOL     OW33015   1.970   6.818   4.394
10525SOL    HW133016   1.976   6.760   4.469
10525SOL    HW233017   2.025   6.777   4.327
10526SOL     OW33018   2.552   6.990   5.354
10526SOL    HW133019   2.479   6.942   5.392
10526SOL    HW233020   2.530   7.082   5.370
10527SOL     OW33021   3.667   5.771   4.955
10527SOL    HW133022   3.727   5.701   4.978
10527SOL    HW233023   3.663   5.769   4.859
10528SOL     OW33024   2.281   6.023   4.247
10528SOL    HW133025   2.312   5.952   4.191
10528SOL    HW233026   2.239   5.979   4.320
10529SOL     OW33027   3.540   7.075   4.831
10529SOL    HW133028   3.472   7.045   4.771
10529SOL    HW233029   3.523   7.026   4.912
10530SOL     OW33030   2.190   6.117   5.005
10530SOL    HW133031   2.206   6.027   5.030
10530SOL    HW233032   2.194   6.116   4.909
10531SOL     OW33033   2.685   7.161   4.396
10531SOL    HW133034   2.660   7.207   4.315
10531SOL    HW233035   2.614   7.099   4.411
10532SOL     OW33036   3.223   5.758   4.868
10532SOL    HW133037   3.317   5.747   4.855
10532SOL    HW233038   3.216   5.833   4.928
10533SOL     OW33039   2.866   5.602   4.864
10533SOL    HW133040   2.816   5.536   4.815
10533SOL    HW233041   2.956   5.571   4.862
10534SOL     OW33042   2.651   6.911   4.029
10534SOL    HW133043   2.626   6.822   4.052
10534SOL    HW233044   2.727   6.929   4.084
10535SOL     OW33045   2.453   7.160   5.000
10535SOL    HW133046   2.463   7.244   5.046
10535SOL    HW233047   2.535   7.150   4.951
10536SOL     OW33048   3.247   5.667   3.866
10536SOL    HW133049   3.289   5.589   3.831
10536SOL    HW233050   3.158   5.639   3.888
10537SOL     OW33051   3.149   6.054   4.385
10537SOL    HW133052   3.097   6.132   4.402
10537SOL    HW233053   3.161   6.014   4.471
10538SOL     OW33054   1.906   6.654   4.031
10538SOL    HW133055   1.999   6.643   4.009
10538SOL    HW233056   1.877   6.566   4.055
10539SOL     OW33057   2.744   7.242   4.082
10539SOL    HW133058   2.666   7.232   4.028
10539SOL    HW233059   2.727   7.319   4.135
10540SOL     OW33060   2.097   6.229   5.711
10540SOL    HW133061   2.018   6.191   5.749
10540SOL    HW233062   2.093   6.205   5.618
10541SOL     OW33063   2.108   5.844   6.572
10541SOL    HW133064   2.129   5.815   6.661
10541SOL    HW233065   2.016   5.822   6.560
10542SOL     OW33066   1.882   5.939   6.236
10542SOL    HW133067   1.877   6.033   6.221
10542SOL    HW233068   1.796   5.906   6.210
10543SOL     OW33069   2.429   6.878   6.768
10543SOL    HW133070   2.346   6.893   6.721
10543SOL    HW233071   2.450   6.962   6.807
10544SOL     OW33072   3.426   7.106   6.288
10544SOL    HW133073   3.376   7.076   6.364
10544SOL    HW233074   3.362   7.108   6.217
10545SOL     OW33075   2.992   6.290   6.283
10545SOL    HW133076   3.040   6.373   6.275
10545SOL    HW233077   2.943   6.299   6.365
10546SOL     OW33078   3.640   6.178   5.823
10546SOL    HW133079   3.611   6.177   5.732
10546SOL    HW233080   3.602   6.099   5.862
10547SOL     OW33081   2.647   6.743   6.653
10547SOL    HW133082   2.569   6.762   6.706
10547SOL    HW233083   2.657   6.819   6.597
10548SOL     OW33084   2.713   6.354   7.420
10548SOL    HW133085   2.656   6.412   7.471
10548SOL    HW233086   2.738   6.406   7.344
10549SOL     OW33087   2.546   6.583   6.232
10549SOL    HW133088   2.612   6.575   6.300
10549SOL    HW233089   2.479   6.640   6.270
10550SOL     OW33090   2.593   6.745   7.401
10550SOL    HW133091   2.629   6.828   7.434
10550SOL    HW233092   2.507   6.770   7.366
10551SOL     OW33093   2.205   6.985   6.646
10551SOL    HW133094   2.120   6.960   6.610
10551SOL    HW233095   2.239   7.051   6.585
10552SOL     OW33096   3.270   7.071   6.913
10552SOL    HW133097   3.338   7.138   6.910
10552SOL    HW233098   3.215   7.097   6.987
10553SOL     OW33099   2.329   5.953   7.015
10553SOL    HW133100   2.390   5.961   7.088
10553SOL    HW233101   2.246   5.930   7.055
10554SOL     OW33102   3.469   6.038   6.331
10554SOL    HW133103   3.404   6.055   6.262
10554SOL    HW233104   3.437   6.088   6.406
10555SOL     OW33105   2.087   7.329   6.057
10555SOL    HW133106   2.115   7.398   6.118
10555SOL    HW233107   2.168   7.301   6.014
10556SOL     OW33108   2.999   6.923   7.272
10556SOL    HW133109   3.038   6.924   7.359
10556SOL    HW233110   2.944   6.844   7.272
10557SOL     OW33111   2.066   7.033   6.120
10557SOL    HW133112   2.074   7.108   6.179
10557SOL    HW233113   2.026   6.964   6.173
10558SOL     OW33114   2.139   6.662   6.523
10558SOL    HW133115   2.090   6.589   6.486
10558SOL    HW233116   2.073   6.728   6.546
10559SOL     OW33117   2.485   7.359   7.034
10559SOL    HW133118   2.395   7.348   7.066
10559SOL    HW233119   2.502   7.453   7.042
10560SOL     OW33120   2.430   6.574   5.723
10560SOL    HW133121   2.479   6.623   5.657
10560SOL    HW233122   2.468   6.602   5.807
10561SOL     OW33123   3.449   5.715   7.051
10561SOL    HW133124   3.475   5.799   7.012
10561SOL    HW233125   3.428   5.736   7.142
10562SOL     OW33126   3.703   7.339   5.910
10562SOL    HW133127   3.776   7.314   5.966
10562SOL    HW233128   3.720   7.430   5.886
10563SOL     OW33129   1.867   7.197   5.762
10563SOL    HW133130   1.914   7.114   5.755
10563SOL    HW233131   1.776   7.174   5.744
10564SOL     OW33132   3.573   6.513   6.232
10564SOL    HW133133   3.634   6.453   6.189
10564SOL    HW233134   3.537   6.565   6.161
10565SOL     OW33135   3.508   6.690   6.016
10565SOL    HW133136   3.594   6.689   5.973
10565SOL    HW233137   3.516   6.758   6.083
10566SOL     OW33138   1.969   6.351   7.182
10566SOL    HW133139   2.042   6.401   7.219
10566SOL    HW233140   1.901   6.417   7.165
10567SOL     OW33141   2.474   6.976   6.328
10567SOL    HW133142   2.429   6.892   6.334
10567SOL    HW233143   2.458   7.006   6.238
10568SOL     OW33144   3.182   6.780   7.019
10568SOL    HW133145   3.209   6.691   6.994
10568SOL    HW233146   3.227   6.796   7.102
10569SOL     OW33147   2.689   5.618   6.132
10569SOL    HW133148   2.727   5.697   6.094
10569SOL    HW233149   2.595   5.627   6.116
10570SOL     OW33150   2.050   6.555   6.840
10570SOL    HW133151   2.105   6.482   6.868
10570SOL    HW233152   1.968   6.515   6.812
10571SOL     OW33153   3.386   6.588   5.789
10571SOL    HW133154   3.319   6.531   5.827
10571SOL    HW233155   3.435   6.621   5.865
10572SOL     OW33156   3.078   7.410   7.213
10572SOL    HW133157   3.055   7.450   7.130
10572SOL    HW233158   3.085   7.317   7.193
10573SOL     OW33159   2.216   5.837   7.421
10573SOL    HW133160   2.258   5.912   7.461
10573SOL    HW233161   2.123   5.851   7.434
10574SOL     OW33162   3.292   7.012   6.519
10574SOL    HW133163   3.358   7.017   6.588
10574SOL    HW233164   3.289   6.919   6.496
10575SOL     OW33165   3.517   7.343   6.163
10575SOL    HW133166   3.504   7.312   6.073
10575SOL    HW233167   3.493   7.269   6.218
10576SOL     OW33168   2.459   6.311   5.863
10576SOL    HW133169   2.456   6.395   5.817
10576SOL    HW233170   2.393   6.319   5.932
10577SOL     OW33171   3.133   5.956   6.517
10577SOL    HW133172   3.046   5.917   6.529
10577SOL    HW233173   3.191   5.904   6.572
10578SOL     OW33174   3.444   7.254   5.898
10578SOL    HW133175   3.537   7.272   5.889
10578SOL    HW233176   3.413   7.240   5.809
10579SOL     OW33177   2.636   6.218   7.025
10579SOL    HW133178   2.625   6.196   7.118
10579SOL    HW233179   2.630   6.134   6.980
10580SOL     OW33180   3.243   6.041   7.281
10580SOL    HW133181   3.253   6.086   7.364
10580SOL    HW233182   3.299   5.964   7.288
10581SOL     OW33183   2.811   6.467   7.183
10581SOL    HW133184   2.864   6.395   7.149
10581SOL    HW233185   2.769   6.505   7.106
10582SOL     OW33186   2.853   5.995   6.801
10582SOL    HW133187   2.762   5.993   6.831
10582SOL    HW233188   2.853   5.943   6.721
10583SOL     OW33189   2.912   6.304   6.019
10583SOL    HW133190   2.931   6.288   6.111
10583SOL    HW233191   2.835   6.250   6.000
10584SOL     OW33192   1.995   6.433   6.440
10584SOL    HW133193   1.977   6.370   6.370
10584SOL    HW233194   1.923   6.495   6.435
10585SOL     OW33195   1.991   7.472   7.171
10585SOL    HW133196   1.990   7.441   7.261
10585SOL    HW233197   1.933   7.412   7.124
10586SOL     OW33198   2.775   5.910   5.784
10586SOL    HW133199   2.864   5.889   5.757
10586SOL    HW233200   2.720   5.844   5.743
10587SOL     OW33201   3.613   6.175   7.418
10587SOL    HW133202   3.562   6.241   7.372
10587SOL    HW233203   3.610   6.098   7.361
10588SOL     OW33204   3.247   6.727   6.123
10588SOL    HW133205   3.325   6.712   6.071
10588SOL    HW233206   3.192   6.783   6.068
10589SOL     OW33207   2.393   5.764   6.481
10589SOL    HW133208   2.319   5.818   6.509
10589SOL    HW233209   2.442   5.820   6.421
10590SOL     OW33210   2.893   7.064   6.082
10590SOL    HW133211   2.849   7.120   6.018
10590SOL    HW233212   2.830   7.056   6.154
10591SOL     OW33213   2.194   7.393   6.450
10591SOL    HW133214   2.251   7.318   6.467
10591SOL    HW233215   2.231   7.463   6.503
10592SOL     OW33216   3.673   6.651   6.455
10592SOL    HW133217   3.630   6.615   6.378
10592SOL    HW233218   3.606   6.650   6.523
10593SOL     OW33219   3.089   7.138   7.106
10593SOL    HW133220   3.074   7.065   7.167
10593SOL    HW233221   3.002   7.157   7.071
10594SOL     OW33222   2.170   6.548   5.840
10594SOL    HW133223   2.253   6.566   5.794
10594SOL    HW233224   2.147   6.459   5.814
10595SOL     OW33225   3.340   6.359   6.323
10595SOL    HW133226   3.340   6.294   6.393
10595SOL    HW233227   3.430   6.390   6.319
10596SOL     OW33228   2.339   6.839   7.328
10596SOL    HW133229   2.299   6.869   7.246
10596SOL    HW233230   2.303   6.751   7.341
10597SOL     OW33231   3.003   7.352   5.859
10597SOL    HW133232   2.916   7.320   5.882
10597SOL    HW233233   3.027   7.300   5.782
10598SOL     OW33234   2.075   5.868   7.081
10598SOL    HW133235   2.010   5.937   7.098
10598SOL    HW233236   2.049   5.796   7.138
10599SOL     OW33237   3.478   6.987   5.690
10599SOL    HW133238   3.442   7.065   5.647
10599SOL    HW233239   3.420   6.916   5.664
10600SOL     OW33240   2.320   7.309   5.920
10600SOL    HW133241   2.368   7.371   5.976
10600SOL    HW233242   2.384   7.282   5.854
10601SOL     OW33243   3.245   5.692   6.004
10601SOL    HW133244   3.226   5.675   5.911
10601SOL    HW233245   3.329   5.649   6.019
10602SOL     OW33246   2.058   7.375   6.809
10602SOL    HW133247   2.133   7.319   6.830
10602SOL    HW233248   2.087   7.425   6.733
10603SOL     OW33249   2.825   7.286   6.474
10603SOL    HW133250   2.906   7.235   6.474
10603SOL    HW233251   2.767   7.239   6.413
10604SOL     OW33252   2.255   6.281   6.062
10604SOL    HW133253   2.275   6.188   6.073
10604SOL    HW233254   2.162   6.288   6.081
10605SOL     OW33255   3.393   5.797   7.325
10605SOL    HW133256   3.406   5.833   7.413
10605SOL    HW233257   3.338   5.720   7.339
10606SOL     OW33258   2.524   5.698   5.688
10606SOL    HW133259   2.576   5.621   5.710
10606SOL    HW233260   2.467   5.668   5.617
10607SOL     OW33261   2.627   5.865   7.336
10607SOL    HW133262   2.704   5.811   7.322
10607SOL    HW233263   2.624   5.879   7.431
10608SOL     OW33264   2.743   7.110   6.771
10608SOL    HW133265   2.719   7.078   6.684
10608SOL    HW233266   2.798   7.041   6.808
10609SOL     OW33267   2.676   6.983   6.527
10609SOL    HW133268   2.758   6.970   6.478
10609SOL    HW233269   2.608   6.988   6.460
10610SOL     OW33270   2.792   6.085   6.483
10610SOL    HW133271   2.768   6.075   6.391
10610SOL    HW233272   2.825   5.999   6.508
10611SOL     OW33273   2.415   5.652   6.081
10611SOL    HW133274   2.331   5.650   6.127
10611SOL    HW233275   2.407   5.727   6.022
10612SOL     OW33276   3.290   6.795   5.636
10612SOL    HW133277   3.320   6.719   5.686
10612SOL    HW233278   3.202   6.812   5.669
10613SOL     OW33279   2.133   5.638   5.763
10613SOL    HW133280   2.165   5.703   5.699
10613SOL    HW233281   2.212   5.594   5.794
10614SOL     OW33282   2.809   5.850   6.050
10614SOL    HW133283   2.791   5.870   5.958
10614SOL    HW233284   2.904   5.861   6.059
10615SOL     OW33285   2.955   6.267   7.065
10615SOL    HW133286   2.933   6.177   7.087
10615SOL    HW233287   3.038   6.262   7.019
10616SOL     OW33288   3.080   7.162   6.423
10616SOL    HW133289   3.111   7.191   6.338
10616SOL    HW233290   3.154   7.114   6.460
10617SOL     OW33291   2.331   6.736   6.325
10617SOL    HW133292   2.267   6.715   6.393
10617SOL    HW233293   2.284   6.722   6.243
10618SOL     OW33294   1.941   6.146   6.997
10618SOL    HW133295   2.032   6.145   6.966
10618SOL    HW233296   1.939   6.217   7.061
10619SOL     OW33297   2.723   6.047   6.223
10619SOL    HW133298   2.683   6.099   6.154
10619SOL    HW233299   2.756   5.969   6.178
10620SOL     OW33300   2.854   5.655   6.350
10620SOL    HW133301   2.804   5.643   6.270
10620SOL    HW233302   2.853   5.570   6.393
10621SOL     OW33303   3.291   6.755   6.426
10621SOL    HW133304   3.237   6.676   6.431
10621SOL    HW233305   3.321   6.757   6.335
10622SOL     OW33306   3.340   6.175   6.532
10622SOL    HW133307   3.270   6.117   6.559
10622SOL    HW233308   3.386   6.196   6.613
10623SOL     OW33309   3.714   6.389   5.981
10623SOL    HW133310   3.768   6.332   6.036
10623SOL    HW233311   3.679   6.332   5.913
10624SOL     OW33312   2.352   6.952   5.719
10624SOL    HW133313   2.285   6.965   5.786
10624SOL    HW233314   2.407   7.030   5.725
10625SOL     OW33315   3.532   6.855   6.228
10625SOL    HW133316   3.628   6.854   6.235
10625SOL    HW233317   3.508   6.947   6.240
10626SOL     OW33318   3.273   6.150   5.661
10626SOL    HW133319   3.214   6.100   5.717
10626SOL    HW233320   3.358   6.106   5.670
10627SOL     OW33321   2.391   5.845   5.893
10627SOL    HW133322   2.438   5.800   5.823
10627SOL    HW233323   2.363   5.927   5.853
10628SOL     OW33324   3.608   6.835   7.144
10628SOL    HW133325   3.689   6.785   7.138
10628SOL    HW233326   3.635   6.922   7.171
10629SOL     OW33327   2.927   6.930   6.964
10629SOL    HW133328   2.833   6.915   6.977
10629SOL    HW233329   2.969   6.890   7.040
10630SOL     OW33330   3.480   7.224   7.247
10630SOL    HW133331   3.460   7.247   7.156
10630SOL    HW233332   3.559   7.170   7.241
10631SOL     OW33333   2.945   6.825   6.677
10631SOL    HW133334   2.860   6.782   6.691
10631SOL    HW233335   2.940   6.858   6.587
10632SOL     OW33336   3.491   6.686   6.659
10632SOL    HW133337   3.480   6.744   6.735
10632SOL    HW233338   3.404   6.682   6.619
10633SOL     OW33339   2.781   5.709   6.949
10633SOL    HW133340   2.808   5.666   6.868
10633SOL    HW233341   2.864   5.735   6.991
10634SOL     OW33342   2.848   6.701   7.307
10634SOL    HW133343   2.758   6.715   7.338
10634SOL    HW233344   2.844   6.619   7.260
10635SOL     OW33345   2.560   6.635   5.957
10635SOL    HW133346   2.553   6.616   6.051
10635SOL    HW233347   2.639   6.588   5.930
10636SOL     OW33348   2.261   6.393   6.855
10636SOL    HW133349   2.340   6.406   6.908
10636SOL    HW233350   2.236   6.302   6.871
10637SOL     OW33351   3.123   5.959   6.867
10637SOL    HW133352   3.163   6.045   6.879
10637SOL    HW233353   3.032   5.978   6.843
10638SOL     OW33354   1.929   7.185   6.966
10638SOL    HW133355   1.912   7.247   6.895
10638SOL    HW233356   2.016   7.150   6.948
10639SOL     OW33357   2.194   6.703   6.086
10639SOL    HW133358   2.214   6.774   6.026
10639SOL    HW233359   2.190   6.625   6.030
10640SOL     OW33360   2.410   6.117   6.459
10640SOL    HW133361   2.417   6.167   6.378
10640SOL    HW233362   2.477   6.154   6.516
10641SOL     OW33363   3.107   6.930   5.979
10641SOL    HW133364   3.172   6.996   6.003
10641SOL    HW233365   3.025   6.961   6.019
10642SOL     OW33366   3.438   6.208   6.077
10642SOL    HW133367   3.378   6.262   6.129
10642SOL    HW233368   3.462   6.264   6.002
10643SOL     OW33369   2.204   7.118   6.892
10643SOL    HW133370   2.184   7.064   6.816
10643SOL    HW233371   2.300   7.127   6.890
10644SOL     OW33372   2.284   6.273   7.193
10644SOL    HW133373   2.269   6.364   7.220
10644SOL    HW233374   2.368   6.250   7.232
10645SOL     OW33375   3.481   6.366   7.273
10645SOL    HW133376   3.387   6.358   7.257
10645SOL    HW233377   3.519   6.381   7.186
10646SOL     OW33378   2.851   5.720   7.321
10646SOL    HW133379   2.913   5.792   7.315
10646SOL    HW233380   2.898   5.644   7.286
10647SOL     OW33381   2.374   5.622   7.332
10647SOL    HW133382   2.318   5.570   7.274
10647SOL    HW233383   2.322   5.699   7.353
10648SOL     OW33384   3.228   6.448   6.630
10648SOL    HW133385   3.183   6.402   6.560
10648SOL    HW233386   3.233   6.385   6.702
10649SOL     OW33387   3.032   6.131   5.828
10649SOL    HW133388   3.045   6.036   5.824
10649SOL    HW233389   3.016   6.148   5.921
10650SOL     OW33390   2.184   5.766   6.837
10650SOL    HW133391   2.129   5.802   6.906
10650SOL    HW233392   2.156   5.675   6.830
10651SOL     OW33393   1.965   6.917   6.856
10651SOL    HW133394   1.982   6.852   6.925
10651SOL    HW233395   1.886   6.962   6.885
10652SOL     OW33396   2.606   6.212   6.633
10652SOL    HW133397   2.671   6.166   6.580
10652SOL    HW233398   2.649   6.294   6.658
10653SOL     OW33399   3.603   6.556   7.435
10653SOL    HW133400   3.566   6.487   7.380
10653SOL    HW233401   3.541   6.566   7.506
10654SOL     OW33402   2.162   5.631   6.204
10654SOL    HW133403   2.144   5.724   6.219
10654SOL    HW233404   2.180   5.597   6.292
10655SOL     OW33405   3.507   5.968   5.952
10655SOL    HW133406   3.532   5.893   6.006
10655SOL    HW233407   3.477   6.033   6.015
10656SOL     OW33408   2.873   6.341   6.546
10656SOL    HW133409   2.880   6.351   6.641
10656SOL    HW233410   2.860   6.247   6.533
10657SOL     OW33411   2.863   7.165   7.310
10657SOL    HW133412   2.830   7.203   7.229
10657SOL    HW233413   2.881   7.073   7.289
10658SOL     OW33414   3.718   7.087   7.191
10658SOL    HW133415   3.737   7.113   7.101
10658SOL    HW233416   3.802   7.095   7.237
10659SOL     OW33417   3.401   5.901   5.706
10659SOL    HW133418   3.311   5.874   5.724
10659SOL    HW233419   3.441   5.911   5.792
10660SOL     OW33420   3.137   6.375   5.601
10660SOL    HW133421   3.206   6.312   5.620
10660SOL    HW233422   3.168   6.423   5.524
10661SOL     OW33423   2.920   6.924   6.426
10661SOL    HW133424   2.924   6.847   6.369
10661SOL    HW233425   2.979   6.987   6.385
10662SOL     OW33426   2.261   6.389   6.515
10662SOL    HW133427   2.311   6.362   6.438
10662SOL    HW233428   2.171   6.366   6.495
10663SOL     OW33429   2.186   6.098   6.613
10663SOL    HW133430   2.157   6.011   6.584
10663SOL    HW233431   2.260   6.118   6.556
10664SOL     OW33432   2.982   5.969   7.267
10664SOL    HW133433   2.941   6.025   7.333
10664SOL    HW233434   3.074   5.997   7.266
10665SOL     OW33435   3.022   5.788   7.059
10665SOL    HW133436   3.007   5.851   7.130
10665SOL    HW233437   3.072   5.836   6.993
10666SOL     OW33438   1.862   6.912   5.787
10666SOL    HW133439   1.776   6.922   5.745
10666SOL    HW233440   1.866   6.820   5.813
10667SOL     OW33441   1.925   7.364   6.513
10667SOL    HW133442   1.907   7.280   6.470
10667SOL    HW233443   2.016   7.383   6.490
10668SOL     OW33444   2.353   7.167   6.492
10668SOL    HW133445   2.422   7.231   6.509
10668SOL    HW233446   2.394   7.102   6.435
10669SOL     OW33447   2.827   6.367   6.822
10669SOL    HW133448   2.911   6.348   6.863
10669SOL    HW233449   2.762   6.328   6.881
10670SOL     OW33450   1.899   6.124   6.711
10670SOL    HW133451   1.976   6.131   6.656
10670SOL    HW233452   1.933   6.133   6.801
10671SOL     OW33453   2.053   6.125   7.314
10671SOL    HW133454   2.142   6.132   7.279
10671SOL    HW233455   2.006   6.198   7.275
10672SOL     OW33456   3.228   6.535   7.257
10672SOL    HW133457   3.261   6.625   7.254
10672SOL    HW233458   3.224   6.508   7.165
10673SOL     OW33459   2.691   6.158   5.940
10673SOL    HW133460   2.696   6.079   5.886
10673SOL    HW233461   2.613   6.203   5.909
10674SOL     OW33462   3.509   6.224   6.752
10674SOL    HW133463   3.463   6.169   6.816
10674SOL    HW233464   3.589   6.176   6.731
10675SOL     OW33465   2.104   7.135   7.297
10675SOL    HW133466   2.090   7.202   7.364
10675SOL    HW233467   2.104   7.053   7.346
10676SOL     OW33468   2.557   6.026   6.830
10676SOL    HW133469   2.470   6.044   6.864
10676SOL    HW233470   2.570   6.090   6.760
10677SOL     OW33471   2.825   7.256   7.044
10677SOL    HW133472   2.774   7.219   6.972
10677SOL    HW233473   2.809   7.350   7.038
10678SOL     OW33474   2.327   6.084   5.786
10678SOL    HW133475   2.382   6.159   5.808
10678SOL    HW233476   2.244   6.123   5.758
10679SOL     OW33477   2.026   6.736   7.050
10679SOL    HW133478   2.012   6.694   7.135
10679SOL    HW233479   2.034   6.664   6.988
10680SOL     OW33480   3.190   6.696   6.728
10680SOL    HW133481   3.223   6.607   6.718
10680SOL    HW233482   3.102   6.693   6.689
10681SOL     OW33483   3.177   6.437   5.890
10681SOL    HW133484   3.107   6.404   5.947
10681SOL    HW233485   3.150   6.412   5.802
10682SOL     OW33486   3.660   7.311   6.759
10682SOL    HW133487   3.715   7.339   6.685
10682SOL    HW233488   3.615   7.233   6.727
10683SOL     OW33489   3.118   7.350   6.700
10683SOL    HW133490   3.198   7.366   6.652
10683SOL    HW233491   3.097   7.258   6.683
10684SOL     OW33492   1.947   6.843   6.599
10684SOL    HW133493   1.954   6.869   6.691
10684SOL    HW233494   1.859   6.807   6.591
10685SOL     OW33495   2.532   7.264   7.307
10685SOL    HW133496   2.472   7.334   7.332
10685SOL    HW233497   2.557   7.285   7.217
10686SOL     OW33498   3.601   5.751   6.102
10686SOL    HW133499   3.665   5.720   6.038
10686SOL    HW233500   3.564   5.671   6.139
10687SOL     OW33501   3.255   7.155   6.068
10687SOL    HW133502   3.327   7.177   6.009
10687SOL    HW233503   3.184   7.213   6.041
10688SOL     OW33504   2.001   7.373   7.429
10688SOL    HW133505   1.949   7.308   7.477
10688SOL    HW233506   2.048   7.422   7.496
10689SOL     OW33507   3.137   6.525   6.267
10689SOL    HW133508   3.210   6.465   6.283
10689SOL    HW233509   3.172   6.590   6.206
10690SOL     OW33510   2.661   6.882   6.999
10690SOL    HW133511   2.637   6.918   7.084
10690SOL    HW233512   2.580   6.882   6.949
10691SOL     OW33513   3.470   7.296   6.967
10691SOL    HW133514   3.541   7.290   6.903
10691SOL    HW233515   3.431   7.382   6.952
10692SOL     OW33516   3.714   5.754   6.546
10692SOL    HW133517   3.741   5.664   6.525
10692SOL    HW233518   3.626   5.762   6.509
10693SOL     OW33519   2.138   5.888   6.295
10693SOL    HW133520   2.051   5.914   6.267
10693SOL    HW233521   2.132   5.883   6.391
10694SOL     OW33522   3.060   7.192   5.636
10694SOL    HW133523   3.055   7.099   5.655
10694SOL    HW233524   2.995   7.205   5.566
10695SOL     OW33525   2.709   6.608   6.972
10695SOL    HW133526   2.750   6.592   6.887
10695SOL    HW233527   2.700   6.703   6.976
10696SOL     OW33528   2.781   6.504   5.875
10696SOL    HW133529   2.846   6.537   5.813
10696SOL    HW233530   2.829   6.441   5.929
10697SOL     OW33531   3.335   7.247   5.637
10697SOL    HW133532   3.245   7.220   5.618
10697SOL    HW233533   3.380   7.241   5.553
10698SOL     OW33534   2.236   6.910   7.087
10698SOL    HW133535   2.215   6.982   7.028
10698SOL    HW233536   2.166   6.845   7.072
10699SOL     OW33537   3.469   6.870   6.872
10699SOL    HW133538   3.519   6.841   6.949
10699SOL    HW233539   3.398   6.922   6.908
10700SOL     OW33540   2.918   6.690   6.301
10700SOL    HW133541   2.846   6.636   6.332
10700SOL    HW233542   2.987   6.627   6.280
10701SOL     OW33543   2.880   5.828   6.561
10701SOL    HW133544   2.872   5.784   6.477
10701SOL    HW233545   2.883   5.756   6.625
10702SOL     OW33546   2.467   7.083   6.079
10702SOL    HW133547   2.521   7.025   6.026
10702SOL    HW233548   2.415   7.132   6.016
10703SOL     OW33549   3.610   5.957   6.981
10703SOL    HW133550   3.671   6.029   6.963
10703SOL    HW233551   3.633   5.890   6.917
10704SOL     OW33552   2.117   6.956   5.868
10704SOL    HW133553   2.027   6.937   5.843
10704SOL    HW233554   2.112   6.987   5.958
10705SOL     OW33555   1.934   6.678   7.320
10705SOL    HW133556   1.870   6.624   7.368
10705SOL    HW233557   2.018   6.633   7.334
10706SOL     OW33558   2.562   5.795   7.081
10706SOL    HW133559   2.647   5.769   7.047
10706SOL    HW233560   2.578   5.817   7.173
10707SOL     OW33561   1.904   5.929   5.668
10707SOL    HW133562   1.853   5.928   5.587
10707SOL    HW233563   1.993   5.907   5.642
10708SOL     OW33564   3.306   6.527   6.985
10708SOL    HW133565   3.260   6.447   6.960
10708SOL    HW233566   3.390   6.521   6.940
10709SOL     OW33567   1.907   5.739   5.883
10709SOL    HW133568   1.890   5.816   5.830
10709SOL    HW233569   1.994   5.709   5.856
10710SOL     OW33570   3.029   6.921   5.708
10710SOL    HW133571   2.934   6.910   5.707
10710SOL    HW233572   3.052   6.913   5.801
10711SOL     OW33573   2.495   6.440   6.967
10711SOL    HW133574   2.560   6.509   6.983
10711SOL    HW233575   2.537   6.360   6.998
10712SOL     OW33576   3.353   7.396   6.575
10712SOL    HW133577   3.380   7.470   6.521
10712SOL    HW233578   3.426   7.335   6.571
10713SOL     OW33579   2.580   6.143   7.281
10713SOL    HW133580   2.619   6.202   7.346
10713SOL    HW233581   2.601   6.055   7.312
10714SOL     OW33582   3.345   6.794   7.233
10714SOL    HW133583   3.338   6.804   7.328
10714SOL    HW233584   3.437   6.806   7.214
10715SOL     OW33585   2.240   7.334   7.151
10715SOL    HW133586   2.160   7.382   7.126
10715SOL    HW233587   2.207   7.250   7.182
10716SOL     OW33588   3.544   6.478   6.843
10716SOL    HW133589   3.528   6.388   6.812
10716SOL    HW233590   3.534   6.532   6.764
10717SOL     OW33591   3.074   5.914   6.054
10717SOL    HW133592   3.134   5.843   6.031
10717SOL    HW233593   3.119   5.960   6.125
10718SOL     OW33594   2.410   6.341   6.282
10718SOL    HW133595   2.468   6.413   6.255
10718SOL    HW233596   2.361   6.320   6.202
10719SOL     OW33597   3.607   5.956   7.254
10719SOL    HW133598   3.605   5.963   7.158
10719SOL    HW233599   3.538   5.893   7.274
10720SOL     OW33600   3.650   6.517   7.090
10720SOL    HW133601   3.591   6.588   7.117
10720SOL    HW233602   3.624   6.500   6.999
10721SOL     OW33603   2.729   6.980   5.654
10721SOL    HW133604   2.662   7.039   5.688
10721SOL    HW233605   2.765   7.025   5.578
10722SOL     OW33606   2.528   7.374   6.515
10722SOL    HW133607   2.502   7.465   6.497
10722SOL    HW233608   2.623   7.376   6.514
10723SOL     OW33609   2.722   6.555   6.447
10723SOL    HW133610   2.770   6.479   6.479
10723SOL    HW233611   2.696   6.602   6.526
10724SOL     OW33612   2.954   6.577   5.680
10724SOL    HW133613   2.921   6.627   5.605
10724SOL    HW233614   3.029   6.528   5.645
10725SOL     OW33615   3.706   7.121   6.453
10725SOL    HW133616   3.652   7.111   6.375
10725SOL    HW233617   3.749   7.036   6.463
10726SOL     OW33618   2.041   6.909   7.442
10726SOL    HW133619   2.010   6.835   7.390
10726SOL    HW233620   2.081   6.870   7.519
10727SOL     OW33621   1.960   6.811   6.242
10727SOL    HW133622   1.923   6.755   6.310
10727SOL    HW233623   2.025   6.756   6.198
10728SOL     OW33624   2.557   6.999   7.225
10728SOL    HW133625   2.478   6.952   7.251
10728SOL    HW233626   2.546   7.087   7.260
10729SOL     OW33627   3.694   5.759   6.819
10729SOL    HW133628   3.678   5.666   6.834
10729SOL    HW233629   3.698   5.768   6.724
10730SOL     OW33630   2.310   6.023   6.117
10730SOL    HW133631   2.336   5.957   6.053
10730SOL    HW233632   2.255   5.975   6.180
10731SOL     OW33633   3.536   7.076   6.687
10731SOL    HW133634   3.598   7.054   6.617
10731SOL    HW233635   3.539   7.000   6.746
10732SOL     OW33636   2.181   6.137   6.876
10732SOL    HW133637   2.238   6.073   6.919
10732SOL    HW233638   2.190   6.119   6.783
10733SOL     OW33639   2.689   7.170   6.265
10733SOL    HW133640   2.666   7.238   6.201
10733SOL    HW233641   2.615   7.109   6.262
10734SOL     OW33642   3.287   5.811   6.686
10734SOL    HW133643   3.302   5.718   6.704
10734SOL    HW233644   3.244   5.844   6.765
10735SOL     OW33645   2.871   5.590   6.711
10735SOL    HW133646   2.833   5.533   6.645
10735SOL    HW233647   2.959   5.556   6.726
10736SOL     OW33648   2.622   6.907   5.947
10736SOL    HW133649   2.592   6.816   5.944
10736SOL    HW233650   2.695   6.910   5.884
10737SOL     OW33651   2.485   7.134   6.872
10737SOL    HW133652   2.486   7.211   6.929
10737SOL    HW233653   2.571   7.136   6.829
10738SOL     OW33654   3.168   6.064   6.266
10738SOL    HW133655   3.108   6.138   6.270
10738SOL    HW233656   3.160   6.021   6.352
10739SOL     OW33657   3.461   5.791   6.465
10739SOL    HW133658   3.396   5.806   6.534
10739SOL    HW233659   3.453   5.867   6.408
10740SOL     OW33660   1.911   6.655   5.873
10740SOL    HW133661   2.005   6.643   5.863
10740SOL    HW233662   1.878   6.568   5.893
10741SOL     OW33663   2.760   7.256   5.934
10741SOL    HW133664   2.698   7.237   5.864
10741SOL    HW233665   2.716   7.320   5.990
10742SOL     OW33666   2.068   6.189   7.591
10742SOL    HW133667   1.979   6.208   7.620
10742SOL    HW233668   2.064   6.194   7.496
10743SOL     OW33669   2.131   5.811   8.433
10743SOL    HW133670   2.144   5.902   8.460
10743SOL    HW233671   2.036   5.800   8.432
10744SOL     OW33672   1.859   5.968   8.085
10744SOL    HW133673   1.781   5.996   8.133
10744SOL    HW233674   1.832   5.892   8.035
10745SOL     OW33675   2.444   6.874   8.647
10745SOL    HW133676   2.360   6.849   8.608
10745SOL    HW233677   2.438   6.969   8.657
10746SOL     OW33678   3.431   7.107   8.162
10746SOL    HW133679   3.385   7.069   8.237
10746SOL    HW233680   3.365   7.111   8.093
10747SOL     OW33681   3.022   6.280   8.161
10747SOL    HW133682   3.053   6.369   8.147
10747SOL    HW233683   2.965   6.286   8.237
10748SOL     OW33684   3.624   6.192   7.687
10748SOL    HW133685   3.612   6.189   7.592
10748SOL    HW233686   3.595   6.106   7.717
10749SOL     OW33687   2.671   6.748   8.532
10749SOL    HW133688   2.586   6.754   8.576
10749SOL    HW233689   2.674   6.825   8.475
10750SOL     OW33690   2.737   6.349   9.267
10750SOL    HW133691   2.717   6.422   9.326
10750SOL    HW233692   2.763   6.391   9.185
10751SOL     OW33693   2.552   6.593   8.096
10751SOL    HW133694   2.614   6.584   8.169
10751SOL    HW233695   2.480   6.644   8.133
10752SOL     OW33696   2.586   6.738   9.275
10752SOL    HW133697   2.625   6.821   9.304
10752SOL    HW233698   2.505   6.763   9.230
10753SOL     OW33699   2.192   7.028   8.519
10753SOL    HW133700   2.113   6.987   8.482
10753SOL    HW233701   2.242   7.057   8.443
10754SOL     OW33702   3.326   7.093   8.811
10754SOL    HW133703   3.372   7.176   8.823
10754SOL    HW233704   3.251   7.098   8.869
10755SOL     OW33705   2.326   5.912   8.931
10755SOL    HW133706   2.282   5.857   8.865
10755SOL    HW233707   2.257   5.934   8.993
10756SOL     OW33708   3.460   6.034   8.191
10756SOL    HW133709   3.370   6.027   8.160
10756SOL    HW233710   3.488   6.122   8.165
10757SOL     OW33711   2.053   7.314   7.906
10757SOL    HW133712   2.081   7.397   7.943
10757SOL    HW233713   2.128   7.283   7.856
10758SOL     OW33714   3.009   6.922   9.143
10758SOL    HW133715   3.041   6.916   9.233
10758SOL    HW233716   2.955   6.844   9.131
10759SOL     OW33717   2.093   7.062   8.029
10759SOL    HW133718   2.029   7.076   7.959
10759SOL    HW233719   2.076   6.973   8.060
10760SOL     OW33720   2.144   6.667   8.371
10760SOL    HW133721   2.153   6.572   8.379
10760SOL    HW233722   2.050   6.682   8.363
10761SOL     OW33723   2.464   7.378   8.885
10761SOL    HW133724   2.379   7.362   8.924
10761SOL    HW233725   2.486   7.468   8.909
10762SOL     OW33726   2.529   6.531   7.576
10762SOL    HW133727   2.529   6.596   7.505
10762SOL    HW233728   2.537   6.583   7.656
10763SOL     OW33729   3.446   5.736   8.887
10763SOL    HW133730   3.485   5.821   8.867
10763SOL    HW233731   3.417   5.744   8.978
10764SOL     OW33732   1.974   6.240   8.012
10764SOL    HW133733   1.942   6.152   8.032
10764SOL    HW233734   1.956   6.291   8.091
10765SOL     OW33735   3.711   7.342   7.772
10765SOL    HW133736   3.760   7.327   7.853
10765SOL    HW233737   3.729   7.434   7.750
10766SOL     OW33738   1.892   7.162   7.570
10766SOL    HW133739   1.905   7.071   7.544
10766SOL    HW233740   1.945   7.173   7.649
10767SOL     OW33741   3.586   6.516   8.096
10767SOL    HW133742   3.623   6.445   8.043
10767SOL    HW233743   3.534   6.567   8.034
10768SOL     OW33744   3.504   6.681   7.885
10768SOL    HW133745   3.585   6.678   7.833
10768SOL    HW233746   3.517   6.756   7.944
10769SOL     OW33747   1.982   6.331   9.035
10769SOL    HW133748   2.066   6.376   9.024
10769SOL    HW233749   1.916   6.399   9.018
10770SOL     OW33750   2.475   6.971   8.184
10770SOL    HW133751   2.430   6.887   8.189
10770SOL    HW233752   2.464   6.998   8.092
10771SOL     OW33753   3.150   6.828   8.861
10771SOL    HW133754   3.171   6.755   8.803
10771SOL    HW233755   3.203   6.812   8.939
10772SOL     OW33756   2.670   5.594   8.016
10772SOL    HW133757   2.722   5.660   7.970
10772SOL    HW233758   2.579   5.620   8.002
10773SOL     OW33759   2.045   6.555   8.730
10773SOL    HW133760   2.128   6.509   8.714
10773SOL    HW233761   1.992   6.535   8.652
10774SOL     OW33762   3.404   6.579   7.633
10774SOL    HW133763   3.335   6.512   7.626
10774SOL    HW233764   3.414   6.592   7.728
10775SOL     OW33765   3.071   7.395   9.072
10775SOL    HW133766   3.059   7.455   8.998
10775SOL    HW233767   3.074   7.308   9.032
10776SOL     OW33768   2.201   5.827   9.296
10776SOL    HW133769   2.234   5.916   9.284
10776SOL    HW233770   2.106   5.836   9.300
10777SOL     OW33771   3.323   6.994   8.389
10777SOL    HW133772   3.254   7.011   8.453
10777SOL    HW233773   3.305   6.906   8.356
10778SOL     OW33774   3.525   7.332   8.017
10778SOL    HW133775   3.491   7.310   7.931
10778SOL    HW233776   3.495   7.262   8.074
10779SOL     OW33777   2.404   6.305   7.683
10779SOL    HW133778   2.448   6.380   7.645
10779SOL    HW233779   2.377   6.334   7.770
10780SOL     OW33780   3.141   5.962   8.388
10780SOL    HW133781   3.048   5.953   8.405
10780SOL    HW233782   3.175   5.873   8.391
10781SOL     OW33783   3.440   7.269   7.757
10781SOL    HW133784   3.532   7.291   7.740
10781SOL    HW233785   3.403   7.252   7.671
10782SOL     OW33786   2.671   6.197   8.901
10782SOL    HW133787   2.635   6.176   8.987
10782SOL    HW233788   2.625   6.138   8.841
10783SOL     OW33789   3.253   6.057   9.122
10783SOL    HW133790   3.259   6.103   9.205
10783SOL    HW233791   3.308   5.979   9.134
10784SOL     OW33792   2.815   6.474   9.032
10784SOL    HW133793   2.869   6.406   8.990
10784SOL    HW233794   2.765   6.512   8.960
10785SOL     OW33795   2.871   5.993   8.666
10785SOL    HW133796   2.789   6.042   8.673
10785SOL    HW233797   2.864   5.948   8.582
10786SOL     OW33798   2.968   6.302   7.889
10786SOL    HW133799   2.971   6.283   7.983
10786SOL    HW233800   2.897   6.246   7.856
10787SOL     OW33801   1.931   6.411   8.226
10787SOL    HW133802   2.012   6.401   8.276
10787SOL    HW233803   1.892   6.492   8.258
10788SOL     OW33804   1.975   7.460   9.034
10788SOL    HW133805   1.955   7.447   9.127
10788SOL    HW233806   1.907   7.410   8.988
10789SOL     OW33807   2.695   5.859   7.598
10789SOL    HW133808   2.702   5.938   7.651
10789SOL    HW233809   2.786   5.832   7.584
10790SOL     OW33810   3.540   6.155   9.293
10790SOL    HW133811   3.520   6.231   9.239
10790SOL    HW233812   3.580   6.093   9.233
10791SOL     OW33813   3.251   6.743   8.003
10791SOL    HW133814   3.315   6.710   7.940
10791SOL    HW233815   3.190   6.795   7.950
10792SOL     OW33816   2.406   5.762   8.366
10792SOL    HW133817   2.321   5.796   8.395
10792SOL    HW233818   2.440   5.830   8.308
10793SOL     OW33819   2.876   7.049   7.924
10793SOL    HW133820   2.841   7.116   7.865
10793SOL    HW233821   2.828   7.063   8.006
10794SOL     OW33822   2.211   7.380   8.318
10794SOL    HW133823   2.266   7.304   8.334
10794SOL    HW233824   2.263   7.454   8.349
10795SOL     OW33825   3.683   6.668   8.307
10795SOL    HW133826   3.646   6.627   8.228
10795SOL    HW233827   3.611   6.667   8.370
10796SOL     OW33828   3.092   7.125   8.959
10796SOL    HW133829   3.086   7.054   9.024
10796SOL    HW233830   3.023   7.105   8.896
10797SOL     OW33831   2.177   6.542   7.672
10797SOL    HW133832   2.205   6.552   7.581
10797SOL    HW233833   2.170   6.447   7.685
10798SOL     OW33834   3.342   6.355   8.190
10798SOL    HW133835   3.331   6.294   8.263
10798SOL    HW233836   3.434   6.381   8.194
10799SOL     OW33837   2.352   6.836   9.172
10799SOL    HW133838   2.310   6.848   9.087
10799SOL    HW233839   2.282   6.850   9.236
10800SOL     OW33840   3.002   7.346   7.695
10800SOL    HW133841   2.915   7.323   7.727
10800SOL    HW233842   3.017   7.287   7.622
10801SOL     OW33843   2.045   5.891   9.007
10801SOL    HW133844   1.978   5.921   8.946
10801SOL    HW233845   2.033   5.796   9.011
10802SOL     OW33846   3.499   6.982   7.551
10802SOL    HW133847   3.452   7.063   7.530
10802SOL    HW233848   3.434   6.913   7.535
10803SOL     OW33849   2.323   7.310   7.779
10803SOL    HW133850   2.365   7.371   7.840
10803SOL    HW233851   2.382   7.308   7.704
10804SOL     OW33852   3.272   5.681   7.907
10804SOL    HW133853   3.248   5.677   7.814
10804SOL    HW233854   3.362   5.648   7.909
10805SOL     OW33855   2.142   7.373   8.671
10805SOL    HW133856   2.174   7.301   8.725
10805SOL    HW233857   2.143   7.339   8.582
10806SOL     OW33858   2.797   7.285   8.333
10806SOL    HW133859   2.872   7.230   8.355
10806SOL    HW233860   2.752   7.238   8.262
10807SOL     OW33861   2.247   6.289   7.942
10807SOL    HW133862   2.275   6.197   7.941
10807SOL    HW233863   2.151   6.284   7.952
10808SOL     OW33864   3.384   5.804   9.168
10808SOL    HW133865   3.396   5.823   9.261
10808SOL    HW233866   3.324   5.730   9.166
10809SOL     OW33867   2.480   5.684   7.586
10809SOL    HW133868   2.563   5.732   7.584
10809SOL    HW233869   2.464   5.661   7.495
10810SOL     OW33870   2.622   5.832   9.109
10810SOL    HW133871   2.705   5.793   9.138
10810SOL    HW233872   2.560   5.811   9.178
10811SOL     OW33873   2.737   7.117   8.639
10811SOL    HW133874   2.717   7.076   8.555
10811SOL    HW233875   2.802   7.060   8.679
10812SOL     OW33876   3.201   6.168   8.875
10812SOL    HW133877   3.228   6.138   8.962
10812SOL    HW233878   3.231   6.259   8.871
10813SOL     OW33879   2.679   6.985   8.389
10813SOL    HW133880   2.763   6.969   8.347
10813SOL    HW233881   2.615   6.983   8.318
10814SOL     OW33882   2.812   6.084   8.355
10814SOL    HW133883   2.773   6.085   8.267
10814SOL    HW233884   2.822   5.992   8.376
10815SOL     OW33885   2.413   5.647   7.952
10815SOL    HW133886   2.328   5.645   7.997
10815SOL    HW233887   2.409   5.725   7.897
10816SOL     OW33888   3.302   6.798   7.503
10816SOL    HW133889   3.328   6.716   7.543
10816SOL    HW233890   3.208   6.805   7.522
10817SOL     OW33891   2.159   5.634   7.634
10817SOL    HW133892   2.215   5.698   7.591
10817SOL    HW233893   2.219   5.571   7.673
10818SOL     OW33894   2.806   5.816   7.929
10818SOL    HW133895   2.772   5.883   7.870
10818SOL    HW233896   2.900   5.828   7.928
10819SOL     OW33897   2.939   6.273   8.898
10819SOL    HW133898   2.864   6.214   8.902
10819SOL    HW233899   3.015   6.215   8.887
10820SOL     OW33900   3.073   7.163   8.240
10820SOL    HW133901   3.085   7.231   8.174
10820SOL    HW233902   3.140   7.181   8.306
10821SOL     OW33903   2.332   6.739   8.183
10821SOL    HW133904   2.267   6.720   8.251
10821SOL    HW233905   2.286   6.722   8.101
10822SOL     OW33906   3.129   7.387   8.078
10822SOL    HW133907   3.168   7.443   8.011
10822SOL    HW233908   3.050   7.433   8.106
10823SOL     OW33909   2.883   6.140   7.464
10823SOL    HW133910   2.832   6.219   7.446
10823SOL    HW233911   2.869   6.123   7.557
10824SOL     OW33912   1.953   6.139   8.841
10824SOL    HW133913   2.047   6.143   8.823
10824SOL    HW233914   1.939   6.209   8.905
10825SOL     OW33915   2.449   5.782   8.680
10825SOL    HW133916   2.466   5.722   8.607
10825SOL    HW233917   2.354   5.777   8.692
10826SOL     OW33918   2.737   6.035   8.097
10826SOL    HW133919   2.717   6.090   8.022
10826SOL    HW233920   2.761   5.950   8.059
10827SOL     OW33921   2.877   5.649   8.216
10827SOL    HW133922   2.818   5.657   8.140
10827SOL    HW233923   2.855   5.564   8.254
10828SOL     OW33924   3.290   6.738   8.289
10828SOL    HW133925   3.222   6.671   8.301
10828SOL    HW233926   3.294   6.751   8.194
10829SOL     OW33927   3.312   6.203   8.425
10829SOL    HW133928   3.257   6.125   8.420
10829SOL    HW233929   3.371   6.185   8.499
10830SOL     OW33930   3.717   6.393   7.843
10830SOL    HW133931   3.774   6.335   7.893
10830SOL    HW233932   3.676   6.337   7.778
10831SOL     OW33933   2.346   7.004   7.568
10831SOL    HW133934   2.273   6.979   7.625
10831SOL    HW233935   2.337   6.947   7.491
10832SOL     OW33936   3.559   6.874   8.066
10832SOL    HW133937   3.648   6.891   8.097
10832SOL    HW233938   3.508   6.949   8.096
10833SOL     OW33939   3.274   6.154   7.532
10833SOL    HW133940   3.209   6.142   7.601
10833SOL    HW233941   3.333   6.079   7.542
10834SOL     OW33942   2.378   5.850   7.774
10834SOL    HW133943   2.421   5.792   7.711
10834SOL    HW233944   2.357   5.929   7.725
10835SOL     OW33945   3.621   6.813   9.051
10835SOL    HW133946   3.671   6.752   9.104
10835SOL    HW233947   3.626   6.896   9.099
10836SOL     OW33948   2.913   6.970   8.805
10836SOL    HW133949   2.834   6.924   8.832
10836SOL    HW233950   2.984   6.908   8.825
10837SOL     OW33951   3.478   7.218   9.115
10837SOL    HW133952   3.469   7.249   9.025
10837SOL    HW233953   3.558   7.165   9.115
10838SOL     OW33954   2.989   6.806   8.548
10838SOL    HW133955   2.903   6.775   8.576
10838SOL    HW233956   2.974   6.840   8.459
10839SOL     OW33957   3.481   6.684   8.498
10839SOL    HW133958   3.446   6.731   8.574
10839SOL    HW233959   3.410   6.688   8.433
10840SOL     OW33960   2.768   5.707   8.832
10840SOL    HW133961   2.788   5.671   8.745
10840SOL    HW233962   2.853   5.734   8.867
10841SOL     OW33963   2.846   6.701   9.174
10841SOL    HW133964   2.754   6.715   9.196
10841SOL    HW233965   2.846   6.624   9.118
10842SOL     OW33966   2.580   6.661   7.827
10842SOL    HW133967   2.562   6.634   7.917
10842SOL    HW233968   2.658   6.611   7.802
10843SOL     OW33969   2.277   6.408   8.711
10843SOL    HW133970   2.349   6.417   8.773
10843SOL    HW233971   2.247   6.318   8.721
10844SOL     OW33972   3.137   5.944   8.729
10844SOL    HW133973   3.168   6.025   8.769
10844SOL    HW233974   3.050   5.965   8.696
10845SOL     OW33975   1.940   7.181   8.822
10845SOL    HW133976   1.906   7.231   8.748
10845SOL    HW233977   2.031   7.163   8.799
10846SOL     OW33978   2.213   6.691   7.934
10846SOL    HW133979   2.230   6.748   7.859
10846SOL    HW233980   2.207   6.603   7.896
10847SOL     OW33981   2.482   6.138   8.342
10847SOL    HW133982   2.469   6.191   8.263
10847SOL    HW233983   2.393   6.123   8.376
10848SOL     OW33984   3.111   6.935   7.848
10848SOL    HW133985   3.168   7.006   7.877
10848SOL    HW233986   3.024   6.961   7.876
10849SOL     OW33987   3.145   7.043   8.589
10849SOL    HW133988   3.187   7.038   8.675
10849SOL    HW233989   3.079   6.974   8.591
10850SOL     OW33990   3.463   6.220   7.954
10850SOL    HW133991   3.378   6.258   7.978
10850SOL    HW233992   3.474   6.243   7.862
10851SOL     OW33993   2.208   7.119   8.765
10851SOL    HW133994   2.193   7.078   8.680
10851SOL    HW233995   2.303   7.128   8.771
10852SOL     OW33996   2.275   6.351   9.054
10852SOL    HW133997   2.345   6.382   8.998
10852SOL    HW233998   2.278   6.255   9.046
10853SOL     OW33999   3.479   6.364   9.131
10853SOL    HW134000   3.392   6.404   9.131
10853SOL    HW234001   3.525   6.404   9.057
10854SOL     OW34002   2.856   5.723   9.198
10854SOL    HW134003   2.915   5.796   9.182
10854SOL    HW234004   2.906   5.646   9.171
10855SOL     OW34005   2.369   5.635   9.191
10855SOL    HW134006   2.322   5.581   9.127
10855SOL    HW234007   2.305   5.703   9.215
10856SOL     OW34008   2.471   6.472   8.522
10856SOL    HW134009   2.440   6.504   8.438
10856SOL    HW234010   2.392   6.454   8.572
10857SOL     OW34011   3.198   6.449   8.471
10857SOL    HW134012   3.113   6.439   8.428
10857SOL    HW234013   3.243   6.366   8.458
10858SOL     OW34014   3.113   6.105   7.742
10858SOL    HW134015   3.067   6.022   7.754
10858SOL    HW234016   3.051   6.171   7.775
10859SOL     OW34017   2.184   5.772   8.748
10859SOL    HW134018   2.101   5.814   8.724
10859SOL    HW234019   2.173   5.681   8.723
10860SOL     OW34020   1.931   6.911   8.727
10860SOL    HW134021   1.951   6.841   8.789
10860SOL    HW234022   1.912   6.987   8.782
10861SOL     OW34023   2.619   6.244   8.556
10861SOL    HW134024   2.601   6.197   8.475
10861SOL    HW234025   2.570   6.326   8.548
10862SOL     OW34026   3.605   6.566   9.278
10862SOL    HW134027   3.568   6.486   9.242
10862SOL    HW234028   3.556   6.581   9.359
10863SOL     OW34029   2.166   5.643   8.071
10863SOL    HW134030   2.143   5.734   8.089
10863SOL    HW234031   2.172   5.602   8.157
10864SOL     OW34032   3.512   5.969   7.821
10864SOL    HW134033   3.527   5.890   7.873
10864SOL    HW234034   3.475   6.032   7.883
10865SOL     OW34035   2.891   6.343   8.401
10865SOL    HW134036   2.880   6.363   8.494
10865SOL    HW234037   2.856   6.254   8.392
10866SOL     OW34038   2.852   7.146   9.169
10866SOL    HW134039   2.824   7.190   9.090
10866SOL    HW234040   2.896   7.067   9.138
10867SOL     OW34041   3.724   7.085   9.042
10867SOL    HW134042   3.740   7.152   8.975
10867SOL    HW234043   3.798   7.095   9.102
10868SOL     OW34044   2.212   6.497   9.275
10868SOL    HW134045   2.300   6.523   9.301
10868SOL    HW234046   2.225   6.442   9.198
10869SOL     OW34047   3.403   5.912   7.574
10869SOL    HW134048   3.339   5.842   7.588
10869SOL    HW234049   3.443   5.925   7.660
10870SOL     OW34050   3.183   6.421   7.502
10870SOL    HW134051   3.206   6.328   7.498
10870SOL    HW234052   3.195   6.452   7.412
10871SOL     OW34053   2.934   6.930   8.307
10871SOL    HW134054   2.931   6.856   8.246
10871SOL    HW234055   2.983   6.998   8.261
10872SOL     OW34056   2.189   6.392   8.359
10872SOL    HW134057   2.256   6.376   8.293
10872SOL    HW234058   2.185   6.309   8.408
10873SOL     OW34059   2.996   5.957   9.137
10873SOL    HW134060   2.950   6.014   9.198
10873SOL    HW234061   3.083   5.997   9.128
10874SOL     OW34062   3.022   5.780   8.919
10874SOL    HW134063   3.013   5.845   8.988
10874SOL    HW234064   3.069   5.825   8.849
10875SOL     OW34065   1.852   6.903   7.687
10875SOL    HW134066   1.773   6.899   7.633
10875SOL    HW234067   1.872   6.812   7.707
10876SOL     OW34068   2.359   7.158   8.342
10876SOL    HW134069   2.432   7.213   8.373
10876SOL    HW234070   2.401   7.092   8.287
10877SOL     OW34071   2.837   6.385   8.664
10877SOL    HW134072   2.874   6.352   8.746
10877SOL    HW234073   2.759   6.332   8.648
10878SOL     OW34074   1.896   6.124   8.568
10878SOL    HW134075   1.976   6.118   8.516
10878SOL    HW234076   1.926   6.132   8.658
10879SOL     OW34077   2.061   6.107   9.179
10879SOL    HW134078   2.050   6.034   9.117
10879SOL    HW234079   2.024   6.183   9.134
10880SOL     OW34080   3.247   6.511   9.105
10880SOL    HW134081   3.265   6.605   9.101
10880SOL    HW234082   3.239   6.484   9.013
10881SOL     OW34083   3.501   6.195   8.636
10881SOL    HW134084   3.491   6.134   8.709
10881SOL    HW234085   3.587   6.174   8.599
10882SOL     OW34086   2.103   7.136   9.192
10882SOL    HW134087   2.151   7.163   9.271
10882SOL    HW234088   2.105   7.041   9.194
10883SOL     OW34089   2.563   6.031   8.717
10883SOL    HW134090   2.507   5.969   8.670
10883SOL    HW234091   2.570   6.106   8.658
10884SOL     OW34092   2.779   7.264   8.928
10884SOL    HW134093   2.762   7.214   8.848
10884SOL    HW234094   2.764   7.355   8.904
10885SOL     OW34095   2.307   6.058   7.613
10885SOL    HW134096   2.368   6.130   7.631
10885SOL    HW234097   2.221   6.099   7.614
10886SOL     OW34098   2.009   6.734   8.928
10886SOL    HW134099   1.995   6.686   9.010
10886SOL    HW234100   2.018   6.665   8.862
10887SOL     OW34101   3.193   6.647   8.654
10887SOL    HW134102   3.200   6.575   8.592
10887SOL    HW234103   3.122   6.701   8.620
10888SOL     OW34104   3.179   6.446   7.781
10888SOL    HW134105   3.105   6.404   7.825
10888SOL    HW234106   3.161   6.435   7.688
10889SOL     OW34107   3.637   7.315   8.600
10889SOL    HW134108   3.703   7.342   8.537
10889SOL    HW234109   3.610   7.228   8.572
10890SOL     OW34110   3.107   7.322   8.561
10890SOL    HW134111   3.191   7.344   8.522
10890SOL    HW234112   3.111   7.228   8.577
10891SOL     OW34113   1.936   6.947   8.457
10891SOL    HW134114   1.930   6.926   8.550
10891SOL    HW234115   1.903   6.870   8.413
10892SOL     OW34116   2.538   7.261   9.185
10892SOL    HW134117   2.479   7.337   9.183
10892SOL    HW234118   2.599   7.276   9.113
10893SOL     OW34119   3.617   5.748   7.969
10893SOL    HW134120   3.671   5.732   7.892
10893SOL    HW234121   3.582   5.662   7.993
10894SOL     OW34122   3.265   7.158   7.947
10894SOL    HW134123   3.312   7.189   7.869
10894SOL    HW234124   3.197   7.223   7.963
10895SOL     OW34125   1.965   7.414   9.316
10895SOL    HW134126   1.926   7.329   9.338
10895SOL    HW234127   2.059   7.400   9.327
10896SOL     OW34128   3.141   6.526   8.137
10896SOL    HW134129   3.213   6.464   8.146
10896SOL    HW234130   3.170   6.589   8.070
10897SOL     OW34131   2.659   6.870   8.861
10897SOL    HW134132   2.629   6.911   8.942
10897SOL    HW234133   2.585   6.880   8.800
10898SOL     OW34134   2.556   7.173   7.606
10898SOL    HW134135   2.549   7.229   7.528
10898SOL    HW234136   2.485   7.110   7.596
10899SOL     OW34137   3.495   7.312   8.845
10899SOL    HW134138   3.541   7.318   8.762
10899SOL    HW234139   3.480   7.403   8.871
10900SOL     OW34140   3.702   5.752   8.391
10900SOL    HW134141   3.741   5.665   8.380
10900SOL    HW234142   3.635   5.758   8.323
10901SOL     OW34143   2.118   5.898   8.150
10901SOL    HW134144   2.030   5.932   8.130
10901SOL    HW234145   2.128   5.913   8.244
10902SOL     OW34146   3.077   7.183   7.484
10902SOL    HW134147   3.065   7.093   7.514
10902SOL    HW234148   3.007   7.197   7.420
10903SOL     OW34149   2.683   6.597   8.826
10903SOL    HW134150   2.705   6.582   8.734
10903SOL    HW234151   2.677   6.692   8.834
10904SOL     OW34152   2.795   6.525   7.748
10904SOL    HW134153   2.856   6.550   7.679
10904SOL    HW234154   2.798   6.429   7.748
10905SOL     OW34155   3.353   7.222   7.495
10905SOL    HW134156   3.259   7.205   7.481
10905SOL    HW234157   3.389   7.228   7.407
10906SOL     OW34158   2.221   6.905   8.949
10906SOL    HW134159   2.210   6.971   8.881
10906SOL    HW234160   2.150   6.843   8.934
10907SOL     OW34161   3.508   6.899   8.772
10907SOL    HW134162   3.469   6.826   8.820
10907SOL    HW234163   3.443   6.969   8.777
10908SOL     OW34164   2.915   6.703   8.168
10908SOL    HW134165   2.841   6.653   8.202
10908SOL    HW234166   2.973   6.636   8.130
10909SOL     OW34167   2.888   5.823   8.432
10909SOL    HW134168   2.885   5.780   8.346
10909SOL    HW234169   2.879   5.751   8.494
10910SOL     OW34170   2.475   7.081   7.932
10910SOL    HW134171   2.528   7.029   7.871
10910SOL    HW234172   2.415   7.130   7.875
10911SOL     OW34173   3.596   5.970   8.832
10911SOL    HW134174   3.669   6.032   8.831
10911SOL    HW234175   3.617   5.908   8.762
10912SOL     OW34176   2.127   6.947   7.738
10912SOL    HW134177   2.035   6.920   7.730
10912SOL    HW234178   2.141   6.956   7.833
10913SOL     OW34179   1.979   6.644   9.201
10913SOL    HW134180   1.895   6.606   9.229
10913SOL    HW234181   2.045   6.581   9.230
10914SOL     OW34182   1.947   5.911   7.467
10914SOL    HW134183   1.868   5.898   7.415
10914SOL    HW234184   1.982   5.995   7.435
10915SOL     OW34185   3.282   6.445   8.841
10915SOL    HW134186   3.226   6.498   8.784
10915SOL    HW234187   3.367   6.444   8.796
10916SOL     OW34188   1.923   5.736   7.739
10916SOL    HW134189   1.909   5.812   7.682
10916SOL    HW234190   2.011   5.706   7.717
10917SOL     OW34191   3.034   6.923   7.562
10917SOL    HW134192   2.941   6.901   7.553
10917SOL    HW234193   3.054   6.907   7.654
10918SOL     OW34194   2.489   6.411   8.888
10918SOL    HW134195   2.540   6.489   8.868
10918SOL    HW234196   2.553   6.340   8.889
10919SOL     OW34197   3.354   7.373   8.441
10919SOL    HW134198   3.363   7.356   8.347
10919SOL    HW234199   3.438   7.347   8.479
10920SOL     OW34200   2.585   6.147   9.149
10920SOL    HW134201   2.625   6.216   9.201
10920SOL    HW234202   2.613   6.066   9.192
10921SOL     OW34203   3.336   6.776   9.072
10921SOL    HW134204   3.308   6.793   9.162
10921SOL    HW234205   3.431   6.787   9.075
10922SOL     OW34206   2.223   7.333   9.013
10922SOL    HW134207   2.140   7.379   8.998
10922SOL    HW234208   2.198   7.246   9.043
10923SOL     OW34209   3.521   6.466   8.693
10923SOL    HW134210   3.516   6.375   8.665
10923SOL    HW234211   3.508   6.517   8.613
10924SOL     OW34212   3.072   5.875   7.941
10924SOL    HW134213   3.142   5.817   7.910
10924SOL    HW234214   3.117   5.946   7.986
10925SOL     OW34215   2.410   6.348   8.156
10925SOL    HW134216   2.473   6.410   8.120
10925SOL    HW234217   2.356   6.322   8.081
10926SOL     OW34218   3.616   5.950   9.115
10926SOL    HW134219   3.606   5.969   9.021
10926SOL    HW234220   3.545   5.889   9.134
10927SOL     OW34221   3.620   6.514   8.946
10927SOL    HW134222   3.599   6.606   8.961
10927SOL    HW234223   3.592   6.497   8.856
10928SOL     OW34224   2.745   6.967   7.509
10928SOL    HW134225   2.690   6.983   7.585
10928SOL    HW234226   2.739   7.048   7.458
10929SOL     OW34227   2.530   7.365   8.400
10929SOL    HW134228   2.507   7.453   8.370
10929SOL    HW234229   2.623   7.356   8.378
10930SOL     OW34230   2.725   6.563   8.314
10930SOL    HW134231   2.769   6.481   8.338
10930SOL    HW234232   2.699   6.602   8.397
10931SOL     OW34233   2.966   6.599   7.543
10931SOL    HW134234   2.928   6.628   7.460
10931SOL    HW234235   3.029   6.531   7.519
10932SOL     OW34236   3.703   7.122   8.277
10932SOL    HW134237   3.619   7.127   8.231
10932SOL    HW234238   3.682   7.082   8.361
10933SOL     OW34239   2.093   6.878   9.278
10933SOL    HW134240   2.049   6.802   9.240
10933SOL    HW234241   2.072   6.873   9.372
10934SOL     OW34242   2.015   6.821   8.096
10934SOL    HW134243   1.952   6.783   8.157
10934SOL    HW234244   2.048   6.747   8.046
10935SOL     OW34245   2.560   6.992   9.089
10935SOL    HW134246   2.483   6.942   9.115
10935SOL    HW234247   2.544   7.080   9.122
10936SOL     OW34248   3.634   5.768   8.652
10936SOL    HW134249   3.684   5.698   8.693
10936SOL    HW234250   3.675   5.780   8.566
10937SOL     OW34251   2.297   6.025   7.979
10937SOL    HW134252   2.329   5.961   7.915
10937SOL    HW234253   2.238   5.975   8.035
10938SOL     OW34254   3.551   7.071   8.520
10938SOL    HW134255   3.470   7.048   8.474
10938SOL    HW234256   3.559   7.005   8.590
10939SOL     OW34257   2.219   6.142   8.784
10939SOL    HW134258   2.273   6.071   8.818
10939SOL    HW234259   2.215   6.127   8.690
10940SOL     OW34260   2.689   7.177   8.110
10940SOL    HW134261   2.680   7.256   8.055
10940SOL    HW234262   2.614   7.123   8.085
10941SOL     OW34263   2.867   5.591   8.592
10941SOL    HW134264   2.820   5.527   8.539
10941SOL    HW234265   2.956   5.557   8.597
10942SOL     OW34266   2.639   6.922   7.781
10942SOL    HW134267   2.605   6.832   7.786
10942SOL    HW234268   2.730   6.915   7.809
10943SOL     OW34269   2.479   7.147   8.736
10943SOL    HW134270   2.483   7.229   8.786
10943SOL    HW234271   2.566   7.139   8.697
10944SOL     OW34272   3.190   6.057   8.135
10944SOL    HW134273   3.136   6.134   8.120
10944SOL    HW234274   3.160   6.022   8.219
10945SOL     OW34275   3.409   5.808   8.360
10945SOL    HW134276   3.381   5.759   8.283
10945SOL    HW234277   3.431   5.895   8.327
10946SOL     OW34278   1.936   6.657   7.747
10946SOL    HW134279   2.022   6.629   7.715
10946SOL    HW234280   1.893   6.576   7.774
10947SOL     OW34281   2.756   7.250   7.780
10947SOL    HW134282   2.687   7.222   7.720
10947SOL    HW234283   2.715   7.317   7.834
10948SOL     OW34284   2.085   6.202   9.435
10948SOL    HW134285   1.993   6.219   9.455
10948SOL    HW234286   2.086   6.184   9.341
10949SOL     OW34287   2.038   5.912  10.369
10949SOL    HW134288   2.084   5.851  10.427
10949SOL    HW234289   2.069   5.890  10.281
10950SOL     OW34290   1.846   6.004   9.934
10950SOL    HW134291   1.783   5.933   9.924
10950SOL    HW234292   1.930   5.960   9.948
10951SOL     OW34293   2.434   6.881  10.504
10951SOL    HW134294   2.349   6.871  10.459
10951SOL    HW234295   2.443   6.975  10.518
10952SOL     OW34296   3.431   7.124  10.017
10952SOL    HW134297   3.387   7.087  10.093
10952SOL    HW234298   3.366   7.120   9.947
10953SOL     OW34299   2.995   6.284  10.009
10953SOL    HW134300   3.044   6.364   9.988
10953SOL    HW234301   2.947   6.306  10.089
10954SOL     OW34302   3.602   6.139   9.558
10954SOL    HW134303   3.579   6.151   9.466
10954SOL    HW234304   3.698   6.145   9.560
10955SOL     OW34305   2.604   6.725  10.347
10955SOL    HW134306   2.541   6.758  10.411
10955SOL    HW234307   2.640   6.804  10.306
10956SOL     OW34308   2.734   6.370  11.141
10956SOL    HW134309   2.772   6.436  11.199
10956SOL    HW234310   2.753   6.401  11.053
10957SOL     OW34311   2.572   6.765  11.120
10957SOL    HW134312   2.626   6.814  11.182
10957SOL    HW234313   2.555   6.827  11.049
10958SOL     OW34314   2.191   7.004  10.375
10958SOL    HW134315   2.116   6.957  10.339
10958SOL    HW234316   2.229   7.050  10.300
10959SOL     OW34317   3.322   7.083  10.678
10959SOL    HW134318   3.375   7.163  10.681
10959SOL    HW234319   3.254   7.097  10.744
10960SOL     OW34320   2.326   5.969  10.753
10960SOL    HW134321   2.403   5.916  10.775
10960SOL    HW234322   2.253   5.926  10.797
10961SOL     OW34323   2.085   7.301   9.763
10961SOL    HW134324   2.114   7.371   9.821
10961SOL    HW234325   2.161   7.282   9.707
10962SOL     OW34326   3.000   6.928  11.007
10962SOL    HW134327   3.036   6.918  11.095
10962SOL    HW234328   2.951   6.847  10.992
10963SOL     OW34329   2.110   7.083   9.961
10963SOL    HW134330   2.093   7.133   9.881
10963SOL    HW234331   2.068   6.999   9.946
10964SOL     OW34332   2.165   6.685  10.228
10964SOL    HW134333   2.138   6.595  10.248
10964SOL    HW234334   2.090   6.738  10.253
10965SOL     OW34335   2.422   7.420  10.683
10965SOL    HW134336   2.359   7.383  10.745
10965SOL    HW234337   2.464   7.491  10.731
10966SOL     OW34338   2.453   6.564   9.447
10966SOL    HW134339   2.499   6.611   9.378
10966SOL    HW234340   2.472   6.613   9.527
10967SOL     OW34341   3.463   5.719  10.777
10967SOL    HW134342   3.470   5.802  10.729
10967SOL    HW234343   3.432   5.743  10.864
10968SOL     OW34344   1.983   6.241   9.874
10968SOL    HW134345   1.936   6.159   9.888
10968SOL    HW234346   1.971   6.291   9.955
10969SOL     OW34347   3.705   7.348   9.637
10969SOL    HW134348   3.775   7.323   9.698
10969SOL    HW234349   3.735   7.432   9.601
10970SOL     OW34350   1.869   7.190   9.454
10970SOL    HW134351   1.926   7.114   9.457
10970SOL    HW234352   1.780   7.154   9.448
10971SOL     OW34353   3.559   6.507   9.954
10971SOL    HW134354   3.612   6.453   9.895
10971SOL    HW234355   3.527   6.579   9.899
10972SOL     OW34356   3.495   6.705   9.776
10972SOL    HW134357   3.466   6.661   9.697
10972SOL    HW234358   3.577   6.748   9.751
10973SOL     OW34359   1.980   6.329  10.888
10973SOL    HW134360   2.068   6.366  10.893
10973SOL    HW234361   1.922   6.405  10.884
10974SOL     OW34362   2.466   6.958  10.065
10974SOL    HW134363   2.420   6.874  10.057
10974SOL    HW234364   2.464   6.995   9.977
10975SOL     OW34365   3.143   6.821  10.731
10975SOL    HW134366   3.168   6.753  10.669
10975SOL    HW234367   3.206   6.813  10.803
10976SOL     OW34368   2.684   5.601   9.827
10976SOL    HW134369   2.719   5.686   9.800
10976SOL    HW234370   2.589   5.615   9.830
10977SOL     OW34371   2.051   6.547  10.592
10977SOL    HW134372   2.135   6.504  10.574
10977SOL    HW234373   1.991   6.511  10.526
10978SOL     OW34374   3.075   7.403  10.962
10978SOL    HW134375   3.067   7.464  10.888
10978SOL    HW234376   3.078   7.316  10.922
10979SOL     OW34377   2.207   5.851  11.107
10979SOL    HW134378   2.256   5.906  11.168
10979SOL    HW234379   2.128   5.827  11.156
10980SOL     OW34380   3.312   7.017  10.240
10980SOL    HW134381   3.254   7.027  10.316
10980SOL    HW234382   3.309   6.923  10.221
10981SOL     OW34383   3.500   7.358   9.879
10981SOL    HW134384   3.494   7.318   9.792
10981SOL    HW234385   3.489   7.285   9.940
10982SOL     OW34386   2.450   6.315   9.592
10982SOL    HW134387   2.455   6.390   9.533
10982SOL    HW234388   2.373   6.331   9.646
10983SOL     OW34389   3.135   5.933  10.242
10983SOL    HW134390   3.046   5.898  10.253
10983SOL    HW234391   3.188   5.884  10.306
10984SOL     OW34392   3.440   7.268   9.619
10984SOL    HW134393   3.533   7.289   9.608
10984SOL    HW234394   3.408   7.250   9.531
10985SOL     OW34395   2.631   6.184  10.763
10985SOL    HW134396   2.619   6.174  10.858
10985SOL    HW234397   2.623   6.095  10.728
10986SOL     OW34398   3.266   6.066  10.987
10986SOL    HW134399   3.262   6.107  11.074
10986SOL    HW234400   3.311   5.983  11.002
10987SOL     OW34401   2.816   6.469  10.896
10987SOL    HW134402   2.868   6.398  10.859
10987SOL    HW234403   2.762   6.500  10.823
10988SOL     OW34404   2.861   5.967  10.540
10988SOL    HW134405   2.822   5.904  10.600
10988SOL    HW234406   2.853   5.926  10.454
10989SOL     OW34407   2.905   6.268   9.732
10989SOL    HW134408   2.924   6.263   9.826
10989SOL    HW234409   2.820   6.226   9.722
10990SOL     OW34410   1.949   6.398  10.092
10990SOL    HW134411   2.024   6.402  10.151
10990SOL    HW234412   1.897   6.475  10.114
10991SOL     OW34413   1.981   7.451  10.886
10991SOL    HW134414   1.985   7.439  10.981
10991SOL    HW234415   1.936   7.373  10.854
10992SOL     OW34416   2.756   5.950   9.514
10992SOL    HW134417   2.804   6.006   9.454
10992SOL    HW234418   2.736   5.872   9.462
10993SOL     OW34419   3.589   6.158  11.139
10993SOL    HW134420   3.546   6.229  11.090
10993SOL    HW234421   3.604   6.090  11.074
10994SOL     OW34422   3.229   6.734   9.857
10994SOL    HW134423   3.318   6.725   9.821
10994SOL    HW234424   3.183   6.788   9.793
10995SOL     OW34425   2.402   5.768  10.179
10995SOL    HW134426   2.393   5.781  10.273
10995SOL    HW234427   2.330   5.818  10.140
10996SOL     OW34428   2.881   7.061   9.798
10996SOL    HW134429   2.844   7.121   9.734
10996SOL    HW234430   2.824   7.067   9.874
10997SOL     OW34431   2.226   7.393  10.186
10997SOL    HW134432   2.261   7.304  10.186
10997SOL    HW234433   2.296   7.447  10.151
10998SOL     OW34434   3.678   6.625  10.185
10998SOL    HW134435   3.631   6.606  10.104
10998SOL    HW234436   3.609   6.634  10.251
10999SOL     OW34437   3.088   7.129  10.831
10999SOL    HW134438   3.078   7.055  10.891
10999SOL    HW234439   3.035   7.106  10.755
11000SOL     OW34440   2.177   6.539   9.568
11000SOL    HW134441   2.244   6.569   9.506
11000SOL    HW234442   2.138   6.462   9.527
11001SOL     OW34443   3.360   6.330  10.044
11001SOL    HW134444   3.366   6.317  10.138
11001SOL    HW234445   3.431   6.390  10.023
11002SOL     OW34446   3.005   7.350   9.555
11002SOL    HW134447   2.918   7.324   9.586
11002SOL    HW234448   3.022   7.291   9.481
11003SOL     OW34449   2.070   5.859  10.816
11003SOL    HW134450   1.985   5.901  10.830
11003SOL    HW234451   2.065   5.778  10.867
11004SOL     OW34452   3.492   6.970   9.387
11004SOL    HW134453   3.447   7.054   9.380
11004SOL    HW234454   3.423   6.905   9.375
11005SOL     OW34455   2.329   7.326   9.633
11005SOL    HW134456   2.390   7.379   9.686
11005SOL    HW234457   2.386   7.277   9.573
11006SOL     OW34458   3.251   5.691   9.748
11006SOL    HW134459   3.233   5.660   9.659
11006SOL    HW234460   3.344   5.710   9.749
11007SOL     OW34461   2.170   7.363  10.498
11007SOL    HW134462   2.176   7.281  10.548
11007SOL    HW234463   2.107   7.344  10.429
11008SOL     OW34464   2.798   7.282  10.205
11008SOL    HW134465   2.885   7.243  10.204
11008SOL    HW234466   2.750   7.238  10.135
11009SOL     OW34467   2.251   6.281   9.802
11009SOL    HW134468   2.275   6.189   9.811
11009SOL    HW234469   2.156   6.282   9.813
11010SOL     OW34470   3.381   5.808  11.034
11010SOL    HW134471   3.392   5.830  11.126
11010SOL    HW234472   3.315   5.740  11.032
11011SOL     OW34473   2.512   5.697   9.416
11011SOL    HW134474   2.572   5.622   9.426
11011SOL    HW234475   2.458   5.675   9.340
11012SOL     OW34476   2.639   5.867  11.070
11012SOL    HW134477   2.709   5.804  11.054
11012SOL    HW234478   2.646   5.886  11.164
11013SOL     OW34479   2.732   7.111  10.512
11013SOL    HW134480   2.721   7.077  10.423
11013SOL    HW234481   2.806   7.061  10.547
11014SOL     OW34482   3.201   6.181  10.746
11014SOL    HW134483   3.234   6.147  10.830
11014SOL    HW234484   3.242   6.267  10.737
11015SOL     OW34485   2.672   6.985  10.257
11015SOL    HW134486   2.758   6.972  10.216
11015SOL    HW234487   2.610   6.983  10.184
11016SOL     OW34488   2.773   6.092  10.213
11016SOL    HW134489   2.753   6.085  10.120
11016SOL    HW234490   2.810   6.006  10.236
11017SOL     OW34491   2.413   5.650   9.803
11017SOL    HW134492   2.334   5.650   9.856
11017SOL    HW234493   2.405   5.726   9.746
11018SOL     OW34494   3.279   6.799   9.340
11018SOL    HW134495   3.314   6.726   9.391
11018SOL    HW234496   3.194   6.818   9.380
11019SOL     OW34497   2.139   5.631   9.493
11019SOL    HW134498   2.183   5.697   9.440
11019SOL    HW234499   2.210   5.579   9.531
11020SOL     OW34500   2.802   5.846   9.766
11020SOL    HW134501   2.777   5.878   9.680
11020SOL    HW234502   2.897   5.855   9.769
11021SOL     OW34503   2.940   6.265  10.764
11021SOL    HW134504   2.887   6.189  10.789
11021SOL    HW234505   3.030   6.232  10.761
11022SOL     OW34506   3.058   7.180  10.120
11022SOL    HW134507   3.080   7.236  10.046
11022SOL    HW234508   3.143   7.155  10.157
11023SOL     OW34509   2.350   6.708  10.032
11023SOL    HW134510   2.285   6.703  10.103
11023SOL    HW234511   2.298   6.707   9.952
11024SOL     OW34512   3.121   7.383   9.928
11024SOL    HW134513   3.171   7.438   9.868
11024SOL    HW234514   3.044   7.435   9.950
11025SOL     OW34515   2.884   6.123   9.338
11025SOL    HW134516   2.841   6.205   9.313
11025SOL    HW234517   2.961   6.151   9.388
11026SOL     OW34518   1.941   6.140  10.699
11026SOL    HW134519   2.033   6.137  10.675
11026SOL    HW234520   1.936   6.208  10.766
11027SOL     OW34521   2.423   5.810  10.451
11027SOL    HW134522   2.478   5.732  10.450
11027SOL    HW234523   2.349   5.786  10.507
11028SOL     OW34524   2.723   6.053   9.944
11028SOL    HW134525   2.687   6.096   9.867
11028SOL    HW234526   2.749   5.966   9.912
11029SOL     OW34527   2.875   5.642  10.049
11029SOL    HW134528   2.813   5.630   9.977
11029SOL    HW234529   2.860   5.568  10.107
11030SOL     OW34530   3.311   6.749  10.169
11030SOL    HW134531   3.246   6.701  10.119
11030SOL    HW234532   3.381   6.770  10.106
11031SOL     OW34533   3.312   6.191  10.296
11031SOL    HW134534   3.265   6.107  10.297
11031SOL    HW234535   3.378   6.182  10.365
11032SOL     OW34536   3.709   6.413   9.719
11032SOL    HW134537   3.772   6.352   9.757
11032SOL    HW234538   3.701   6.386   9.627
11033SOL     OW34539   3.540   6.865  10.048
11033SOL    HW134540   3.625   6.843  10.010
11033SOL    HW234541   3.511   6.942   9.999
11034SOL     OW34542   3.255   6.165   9.372
11034SOL    HW134543   3.207   6.140   9.452
11034SOL    HW234544   3.347   6.156   9.396
11035SOL     OW34545   2.393   5.850   9.621
11035SOL    HW134546   2.438   5.802   9.551
11035SOL    HW234547   2.363   5.930   9.579
11036SOL     OW34548   3.608   6.830  10.875
11036SOL    HW134549   3.694   6.789  10.863
11036SOL    HW234550   3.627   6.921  10.896
11037SOL     OW34551   2.915   6.960  10.663
11037SOL    HW134552   2.839   6.914  10.699
11037SOL    HW234553   2.990   6.906  10.688
11038SOL     OW34554   3.482   7.222  10.972
11038SOL    HW134555   3.466   7.255  10.883
11038SOL    HW234556   3.562   7.171  10.965
11039SOL     OW34557   3.005   6.816  10.413
11039SOL    HW134558   2.924   6.827  10.463
11039SOL    HW234559   2.982   6.841  10.324
11040SOL     OW34560   3.483   6.672  10.379
11040SOL    HW134561   3.471   6.736  10.450
11040SOL    HW234562   3.412   6.691  10.318
11041SOL     OW34563   2.776   5.727  10.677
11041SOL    HW134564   2.797   5.676  10.599
11041SOL    HW234565   2.857   5.727  10.728
11042SOL     OW34566   2.845   6.702  11.028
11042SOL    HW134567   2.754   6.714  11.053
11042SOL    HW234568   2.846   6.622  10.976
11043SOL     OW34569   2.595   6.627   9.759
11043SOL    HW134570   2.600   6.717   9.725
11043SOL    HW234571   2.658   6.578   9.706
11044SOL     OW34572   2.285   6.403  10.562
11044SOL    HW134573   2.351   6.413  10.631
11044SOL    HW234574   2.246   6.317  10.578
11045SOL     OW34575   3.136   5.966  10.588
11045SOL    HW134576   3.163   6.044  10.637
11045SOL    HW234577   3.044   5.983  10.565
11046SOL     OW34578   1.943   7.187  10.692
11046SOL    HW134579   1.905   7.220  10.610
11046SOL    HW234580   2.029   7.153  10.665
11047SOL     OW34581   2.217   6.689   9.800
11047SOL    HW134582   2.187   6.771   9.760
11047SOL    HW234583   2.208   6.623   9.732
11048SOL     OW34584   2.444   6.121  10.154
11048SOL    HW134585   2.411   6.078  10.076
11048SOL    HW234586   2.491   6.198  10.122
11049SOL     OW34587   3.104   6.939   9.699
11049SOL    HW134588   3.168   7.004   9.728
11049SOL    HW234589   3.021   6.969   9.736
11050SOL     OW34590   3.155   7.048  10.459
11050SOL    HW134591   3.210   7.045  10.538
11050SOL    HW234592   3.103   6.968  10.462
11051SOL     OW34593   3.443   6.268   9.746
11051SOL    HW134594   3.393   6.340   9.706
11051SOL    HW234595   3.510   6.247   9.681
11052SOL     OW34596   2.203   7.112  10.620
11052SOL    HW134597   2.187   7.061  10.541
11052SOL    HW234598   2.298   7.120  10.624
11053SOL     OW34599   2.270   6.354  10.921
11053SOL    HW134600   2.341   6.375  10.860
11053SOL    HW234601   2.290   6.266  10.952
11054SOL     OW34602   3.481   6.370  11.002
11054SOL    HW134603   3.392   6.406  10.995
11054SOL    HW234604   3.529   6.409  10.929
11055SOL     OW34605   2.856   5.706  11.026
11055SOL    HW134606   2.918   5.776  11.047
11055SOL    HW234607   2.910   5.628  11.014
11056SOL     OW34608   2.368   5.627  11.040
11056SOL    HW134609   2.311   5.566  10.993
11056SOL    HW234610   2.313   5.704  11.056
11057SOL     OW34611   2.455   6.445  10.348
11057SOL    HW134612   2.483   6.536  10.348
11057SOL    HW234613   2.393   6.439  10.421
11058SOL     OW34614   3.207   6.439  10.340
11058SOL    HW134615   3.146   6.444  10.267
11058SOL    HW234616   3.244   6.351  10.335
11059SOL     OW34617   3.077   6.112   9.577
11059SOL    HW134618   3.070   6.031   9.629
11059SOL    HW234619   3.026   6.176   9.626
11060SOL     OW34620   2.166   5.766  10.563
11060SOL    HW134621   2.139   5.794  10.650
11060SOL    HW234622   2.152   5.671  10.562
11061SOL     OW34623   1.948   6.900  10.586
11061SOL    HW134624   1.972   6.835  10.652
11061SOL    HW234625   1.888   6.959  10.632
11062SOL     OW34626   2.600   6.211  10.405
11062SOL    HW134627   2.669   6.194  10.341
11062SOL    HW234628   2.565   6.296  10.380
11063SOL     OW34629   3.605   6.552  11.172
11063SOL    HW134630   3.568   6.480  11.120
11063SOL    HW234631   3.543   6.564  11.244
11064SOL     OW34632   2.162   5.644   9.931
11064SOL    HW134633   2.144   5.735   9.954
11064SOL    HW234634   2.175   5.600  10.015
11065SOL     OW34635   3.446   5.968   9.728
11065SOL    HW134636   3.505   5.896   9.748
11065SOL    HW234637   3.496   6.024   9.668
11066SOL     OW34638   2.860   6.351  10.254
11066SOL    HW134639   2.867   6.368  10.348
11066SOL    HW234640   2.843   6.257  10.248
11067SOL     OW34641   2.845   7.154  11.025
11067SOL    HW134642   2.818   7.193  10.941
11067SOL    HW234643   2.884   7.070  11.000
11068SOL     OW34644   3.712   7.087  10.908
11068SOL    HW134645   3.731   7.112  10.818
11068SOL    HW234646   3.795   7.098  10.955
11069SOL     OW34647   2.264   6.571  11.089
11069SOL    HW134648   2.312   6.537  11.165
11069SOL    HW234649   2.261   6.497  11.028
11070SOL     OW34650   3.379   5.844   9.436
11070SOL    HW134651   3.319   5.772   9.455
11070SOL    HW234652   3.391   5.889   9.520
11071SOL     OW34653   3.120   6.402   9.326
11071SOL    HW134654   3.174   6.326   9.346
11071SOL    HW234655   3.164   6.444   9.253
11072SOL     OW34656   2.924   6.929  10.171
11072SOL    HW134657   2.928   6.854  10.111
11072SOL    HW234658   2.975   6.997  10.128
11073SOL     OW34659   2.165   6.399  10.263
11073SOL    HW134660   2.260   6.407  10.257
11073SOL    HW234661   2.151   6.311  10.299
11074SOL     OW34662   2.238   6.103  10.339
11074SOL    HW134663   2.161   6.049  10.326
11074SOL    HW234664   2.272   6.118  10.251
11075SOL     OW34665   3.005   5.974  10.971
11075SOL    HW134666   2.957   6.027  11.034
11075SOL    HW234667   3.094   6.009  10.974
11076SOL     OW34668   3.028   5.784  10.773
11076SOL    HW134669   3.012   5.843  10.847
11076SOL    HW234670   3.076   5.837  10.710
11077SOL     OW34671   1.885   6.903   9.508
11077SOL    HW134672   1.799   6.925   9.471
11077SOL    HW234673   1.875   6.814   9.541
11078SOL     OW34674   1.965   7.361  10.267
11078SOL    HW134675   1.923   7.289  10.219
11078SOL    HW234676   2.050   7.372  10.223
11079SOL     OW34677   2.366   7.163  10.215
11079SOL    HW134678   2.452   7.182  10.252
11079SOL    HW234679   2.381   7.094  10.151
11080SOL     OW34680   2.823   6.369  10.533
11080SOL    HW134681   2.882   6.346  10.605
11080SOL    HW234682   2.749   6.310  10.542
11081SOL     OW34683   1.894   6.134  10.427
11081SOL    HW134684   1.938   6.055  10.395
11081SOL    HW234685   1.921   6.140  10.519
11082SOL     OW34686   2.049   6.117  11.060
11082SOL    HW134687   2.092   6.049  11.008
11082SOL    HW234688   2.014   6.178  10.996
11083SOL     OW34689   3.247   6.518  10.967
11083SOL    HW134690   3.267   6.611  10.959
11083SOL    HW234691   3.242   6.487  10.877
11084SOL     OW34692   2.657   6.156   9.692
11084SOL    HW134693   2.673   6.084   9.631
11084SOL    HW234694   2.589   6.208   9.650
11085SOL     OW34695   3.503   6.188  10.492
11085SOL    HW134696   3.496   6.127  10.566
11085SOL    HW234697   3.590   6.171  10.455
11086SOL     OW34698   2.106   7.140  11.036
11086SOL    HW134699   2.086   7.205  11.103
11086SOL    HW234700   2.099   7.056  11.081
11087SOL     OW34701   2.753   7.268  10.788
11087SOL    HW134702   2.758   7.220  10.706
11087SOL    HW234703   2.760   7.360  10.762
11088SOL     OW34704   2.321   6.082   9.506
11088SOL    HW134705   2.376   6.159   9.523
11088SOL    HW234706   2.235   6.119   9.484
11089SOL     OW34707   2.031   6.725  10.792
11089SOL    HW134708   2.010   6.676  10.872
11089SOL    HW234709   2.037   6.658  10.724
11090SOL     OW34710   3.176   6.630  10.529
11090SOL    HW134711   3.196   6.564  10.464
11090SOL    HW234712   3.119   6.693  10.484
11091SOL     OW34713   3.205   6.411   9.679
11091SOL    HW134714   3.121   6.409   9.633
11091SOL    HW234715   3.260   6.468   9.625
11092SOL     OW34716   3.630   7.313  10.462
11092SOL    HW134717   3.698   7.338  10.400
11092SOL    HW234718   3.602   7.226  10.434
11093SOL     OW34719   3.109   7.322  10.435
11093SOL    HW134720   3.190   7.347  10.391
11093SOL    HW234721   3.115   7.227  10.443
11094SOL     OW34722   1.958   6.857  10.314
11094SOL    HW134723   1.942   6.866  10.408
11094SOL    HW234724   1.886   6.803  10.282
11095SOL     OW34725   2.536   7.239  11.016
11095SOL    HW134726   2.486   7.320  11.026
11095SOL    HW234727   2.611   7.264  10.961
11096SOL     OW34728   3.604   5.755   9.813
11096SOL    HW134729   3.668   5.746   9.742
11096SOL    HW234730   3.586   5.666   9.841
11097SOL     OW34731   3.259   7.154   9.801
11097SOL    HW134732   3.314   7.187   9.730
11097SOL    HW234733   3.195   7.223   9.817
11098SOL     OW34734   2.010   7.391  11.151
11098SOL    HW134735   1.959   7.324  11.197
11098SOL    HW234736   2.058   7.436  11.220
11099SOL     OW34737   3.146   6.516   9.992
11099SOL    HW134738   3.220   6.456   9.991
11099SOL    HW234739   3.169   6.585   9.930
11100SOL     OW34740   2.660   6.861  10.723
11100SOL    HW134741   2.622   6.893  10.805
11100SOL    HW234742   2.590   6.872  10.658
11101SOL     OW34743   2.549   7.210   9.460
11101SOL    HW134744   2.546   7.232   9.367
11101SOL    HW234745   2.486   7.139   9.471
11102SOL     OW34746   3.474   7.315  10.702
11102SOL    HW134747   3.527   7.318  10.623
11102SOL    HW234748   3.458   7.407  10.723
11103SOL     OW34749   3.704   5.745  10.280
11103SOL    HW134750   3.720   5.654  10.256
11103SOL    HW234751   3.619   5.765  10.242
11104SOL     OW34752   3.071   7.186   9.345
11104SOL    HW134753   3.059   7.094   9.371
11104SOL    HW234754   3.005   7.199   9.276
11105SOL     OW34755   2.682   6.583  10.687
11105SOL    HW134756   2.731   6.560  10.608
11105SOL    HW234757   2.685   6.679  10.690
11106SOL     OW34758   2.786   6.500   9.622
11106SOL    HW134759   2.835   6.535   9.547
11106SOL    HW234760   2.836   6.423   9.650
11107SOL     OW34761   3.346   7.230   9.359
11107SOL    HW134762   3.253   7.211   9.342
11107SOL    HW234763   3.386   7.231   9.272
11108SOL     OW34764   2.238   6.893  10.862
11108SOL    HW134765   2.221   6.970  10.807
11108SOL    HW234766   2.174   6.828  10.834
11109SOL     OW34767   3.463   6.863  10.582
11109SOL    HW134768   3.536   6.852  10.642
11109SOL    HW234769   3.407   6.928  10.623
11110SOL     OW34770   2.917   6.696  10.035
11110SOL    HW134771   2.844   6.637  10.051
11110SOL    HW234772   2.985   6.641   9.996
11111SOL     OW34773   2.878   5.824  10.272
11111SOL    HW134774   2.871   5.780  10.188
11111SOL    HW234775   2.871   5.754  10.337
11112SOL     OW34776   2.485   7.071   9.820
11112SOL    HW134777   2.534   7.008   9.767
11112SOL    HW234778   2.408   7.091   9.767
11113SOL     OW34779   3.587   5.988  10.689
11113SOL    HW134780   3.661   6.048  10.693
11113SOL    HW234781   3.617   5.916  10.634
11114SOL     OW34782   2.107   6.906   9.681
11114SOL    HW134783   2.031   6.919   9.623
11114SOL    HW234784   2.182   6.935   9.629
11115SOL     OW34785   1.971   6.619  11.036
11115SOL    HW134786   1.886   6.598  11.076
11115SOL    HW234787   2.035   6.572  11.088
11116SOL     OW34788   2.545   5.812  10.808
11116SOL    HW134789   2.626   5.779  10.768
11116SOL    HW234790   2.568   5.824  10.900
11117SOL     OW34791   1.935   5.900   9.342
11117SOL    HW134792   1.867   5.884   9.277
11117SOL    HW234793   1.964   5.990   9.324
11118SOL     OW34794   3.288   6.447  10.707
11118SOL    HW134795   3.235   6.504  10.652
11118SOL    HW234796   3.374   6.447  10.666
11119SOL     OW34797   1.910   5.739   9.604
11119SOL    HW134798   1.891   5.806   9.538
11119SOL    HW234799   1.998   5.708   9.581
11120SOL     OW34800   3.030   6.924   9.427
11120SOL    HW134801   2.935   6.907   9.427
11120SOL    HW234802   3.055   6.917   9.519
11121SOL     OW34803   2.480   6.409  10.749
11121SOL    HW134804   2.544   6.478  10.733
11121SOL    HW234805   2.532   6.329  10.753
11122SOL     OW34806   3.351   7.390  10.319
11122SOL    HW134807   3.364   7.404  10.225
11122SOL    HW234808   3.431   7.348  10.348
11123SOL     OW34809   2.590   6.142  11.023
11123SOL    HW134810   2.624   6.193  11.096
11123SOL    HW234811   2.601   6.051  11.050
11124SOL     OW34812   3.336   6.781  10.938
11124SOL    HW134813   3.330   6.793  11.032
11124SOL    HW234814   3.428   6.797  10.918
11125SOL     OW34815   2.233   7.328  10.870
11125SOL    HW134816   2.150   7.375  10.859
11125SOL    HW234817   2.210   7.249  10.917
11126SOL     OW34818   3.525   6.463  10.565
11126SOL    HW134819   3.520   6.376  10.524
11126SOL    HW234820   3.513   6.524  10.492
11127SOL     OW34821   3.073   5.904   9.770
11127SOL    HW134822   3.132   5.830   9.758
11127SOL    HW234823   3.100   5.944   9.853
11128SOL     OW34824   2.478   6.347   9.933
11128SOL    HW134825   2.533   6.294   9.875
11128SOL    HW234826   2.389   6.334   9.900
11129SOL     OW34827   3.617   5.949  10.962
11129SOL    HW134828   3.598   5.966  10.870
11129SOL    HW234829   3.546   5.891  10.990
11130SOL     OW34830   3.622   6.516  10.816
11130SOL    HW134831   3.600   6.608  10.829
11130SOL    HW234832   3.598   6.498  10.725
11131SOL     OW34833   2.730   6.980   9.374
11131SOL    HW134834   2.653   7.029   9.401
11131SOL    HW234835   2.766   7.030   9.301
11132SOL     OW34836   2.546   7.412  10.308
11132SOL    HW134837   2.539   7.483  10.244
11132SOL    HW234838   2.624   7.364  10.282
11133SOL     OW34839   2.693   6.551  10.142
11133SOL    HW134840   2.747   6.480  10.176
11133SOL    HW234841   2.671   6.604  10.219
11134SOL     OW34842   2.931   6.578   9.408
11134SOL    HW134843   2.912   6.628   9.329
11134SOL    HW234844   3.001   6.517   9.383
11135SOL     OW34845   3.707   7.137  10.152
11135SOL    HW134846   3.628   7.123  10.099
11135SOL    HW234847   3.720   7.053  10.197
11136SOL     OW34848   2.060   6.890  11.156
11136SOL    HW134849   1.976   6.846  11.146
11136SOL    HW234850   2.062   6.917  11.248
11137SOL     OW34851   1.960   6.829   9.969
11137SOL    HW134852   1.941   6.756  10.028
11137SOL    HW234853   1.999   6.787   9.892
11138SOL     OW34854   2.507   6.965  10.941
11138SOL    HW134855   2.419   6.962  10.902
11138SOL    HW234856   2.517   7.055  10.971
11139SOL     OW34857   3.692   5.785  10.550
11139SOL    HW134858   3.728   5.700  10.576
11139SOL    HW234859   3.691   5.783  10.454
11140SOL     OW34860   2.333   6.029   9.863
11140SOL    HW134861   2.348   5.966   9.791
11140SOL    HW234862   2.267   5.987   9.918
11141SOL     OW34863   3.538   7.070  10.405
11141SOL    HW134864   3.471   7.050  10.340
11141SOL    HW234865   3.540   6.993  10.462
11142SOL     OW34866   2.194   6.150  10.607
11142SOL    HW134867   2.244   6.087  10.658
11142SOL    HW234868   2.204   6.120  10.516
11143SOL     OW34869   2.678   7.194   9.975
11143SOL    HW134870   2.688   7.274   9.924
11143SOL    HW234871   2.608   7.146   9.931
11144SOL     OW34872   3.289   5.803  10.426
11144SOL    HW134873   3.281   5.712  10.455
11144SOL    HW234874   3.246   5.854  10.495
11145SOL     OW34875   2.867   5.609  10.442
11145SOL    HW134876   2.804   5.552  10.397
11145SOL    HW234877   2.947   5.558  10.446
11146SOL     OW34878   2.616   6.880   9.659
11146SOL    HW134879   2.537   6.900   9.609
11146SOL    HW234880   2.688   6.900   9.601
11147SOL     OW34881   2.477   7.150  10.599
11147SOL    HW134882   2.477   7.238  10.635
11147SOL    HW234883   2.567   7.135  10.569
11148SOL     OW34884   3.221   5.626   9.483
11148SOL    HW134885   3.262   5.558   9.431
11148SOL    HW234886   3.131   5.595   9.498
11149SOL     OW34887   3.149   6.052   9.998
11149SOL    HW134888   3.085   6.123  10.002
11149SOL    HW234889   3.141   6.008  10.083
11150SOL     OW34890   3.450   5.810  10.198
11150SOL    HW134891   3.405   5.813  10.283
11150SOL    HW234892   3.380   5.804  10.134
11151SOL     OW34893   1.900   6.652   9.631
11151SOL    HW134894   1.992   6.643   9.604
11151SOL    HW234895   1.873   6.562   9.651
11152SOL     OW34896   2.753   7.251   9.645
11152SOL    HW134897   2.686   7.237   9.578
11152SOL    HW234898   2.719   7.323   9.698
11153SOL     OW34899   2.084   6.249  11.303
11153SOL    HW134900   2.005   6.224  11.350
11153SOL    HW234901   2.075   6.208  11.217
11154SOL     OW34902   2.089   5.873  12.162
11154SOL    HW134903   2.119   5.840  12.247
11154SOL    HW234904   2.000   5.838  12.153
11155SOL     OW34905   1.862   5.979  11.806
11155SOL    HW134906   1.785   5.999  11.858
11155SOL    HW234907   1.837   5.902  11.754
11156SOL     OW34908   2.412   6.834  12.313
11156SOL    HW134909   2.330   6.869  12.276
11156SOL    HW234910   2.420   6.876  12.398
11157SOL     OW34911   3.439   7.098  11.888
11157SOL    HW134912   3.398   7.072  11.971
11157SOL    HW234913   3.367   7.098  11.825
11158SOL     OW34914   2.984   6.282  11.889
11158SOL    HW134915   3.071   6.303  11.923
11158SOL    HW234916   2.940   6.237  11.961
11159SOL     OW34917   3.633   6.187  11.401
11159SOL    HW134918   3.613   6.180  11.308
11159SOL    HW234919   3.597   6.108  11.440
11160SOL     OW34920   2.642   6.727  12.215
11160SOL    HW134921   2.557   6.748  12.254
11160SOL    HW234922   2.668   6.808  12.171
11161SOL     OW34923   2.561   6.592  11.821
11161SOL    HW134924   2.610   6.577  11.902
11161SOL    HW234925   2.485   6.642  11.848
11162SOL     OW34926   2.195   6.997  12.214
11162SOL    HW134927   2.121   6.976  12.157
11162SOL    HW234928   2.251   7.054  12.162
11163SOL     OW34929   3.474   6.028  11.917
11163SOL    HW134930   3.397   6.051  11.865
11163SOL    HW234931   3.461   6.074  12.000
11164SOL     OW34932   2.093   7.295  11.639
11164SOL    HW134933   2.120   7.372  11.688
11164SOL    HW234934   2.165   7.281  11.577
11165SOL     OW34935   2.096   7.024  11.700
11165SOL    HW134936   2.085   7.119  11.697
11165SOL    HW234937   2.036   6.996  11.770
11166SOL     OW34938   2.130   6.660  12.069
11166SOL    HW134939   2.150   6.566  12.065
11166SOL    HW234940   2.084   6.670  12.152
11167SOL     OW34941   2.431   6.578  11.318
11167SOL    HW134942   2.488   6.613  11.249
11167SOL    HW234943   2.472   6.606  11.400
11168SOL     OW34944   1.984   6.237  11.729
11168SOL    HW134945   1.953   6.148  11.747
11168SOL    HW234946   1.975   6.282  11.813
11169SOL     OW34947   3.705   7.359  11.503
11169SOL    HW134948   3.772   7.324  11.561
11169SOL    HW234949   3.738   7.445  11.477
11170SOL     OW34950   1.906   7.171  11.278
11170SOL    HW134951   1.878   7.082  11.299
11170SOL    HW234952   1.883   7.222  11.356
11171SOL     OW34953   3.573   6.515  11.841
11171SOL    HW134954   3.629   6.446  11.807
11171SOL    HW234955   3.541   6.561  11.764
11172SOL     OW34956   3.511   6.687  11.612
11172SOL    HW134957   3.596   6.682  11.568
11172SOL    HW234958   3.524   6.750  11.683
11173SOL     OW34959   2.059   6.343   0.235
11173SOL    HW134960   2.106   6.295   0.303
11173SOL    HW234961   1.972   6.360   0.274
11174SOL     OW34962   2.474   6.979  11.900
11174SOL    HW134963   2.428   6.895  11.906
11174SOL    HW234964   2.457   7.009  11.811
11175SOL     OW34965   2.702   5.621  11.726
11175SOL    HW134966   2.732   5.697  11.676
11175SOL    HW234967   2.607   5.625  11.721
11176SOL     OW34968   2.019   6.578  12.379
11176SOL    HW134969   2.102   6.531  12.381
11176SOL    HW234970   1.973   6.549  12.458
11177SOL     OW34971   3.395   6.589  11.374
11177SOL    HW134972   3.326   6.527  11.400
11177SOL    HW234973   3.435   6.616  11.457
11178SOL     OW34974   3.334   6.994  12.120
11178SOL    HW134975   3.266   7.011  12.185
11178SOL    HW234976   3.315   6.905  12.089
11179SOL     OW34977   3.506   7.343  11.757
11179SOL    HW134978   3.503   7.296  11.674
11179SOL    HW234979   3.490   7.275  11.823
11180SOL     OW34980   2.442   6.306  11.446
11180SOL    HW134981   2.435   6.391  11.403
11180SOL    HW234982   2.376   6.308  11.515
11181SOL     OW34983   3.140   5.931  12.090
11181SOL    HW134984   3.105   5.850  12.052
11181SOL    HW234985   3.194   5.902  12.163
11182SOL     OW34986   3.433   7.290  11.477
11182SOL    HW134987   3.527   7.311  11.476
11182SOL    HW234988   3.417   7.250  11.392
11183SOL     OW34989   2.793   5.932  12.282
11183SOL    HW134990   2.863   5.951  12.344
11183SOL    HW234991   2.713   5.963  12.326
11184SOL     OW34992   2.888   6.306  11.630
11184SOL    HW134993   2.932   6.246  11.690
11184SOL    HW234994   2.814   6.256  11.596
11185SOL     OW34995   1.956   6.401  11.947
11185SOL    HW134996   2.039   6.391  11.992
11185SOL    HW234997   1.903   6.454  12.006
11186SOL     OW34998   3.245   6.743  11.715
11186SOL    HW134999   3.323   6.719  11.665
11186SOL    HW235000   3.196   6.802  11.657
11187SOL     OW35001   2.402   5.755  12.060
11187SOL    HW135002   2.403   5.797  12.146
11187SOL    HW235003   2.393   5.828  11.998
11188SOL     OW35004   2.855   7.029  11.653
11188SOL    HW135005   2.823   7.099  11.595
11188SOL    HW235006   2.823   7.053  11.740
11189SOL     OW35007   2.216   7.399  12.035
11189SOL    HW135008   2.265   7.317  12.047
11189SOL    HW235009   2.280   7.468  12.050
11190SOL     OW35010   2.163   6.540  11.419
11190SOL    HW135011   2.251   6.549  11.383
11190SOL    HW235012   2.139   6.449  11.400
11191SOL     OW35013   3.305   6.364  11.905
11191SOL    HW135014   3.311   6.296  11.971
11191SOL    HW235015   3.396   6.389  11.887
11192SOL     OW35016   2.977   7.348  11.409
11192SOL    HW135017   2.927   7.370  11.487
11192SOL    HW235018   2.934   7.271  11.372
11193SOL     OW35019   3.486   6.977  11.278
11193SOL    HW135020   3.473   7.042  11.209
11193SOL    HW235021   3.422   6.909  11.260
11194SOL     OW35022   3.275   5.697  11.607
11194SOL    HW135023   3.274   5.669  11.515
11194SOL    HW235024   3.368   5.699  11.630
11195SOL     OW35025   2.086   7.373  12.400
11195SOL    HW135026   2.109   7.289  12.439
11195SOL    HW235027   2.057   7.351  12.311
11196SOL     OW35028   2.808   7.283  12.075
11196SOL    HW135029   2.884   7.227  12.091
11196SOL    HW235030   2.756   7.235  12.010
11197SOL     OW35031   2.256   6.278  11.649
11197SOL    HW135032   2.276   6.186  11.662
11197SOL    HW235033   2.162   6.285  11.667
11198SOL     OW35034   2.469   5.702  11.288
11198SOL    HW135035   2.555   5.662  11.305
11198SOL    HW235036   2.446   5.673  11.200
11199SOL     OW35037   2.686   6.960  12.090
11199SOL    HW135038   2.770   6.963  12.043
11199SOL    HW235039   2.620   6.976  12.022
11200SOL     OW35040   2.802   6.134  12.058
11200SOL    HW135041   2.773   6.100  11.973
11200SOL    HW235042   2.797   6.058  12.116
11201SOL     OW35043   2.435   5.692  11.706
11201SOL    HW135044   2.351   5.650  11.727
11201SOL    HW235045   2.416   5.744  11.628
11202SOL     OW35046   3.296   6.791  11.214
11202SOL    HW135047   3.328   6.713  11.260
11202SOL    HW235048   3.206   6.801  11.245
11203SOL     OW35049   2.174   5.648  11.368
11203SOL    HW135050   2.248   5.707  11.355
11203SOL    HW235051   2.212   5.572  11.412
11204SOL     OW35052   2.820   5.851  11.626
11204SOL    HW135053   2.791   5.878  11.539
11204SOL    HW235054   2.916   5.859  11.622
11205SOL     OW35055   3.089   7.167  11.975
11205SOL    HW135056   3.095   7.231  11.904
11205SOL    HW235057   3.153   7.196  12.039
11206SOL     OW35058   2.335   6.736  11.892
11206SOL    HW135059   2.271   6.715  11.960
11206SOL    HW235060   2.287   6.727  11.810
11207SOL     OW35061   3.115   7.377  11.779
11207SOL    HW135062   3.158   7.451  11.737
11207SOL    HW235063   3.039   7.415  11.824
11208SOL     OW35064   2.915   6.158  11.155
11208SOL    HW135065   2.852   6.231  11.154
11208SOL    HW235066   2.879   6.096  11.217
11209SOL     OW35067   2.427   5.751  12.344
11209SOL    HW135068   2.412   5.658  12.327
11209SOL    HW235069   2.341   5.784  12.369
11210SOL     OW35070   2.744   6.053  11.802
11210SOL    HW135071   2.682   6.097  11.744
11210SOL    HW235072   2.766   5.971  11.758
11211SOL     OW35073   2.836   5.663  11.964
11211SOL    HW135074   2.791   5.657  11.880
11211SOL    HW235075   2.850   5.572  11.991
11212SOL     OW35076   3.288   6.740  12.022
11212SOL    HW135077   3.240   6.658  12.035
11212SOL    HW235078   3.299   6.746  11.927
11213SOL     OW35079   3.321   6.191  12.136
11213SOL    HW135080   3.269   6.112  12.147
11213SOL    HW235081   3.384   6.189  12.208
11214SOL     OW35082   3.695   6.397  11.563
11214SOL    HW135083   3.752   6.347  11.622
11214SOL    HW235084   3.671   6.334  11.494
11215SOL     OW35085   2.321   6.953  11.270
11215SOL    HW135086   2.265   6.928  11.344
11215SOL    HW235087   2.345   7.044  11.289
11216SOL     OW35088   3.559   6.848  11.822
11216SOL    HW135089   3.654   6.848  11.835
11216SOL    HW235090   3.531   6.935  11.848
11217SOL     OW35091   3.257   6.156  11.248
11217SOL    HW135092   3.191   6.145  11.316
11217SOL    HW235093   3.328   6.096  11.273
11218SOL     OW35094   2.378   5.859  11.489
11218SOL    HW135095   2.425   5.803  11.426
11218SOL    HW235096   2.354   5.937  11.439
11219SOL     OW35097   2.966   6.824  12.292
11219SOL    HW135098   2.887   6.842  12.344
11219SOL    HW235099   2.942   6.849  12.203
11220SOL     OW35100   3.518   6.666  12.188
11220SOL    HW135101   3.527   6.697  12.278
11220SOL    HW235102   3.433   6.699  12.159
11221SOL     OW35103   2.573   6.648  11.543
11221SOL    HW135104   2.552   6.629  11.635
11221SOL    HW235105   2.657   6.605  11.528
11222SOL     OW35106   2.277   6.409  12.424
11222SOL    HW135107   2.325   6.444  12.499
11222SOL    HW235108   2.256   6.319  12.448
11223SOL     OW35109   3.139   5.983  12.417
11223SOL    HW135110   3.199   6.039  12.466
11223SOL    HW235111   3.052   6.012  12.443
11224SOL     OW35112   2.198   6.706  11.656
11224SOL    HW135113   2.186   6.780  11.596
11224SOL    HW235114   2.187   6.628  11.601
11225SOL     OW35115   2.423   6.116  12.044
11225SOL    HW135116   2.439   6.176  11.970
11225SOL    HW235117   2.478   6.149  12.114
11226SOL     OW35118   3.102   6.943  11.567
11226SOL    HW135119   3.158   7.013  11.600
11226SOL    HW235120   3.015   6.964  11.601
11227SOL     OW35121   3.152   7.030  12.317
11227SOL    HW135122   3.204   7.034  12.397
11227SOL    HW235123   3.095   6.954  12.329
11228SOL     OW35124   3.441   6.212  11.660
11228SOL    HW135125   3.355   6.253  11.676
11228SOL    HW235126   3.482   6.267  11.594
11229SOL     OW35127   2.234   7.132  12.446
11229SOL    HW135128   2.203   7.073  12.378
11229SOL    HW235129   2.299   7.187  12.403
11230SOL     OW35130   2.434   6.466  12.209
11230SOL    HW135131   2.457   6.557  12.224
11230SOL    HW235132   2.380   6.442  12.285
11231SOL     OW35133   3.182   6.438  12.176
11231SOL    HW135134   3.091   6.406  12.173
11231SOL    HW235135   3.235   6.359  12.168
11232SOL     OW35136   3.087   6.129  11.466
11232SOL    HW135137   3.095   6.045  11.512
11232SOL    HW235138   2.995   6.132  11.440
11233SOL     OW35139   2.163   5.778  12.408
11233SOL    HW135140   2.126   5.812  12.489
11233SOL    HW235141   2.143   5.684  12.410
11234SOL     OW35142   1.923   6.884  12.463
11234SOL    HW135143   1.986   6.850  12.526
11234SOL    HW235144   1.905   6.973  12.493
11235SOL     OW35145   2.601   6.251  12.231
11235SOL    HW135146   2.659   6.243  12.155
11235SOL    HW235147   2.550   6.330  12.213
11236SOL     OW35148   2.165   5.644  11.790
11236SOL    HW135149   2.146   5.735  11.813
11236SOL    HW235150   2.176   5.599  11.874
11237SOL     OW35151   3.495   5.971  11.531
11237SOL    HW135152   3.515   5.896  11.586
11237SOL    HW235153   3.471   6.041  11.592
11238SOL     OW35154   2.914   6.354  12.170
11238SOL    HW135155   2.894   6.358  12.264
11238SOL    HW235156   2.876   6.271  12.142
11239SOL     OW35157   3.382   5.873  11.297
11239SOL    HW135158   3.325   5.800  11.322
11239SOL    HW235159   3.422   5.901  11.379
11240SOL     OW35160   3.155   6.419  11.208
11240SOL    HW135161   3.181   6.327  11.209
11240SOL    HW235162   3.185   6.452  11.123
11241SOL     OW35163   2.952   6.932  12.014
11241SOL    HW135164   2.996   6.869  11.957
11241SOL    HW235165   3.000   7.014  12.001
11242SOL     OW35166   2.187   6.394  12.094
11242SOL    HW135167   2.278   6.409  12.120
11242SOL    HW235168   2.170   6.303  12.119
11243SOL     OW35169   2.168   6.128  12.140
11243SOL    HW135170   2.140   6.038  12.155
11243SOL    HW235171   2.256   6.119  12.103
11244SOL     OW35172   2.995   5.816   0.118
11244SOL    HW135173   3.026   5.809   0.209
11244SOL    HW235174   3.075   5.827   0.067
11245SOL     OW35175   1.862   6.896  11.363
11245SOL    HW135176   1.774   6.915  11.330
11245SOL    HW235177   1.855   6.809  11.402
11246SOL     OW35178   1.959   7.361  12.122
11246SOL    HW135179   1.928   7.284  12.074
11246SOL    HW235180   2.045   7.379  12.084
11247SOL     OW35181   2.362   7.160  12.078
11247SOL    HW135182   2.430   7.227  12.092
11247SOL    HW235183   2.402   7.098  12.017
11248SOL     OW35184   2.829   6.355  12.428
11248SOL    HW135185   2.847   6.430  12.485
11248SOL    HW235186   2.734   6.353  12.421
11249SOL     OW35187   1.922   6.168  12.286
11249SOL    HW135188   1.990   6.150  12.221
11249SOL    HW235189   1.969   6.175  12.369
11250SOL     OW35190   2.668   6.184  11.548
11250SOL    HW135191   2.692   6.114  11.488
11250SOL    HW235192   2.587   6.220  11.512
11251SOL     OW35193   3.507   6.190  12.340
11251SOL    HW135194   3.506   6.135  12.418
11251SOL    HW235195   3.593   6.176  12.301
11252SOL     OW35196   2.587   6.040  12.411
11252SOL    HW135197   2.514   6.040  12.474
11252SOL    HW235198   2.575   6.121  12.361
11253SOL     OW35199   2.698   7.221   0.086
11253SOL    HW135200   2.699   7.293   0.024
11253SOL    HW235201   2.749   7.252   0.160
11254SOL     OW35202   2.311   6.078  11.336
11254SOL    HW135203   2.379   6.140  11.363
11254SOL    HW235204   2.230   6.131  11.336
11255SOL     OW35205   3.157   6.629  12.367
11255SOL    HW135206   3.172   6.567  12.296
11255SOL    HW235207   3.102   6.697  12.328
11256SOL     OW35208   3.173   6.440  11.481
11256SOL    HW135209   3.121   6.370  11.521
11256SOL    HW235210   3.156   6.431  11.387
11257SOL     OW35211   3.603   7.329  12.282
11257SOL    HW135212   3.685   7.348  12.235
11257SOL    HW235213   3.603   7.234  12.292
11258SOL     OW35214   3.111   7.298  12.268
11258SOL    HW135215   3.192   7.335  12.234
11258SOL    HW235216   3.130   7.206  12.282
11259SOL     OW35217   3.558   5.738  11.669
11259SOL    HW135218   3.636   5.720  11.616
11259SOL    HW235219   3.545   5.658  11.719
11260SOL     OW35220   3.253   7.159  11.665
11260SOL    HW135221   3.308   7.201  11.599
11260SOL    HW235222   3.200   7.231  11.701
11261SOL     OW35223   3.103   6.545  11.834
11261SOL    HW135224   3.172   6.482  11.858
11261SOL    HW235225   3.149   6.613  11.785
11262SOL     OW35226   2.594   7.198  11.289
11262SOL    HW135227   2.573   7.206  11.196
11262SOL    HW235228   2.510   7.212  11.333
11263SOL     OW35229   3.481   7.369   0.050
11263SOL    HW135230   3.554   7.352  -0.009
11263SOL    HW235231   3.507   7.449   0.096
11264SOL     OW35232   3.632   5.767  12.164
11264SOL    HW135233   3.722   5.802  12.164
11264SOL    HW235234   3.634   5.698  12.098
11265SOL     OW35235   2.120   5.900  11.885
11265SOL    HW135236   2.033   5.932  11.860
11265SOL    HW235237   2.116   5.894  11.981
11266SOL     OW35238   3.061   7.176  11.190
11266SOL    HW135239   3.056   7.088  11.227
11266SOL    HW235240   2.989   7.181  11.128
11267SOL     OW35241   2.660   6.609  12.489
11267SOL    HW135242   2.675   6.661  12.410
11267SOL    HW235243   2.725   6.641  12.552
11268SOL     OW35244   2.816   6.536  11.509
11268SOL    HW135245   2.855   6.554  11.423
11268SOL    HW235246   2.838   6.445  11.527
11269SOL     OW35247   3.332   7.254  11.194
11269SOL    HW135248   3.266   7.187  11.173
11269SOL    HW235249   3.393   7.252  11.120
11270SOL     OW35250   2.474   7.084  11.649
11270SOL    HW135251   2.517   7.029  11.583
11270SOL    HW235252   2.416   7.141  11.598
11271SOL     OW35253   3.618   6.018   0.042
11271SOL    HW135254   3.694   6.007   0.098
11271SOL    HW235255   3.609   5.935  -0.005
11272SOL     OW35256   2.122   6.909  11.458
11272SOL    HW135257   2.028   6.904  11.441
11272SOL    HW235258   2.130   6.961  11.537
11273SOL     OW35259   1.942   5.920  11.231
11273SOL    HW135260   1.866   5.886  11.184
11273SOL    HW235261   1.970   5.996  11.180
11274SOL     OW35262   1.928   5.743  11.460
11274SOL    HW135263   1.922   5.815  11.397
11274SOL    HW235264   2.016   5.708  11.448
11275SOL     OW35265   3.033   6.923  11.292
11275SOL    HW135266   2.939   6.907  11.288
11275SOL    HW235267   3.055   6.918  11.385
11276SOL     OW35268   3.354   7.370  12.155
11276SOL    HW135269   3.372   7.448  12.104
11276SOL    HW235270   3.435   7.353  12.203
11277SOL     OW35271   3.546   6.458  12.393
11277SOL    HW135272   3.534   6.364  12.384
11277SOL    HW235273   3.514   6.494  12.310
11278SOL     OW35274   3.100   5.906  11.636
11278SOL    HW135275   3.155   5.829  11.623
11278SOL    HW235276   3.138   5.950  11.712
11279SOL     OW35277   2.458   6.320  11.850
11279SOL    HW135278   2.482   6.409  11.826
11279SOL    HW235279   2.389   6.296  11.788
11280SOL     OW35280   3.557   6.532   0.154
11280SOL    HW135281   3.639   6.575   0.177
11280SOL    HW235282   3.566   6.509   0.062
11281SOL     OW35283   2.750   6.954  11.235
11281SOL    HW135284   2.696   6.971  11.313
11281SOL    HW235285   2.746   7.036  11.185
11282SOL     OW35286   2.530   7.367  12.095
11282SOL    HW135287   2.501   7.457  12.079
11282SOL    HW235288   2.624   7.375  12.110
11283SOL     OW35289   2.773   6.546  12.017
11283SOL    HW135290   2.820   6.484  12.073
11283SOL    HW235291   2.730   6.605  12.078
11284SOL     OW35292   2.923   6.562  11.258
11284SOL    HW135293   2.914   6.620  11.182
11284SOL    HW235294   3.002   6.511  11.240
11285SOL     OW35295   3.699   7.139  12.021
11285SOL    HW135296   3.616   7.130  11.973
11285SOL    HW235297   3.681   7.097  12.106
11286SOL     OW35298   1.959   6.812  11.850
11286SOL    HW135299   1.974   6.759  11.928
11286SOL    HW235300   2.019   6.776  11.785
11287SOL     OW35301   3.659   5.761  12.437
11287SOL    HW135302   3.739   5.710  12.447
11287SOL    HW235303   3.643   5.763  12.343
11288SOL     OW35304   2.297   6.021  11.703
11288SOL    HW135305   2.328   5.953  11.643
11288SOL    HW235306   2.243   5.974  11.767
11289SOL     OW35307   3.576   7.049  12.263
11289SOL    HW135308   3.485   7.037  12.235
11289SOL    HW235309   3.576   7.022  12.355
11290SOL     OW35310   2.695   7.176  11.845
11290SOL    HW135311   2.682   7.257  11.795
11290SOL    HW235312   2.614   7.126  11.832
11291SOL     OW35313   3.315   5.828  12.275
11291SOL    HW135314   3.372   5.767  12.323
11291SOL    HW235315   3.260   5.867  12.343
11292SOL     OW35316   2.880   5.573  12.310
11292SOL    HW135317   2.830   5.491  12.309
11292SOL    HW235318   2.971   5.545  12.302
11293SOL     OW35319   2.634   6.915  11.492
11293SOL    HW135320   2.603   6.825  11.504
11293SOL    HW235321   2.710   6.922  11.550
11294SOL     OW35322   3.232   5.637  11.336
11294SOL    HW135323   3.264   5.561  11.287
11294SOL    HW235324   3.140   5.617  11.354
11295SOL     OW35325   3.177   6.061  11.856
11295SOL    HW135326   3.093   6.105  11.847
11295SOL    HW235327   3.170   6.013  11.939
11296SOL     OW35328   3.381   5.763  12.008
11296SOL    HW135329   3.378   5.785  12.102
11296SOL    HW235330   3.432   5.834  11.969
11297SOL     OW35331   1.902   6.648  11.480
11297SOL    HW135332   1.994   6.634  11.455
11297SOL    HW235333   1.871   6.561  11.506
11298SOL     OW35334   2.746   7.234  11.514
11298SOL    HW135335   2.686   7.219  11.441
11298SOL    HW235336   2.700   7.296  11.571
11299SOL     OW35337   2.111   7.706   1.001
11299SOL    HW135338   2.131   7.675   1.089
11299SOL    HW235339   2.021   7.677   0.985
11300SOL     OW35340   1.840   7.831   0.648
11300SOL    HW135341   1.757   7.869   0.677
11300SOL    HW235342   1.816   7.747   0.608
11301SOL     OW35343   3.565   0.002   0.198
11301SOL    HW135344   3.509   0.079   0.190
11301SOL    HW235345   3.523  -0.051   0.267
11302SOL     OW35346   2.311   7.816   1.474
11302SOL    HW135347   2.350   7.854   1.553
11302SOL    HW235348   2.221   7.796   1.498
11303SOL     OW35349   3.458   7.930   0.701
11303SOL    HW135350   3.368   7.926   0.667
11303SOL    HW235351   3.449   7.971   0.787
11304SOL     OW35352   3.421   7.604   1.451
11304SOL    HW135353   3.493   7.665   1.433
11304SOL    HW235354   3.416   7.602   1.546
11305SOL     OW35355   1.936   0.096   0.595
11305SOL    HW135356   1.914   0.004   0.609
11305SOL    HW235357   2.032   0.099   0.600
11306SOL     OW35358   2.674   7.449   0.533
11306SOL    HW135359   2.720   7.528   0.507
11306SOL    HW235360   2.581   7.472   0.526
11307SOL     OW35361   2.211   7.719   1.776
11307SOL    HW135362   2.246   7.788   1.832
11307SOL    HW235363   2.128   7.694   1.817
11308SOL     OW35364   3.147   7.747   0.927
11308SOL    HW135365   3.055   7.723   0.934
11308SOL    HW235366   3.166   7.794   1.008
11309SOL     OW35367   3.251   7.899   1.673
11309SOL    HW135368   3.285   7.987   1.690
11309SOL    HW235369   3.317   7.840   1.712
11310SOL     OW35370   2.790   0.297   1.536
11310SOL    HW135371   2.870   0.335   1.573
11310SOL    HW235372   2.740   0.373   1.505
11311SOL     OW35373   2.872   7.823   1.287
11311SOL    HW135374   2.833   7.899   1.330
11311SOL    HW235375   2.797   7.774   1.253
11312SOL     OW35376   2.738   7.786   0.232
11312SOL    HW135377   2.680   7.814   0.161
11312SOL    HW235378   2.774   7.702   0.202
11313SOL     OW35379   3.625   0.025   1.818
11313SOL    HW135380   3.552   0.080   1.790
11313SOL    HW235381   3.617  -0.054   1.766
11314SOL     OW35382   2.406   7.644   0.901
11314SOL    HW135383   2.328   7.669   0.950
11314SOL    HW235384   2.439   7.726   0.865
11315SOL     OW35385   2.040   7.732   1.500
11315SOL    HW135386   2.012   7.780   1.578
11315SOL    HW235387   2.021   7.640   1.520
11316SOL     OW35388   3.269   7.543   0.446
11316SOL    HW135389   3.265   7.508   0.357
11316SOL    HW235390   3.363   7.553   0.463
11317SOL     OW35391   3.389   7.633   1.730
11317SOL    HW135392   3.391   7.669   1.818
11317SOL    HW235393   3.351   7.546   1.740
11318SOL     OW35394   2.495   7.533   0.118
11318SOL    HW135395   2.590   7.523   0.121
11318SOL    HW235396   2.481   7.605   0.056
11319SOL     OW35397   2.632   7.713   1.759
11319SOL    HW135398   2.712   7.662   1.754
11319SOL    HW235399   2.585   7.676   1.833
11320SOL     OW35400   3.203   7.979   1.411
11320SOL    HW135401   3.234   7.950   1.497
11320SOL    HW235402   3.156   8.061   1.428
11321SOL     OW35403   2.405   7.497   0.485
11321SOL    HW135404   2.328   7.504   0.541
11321SOL    HW235405   2.408   7.581   0.438
11322SOL     OW35406   2.166   7.538   0.202
11322SOL    HW135407   2.253   7.578   0.206
11322SOL    HW235408   2.182   7.444   0.196
11323SOL     OW35409   2.814   7.668   0.468
11323SOL    HW135410   2.780   7.725   0.399
11323SOL    HW235411   2.905   7.695   0.479
11324SOL     OW35412   1.939   0.011   1.404
11324SOL    HW135413   1.990  -0.061   1.441
11324SOL    HW235414   1.949   0.083   1.466
11325SOL     OW35415   2.894   7.486   0.740
11325SOL    HW135416   2.828   7.494   0.671
11325SOL    HW235417   2.862   7.416   0.796
11326SOL     OW35418   3.357   7.952   0.962
11326SOL    HW135419   3.283   8.012   0.969
11326SOL    HW235420   3.410   7.969   1.039
11327SOL     OW35421   2.414   7.711   0.315
11327SOL    HW135422   2.457   7.659   0.247
11327SOL    HW235423   2.439   7.801   0.295
11328SOL     OW35424   2.799   7.527   1.397
11328SOL    HW135425   2.826   7.512   1.307
11328SOL    HW235426   2.881   7.547   1.443
11329SOL     OW35427   3.144   7.816   1.206
11329SOL    HW135428   3.176   7.886   1.264
11329SOL    HW235429   3.049   7.824   1.209
11330SOL     OW35430   2.428   7.948   0.870
11330SOL    HW135431   2.430   8.009   0.797
11330SOL    HW235432   2.499   7.976   0.927
11331SOL     OW35433   2.860   7.574   1.734
11331SOL    HW135434   2.922   7.647   1.727
11331SOL    HW235435   2.911   7.497   1.710
11332SOL     OW35436   2.367   7.492   1.734
11332SOL    HW135437   2.308   7.428   1.694
11332SOL    HW235438   2.312   7.570   1.747
11333SOL     OW35439   2.175   7.632   1.262
11333SOL    HW135440   2.116   7.665   1.330
11333SOL    HW235441   2.151   7.540   1.252
11334SOL     OW35442   2.611   0.063   1.040
11334SOL    HW135443   2.680   0.116   0.999
11334SOL    HW235444   2.558   0.126   1.088
11335SOL     OW35445   2.174   7.519   0.628
11335SOL    HW135446   2.145   7.607   0.653
11335SOL    HW235447   2.183   7.472   0.711
11336SOL     OW35448   3.451   7.815   0.375
11336SOL    HW135449   3.488   7.762   0.446
11336SOL    HW235450   3.401   7.883   0.420
11337SOL     OW35451   3.411   7.667   0.149
11337SOL    HW135452   3.335   7.611   0.163
11337SOL    HW235453   3.415   7.722   0.227
11338SOL     OW35454   2.188   7.964   1.004
11338SOL    HW135455   2.172   7.870   1.001
11338SOL    HW235456   2.277   7.974   0.970
11339SOL     OW35457   2.997   7.810   1.684
11339SOL    HW135458   2.944   7.884   1.710
11339SOL    HW235459   3.087   7.843   1.685
11340SOL     OW35460   3.049   7.667   1.443
11340SOL    HW135461   3.043   7.697   1.534
11340SOL    HW235462   2.989   7.725   1.395
11341SOL     OW35463   1.939   7.959   1.110
11341SOL    HW135464   2.027   7.963   1.073
11341SOL    HW235465   1.937   7.877   1.160
11342SOL     OW35466   2.043   7.988   1.666
11342SOL    HW135467   2.135   7.976   1.692
11342SOL    HW235468   2.000   8.022   1.745
11343SOL     OW35469   2.640   0.040   0.287
11343SOL    HW135470   2.686  -0.042   0.302
11343SOL    HW235471   2.568   0.040   0.351
11344SOL     OW35472   3.499   0.011   1.183
11344SOL    HW135473   3.497   0.025   1.277
11344SOL    HW235474   3.584  -0.029   1.167
11345SOL     OW35475   2.517   7.836   1.227
11345SOL    HW135476   2.500   7.893   1.302
11345SOL    HW235477   2.552   7.895   1.160
11346SOL     OW35478   2.765   7.527   0.109
11346SOL    HW135479   2.810   7.565   0.034
11346SOL    HW235480   2.834   7.485   0.160
11347SOL     OW35481   3.581   7.601   0.510
11347SOL    HW135482   3.649   7.582   0.446
11347SOL    HW235483   3.564   7.517   0.552
11348SOL     OW35484   3.692   7.621   0.956
11348SOL    HW135485   3.721   7.534   0.929
11348SOL    HW235486   3.605   7.631   0.918
11349SOL     OW35487   2.104   7.767   0.718
11349SOL    HW135488   2.014   7.795   0.703
11349SOL    HW235489   2.109   7.754   0.813
11350SOL     OW35490   2.888   7.666   0.956
11350SOL    HW135491   2.887   7.616   0.875
11350SOL    HW235492   2.877   7.601   1.025
11351SOL     OW35493   3.609   7.806   1.404
11351SOL    HW135494   3.668   7.881   1.397
11351SOL    HW235495   3.639   7.746   1.335
11352SOL     OW35496   2.578   7.653   1.495
11352SOL    HW135497   2.662   7.612   1.473
11352SOL    HW235498   2.586   7.676   1.587
11353SOL     OW35499   1.923   7.604   0.311
11353SOL    HW135500   1.922   7.699   0.304
11353SOL    HW235501   2.010   7.578   0.280
11354SOL     OW35502   2.590   7.979   1.705
11354SOL    HW135503   2.674   8.019   1.726
11354SOL    HW235504   2.602   7.886   1.722
11355SOL     OW35505   3.081   7.749   0.456
11355SOL    HW135506   3.147   7.680   0.455
11355SOL    HW235507   3.108   7.808   0.526
11356SOL     OW35508   2.479   0.242   0.619
11356SOL    HW135509   2.549   0.308   0.620
11356SOL    HW235510   2.442   0.245   0.707
11357SOL     OW35511   3.602   7.797   1.676
11357SOL    HW135512   3.605   7.807   1.581
11357SOL    HW235513   3.533   7.732   1.691
11358SOL     OW35514   3.666   7.610   1.227
11358SOL    HW135515   3.680   7.516   1.227
11358SOL    HW235516   3.673   7.636   1.135
11359SOL     OW35517   2.208   7.850   0.452
11359SOL    HW135518   2.269   7.780   0.426
11359SOL    HW235519   2.184   7.828   0.542
11360SOL     OW35520   2.874   7.458   1.143
11360SOL    HW135521   2.815   7.391   1.109
11360SOL    HW235522   2.961   7.418   1.138
11361SOL     OW35523   3.219   7.474   0.180
11361SOL    HW135524   3.213   7.427   0.097
11361SOL    HW235525   3.139   7.525   0.185
11362SOL     OW35526   3.171   7.891   0.683
11362SOL    HW135527   3.108   7.961   0.697
11362SOL    HW235528   3.170   7.841   0.765
11363SOL     OW35529   3.423   7.668   0.872
11363SOL    HW135530   3.330   7.679   0.893
11363SOL    HW235531   3.449   7.753   0.837
11364SOL     OW35532   2.095   7.802   2.899
11364SOL    HW135533   2.124   7.751   2.975
11364SOL    HW235534   2.035   7.743   2.853
11365SOL     OW35535   1.853   7.824   2.510
11365SOL    HW135536   1.765   7.852   2.534
11365SOL    HW235537   1.839   7.744   2.458
11366SOL     OW35538   3.598   0.044   2.095
11366SOL    HW135539   3.612   0.034   2.000
11366SOL    HW235540   3.560  -0.039   2.122
11367SOL     OW35541   2.294   7.850   3.338
11367SOL    HW135542   2.381   7.810   3.341
11367SOL    HW235543   2.233   7.777   3.344
11368SOL     OW35544   3.457   7.918   2.564
11368SOL    HW135545   3.366   7.917   2.533
11368SOL    HW235546   3.451   7.954   2.653
11369SOL     OW35547   3.455   7.574   3.325
11369SOL    HW135548   3.501   7.654   3.299
11369SOL    HW235549   3.422   7.592   3.413
11370SOL     OW35550   1.933   0.082   2.465
11370SOL    HW135551   1.916  -0.012   2.472
11370SOL    HW235552   1.946   0.111   2.555
11371SOL     OW35553   2.688   7.429   2.396
11371SOL    HW135554   2.736   7.504   2.362
11371SOL    HW235555   2.597   7.458   2.399
11372SOL     OW35556   2.193   7.708   3.640
11372SOL    HW135557   2.237   7.793   3.637
11372SOL    HW235558   2.114   7.723   3.693
11373SOL     OW35559   3.131   7.805   2.817
11373SOL    HW135560   3.041   7.774   2.825
11373SOL    HW235561   3.182   7.748   2.875
11374SOL     OW35562   3.258   7.906   3.547
11374SOL    HW135563   3.302   7.984   3.581
11374SOL    HW235564   3.313   7.833   3.577
11375SOL     OW35565   2.780   0.312   3.376
11375SOL    HW135566   2.857   0.340   3.425
11375SOL    HW235567   2.740   0.393   3.345
11376SOL     OW35568   2.884   7.803   3.158
11376SOL    HW135569   2.799   7.837   3.184
11376SOL    HW235570   2.875   7.785   3.064
11377SOL     OW35571   2.750   7.788   2.060
11377SOL    HW135572   2.819   7.789   1.994
11377SOL    HW235573   2.733   7.696   2.076
11378SOL     OW35574   3.623   0.018   3.693
11378SOL    HW135575   3.548   0.069   3.660
11378SOL    HW235576   3.624  -0.060   3.638
11379SOL     OW35577   2.411   7.608   2.763
11379SOL    HW135578   2.414   7.657   2.845
11379SOL    HW235579   2.430   7.673   2.696
11380SOL     OW35580   2.054   7.697   3.386
11380SOL    HW135581   1.985   7.762   3.400
11380SOL    HW235582   2.094   7.686   3.472
11381SOL     OW35583   3.263   7.547   2.306
11381SOL    HW135584   3.249   7.527   2.213
11381SOL    HW235585   3.358   7.560   2.314
11382SOL     OW35586   3.379   7.649   3.605
11382SOL    HW135587   3.385   7.687   3.693
11382SOL    HW235588   3.330   7.567   3.617
11383SOL     OW35589   2.516   7.551   1.957
11383SOL    HW135590   2.537   7.470   2.005
11383SOL    HW235591   2.458   7.523   1.887
11384SOL     OW35592   2.630   7.700   3.603
11384SOL    HW135593   2.712   7.651   3.604
11384SOL    HW235594   2.608   7.711   3.695
11385SOL     OW35595   3.222   7.969   3.282
11385SOL    HW135596   3.232   7.931   3.370
11385SOL    HW235597   3.283   8.043   3.281
11386SOL     OW35598   2.175   7.530   2.060
11386SOL    HW135599   2.234   7.602   2.080
11386SOL    HW235600   2.216   7.453   2.100
11387SOL     OW35601   2.820   7.659   2.327
11387SOL    HW135602   2.769   7.736   2.304
11387SOL    HW235603   2.911   7.689   2.327
11388SOL     OW35604   1.984   0.010   3.247
11388SOL    HW135605   2.055  -0.031   3.297
11388SOL    HW235606   1.967   0.092   3.293
11389SOL     OW35607   2.415   7.689   3.033
11389SOL    HW135608   2.460   7.613   3.070
11389SOL    HW235609   2.327   7.685   3.069
11390SOL     OW35610   2.896   7.509   2.604
11390SOL    HW135611   2.838   7.522   2.529
11390SOL    HW235612   2.855   7.438   2.654
11391SOL     OW35613   3.368   7.949   2.819
11391SOL    HW135614   3.277   7.923   2.830
11391SOL    HW235615   3.396   7.976   2.907
11392SOL     OW35616   2.369   7.752   2.079
11392SOL    HW135617   2.428   7.685   2.044
11392SOL    HW235618   2.395   7.761   2.171
11393SOL     OW35619   2.776   7.531   3.252
11393SOL    HW135620   2.807   7.526   3.161
11393SOL    HW235621   2.851   7.565   3.301
11394SOL     OW35622   2.455   7.913   2.709
11394SOL    HW135623   2.472   7.959   2.626
11394SOL    HW235624   2.514   7.954   2.772
11395SOL     OW35625   2.864   7.569   3.609
11395SOL    HW135626   2.926   7.642   3.606
11395SOL    HW235627   2.915   7.493   3.584
11396SOL     OW35628   2.351   7.482   3.616
11396SOL    HW135629   2.304   7.424   3.556
11396SOL    HW235630   2.299   7.563   3.616
11397SOL     OW35631   2.156   7.643   3.123
11397SOL    HW135632   2.111   7.660   3.206
11397SOL    HW235633   2.144   7.550   3.108
11398SOL     OW35634   2.617   0.071   2.883
11398SOL    HW135635   2.657   0.122   2.813
11398SOL    HW235636   2.560   0.132   2.929
11399SOL     OW35637   2.136   7.537   2.513
11399SOL    HW135638   2.220   7.543   2.467
11399SOL    HW235639   2.153   7.479   2.586
11400SOL     OW35640   3.474   7.818   2.227
11400SOL    HW135641   3.514   7.752   2.283
11400SOL    HW235642   3.434   7.880   2.288
11401SOL     OW35643   3.375   7.728   1.983
11401SOL    HW135644   3.318   7.656   2.009
11401SOL    HW235645   3.411   7.762   2.065
11402SOL     OW35646   3.099   0.226   1.877
11402SOL    HW135647   3.137   0.203   1.962
11402SOL    HW235648   3.174   0.236   1.819
11403SOL     OW35649   2.998   7.824   3.558
11403SOL    HW135650   2.949   7.904   3.577
11403SOL    HW235651   3.090   7.851   3.562
11404SOL     OW35652   3.011   7.644   3.344
11404SOL    HW135653   3.015   7.703   3.420
11404SOL    HW235654   2.985   7.701   3.272
11405SOL     OW35655   1.879   7.943   3.000
11405SOL    HW135656   1.944   7.888   2.957
11405SOL    HW235657   1.923   7.973   3.080
11406SOL     OW35658   2.020  -0.030   3.546
11406SOL    HW135659   2.114  -0.032   3.563
11406SOL    HW235660   2.000   0.063   3.533
11407SOL     OW35661   2.650   0.038   2.104
11407SOL    HW135662   2.689  -0.049   2.094
11407SOL    HW235663   2.609   0.037   2.191
11408SOL     OW35664   3.471   0.013   3.064
11408SOL    HW135665   3.473   0.037   3.157
11408SOL    HW235666   3.563  -0.001   3.041
11409SOL     OW35667   2.608   7.888   3.094
11409SOL    HW135668   2.536   7.826   3.086
11409SOL    HW235669   2.598   7.947   3.019
11410SOL     OW35670   3.593   7.606   2.365
11410SOL    HW135671   3.664   7.593   2.303
11410SOL    HW235672   3.576   7.518   2.401
11411SOL     OW35673   3.705   7.617   2.819
11411SOL    HW135674   3.728   7.527   2.793
11411SOL    HW235675   3.618   7.631   2.781
11412SOL     OW35676   2.110   7.797   2.602
11412SOL    HW135677   2.019   7.811   2.575
11412SOL    HW235678   2.126   7.704   2.585
11413SOL     OW35679   2.892   7.675   2.833
11413SOL    HW135680   2.894   7.632   2.747
11413SOL    HW235681   2.879   7.604   2.895
11414SOL     OW35682   3.607   7.815   3.272
11414SOL    HW135683   3.659   7.894   3.259
11414SOL    HW235684   3.635   7.756   3.202
11415SOL     OW35685   2.533   7.633   3.353
11415SOL    HW135686   2.618   7.617   3.313
11415SOL    HW235687   2.553   7.662   3.442
11416SOL     OW35688   1.945   7.783   1.910
11416SOL    HW135689   1.885   7.724   1.864
11416SOL    HW235690   1.910   7.871   1.893
11417SOL     OW35691   1.934   7.638   2.154
11417SOL    HW135692   1.934   7.701   2.082
11417SOL    HW235693   2.012   7.585   2.139
11418SOL     OW35694   2.542   7.978   3.600
11418SOL    HW135695   2.594   8.058   3.601
11418SOL    HW235696   2.604   7.910   3.575
11419SOL     OW35697   3.078   7.755   2.332
11419SOL    HW135698   3.143   7.684   2.324
11419SOL    HW235699   3.111   7.809   2.403
11420SOL     OW35700   2.491   0.226   2.581
11420SOL    HW135701   2.548   0.300   2.559
11420SOL    HW235702   2.441   0.210   2.501
11421SOL     OW35703   3.602   7.795   3.543
11421SOL    HW135704   3.604   7.805   3.448
11421SOL    HW235705   3.531   7.732   3.559
11422SOL     OW35706   3.670   7.628   3.089
11422SOL    HW135707   3.676   7.533   3.097
11422SOL    HW235708   3.682   7.644   2.995
11423SOL     OW35709   2.266   7.841   2.363
11423SOL    HW135710   2.301   7.753   2.348
11423SOL    HW235711   2.216   7.833   2.444
11424SOL     OW35712   3.299   7.660   2.982
11424SOL    HW135713   3.311   7.567   2.999
11424SOL    HW235714   3.326   7.704   3.063
11425SOL     OW35715   2.869   7.453   2.999
11425SOL    HW135716   2.813   7.396   2.946
11425SOL    HW235717   2.956   7.414   2.993
11426SOL     OW35718   3.226   7.503   2.037
11426SOL    HW135719   3.266   7.429   1.992
11426SOL    HW235720   3.136   7.475   2.054
11427SOL     OW35721   3.171   7.896   2.554
11427SOL    HW135722   3.122   7.978   2.551
11427SOL    HW235723   3.159   7.863   2.642
11428SOL     OW35724   3.445   7.654   2.741
11428SOL    HW135725   3.395   7.674   2.820
11428SOL    HW235726   3.436   7.732   2.686
11429SOL     OW35727   1.839   7.820   4.381
11429SOL    HW135728   1.755   7.858   4.406
11429SOL    HW235729   1.816   7.740   4.334
11430SOL     OW35730   3.654   0.035   3.962
11430SOL    HW135731   3.639   0.024   3.868
11430SOL    HW235732   3.603  -0.035   4.002
11431SOL     OW35733   2.316   7.863   5.237
11431SOL    HW135734   2.395   7.811   5.226
11431SOL    HW235735   2.244   7.799   5.234
11432SOL     OW35736   3.459   7.932   4.422
11432SOL    HW135737   3.370   7.906   4.398
11432SOL    HW235738   3.451   7.969   4.510
11433SOL     OW35739   3.437   7.588   5.194
11433SOL    HW135740   3.466   7.663   5.143
11433SOL    HW235741   3.426   7.622   5.283
11434SOL     OW35742   1.951   0.067   4.344
11434SOL    HW135743   1.911  -0.019   4.353
11434SOL    HW235744   1.918   0.118   4.418
11435SOL     OW35745   2.685   7.456   4.235
11435SOL    HW135746   2.724   7.538   4.205
11435SOL    HW235747   2.592   7.476   4.243
11436SOL     OW35748   2.167   7.711   5.504
11436SOL    HW135749   2.227   7.776   5.540
11436SOL    HW235750   2.087   7.721   5.556
11437SOL     OW35751   3.113   7.790   4.654
11437SOL    HW135752   3.027   7.752   4.668
11437SOL    HW235753   3.172   7.737   4.706
11438SOL     OW35754   3.259   7.938   5.425
11438SOL    HW135755   3.259   7.957   5.519
11438SOL    HW235756   3.309   7.857   5.418
11439SOL     OW35757   2.761   0.364   5.251
11439SOL    HW135758   2.843   0.385   5.297
11439SOL    HW235759   2.746   0.439   5.193
11440SOL     OW35760   2.841   7.823   4.962
11440SOL    HW135761   2.797   7.808   5.046
11440SOL    HW235762   2.825   7.743   4.912
11441SOL     OW35763   2.749   7.783   3.894
11441SOL    HW135764   2.827   7.785   3.838
11441SOL    HW235765   2.771   7.721   3.964
11442SOL     OW35766   3.581   0.023   5.547
11442SOL    HW135767   3.607   0.094   5.488
11442SOL    HW235768   3.597  -0.057   5.496
11443SOL     OW35769   2.341   7.673   4.642
11443SOL    HW135770   2.380   7.660   4.728
11443SOL    HW235771   2.391   7.744   4.603
11444SOL     OW35772   2.062   7.717   5.239
11444SOL    HW135773   2.018   7.794   5.275
11444SOL    HW235774   2.086   7.665   5.316
11445SOL     OW35775   3.272   7.553   4.170
11445SOL    HW135776   3.284   7.484   4.105
11445SOL    HW235777   3.359   7.566   4.208
11446SOL     OW35778   3.344   7.672   5.451
11446SOL    HW135779   3.376   7.697   5.538
11446SOL    HW235780   3.313   7.582   5.463
11447SOL     OW35781   2.491   7.539   3.839
11447SOL    HW135782   2.570   7.485   3.844
11447SOL    HW235783   2.450   7.515   3.756
11448SOL     OW35784   2.637   7.702   5.482
11448SOL    HW135785   2.719   7.654   5.475
11448SOL    HW235786   2.586   7.654   5.548
11449SOL     OW35787   3.226  -0.008   5.151
11449SOL    HW135788   3.228  -0.026   5.245
11449SOL    HW235789   3.295   0.057   5.138
11450SOL     OW35790   2.415   7.511   4.220
11450SOL    HW135791   2.337   7.515   4.275
11450SOL    HW235792   2.407   7.587   4.162
11451SOL     OW35793   2.157   7.498   3.909
11451SOL    HW135794   2.223   7.553   3.866
11451SOL    HW235795   2.208   7.431   3.955
11452SOL     OW35796   2.803   7.693   4.162
11452SOL    HW135797   2.774   7.779   4.192
11452SOL    HW235798   2.898   7.694   4.173
11453SOL     OW35799   1.958   0.009   5.118
11453SOL    HW135800   2.003  -0.011   5.200
11453SOL    HW235801   1.937   0.102   5.124
11454SOL     OW35802   2.421   7.641   4.901
11454SOL    HW135803   2.466   7.577   4.955
11454SOL    HW235804   2.337   7.656   4.945
11455SOL     OW35805   2.876   7.497   4.458
11455SOL    HW135806   2.818   7.483   4.383
11455SOL    HW235807   2.857   7.424   4.516
11456SOL     OW35808   3.347   7.949   4.670
11456SOL    HW135809   3.262   7.913   4.697
11456SOL    HW235810   3.389   7.975   4.752
11457SOL     OW35811   2.402   7.708   4.026
11457SOL    HW135812   2.430   7.643   3.962
11457SOL    HW235813   2.451   7.787   4.003
11458SOL     OW35814   2.764   7.574   5.104
11458SOL    HW135815   2.788   7.524   5.026
11458SOL    HW235816   2.848   7.591   5.147
11459SOL     OW35817   3.121   7.810   4.988
11459SOL    HW135818   3.159   7.879   5.043
11459SOL    HW235819   3.028   7.829   4.986
11460SOL     OW35820   2.426   7.930   4.582
11460SOL    HW135821   2.389   8.001   4.531
11460SOL    HW235822   2.499   7.970   4.630
11461SOL     OW35823   2.876   7.578   5.478
11461SOL    HW135824   2.935   7.650   5.455
11461SOL    HW235825   2.917   7.500   5.442
11462SOL     OW35826   2.360   7.520   5.466
11462SOL    HW135827   2.344   7.445   5.409
11462SOL    HW235828   2.280   7.572   5.460
11463SOL     OW35829   2.148   7.648   4.988
11463SOL    HW135830   2.123   7.673   5.077
11463SOL    HW235831   2.148   7.552   4.989
11464SOL     OW35832   2.625   0.052   4.729
11464SOL    HW135833   2.717   0.052   4.700
11464SOL    HW235834   2.606   0.143   4.750
11465SOL     OW35835   2.171   7.515   4.352
11465SOL    HW135836   2.149   7.606   4.373
11465SOL    HW235837   2.184   7.473   4.437
11466SOL     OW35838   3.492   7.829   4.090
11466SOL    HW135839   3.530   7.751   4.131
11466SOL    HW235840   3.452   7.877   4.163
11467SOL     OW35841   3.355   7.758   3.855
11467SOL    HW135842   3.298   7.682   3.871
11467SOL    HW235843   3.407   7.766   3.935
11468SOL     OW35844   3.110   0.235   3.731
11468SOL    HW135845   3.175   0.229   3.801
11468SOL    HW235846   3.149   0.293   3.667
11469SOL     OW35847   2.168   7.898   4.708
11469SOL    HW135848   2.249   7.850   4.694
11469SOL    HW235849   2.193   7.990   4.698
11470SOL     OW35850   3.007   7.823   5.411
11470SOL    HW135851   2.951   7.895   5.439
11470SOL    HW235852   3.096   7.858   5.414
11471SOL     OW35853   3.013   7.648   5.193
11471SOL    HW135854   3.017   7.710   5.266
11471SOL    HW235855   3.075   7.684   5.129
11472SOL     OW35856   1.926   7.942   4.855
11472SOL    HW135857   1.995   7.990   4.809
11472SOL    HW235858   1.929   7.974   4.945
11473SOL     OW35859   2.043   7.973   5.383
11473SOL    HW135860   2.129   7.944   5.413
11473SOL    HW235861   2.022   8.048   5.438
11474SOL     OW35862   2.677   0.036   3.974
11474SOL    HW135863   2.707  -0.050   3.943
11474SOL    HW235864   2.693   0.035   4.068
11475SOL     OW35865   3.485   8.011   4.894
11475SOL    HW135866   3.479   7.960   4.975
11475SOL    HW235867   3.575   7.999   4.865
11476SOL     OW35868   2.482   7.960   4.949
11476SOL    HW135869   2.486   7.872   4.986
11476SOL    HW235870   2.547   7.960   4.879
11477SOL     OW35871   3.600   7.611   4.221
11477SOL    HW135872   3.669   7.595   4.157
11477SOL    HW235873   3.577   7.524   4.254
11478SOL     OW35874   3.702   7.598   4.696
11478SOL    HW135875   3.721   7.508   4.671
11478SOL    HW235876   3.617   7.617   4.656
11479SOL     OW35877   2.116   7.775   4.420
11479SOL    HW135878   2.022   7.792   4.418
11479SOL    HW235879   2.143   7.795   4.509
11480SOL     OW35880   2.877   7.657   4.688
11480SOL    HW135881   2.877   7.613   4.603
11480SOL    HW235882   2.870   7.586   4.752
11481SOL     OW35883   3.544   7.821   5.083
11481SOL    HW135884   3.581   7.831   5.171
11481SOL    HW235885   3.602   7.758   5.040
11482SOL     OW35886   2.540   7.697   5.216
11482SOL    HW135887   2.613   7.652   5.174
11482SOL    HW235888   2.560   7.691   5.310
11483SOL     OW35889   1.950   7.787   3.747
11483SOL    HW135890   1.869   7.754   3.710
11483SOL    HW235891   1.969   7.866   3.697
11484SOL     OW35892   1.922   7.598   4.015
11484SOL    HW135893   1.912   7.679   3.964
11484SOL    HW235894   2.009   7.566   3.991
11485SOL     OW35895   2.621   7.966   5.418
11485SOL    HW135896   2.643   7.997   5.505
11485SOL    HW235897   2.620   7.871   5.426
11486SOL     OW35898   3.071   7.745   4.194
11486SOL    HW135899   3.138   7.679   4.175
11486SOL    HW235900   3.110   7.800   4.261
11487SOL     OW35901   2.485   0.214   4.347
11487SOL    HW135902   2.544   0.289   4.340
11487SOL    HW235903   2.454   0.216   4.437
11488SOL     OW35904   3.692   7.622   4.968
11488SOL    HW135905   3.769   7.568   4.985
11488SOL    HW235906   3.686   7.625   4.873
11489SOL     OW35907   2.294   7.871   4.218
11489SOL    HW135908   2.317   7.798   4.161
11489SOL    HW235909   2.242   7.831   4.288
11490SOL     OW35910   3.288   7.667   4.830
11490SOL    HW135911   3.312   7.587   4.877
11490SOL    HW235912   3.240   7.720   4.894
11491SOL     OW35913   2.850   7.448   4.872
11491SOL    HW135914   2.796   7.372   4.849
11491SOL    HW235915   2.940   7.416   4.866
11492SOL     OW35916   3.193   7.530   3.841
11492SOL    HW135917   3.252   7.464   3.877
11492SOL    HW235918   3.106   7.504   3.872
11493SOL     OW35919   3.181   7.891   4.404
11493SOL    HW135920   3.165   7.985   4.415
11493SOL    HW235921   3.162   7.853   4.490
11494SOL     OW35922   3.450   7.656   4.609
11494SOL    HW135923   3.395   7.664   4.687
11494SOL    HW235924   3.439   7.740   4.565
11495SOL     OW35925   1.847   7.827   6.249
11495SOL    HW135926   1.769   7.877   6.272
11495SOL    HW235927   1.813   7.752   6.200
11496SOL     OW35928   3.506   0.033   5.809
11496SOL    HW135929   3.546   0.019   5.723
11496SOL    HW235930   3.577   0.064   5.864
11497SOL     OW35931   2.317   7.821   7.147
11497SOL    HW135932   2.374   7.784   7.080
11497SOL    HW235933   2.228   7.800   7.117
11498SOL     OW35934   3.453   7.869   6.322
11498SOL    HW135935   3.429   7.901   6.235
11498SOL    HW235936   3.462   7.948   6.375
11499SOL     OW35937   1.943   0.080   6.124
11499SOL    HW135938   1.958   0.003   6.178
11499SOL    HW235939   1.989   0.151   6.170
11500SOL     OW35940   2.674   7.450   6.115
11500SOL    HW135941   2.709   7.533   6.084
11500SOL    HW235942   2.579   7.463   6.116
11501SOL     OW35943   2.193   7.700   7.409
11501SOL    HW135944   2.219   7.772   7.351
11501SOL    HW235945   2.103   7.722   7.435
11502SOL     OW35946   3.145   7.801   6.526
11502SOL    HW135947   3.053   7.779   6.542
11502SOL    HW235948   3.190   7.716   6.527
11503SOL     OW35949   3.281   7.937   7.279
11503SOL    HW135950   3.193   7.940   7.318
11503SOL    HW235951   3.310   7.847   7.296
11504SOL     OW35952   2.798   0.365   7.057
11504SOL    HW135953   2.826   0.273   7.053
11504SOL    HW235954   2.709   0.362   7.093
11505SOL     OW35955   2.861   7.785   6.889
11505SOL    HW135956   2.852   7.866   6.939
11505SOL    HW235957   2.807   7.799   6.811
11506SOL     OW35958   2.762   7.749   5.782
11506SOL    HW135959   2.775   7.816   5.715
11506SOL    HW235960   2.750   7.667   5.733
11507SOL     OW35961   3.597   0.026   7.416
11507SOL    HW135962   3.532   0.080   7.371
11507SOL    HW235963   3.605  -0.053   7.362
11508SOL     OW35964   2.454   7.639   6.482
11508SOL    HW135965   2.437   7.654   6.575
11508SOL    HW235966   2.435   7.723   6.441
11509SOL     OW35967   2.049   7.743   7.097
11509SOL    HW135968   2.024   7.808   7.163
11509SOL    HW235969   2.020   7.659   7.132
11510SOL     OW35970   3.251   7.494   6.030
11510SOL    HW135971   3.265   7.487   5.936
11510SOL    HW235972   3.336   7.521   6.066
11511SOL     OW35973   3.370   7.671   7.289
11511SOL    HW135974   3.374   7.680   7.384
11511SOL    HW235975   3.314   7.595   7.274
11512SOL     OW35976   2.512   7.548   5.682
11512SOL    HW135977   2.537   7.459   5.707
11512SOL    HW235978   2.454   7.537   5.607
11513SOL     OW35979   2.638   7.734   7.341
11513SOL    HW135980   2.709   7.670   7.341
11513SOL    HW235981   2.562   7.686   7.373
11514SOL     OW35982   3.261   0.009   7.022
11514SOL    HW135983   3.272  -0.004   7.116
11514SOL    HW235984   3.212   0.091   7.015
11515SOL     OW35985   2.412   7.510   6.082
11515SOL    HW135986   2.334   7.522   6.138
11515SOL    HW235987   2.414   7.588   6.028
11516SOL     OW35988   2.157   7.484   5.777
11516SOL    HW135989   2.217   7.556   5.755
11516SOL    HW235990   2.212   7.419   5.820
11517SOL     OW35991   2.833   7.667   6.032
11517SOL    HW135992   2.793   7.695   5.949
11517SOL    HW235993   2.883   7.743   6.061
11518SOL     OW35994   1.969   7.990   6.961
11518SOL    HW135995   2.020   7.909   6.970
11518SOL    HW235996   1.968   8.027   7.049
11519SOL     OW35997   2.442   7.667   6.759
11519SOL    HW135998   2.479   7.596   6.811
11519SOL    HW235999   2.352   7.675   6.789
11520SOL     OW36000   2.903   7.461   6.266
11520SOL    HW136001   2.815   7.457   6.228
11520SOL    HW236002   2.896   7.415   6.349
11521SOL     OW36003   3.337   7.992   6.578
11521SOL    HW136004   3.264   7.932   6.559
11521SOL    HW236005   3.296   8.066   6.623
11522SOL     OW36006   2.434   7.713   5.902
11522SOL    HW136007   2.469   7.671   5.824
11522SOL    HW236008   2.458   7.805   5.892
11523SOL     OW36009   2.810   7.534   6.973
11523SOL    HW136010   2.819   7.495   6.886
11523SOL    HW236011   2.828   7.627   6.960
11524SOL     OW36012   3.129   7.847   6.830
11524SOL    HW136013   3.140   7.938   6.857
11524SOL    HW236014   3.035   7.837   6.817
11525SOL     OW36015   2.423   7.928   6.443
11525SOL    HW136016   2.390   7.981   6.370
11525SOL    HW236017   2.485   7.986   6.488
11526SOL     OW36018   2.860   7.577   7.337
11526SOL    HW136019   2.926   7.645   7.323
11526SOL    HW236020   2.907   7.495   7.322
11527SOL     OW36021   2.362   7.499   7.333
11527SOL    HW136022   2.319   7.449   7.264
11527SOL    HW236023   2.303   7.572   7.351
11528SOL     OW36024   2.203   7.652   6.885
11528SOL    HW136025   2.137   7.669   6.951
11528SOL    HW236026   2.156   7.657   6.802
11529SOL     OW36027   2.630   0.065   6.593
11529SOL    HW136028   2.685   0.068   6.515
11529SOL    HW236029   2.567   0.137   6.580
11530SOL     OW36030   2.171   7.529   6.218
11530SOL    HW136031   2.150   7.619   6.242
11530SOL    HW236032   2.175   7.482   6.302
11531SOL     OW36033   3.415   7.798   5.990
11531SOL    HW136034   3.482   7.742   6.030
11531SOL    HW236035   3.455   7.885   5.987
11532SOL     OW36036   3.353   7.739   5.725
11532SOL    HW136037   3.310   7.655   5.738
11532SOL    HW236038   3.390   7.760   5.811
11533SOL     OW36039   3.109   0.230   5.590
11533SOL    HW136040   3.155   0.160   5.636
11533SOL    HW236041   3.144   0.311   5.627
11534SOL     OW36042   2.202   7.977   6.637
11534SOL    HW136043   2.168   7.888   6.629
11534SOL    HW236044   2.270   7.983   6.570
11535SOL     OW36045   2.996   7.831   7.264
11535SOL    HW136046   2.943   7.872   7.333
11535SOL    HW236047   2.989   7.891   7.190
11536SOL     OW36048   3.116   7.679   7.066
11536SOL    HW136049   3.074   7.708   7.147
11536SOL    HW236050   3.049   7.690   6.999
11537SOL     OW36051   1.875   7.922   6.695
11537SOL    HW136052   1.920   7.849   6.653
11537SOL    HW236053   1.930   7.944   6.771
11538SOL     OW36054   2.626   7.993   5.828
11538SOL    HW136055   2.680   7.918   5.852
11538SOL    HW236056   2.611   8.039   5.910
11539SOL     OW36057   3.497   0.038   6.799
11539SOL    HW136058   3.507  -0.049   6.839
11539SOL    HW236059   3.464   0.020   6.711
11540SOL     OW36060   2.542   7.924   6.821
11540SOL    HW136061   2.502   7.839   6.801
11540SOL    HW236062   2.565   7.961   6.736
11541SOL     OW36063   3.591   7.600   6.086
11541SOL    HW136064   3.655   7.589   6.016
11541SOL    HW236065   3.576   7.511   6.119
11542SOL     OW36066   3.703   7.614   6.566
11542SOL    HW136067   3.737   7.529   6.538
11542SOL    HW236068   3.625   7.627   6.513
11543SOL     OW36069   2.112   7.790   6.308
11543SOL    HW136070   2.018   7.803   6.296
11543SOL    HW236071   2.121   7.762   6.399
11544SOL     OW36072   2.903   7.674   6.559
11544SOL    HW136073   2.843   7.660   6.486
11544SOL    HW236074   2.882   7.605   6.622
11545SOL     OW36075   3.548   7.812   6.970
11545SOL    HW136076   3.616   7.878   6.984
11545SOL    HW236077   3.593   7.740   6.926
11546SOL     OW36078   2.550   7.626   7.073
11546SOL    HW136079   2.640   7.615   7.043
11546SOL    HW236080   2.557   7.681   7.151
11547SOL     OW36081   1.930   7.778   5.622
11547SOL    HW136082   1.870   7.789   5.548
11547SOL    HW236083   1.954   7.868   5.646
11548SOL     OW36084   1.917   7.552   5.904
11548SOL    HW136085   1.900   7.638   5.865
11548SOL    HW236086   2.009   7.534   5.883
11549SOL     OW36087   2.622   8.015   7.308
11549SOL    HW136088   2.526   8.017   7.313
11549SOL    HW236089   2.644   7.922   7.307
11550SOL     OW36090   3.106   7.754   6.059
11550SOL    HW136091   3.188   7.771   6.013
11550SOL    HW236092   3.107   7.815   6.133
11551SOL     OW36093   2.530   0.237   6.208
11551SOL    HW136094   2.581   0.318   6.208
11551SOL    HW236095   2.440   0.265   6.226
11552SOL     OW36096   3.621   7.790   7.269
11552SOL    HW136097   3.625   7.823   7.179
11552SOL    HW236098   3.540   7.739   7.272
11553SOL     OW36099   3.663   7.603   6.839
11553SOL    HW136100   3.676   7.508   6.838
11553SOL    HW236101   3.676   7.630   6.748
11554SOL     OW36102   2.176   7.799   6.028
11554SOL    HW136103   2.270   7.800   6.011
11554SOL    HW236104   2.168   7.810   6.123
11555SOL     OW36105   3.307   7.649   6.779
11555SOL    HW136106   3.281   7.567   6.737
11555SOL    HW236107   3.232   7.708   6.764
11556SOL     OW36108   2.864   7.448   6.719
11556SOL    HW136109   2.820   7.381   6.666
11556SOL    HW236110   2.956   7.421   6.720
11557SOL     OW36111   3.236   7.487   5.754
11557SOL    HW136112   3.278   7.414   5.709
11557SOL    HW236113   3.145   7.460   5.763
11558SOL     OW36114   3.118   7.912   6.275
11558SOL    HW136115   3.131   8.006   6.279
11558SOL    HW236116   3.140   7.881   6.363
11559SOL     OW36117   3.433   7.647   6.481
11559SOL    HW136118   3.422   7.700   6.560
11559SOL    HW236119   3.437   7.710   6.409
11560SOL     OW36120   2.085   7.718   8.448
11560SOL    HW136121   2.118   7.692   8.533
11560SOL    HW236122   1.997   7.680   8.443
11561SOL     OW36123   1.847   7.818   8.116
11561SOL    HW136124   1.764   7.857   8.142
11561SOL    HW236125   1.823   7.745   8.059
11562SOL     OW36126   3.581   0.025   7.698
11562SOL    HW136127   3.592   0.053   7.607
11562SOL    HW236128   3.568  -0.069   7.693
11563SOL     OW36129   2.298   7.835   9.011
11563SOL    HW136130   2.375   7.794   8.971
11563SOL    HW236131   2.223   7.788   8.975
11564SOL     OW36132   3.469   7.924   8.172
11564SOL    HW136133   3.396   7.945   8.112
11564SOL    HW236134   3.489   8.007   8.215
11565SOL     OW36135   3.472   7.572   8.921
11565SOL    HW136136   3.480   7.650   8.865
11565SOL    HW236137   3.433   7.605   9.002
11566SOL     OW36138   1.947   0.077   8.132
11566SOL    HW136139   1.928  -0.015   8.113
11566SOL    HW236140   1.893   0.126   8.070
11567SOL     OW36141   2.674   7.433   7.979
11567SOL    HW136142   2.718   7.512   7.949
11567SOL    HW236143   2.581   7.455   7.977
11568SOL     OW36144   2.205   7.705   9.267
11568SOL    HW136145   2.271   7.770   9.242
11568SOL    HW236146   2.122   7.744   9.242
11569SOL     OW36147   3.101   7.779   8.390
11569SOL    HW136148   3.012   7.745   8.384
11569SOL    HW236149   3.127   7.765   8.481
11570SOL     OW36150   3.280   7.950   9.137
11570SOL    HW136151   3.193   7.931   9.172
11570SOL    HW236152   3.325   7.865   9.138
11571SOL     OW36153   2.797   0.344   8.985
11571SOL    HW136154   2.828   0.254   8.992
11571SOL    HW236155   2.704   0.337   8.967
11572SOL     OW36156   2.889   7.813   8.705
11572SOL    HW136157   2.828   7.857   8.765
11572SOL    HW236158   2.833   7.767   8.643
11573SOL     OW36159   2.774   7.799   7.631
11573SOL    HW136160   2.756   7.813   7.538
11573SOL    HW236161   2.698   7.750   7.663
11574SOL     OW36162   3.591   0.031   9.289
11574SOL    HW136163   3.531   0.082   9.234
11574SOL    HW236164   3.613  -0.045   9.236
11575SOL     OW36165   2.394   7.610   8.347
11575SOL    HW136166   2.405   7.646   8.435
11575SOL    HW236167   2.398   7.687   8.289
11576SOL     OW36168   2.063   7.709   8.939
11576SOL    HW136169   1.989   7.770   8.938
11576SOL    HW236170   2.025   7.627   8.973
11577SOL     OW36171   3.263   7.544   7.886
11577SOL    HW136172   3.239   7.521   7.796
11577SOL    HW236173   3.359   7.553   7.883
11578SOL     OW36174   3.373   7.677   9.170
11578SOL    HW136175   3.374   7.699   9.263
11578SOL    HW236176   3.307   7.608   9.162
11579SOL     OW36177   2.467   7.459   7.581
11579SOL    HW136178   2.492   7.544   7.616
11579SOL    HW236179   2.438   7.478   7.492
11580SOL     OW36180   2.651   7.729   9.212
11580SOL    HW136181   2.720   7.662   9.204
11580SOL    HW236182   2.650   7.749   9.306
11581SOL     OW36183   3.251   0.025   8.869
11581SOL    HW136184   3.262  -0.008   8.959
11581SOL    HW236185   3.188   0.096   8.878
11582SOL     OW36186   2.410   7.503   7.954
11582SOL    HW136187   2.323   7.522   7.988
11582SOL    HW236188   2.433   7.580   7.902
11583SOL     OW36189   2.151   7.498   7.631
11583SOL    HW136190   2.195   7.566   7.581
11583SOL    HW236191   2.221   7.444   7.667
11584SOL     OW36192   2.809   7.662   7.925
11584SOL    HW136193   2.751   7.721   7.877
11584SOL    HW236194   2.897   7.698   7.911
11585SOL     OW36195   1.954   0.002   8.897
11585SOL    HW136196   1.971  -0.022   8.806
11585SOL    HW236197   1.884   0.067   8.892
11586SOL     OW36198   2.428   7.673   8.617
11586SOL    HW136199   2.464   7.593   8.655
11586SOL    HW236200   2.337   7.675   8.646
11587SOL     OW36201   2.890   7.497   8.184
11587SOL    HW136202   2.834   7.512   8.108
11587SOL    HW236203   2.852   7.421   8.228
11588SOL     OW36204   3.332  -0.022   8.441
11588SOL    HW136205   3.249   0.006   8.480
11588SOL    HW236206   3.399   0.027   8.488
11589SOL     OW36207   2.775   7.535   8.841
11589SOL    HW136208   2.797   7.512   8.750
11589SOL    HW236209   2.857   7.568   8.877
11590SOL     OW36210   3.160   7.818   8.694
11590SOL    HW136211   3.188   7.892   8.748
11590SOL    HW236212   3.064   7.824   8.695
11591SOL     OW36213   2.421   7.953   8.336
11591SOL    HW136214   2.414   7.991   8.249
11591SOL    HW236215   2.502   7.989   8.371
11592SOL     OW36216   2.870   7.565   9.187
11592SOL    HW136217   2.941   7.627   9.171
11592SOL    HW236218   2.907   7.479   9.167
11593SOL     OW36219   2.355   7.477   9.198
11593SOL    HW136220   2.310   7.431   9.128
11593SOL    HW236221   2.307   7.560   9.208
11594SOL     OW36222   2.170   7.640   8.695
11594SOL    HW136223   2.128   7.670   8.775
11594SOL    HW236224   2.154   7.546   8.694
11595SOL     OW36225   2.628   0.093   8.470
11595SOL    HW136226   2.649   0.145   8.392
11595SOL    HW236227   2.569   0.150   8.521
11596SOL     OW36228   2.150   7.495   8.082
11596SOL    HW136229   2.125   7.587   8.097
11596SOL    HW236230   2.194   7.469   8.163
11597SOL     OW36231   3.458   7.789   7.801
11597SOL    HW136232   3.500   7.738   7.870
11597SOL    HW236233   3.426   7.868   7.845
11598SOL     OW36234   3.358   7.716   7.556
11598SOL    HW136235   3.302   7.643   7.582
11598SOL    HW236236   3.401   7.744   7.637
11599SOL     OW36237   3.183   0.251   7.494
11599SOL    HW136238   3.134   0.184   7.542
11599SOL    HW236239   3.117   0.294   7.439
11600SOL     OW36240   2.184   7.970   8.481
11600SOL    HW136241   2.157   7.880   8.462
11600SOL    HW236242   2.264   7.981   8.430
11601SOL     OW36243   3.007   7.827   9.123
11601SOL    HW136244   2.946   7.830   9.196
11601SOL    HW236245   2.997   7.910   9.078
11602SOL     OW36246   3.026   7.634   8.920
11602SOL    HW136247   3.022   7.702   8.988
11602SOL    HW236248   3.040   7.682   8.839
11603SOL     OW36249   1.952   7.950   8.630
11603SOL    HW136250   2.025   7.953   8.568
11603SOL    HW236251   1.879   7.990   8.584
11604SOL     OW36252   2.059   7.942   9.156
11604SOL    HW136253   2.134   7.928   9.098
11604SOL    HW236254   1.991   7.978   9.099
11605SOL     OW36255   2.644   8.023   7.719
11605SOL    HW136256   2.708   7.956   7.697
11605SOL    HW236257   2.576   7.977   7.767
11606SOL     OW36258   3.524   0.053   8.634
11606SOL    HW136259   3.510  -0.001   8.711
11606SOL    HW236260   3.603   0.016   8.593
11607SOL     OW36261   2.612   7.880   8.669
11607SOL    HW136262   2.543   7.814   8.658
11607SOL    HW236263   2.592   7.947   8.604
11608SOL     OW36264   3.589   7.596   7.956
11608SOL    HW136265   3.653   7.590   7.885
11608SOL    HW236266   3.573   7.505   7.982
11609SOL     OW36267   3.702   7.602   8.419
11609SOL    HW136268   3.741   7.516   8.403
11609SOL    HW236269   3.656   7.623   8.338
11610SOL     OW36270   2.103   7.744   8.170
11610SOL    HW136271   2.017   7.781   8.152
11610SOL    HW236272   2.111   7.747   8.265
11611SOL     OW36273   2.864   7.660   8.407
11611SOL    HW136274   2.864   7.614   8.323
11611SOL    HW236275   2.856   7.591   8.472
11612SOL     OW36276   3.591   7.850   8.842
11612SOL    HW136277   3.667   7.909   8.850
11612SOL    HW236278   3.621   7.781   8.782
11613SOL     OW36279   2.539   7.639   8.960
11613SOL    HW136280   2.621   7.617   8.915
11613SOL    HW236281   2.567   7.670   9.046
11614SOL     OW36282   1.934   7.781   7.480
11614SOL    HW136283   1.871   7.758   7.411
11614SOL    HW236284   1.966   7.867   7.454
11615SOL     OW36285   1.912   7.593   7.731
11615SOL    HW136286   1.898   7.670   7.676
11615SOL    HW236287   2.000   7.562   7.707
11616SOL     OW36288   2.664   8.014   9.179
11616SOL    HW136289   2.592   8.043   9.122
11616SOL    HW236290   2.652   7.920   9.187
11617SOL     OW36291   3.077   7.749   7.918
11617SOL    HW136292   3.137   7.678   7.900
11617SOL    HW236293   3.124   7.806   7.979
11618SOL     OW36294   2.527   0.239   8.162
11618SOL    HW136295   2.585   0.310   8.134
11618SOL    HW236296   2.514   0.186   8.084
11619SOL     OW36297   3.612   7.812   9.116
11619SOL    HW136298   3.603   7.831   9.023
11619SOL    HW236299   3.539   7.752   9.135
11620SOL     OW36300   3.674   7.644   8.689
11620SOL    HW136301   3.698   7.555   8.717
11620SOL    HW236302   3.676   7.640   8.594
11621SOL     OW36303   2.282   7.882   7.996
11621SOL    HW136304   2.329   7.831   7.930
11621SOL    HW236305   2.222   7.820   8.037
11622SOL     OW36306   3.329   7.671   8.526
11622SOL    HW136307   3.323   7.578   8.548
11622SOL    HW236308   3.288   7.716   8.600
11623SOL     OW36309   2.864   7.450   8.588
11623SOL    HW136310   2.808   7.383   8.549
11623SOL    HW236311   2.952   7.413   8.587
11624SOL     OW36312   3.216   7.491   7.618
11624SOL    HW136313   3.247   7.425   7.557
11624SOL    HW236314   3.129   7.461   7.643
11625SOL     OW36315   3.186   7.903   8.141
11625SOL    HW136316   3.165   7.982   8.089
11625SOL    HW236317   3.110   7.892   8.198
11626SOL     OW36318   2.113   7.717  10.311
11626SOL    HW136319   2.134   7.693  10.401
11626SOL    HW236320   2.021   7.691  10.300
11627SOL     OW36321   1.845   7.806   9.956
11627SOL    HW136322   1.762   7.849   9.980
11627SOL    HW236323   1.818   7.729   9.907
11628SOL     OW36324   3.571   0.037   9.569
11628SOL    HW136325   3.589   0.041   9.475
11628SOL    HW236326   3.550  -0.055   9.585
11629SOL     OW36327   2.320   7.842  10.837
11629SOL    HW136328   2.387   7.775  10.820
11629SOL    HW236329   2.238   7.794  10.832
11630SOL     OW36330   3.463   7.944  10.019
11630SOL    HW136331   3.372   7.933   9.990
11630SOL    HW236332   3.456   7.968  10.111
11631SOL     OW36333   3.440   7.580  10.770
11631SOL    HW136334   3.471   7.651  10.714
11631SOL    HW236335   3.441   7.616  10.858
11632SOL     OW36336   1.923   0.073   9.985
11632SOL    HW136337   1.907  -0.011   9.942
11632SOL    HW236338   2.018   0.074  10.001
11633SOL     OW36339   2.686   7.444   9.846
11633SOL    HW136340   2.732   7.519   9.808
11633SOL    HW236341   2.593   7.468   9.841
11634SOL     OW36342   2.202   7.708  11.109
11634SOL    HW136343   2.243   7.779  11.158
11634SOL    HW236344   2.115   7.698  11.149
11635SOL     OW36345   3.128   7.806  10.247
11635SOL    HW136346   3.040   7.771  10.256
11635SOL    HW236347   3.182   7.750  10.304
11636SOL     OW36348   3.258   7.924  10.999
11636SOL    HW136349   3.267   7.978  11.077
11636SOL    HW236350   3.315   7.849  11.014
11637SOL     OW36351   2.776   0.343  10.831
11637SOL    HW136352   2.846   0.373  10.889
11637SOL    HW236353   2.747   0.422  10.786
11638SOL     OW36354   2.864   7.819  10.532
11638SOL    HW136355   2.774   7.828  10.561
11638SOL    HW236356   2.858   7.766  10.452
11639SOL     OW36357   3.628   0.042  11.108
11639SOL    HW136358   3.561   0.102  11.076
11639SOL    HW236359   3.623  -0.033  11.049
11640SOL     OW36360   2.381   7.649  10.259
11640SOL    HW136361   2.289   7.670  10.250
11640SOL    HW236362   2.428   7.725  10.225
11641SOL     OW36363   2.072   7.713  10.804
11641SOL    HW136364   1.994   7.767  10.814
11641SOL    HW236365   2.051   7.630  10.847
11642SOL     OW36366   3.269   7.547   9.749
11642SOL    HW136367   3.253   7.524   9.658
11642SOL    HW236368   3.357   7.514   9.767
11643SOL     OW36369   3.396   7.678  11.043
11643SOL    HW136370   3.394   7.694  11.137
11643SOL    HW236371   3.344   7.599  11.031
11644SOL     OW36372   2.457   7.549   9.445
11644SOL    HW136373   2.540   7.597   9.447
11644SOL    HW236374   2.449   7.518   9.355
11645SOL     OW36375   2.636   7.740  11.054
11645SOL    HW136376   2.716   7.687  11.058
11645SOL    HW236377   2.586   7.712  11.131
11646SOL     OW36378   3.227   0.017  10.738
11646SOL    HW136379   3.248  -0.017  10.824
11646SOL    HW236380   3.161   0.085  10.754
11647SOL     OW36381   2.425   7.516   9.823
11647SOL    HW136382   2.336   7.507   9.857
11647SOL    HW236383   2.422   7.592   9.766
11648SOL     OW36384   2.175   7.508   9.494
11648SOL    HW136385   2.241   7.551   9.440
11648SOL    HW236386   2.224   7.442   9.543
11649SOL     OW36387   2.818   7.665   9.767
11649SOL    HW136388   2.773   7.704   9.692
11649SOL    HW236389   2.906   7.703   9.765
11650SOL     OW36390   1.943  -0.006  10.712
11650SOL    HW136391   2.024   0.004  10.761
11650SOL    HW236392   1.891   0.072  10.733
11651SOL     OW36393   2.869   7.515  10.065
11651SOL    HW136394   2.819   7.520   9.983
11651SOL    HW236395   2.844   7.431  10.103
11652SOL     OW36396   3.336   7.986  10.290
11652SOL    HW136397   3.267   7.923  10.271
11652SOL    HW236398   3.291   8.059  10.333
11653SOL     OW36399   2.395   7.722   9.646
11653SOL    HW136400   2.386   7.659   9.575
11653SOL    HW236401   2.476   7.769   9.626
11654SOL     OW36402   2.780   7.533  10.698
11654SOL    HW136403   2.802   7.511  10.607
11654SOL    HW236404   2.860   7.571  10.733
11655SOL     OW36405   3.130   7.795  10.602
11655SOL    HW136406   3.162   7.878  10.639
11655SOL    HW236407   3.040   7.813  10.578
11656SOL     OW36408   2.419   7.926  10.176
11656SOL    HW136409   2.372   7.933  10.093
11656SOL    HW236410   2.424   8.016  10.208
11657SOL     OW36411   2.871   7.591  11.071
11657SOL    HW136412   2.926   7.664  11.042
11657SOL    HW236413   2.912   7.514  11.032
11658SOL     OW36414   2.366   7.492  11.045
11658SOL    HW136415   2.316   7.433  10.989
11658SOL    HW236416   2.307   7.564  11.064
11659SOL     OW36417   2.192   7.628  10.561
11659SOL    HW136418   2.158   7.673  10.639
11659SOL    HW236419   2.154   7.540  10.566
11660SOL     OW36420   2.634   0.062  10.347
11660SOL    HW136421   2.658   0.022  10.263
11660SOL    HW236422   2.566   0.126  10.324
11661SOL     OW36423   2.172   7.499   9.931
11661SOL    HW136424   2.139   7.586   9.954
11661SOL    HW236425   2.156   7.446  10.008
11662SOL     OW36426   3.464   7.803   9.679
11662SOL    HW136427   3.517   7.736   9.723
11662SOL    HW236428   3.387   7.813   9.734
11663SOL     OW36429   3.343   7.742   9.435
11663SOL    HW136430   3.298   7.660   9.456
11663SOL    HW236431   3.399   7.758   9.511
11664SOL     OW36432   3.170   0.263   9.383
11664SOL    HW136433   3.143   0.174   9.404
11664SOL    HW236434   3.110   0.290   9.313
11665SOL     OW36435   2.152   7.988  10.350
11665SOL    HW136436   2.156   7.894  10.329
11665SOL    HW236437   2.188   8.032  10.273
11666SOL     OW36438   3.001   7.824  10.993
11666SOL    HW136439   2.942   7.897  11.010
11666SOL    HW236440   3.089   7.863  10.993
11667SOL     OW36441   3.022   7.630  10.796
11667SOL    HW136442   3.011   7.702  10.858
11667SOL    HW236443   3.070   7.669  10.723
11668SOL     OW36444   1.888   7.927  10.451
11668SOL    HW136445   1.962   7.945  10.392
11668SOL    HW236446   1.919   7.955  10.537
11669SOL     OW36447   2.008   7.992  11.026
11669SOL    HW136448   2.080   7.933  11.005
11669SOL    HW236449   2.050   8.071  11.060
11670SOL     OW36450   2.703   0.080   9.626
11670SOL    HW136451   2.717  -0.008   9.591
11670SOL    HW236452   2.612   0.100   9.606
11671SOL     OW36453   3.489   8.025  10.520
11671SOL    HW136454   3.467   7.962  10.589
11671SOL    HW236455   3.449   7.989  10.441
11672SOL     OW36456   2.591   7.874  10.545
11672SOL    HW136457   2.499   7.871  10.569
11672SOL    HW236458   2.595   7.937  10.474
11673SOL     OW36459   3.596   7.607   9.819
11673SOL    HW136460   3.661   7.596   9.749
11673SOL    HW236461   3.575   7.518   9.848
11674SOL     OW36462   3.696   7.619  10.271
11674SOL    HW136463   3.720   7.530  10.246
11674SOL    HW236464   3.612   7.634  10.229
11675SOL     OW36465   2.097   7.740  10.027
11675SOL    HW136466   2.009   7.767  10.003
11675SOL    HW236467   2.100   7.749  10.122
11676SOL     OW36468   2.891   7.671  10.291
11676SOL    HW136469   2.880   7.636  10.203
11676SOL    HW236470   2.886   7.595  10.349
11677SOL     OW36471   3.599   7.818  10.697
11677SOL    HW136472   3.651   7.895  10.675
11677SOL    HW236473   3.634   7.749  10.640
11678SOL     OW36474   2.539   7.645  10.805
11678SOL    HW136475   2.622   7.622  10.763
11678SOL    HW236476   2.563   7.670  10.894
11679SOL     OW36477   1.918   7.779   9.341
11679SOL    HW136478   1.854   7.777   9.269
11679SOL    HW236479   1.963   7.863   9.330
11680SOL     OW36480   3.088   7.755   9.782
11680SOL    HW136481   3.145   7.680   9.764
11680SOL    HW236482   3.132   7.802   9.853
11681SOL     OW36483   2.487   0.259   9.996
11681SOL    HW136484   2.523   0.330   9.942
11681SOL    HW236485   2.465   0.190   9.933
11682SOL     OW36486   3.624   7.812  10.967
11682SOL    HW136487   3.606   7.823  10.873
11682SOL    HW236488   3.553   7.755  10.998
11683SOL     OW36489   3.705   7.631  10.542
11683SOL    HW136490   3.741   7.547  10.570
11683SOL    HW236491   3.690   7.621  10.448
11684SOL     OW36492   2.253   7.867   9.831
11684SOL    HW136493   2.289   7.811   9.761
11684SOL    HW236494   2.200   7.807   9.883
11685SOL     OW36495   3.287   7.664  10.413
11685SOL    HW136496   3.298   7.570  10.426
11685SOL    HW236497   3.242   7.694  10.492
11686SOL     OW36498   2.869   7.445  10.447
11686SOL    HW136499   2.823   7.384  10.390
11686SOL    HW236500   2.958   7.409  10.453
11687SOL     OW36501   3.225   7.495   9.481
11687SOL    HW136502   3.263   7.424   9.430
11687SOL    HW236503   3.137   7.465   9.502
11688SOL     OW36504   3.190   7.905   9.997
11688SOL    HW136505   3.125   7.971   9.974
11688SOL    HW236506   3.158   7.868  10.080
11689SOL     OW36507   3.449   7.673  10.186
11689SOL    HW136508   3.388   7.674  10.260
11689SOL    HW236509   3.401   7.715  10.115
11690SOL     OW36510   2.090   7.716  12.161
11690SOL    HW136511   2.119   7.686  12.247
11690SOL    HW236512   1.998   7.688  12.155
11691SOL     OW36513   1.852   7.835  11.814
11691SOL    HW136514   1.769   7.877  11.839
11691SOL    HW236515   1.825   7.754  11.770
11692SOL     OW36516   3.539  -0.017  11.366
11692SOL    HW136517   3.577   0.009  11.282
11692SOL    HW236518   3.590   0.031  11.432
11693SOL     OW36519   3.453   7.931  11.881
11693SOL    HW136520   3.364   7.920  11.849
11693SOL    HW236521   3.443   7.966  11.970
11694SOL     OW36522   2.683   7.435  11.704
11694SOL    HW136523   2.727   7.512  11.669
11694SOL    HW236524   2.591   7.460  11.708
11695SOL     OW36525   3.138   7.784  12.099
11695SOL    HW136526   3.045   7.766  12.117
11695SOL    HW236527   3.185   7.733  12.164
11696SOL     OW36528   2.849   7.797  12.417
11696SOL    HW136529   2.760   7.819  12.446
11696SOL    HW236530   2.839   7.779  12.323
11697SOL     OW36531   2.732   7.790  11.355
11697SOL    HW136532   2.811   7.795  11.300
11697SOL    HW236533   2.726   7.698  11.380
11698SOL     OW36534   2.406   7.610  12.047
11698SOL    HW136535   2.405   7.625  12.142
11698SOL    HW236536   2.402   7.698  12.009
11699SOL     OW36537   3.297   7.543  11.525
11699SOL    HW136538   3.346   7.462  11.536
11699SOL    HW236539   3.349   7.610  11.569
11700SOL     OW36540   2.512   7.560  11.265
11700SOL    HW136541   2.511   7.482  11.320
11700SOL    HW236542   2.463   7.535  11.186
11701SOL     OW36543   2.433   7.532  11.689
11701SOL    HW136544   2.348   7.516  11.730
11701SOL    HW236545   2.411   7.582  11.610
11702SOL     OW36546   2.164   7.508  11.361
11702SOL    HW136547   2.230   7.573  11.384
11702SOL    HW236548   2.207   7.424  11.378
11703SOL     OW36549   2.816   7.663  11.623
11703SOL    HW136550   2.766   7.745  11.630
11703SOL    HW236551   2.908   7.690  11.628
11704SOL     OW36552   1.965  -0.004   0.069
11704SOL    HW136553   2.054  -0.013   0.101
11704SOL    HW236554   1.927   0.066   0.122
11705SOL     OW36555   2.402   7.635  12.309
11705SOL    HW136556   2.455   7.697  12.359
11705SOL    HW236557   2.316   7.637  12.351
11706SOL     OW36558   2.892   7.483  11.907
11706SOL    HW136559   2.821   7.489  11.843
11706SOL    HW236560   2.862   7.416  11.969
11707SOL     OW36561   3.356   7.954  12.138
11707SOL    HW136562   3.270   7.913  12.135
11707SOL    HW236563   3.346   8.028  12.198
11708SOL     OW36564   2.392   7.702  11.469
11708SOL    HW136565   2.445   7.669  11.396
11708SOL    HW236566   2.428   7.788  11.488
11709SOL     OW36567   3.124   7.815  12.445
11709SOL    HW136568   3.150   7.888  12.501
11709SOL    HW236569   3.030   7.827  12.432
11710SOL     OW36570   2.407   7.963  12.039
11710SOL    HW136571   2.418   8.047  11.996
11710SOL    HW236572   2.482   7.956  12.098
11711SOL     OW36573   2.149   7.635  12.417
11711SOL    HW136574   2.130   7.661  12.507
11711SOL    HW236575   2.131   7.541  12.416
11712SOL     OW36576   2.626   0.087  12.173
11712SOL    HW136577   2.668   0.156  12.122
11712SOL    HW236578   2.566   0.134  12.231
11713SOL     OW36579   2.175   7.513  11.791
11713SOL    HW136580   2.145   7.600  11.816
11713SOL    HW236581   2.182   7.465  11.874
11714SOL     OW36582   3.431   7.774  11.592
11714SOL    HW136583   3.499   7.728  11.641
11714SOL    HW236584   3.451   7.867  11.605
11715SOL     OW36585   3.381   7.743  11.307
11715SOL    HW136586   3.357   7.693  11.384
11715SOL    HW236587   3.444   7.807  11.339
11716SOL     OW36588   3.154   0.220  11.144
11716SOL    HW136589   3.170   0.170  11.225
11716SOL    HW236590   3.122   0.305  11.174
11717SOL     OW36591   2.167   7.971  12.189
11717SOL    HW136592   2.149   7.878  12.176
11717SOL    HW236593   2.253   7.985  12.148
11718SOL     OW36594   3.029   7.663   0.175
11718SOL    HW136595   3.028   7.717   0.254
11718SOL    HW236596   3.044   7.725   0.104
11719SOL     OW36597   1.909   7.964  12.293
11719SOL    HW136598   1.992   7.965  12.245
11719SOL    HW236599   1.934   7.956  12.385
11720SOL     OW36600   2.659   0.046  11.409
11720SOL    HW136601   2.687  -0.045  11.401
11720SOL    HW236602   2.628   0.054  11.499
11721SOL     OW36603   3.507   8.035  12.380
11721SOL    HW136604   3.509   7.962  12.441
11721SOL    HW236605   3.551   8.003  12.301
11722SOL     OW36606   3.606   7.594  11.702
11722SOL    HW136607   3.671   7.563  11.639
11722SOL    HW236608   3.570   7.514  11.740
11723SOL     OW36609   3.712   7.614  12.167
11723SOL    HW136610   3.736   7.527  12.136
11723SOL    HW236611   3.627   7.631  12.127
11724SOL     OW36612   2.108   7.762  11.886
11724SOL    HW136613   2.020   7.796  11.869
11724SOL    HW236614   2.110   7.749  11.981
11725SOL     OW36615   2.890   7.672  12.145
11725SOL    HW136616   2.884   7.627  12.060
11725SOL    HW236617   2.881   7.602  12.210
11726SOL     OW36618   3.601   7.796   0.019
11726SOL    HW136619   3.624   7.867   0.079
11726SOL    HW236620   3.530   7.750   0.063
11727SOL     OW36621   1.951   7.771  11.216
11727SOL    HW136622   1.869   7.745  11.172
11727SOL    HW236623   1.961   7.863  11.195
11728SOL     OW36624   1.929   7.601  11.467
11728SOL    HW136625   1.918   7.679  11.413
11728SOL    HW236626   2.014   7.565  11.440
11729SOL     OW36627   3.080   7.755  11.626
11729SOL    HW136628   3.160   7.708  11.603
11729SOL    HW236629   3.106   7.812  11.699
11730SOL     OW36630   2.501   0.225  11.800
11730SOL    HW136631   2.546   0.308  11.783
11730SOL    HW236632   2.456   0.238  11.883
11731SOL     OW36633   2.223   7.849  11.644
11731SOL    HW136634   2.253   7.765  11.610
11731SOL    HW236635   2.183   7.828  11.728
11732SOL     OW36636   3.295   7.669  12.299
11732SOL    HW136637   3.334   7.608  12.362
11732SOL    HW236638   3.239   7.725  12.351
11733SOL     OW36639   2.876   7.442  12.298
11733SOL    HW136640   2.831   7.386  12.234
11733SOL    HW236641   2.965   7.406  12.303
11734SOL     OW36642   3.168   7.899  11.851
11734SOL    HW136643   3.108   7.974  11.855
11734SOL    HW236644   3.158   7.855  11.935
11735SOL     OW36645   3.456   7.660  12.074
11735SOL    HW136646   3.400   7.671  12.151
11735SOL    HW236647   3.440   7.738  12.021
11736SOL     OW36648   3.904   0.547   0.031
11736SOL    HW136649   3.880   0.595   0.110
11736SOL    HW236650   3.969   0.604  -0.012
11737SOL     OW36651   3.931   0.303   0.987
11737SOL    HW136652   3.967   0.258   1.063
11737SOL    HW236653   3.848   0.257   0.968
11738SOL     OW36654   3.730   0.379   0.636
11738SOL    HW136655   3.659   0.421   0.684
11738SOL    HW236656   3.689   0.306   0.591
11739SOL     OW36657   4.286   1.290   1.178
11739SOL    HW136658   4.203   1.312   1.135
11739SOL    HW236659   4.308   1.369   1.227
11740SOL     OW36660   5.286   1.522   0.738
11740SOL    HW136661   5.274   1.506   0.832
11740SOL    HW236662   5.197   1.530   0.705
11741SOL     OW36663   4.861   0.703   0.702
11741SOL    HW136664   4.911   0.784   0.689
11741SOL    HW236665   4.814   0.717   0.784
11742SOL     OW36666   5.430   0.626   0.272
11742SOL    HW136667   5.441   0.628   0.177
11742SOL    HW236668   5.429   0.533   0.294
11743SOL     OW36669   4.464   1.131   1.052
11743SOL    HW136670   4.397   1.172   1.107
11743SOL    HW236671   4.505   1.203   1.005
11744SOL     OW36672   4.609   0.758   1.826
11744SOL    HW136673   4.614   0.825   1.895
11744SOL    HW236674   4.629   0.806   1.745
11745SOL     OW36675   4.405   0.987   0.651
11745SOL    HW136676   4.475   0.986   0.716
11745SOL    HW236677   4.343   1.052   0.684
11746SOL     OW36678   4.408   1.183   1.805
11746SOL    HW136679   4.466   1.232   1.862
11746SOL    HW236680   4.403   1.235   1.725
11747SOL     OW36681   4.064   1.408   1.064
11747SOL    HW136682   3.976   1.403   1.026
11747SOL    HW236683   4.109   1.475   1.012
11748SOL     OW36684   5.185   1.489   1.366
11748SOL    HW136685   5.242   1.566   1.372
11748SOL    HW236686   5.112   1.509   1.425
11749SOL     OW36687   4.149   0.403   1.490
11749SOL    HW136688   4.231   0.354   1.493
11749SOL    HW236689   4.081   0.336   1.501
11750SOL     OW36690   5.337   0.434   0.733
11750SOL    HW136691   5.281   0.465   0.662
11750SOL    HW236692   5.374   0.514   0.772
11751SOL     OW36693   3.953   1.707   0.466
11751SOL    HW136694   3.961   1.780   0.527
11751SOL    HW236695   4.036   1.706   0.419
11752SOL     OW36696   4.869   1.334   1.682
11752SOL    HW136697   4.916   1.335   1.765
11752SOL    HW236698   4.814   1.256   1.686
11753SOL     OW36699   3.938   1.448   0.552
11753SOL    HW136700   3.949   1.539   0.524
11753SOL    HW236701   3.883   1.453   0.630
11754SOL     OW36702   3.989   1.099   0.910
11754SOL    HW136703   4.042   1.069   0.984
11754SOL    HW236704   3.927   1.162   0.947
11755SOL     OW36705   4.354   1.741   1.460
11755SOL    HW136706   4.270   1.784   1.476
11755SOL    HW236707   4.410   1.809   1.425
11756SOL     OW36708   4.277   1.032   0.134
11756SOL    HW136709   4.276   1.126   0.115
11756SOL    HW236710   4.331   1.024   0.213
11757SOL     OW36711   5.384   0.117   1.465
11757SOL    HW136712   5.338   0.199   1.447
11757SOL    HW236713   5.376   0.106   1.559
11758SOL     OW36714   3.857   0.631   0.592
11758SOL    HW136715   3.800   0.556   0.575
11758SOL    HW236716   3.902   0.609   0.674
11759SOL     OW36717   5.535   1.746   0.369
11759SOL    HW136718   5.617   1.711   0.403
11759SOL    HW236719   5.560   1.827   0.324
11760SOL     OW36720   3.754   1.512   0.145
11760SOL    HW136721   3.664   1.481   0.138
11760SOL    HW236722   3.746   1.599   0.186
11761SOL     OW36723   5.414   0.930   0.660
11761SOL    HW136724   5.485   0.879   0.623
11761SOL    HW236725   5.384   0.986   0.588
11762SOL     OW36726   5.365   1.113   0.447
11762SOL    HW136727   5.453   1.112   0.408
11762SOL    HW236728   5.372   1.177   0.518
11763SOL     OW36729   3.847   0.753   1.581
11763SOL    HW136730   3.935   0.787   1.591
11763SOL    HW236731   3.790   0.830   1.583
11764SOL     OW36732   4.336   1.397   0.727
11764SOL    HW136733   4.295   1.311   0.737
11764SOL    HW236734   4.310   1.426   0.640
11765SOL     OW36735   5.054   1.182   1.387
11765SOL    HW136736   5.147   1.181   1.409
11765SOL    HW236737   5.010   1.213   1.466
11766SOL     OW36738   4.540   0.046   0.594
11766SOL    HW136739   4.586   0.123   0.562
11766SOL    HW236740   4.520  -0.005   0.514
11767SOL     OW36741   3.907   0.961   1.284
11767SOL    HW136742   3.990   0.919   1.264
11767SOL    HW236743   3.841   0.906   1.242
11768SOL     OW36744   5.219   1.010   0.228
11768SOL    HW136745   5.157   0.949   0.267
11768SOL    HW236746   5.278   1.033   0.300
11769SOL     OW36747   4.894   1.804   1.629
11769SOL    HW136748   4.901   1.887   1.582
11769SOL    HW236749   4.960   1.748   1.589
11770SOL     OW36750   4.047   0.250   1.789
11770SOL    HW136751   4.106   0.317   1.823
11770SOL    HW236752   3.963   0.269   1.831
11771SOL     OW36753   5.203   1.394   0.978
11771SOL    HW136754   5.128   1.421   1.031
11771SOL    HW236755   5.169   1.325   0.921
11772SOL     OW36756   5.345   1.758   0.578
11772SOL    HW136757   5.408   1.727   0.513
11772SOL    HW236758   5.337   1.686   0.640
11773SOL     OW36759   4.263   0.729   0.226
11773SOL    HW136760   4.356   0.751   0.233
11773SOL    HW236761   4.229   0.742   0.315
11774SOL     OW36762   5.012   0.374   0.939
11774SOL    HW136763   4.920   0.348   0.930
11774SOL    HW236764   5.045   0.322   1.012
11775SOL     OW36765   5.271   1.647   0.312
11775SOL    HW136766   5.357   1.689   0.314
11775SOL    HW236767   5.285   1.566   0.263
11776SOL     OW36768   4.474   0.654   1.431
11776SOL    HW136769   4.479   0.617   1.519
11776SOL    HW236770   4.456   0.578   1.374
11777SOL     OW36771   5.132   0.497   1.681
11777SOL    HW136772   5.143   0.532   1.770
11777SOL    HW236773   5.174   0.412   1.683
11778SOL     OW36774   4.674   0.880   1.583
11778SOL    HW136775   4.719   0.804   1.547
11778SOL    HW236776   4.624   0.916   1.509
11779SOL     OW36777   4.732   0.415   1.232
11779SOL    HW136778   4.698   0.407   1.321
11779SOL    HW236779   4.654   0.427   1.178
11780SOL     OW36780   4.791   0.706   0.425
11780SOL    HW136781   4.804   0.699   0.520
11780SOL    HW236782   4.713   0.653   0.407
11781SOL     OW36783   3.828   1.861   1.581
11781SOL    HW136784   3.839   1.838   1.673
11781SOL    HW236785   3.735   1.846   1.563
11782SOL     OW36786   4.558   0.279   0.163
11782SOL    HW136787   4.547   0.351   0.226
11782SOL    HW236788   4.603   0.320   0.089
11783SOL     OW36789   5.437   0.591   1.811
11783SOL    HW136790   5.407   0.656   1.748
11783SOL    HW236791   5.465   0.517   1.758
11784SOL     OW36792   5.100   1.128   0.529
11784SOL    HW136793   5.183   1.122   0.482
11784SOL    HW236794   5.043   1.179   0.472
11785SOL     OW36795   4.211   0.243   0.917
11785SOL    HW136796   4.243   0.247   1.007
11785SOL    HW236797   4.244   0.322   0.875
11786SOL     OW36798   4.766   1.469   0.488
11786SOL    HW136799   4.710   1.513   0.424
11786SOL    HW236800   4.715   1.471   0.569
11787SOL     OW36801   4.076   1.811   0.837
11787SOL    HW136802   4.128   1.740   0.875
11787SOL    HW236803   4.091   1.886   0.895
11788SOL     OW36804   5.519   1.050   0.893
11788SOL    HW136805   5.485   1.033   0.805
11788SOL    HW236806   5.445   1.038   0.951
11789SOL     OW36807   4.937   1.517   1.484
11789SOL    HW136808   4.920   1.465   1.562
11789SOL    HW236809   4.858   1.571   1.474
11790SOL     OW36810   4.033   0.965   0.242
11790SOL    HW136811   4.125   0.982   0.219
11790SOL    HW236812   3.986   0.972   0.159
11791SOL     OW36813   5.208   0.759   0.730
11791SOL    HW136814   5.207   0.722   0.818
11791SOL    HW236815   5.288   0.812   0.726
11792SOL     OW36816   4.866   1.723   0.307
11792SOL    HW136817   4.774   1.707   0.328
11792SOL    HW236818   4.877   1.690   0.218
11793SOL     OW36819   3.902   0.263   1.507
11793SOL    HW136820   3.836   0.332   1.498
11793SOL    HW236821   3.917   0.258   1.602
11794SOL     OW36822   5.326   1.431   0.161
11794SOL    HW136823   5.293   1.481   0.087
11794SOL    HW236824   5.306   1.340   0.139
11795SOL     OW36825   4.224   1.736   0.381
11795SOL    HW136826   4.253   1.664   0.438
11795SOL    HW236827   4.269   1.721   0.298
11796SOL     OW36828   5.136   0.134   0.430
11796SOL    HW136829   5.137   0.085   0.348
11796SOL    HW236830   5.220   0.113   0.472
11797SOL     OW36831   3.973   1.751   1.229
11797SOL    HW136832   4.014   1.836   1.246
11797SOL    HW236833   3.938   1.759   1.140
11798SOL     OW36834   4.658   1.706   0.873
11798SOL    HW136835   4.704   1.658   0.942
11798SOL    HW236836   4.630   1.639   0.812
11799SOL     OW36837   4.110   0.699   0.476
11799SOL    HW136838   4.137   0.608   0.482
11799SOL    HW236839   4.016   0.697   0.495
11800SOL     OW36840   5.247   0.252   1.721
11800SOL    HW136841   5.254   0.272   1.815
11800SOL    HW236842   5.246   0.157   1.717
11801SOL     OW36843   4.353   0.110   0.129
11801SOL    HW136844   4.423   0.175   0.121
11801SOL    HW236845   4.369   0.050   0.055
11802SOL     OW36846   4.468   0.231   1.760
11802SOL    HW136847   4.533   0.273   1.704
11802SOL    HW236848   4.447   0.298   1.826
11803SOL     OW36849   4.600   1.498   1.178
11803SOL    HW136850   4.576   1.463   1.092
11803SOL    HW236851   4.678   1.449   1.203
11804SOL     OW36852   5.059   0.588   1.435
11804SOL    HW136853   5.092   0.554   1.519
11804SOL    HW236854   5.097   0.675   1.429
11805SOL     OW36855   4.550   1.370   0.937
11805SOL    HW136856   4.636   1.368   0.894
11805SOL    HW236857   4.488   1.390   0.866
11806SOL     OW36858   4.653   0.515   0.902
11806SOL    HW136859   4.616   0.500   0.815
11806SOL    HW236860   4.695   0.432   0.925
11807SOL     OW36861   4.226   0.054   0.494
11807SOL    HW136862   4.321   0.045   0.507
11807SOL    HW236863   4.217   0.125   0.431
11808SOL     OW36864   5.184   1.218   0.054
11808SOL    HW136865   5.197   1.138   0.105
11808SOL    HW236866   5.089   1.229   0.051
11809SOL     OW36867   4.068   0.036   0.188
11809SOL    HW136868   4.151   0.078   0.167
11809SOL    HW236869   4.086  -0.014   0.268
11810SOL     OW36870   4.679   0.251   0.483
11810SOL    HW136871   4.636   0.318   0.430
11810SOL    HW236872   4.773   0.265   0.469
11811SOL     OW36873   4.793   0.657   1.468
11811SOL    HW136874   4.742   0.579   1.487
11811SOL    HW236875   4.883   0.626   1.461
11812SOL     OW36876   4.989   1.566   0.784
11812SOL    HW136877   4.977   1.636   0.720
11812SOL    HW236878   4.987   1.610   0.869
11813SOL     OW36879   4.193   1.157   0.722
11813SOL    HW136880   4.126   1.140   0.788
11813SOL    HW236881   4.149   1.144   0.638
11814SOL     OW36882   4.992   1.797   0.613
11814SOL    HW136883   5.053   1.869   0.627
11814SOL    HW236884   4.908   1.831   0.647
11815SOL     OW36885   4.769   0.529   0.022
11815SOL    HW136886   4.736   0.614  -0.007
11815SOL    HW236887   4.796   0.543   0.112
11816SOL     OW36888   3.815   0.560   1.394
11816SOL    HW136889   3.906   0.561   1.365
11816SOL    HW236890   3.811   0.630   1.461
11817SOL     OW36891   4.295   0.218   1.194
11817SOL    HW136892   4.332   0.192   1.278
11817SOL    HW236893   4.200   0.216   1.207
11818SOL     OW36894   4.560   0.424   0.662
11818SOL    HW136895   4.535   0.483   0.591
11818SOL    HW236896   4.619   0.361   0.622
11819SOL     OW36897   4.728   8.016   0.790
11819SOL    HW136898   4.663   8.025   0.720
11819SOL    HW236899   4.723   7.924   0.816
11820SOL     OW36900   5.162   1.159   0.840
11820SOL    HW136901   5.092   1.107   0.800
11820SOL    HW236902   5.221   1.179   0.767
11821SOL     OW36903   5.174   0.641   0.982
11821SOL    HW136904   5.125   0.559   0.973
11821SOL    HW236905   5.240   0.622   1.049
11822SOL     OW36906   5.546   0.834   0.418
11822SOL    HW136907   5.584   0.763   0.470
11822SOL    HW236908   5.496   0.789   0.349
11823SOL     OW36909   5.386   1.262   0.675
11823SOL    HW136910   5.481   1.256   0.680
11823SOL    HW236911   5.368   1.356   0.685
11824SOL     OW36912   5.139   0.552   0.089
11824SOL    HW136913   5.074   0.553   0.159
11824SOL    HW236914   5.192   0.475   0.107
11825SOL     OW36915   4.218   0.261   0.316
11825SOL    HW136916   4.286   0.222   0.261
11825SOL    HW236917   4.194   0.342   0.271
11826SOL     OW36918   5.479   1.236   1.573
11826SOL    HW136919   5.567   1.206   1.551
11826SOL    HW236920   5.491   1.328   1.595
11827SOL     OW36921   4.781   1.322   1.301
11827SOL    HW136922   4.699   1.312   1.349
11827SOL    HW236923   4.849   1.320   1.369
11828SOL     OW36924   5.325   1.609   1.655
11828SOL    HW136925   5.323   1.663   1.576
11828SOL    HW236926   5.411   1.568   1.655
11829SOL     OW36927   4.867   1.181   1.079
11829SOL    HW136928   4.818   1.225   1.148
11829SOL    HW236929   4.844   1.228   0.999
11830SOL     OW36930   5.294   1.090   1.077
11830SOL    HW136931   5.320   1.161   1.135
11830SOL    HW236932   5.271   1.133   0.995
11831SOL     OW36933   4.667   0.087   1.427
11831SOL    HW136934   4.697   0.093   1.337
11831SOL    HW236935   4.654   0.178   1.454
11832SOL     OW36936   4.710   1.116   1.714
11832SOL    HW136937   4.620   1.132   1.744
11832SOL    HW236938   4.704   1.035   1.663
11833SOL     OW36939   4.413   1.020   0.370
11833SOL    HW136940   4.410   1.014   0.465
11833SOL    HW236941   4.501   0.990   0.347
11834SOL     OW36942   4.140   0.825   1.243
11834SOL    HW136943   4.200   0.845   1.314
11834SOL    HW236944   4.112   0.735   1.260
11835SOL     OW36945   5.001   0.389   1.251
11835SOL    HW136946   5.029   0.462   1.306
11835SOL    HW236947   4.909   0.407   1.233
11836SOL     OW36948   3.789   1.584   1.345
11836SOL    HW136949   3.726   1.633   1.292
11836SOL    HW236950   3.874   1.623   1.324
11837SOL     OW36951   4.043   1.115   0.490
11837SOL    HW136952   4.030   1.189   0.430
11837SOL    HW236953   4.065   1.041   0.433
11838SOL     OW36954   4.272   0.516   0.853
11838SOL    HW136955   4.276   0.579   0.781
11838SOL    HW236956   4.336   0.548   0.916
11839SOL     OW36957   4.963   1.319   0.382
11839SOL    HW136958   5.034   1.383   0.392
11839SOL    HW236959   4.887   1.361   0.423
11840SOL     OW36960   5.011   1.444   1.165
11840SOL    HW136961   5.072   1.459   1.237
11840SOL    HW236962   4.929   1.420   1.208
11841SOL     OW36963   5.280   0.594   0.508
11841SOL    HW136964   5.236   0.663   0.557
11841SOL    HW236965   5.325   0.639   0.437
11842SOL     OW36966   4.085   1.468   1.338
11842SOL    HW136967   4.055   1.454   1.249
11842SOL    HW236968   4.160   1.527   1.329
11843SOL     OW36969   4.145   0.752   1.615
11843SOL    HW136970   4.200   0.800   1.552
11843SOL    HW236971   4.194   0.672   1.634
11844SOL     OW36972   5.337   0.834   1.736
11844SOL    HW136973   5.249   0.860   1.710
11844SOL    HW236974   5.394   0.868   1.667
11845SOL     OW36975   4.763   0.073   1.695
11845SOL    HW136976   4.798   0.157   1.725
11845SOL    HW236977   4.746   0.087   1.602
11846SOL     OW36978   4.147  -0.008   1.762
11846SOL    HW136979   4.185  -0.025   1.676
11846SOL    HW236980   4.132   0.087   1.763
11847SOL     OW36981   4.295   0.881   1.022
11847SOL    HW136982   4.339   0.964   1.035
11847SOL    HW236983   4.243   0.869   1.102
11848SOL     OW36984   5.045   0.872   1.078
11848SOL    HW136985   4.963   0.863   1.029
11848SOL    HW236986   5.101   0.803   1.044
11849SOL     OW36987   4.930   0.524   0.268
11849SOL    HW136988   4.938   0.451   0.330
11849SOL    HW236989   4.886   0.593   0.317
11850SOL     OW36990   4.025   0.205   1.239
11850SOL    HW136991   3.975   0.233   1.316
11850SOL    HW236992   4.002   0.113   1.228
11851SOL     OW36993   3.785   1.317   1.276
11851SOL    HW136994   3.819   1.265   1.349
11851SOL    HW236995   3.792   1.408   1.305
11852SOL     OW36996   4.434   0.632   1.035
11852SOL    HW136997   4.517   0.622   0.988
11852SOL    HW236998   4.408   0.722   1.018
11853SOL     OW36999   5.355   0.365   0.375
11853SOL    HW137000   5.356   0.288   0.431
11853SOL    HW237001   5.316   0.434   0.429
11854SOL     OW37002   4.752   0.762   0.971
11854SOL    HW137003   4.738   0.771   1.065
11854SOL    HW237004   4.727   0.671   0.952
11855SOL     OW37005   4.700   1.548   1.727
11855SOL    HW137006   4.692   1.604   1.650
11855SOL    HW237007   4.750   1.473   1.697
11856SOL     OW37008   5.576   1.495   1.598
11856SOL    HW137009   5.592   1.533   1.512
11856SOL    HW237010   5.655   1.515   1.648
11857SOL     OW37011   4.101   0.957   1.797
11857SOL    HW137012   4.168   0.949   1.865
11857SOL    HW237013   4.118   0.883   1.738
11858SOL     OW37014   5.246   0.299   0.132
11858SOL    HW137015   5.206   0.213   0.139
11858SOL    HW237016   5.285   0.315   0.219
11859SOL     OW37017   5.019   0.805   0.053
11859SOL    HW137018   5.075   0.728   0.043
11859SOL    HW237019   5.052   0.868  -0.012
11860SOL     OW37020   4.811   1.345   0.854
11860SOL    HW137021   4.808   1.273   0.791
11860SOL    HW237022   4.871   1.409   0.815
11861SOL     OW37023   4.017   0.796   0.908
11861SOL    HW137024   4.109   0.822   0.910
11861SOL    HW237025   4.014   0.713   0.955
11862SOL     OW37026   4.053   0.537   1.009
11862SOL    HW137027   4.012   0.451   0.997
11862SOL    HW237028   4.131   0.533   0.953
11863SOL     OW37029   4.899   0.353   1.724
11863SOL    HW137030   4.828   0.410   1.754
11863SOL    HW237031   4.970   0.413   1.701
11864SOL     OW37032   4.941   0.225   1.473
11864SOL    HW137033   4.901   0.270   1.547
11864SOL    HW237034   4.941   0.290   1.402
11865SOL     OW37035   3.840   1.729   0.971
11865SOL    HW137036   3.806   1.670   0.904
11865SOL    HW237037   3.896   1.790   0.923
11866SOL     OW37038   4.223   1.575   0.914
11866SOL    HW137039   4.286   1.646   0.928
11866SOL    HW237040   4.264   1.517   0.850
11867SOL     OW37041   4.688   0.773   1.238
11867SOL    HW137042   4.745   0.741   1.308
11867SOL    HW237043   4.600   0.748   1.266
11868SOL     OW37044   3.763   0.568   1.120
11868SOL    HW137045   3.841   0.537   1.074
11868SOL    HW237046   3.786   0.562   1.213
11869SOL     OW37047   3.916   0.529   1.727
11869SOL    HW137048   3.994   0.517   1.673
11869SOL    HW237049   3.869   0.602   1.687
11870SOL     OW37050   5.100   0.928   1.643
11870SOL    HW137051   5.127   1.019   1.643
11870SOL    HW237052   5.094   0.904   1.551
11871SOL     OW37053   5.365   0.611   1.174
11871SOL    HW137054   5.360   0.552   1.249
11871SOL    HW237055   5.453   0.596   1.138
11872SOL     OW37056   4.004   1.546   1.758
11872SOL    HW137057   3.968   1.628   1.791
11872SOL    HW237058   3.951   1.478   1.800
11873SOL     OW37059   4.402   0.469   1.248
11873SOL    HW137060   4.362   0.387   1.218
11873SOL    HW237061   4.404   0.525   1.170
11874SOL     OW37062   4.688   1.646   1.451
11874SOL    HW137063   4.640   1.621   1.372
11874SOL    HW237064   4.680   1.742   1.454
11875SOL     OW37065   4.153   0.482   0.186
11875SOL    HW137066   4.220   0.549   0.194
11875SOL    HW237067   4.071   0.530   0.180
11876SOL     OW37068   3.867   1.143   1.479
11876SOL    HW137069   3.862   1.091   1.560
11876SOL    HW237070   3.882   1.078   1.410
11877SOL     OW37071   5.027   0.837   0.328
11877SOL    HW137072   4.946   0.805   0.368
11877SOL    HW237073   5.017   0.817   0.235
11878SOL     OW37074   5.467   1.726   1.128
11878SOL    HW137075   5.533   1.777   1.080
11878SOL    HW237076   5.477   1.636   1.095
11879SOL     OW37077   4.967   1.695   1.047
11879SOL    HW137078   5.052   1.739   1.037
11879SOL    HW237079   4.987   1.618   1.101
11880SOL     OW37080   3.809   1.266   1.013
11880SOL    HW137081   3.806   1.282   1.107
11880SOL    HW237082   3.717   1.261   0.987
11881SOL     OW37083   4.387   1.663   1.740
11881SOL    HW137084   4.325   1.735   1.753
11881SOL    HW237085   4.435   1.687   1.660
11882SOL     OW37086   4.692   0.035   0.052
11882SOL    HW137087   4.769   0.088   0.074
11882SOL    HW237088   4.622   0.072   0.105
11883SOL     OW37089   5.402   0.105   0.521
11883SOL    HW137090   5.497   0.111   0.530
11883SOL    HW237091   5.386   0.021   0.479
11884SOL     OW37092   3.874   1.778   1.838
11884SOL    HW137093   3.823   1.717   1.890
11884SOL    HW237094   3.917   1.835   1.902
11885SOL     OW37095   5.006   0.935   0.687
11885SOL    HW137096   5.079   0.873   0.695
11885SOL    HW237097   5.035   0.997   0.620
11886SOL     OW37098   4.533   1.296   1.422
11886SOL    HW137099   4.502   1.326   1.507
11886SOL    HW237100   4.480   1.345   1.359
11887SOL     OW37101   4.377   1.639   0.179
11887SOL    HW137102   4.399   1.666   0.090
11887SOL    HW237103   4.350   1.548   0.170
11888SOL     OW37104   5.346   1.706   1.372
11888SOL    HW137105   5.379   1.717   1.283
11888SOL    HW237106   5.358   1.791   1.413
11889SOL     OW37107   5.566   0.170   0.945
11889SOL    HW137108   5.571   0.080   0.977
11889SOL    HW237109   5.475   0.180   0.915
11890SOL     OW37110   3.986   0.316   0.714
11890SOL    HW137111   3.897   0.336   0.687
11890SOL    HW237112   3.983   0.318   0.810
11891SOL     OW37113   4.931   1.617   0.070
11891SOL    HW137114   4.919   1.522   0.077
11891SOL    HW237115   4.880   1.642  -0.007
11892SOL     OW37116   4.546   1.021   1.378
11892SOL    HW137117   4.580   1.010   1.290
11892SOL    HW237118   4.541   1.116   1.390
11893SOL     OW37119   4.656   0.930   0.306
11893SOL    HW137120   4.713   0.956   0.234
11893SOL    HW237121   4.699   0.853   0.344
11894SOL     OW37122   5.197   1.591  12.489
11894SOL    HW137123   5.107   1.619  12.508
11894SOL    HW237124   5.249   1.670  12.500
11895SOL     OW37125   4.085   1.295   1.543
11895SOL    HW137126   4.088   1.360   1.472
11895SOL    HW237127   4.013   1.238   1.519
11896SOL     OW37128   5.317   1.267   1.281
11896SOL    HW137129   5.406   1.275   1.315
11896SOL    HW237130   5.272   1.344   1.315
11897SOL     OW37131   4.786   1.115   0.718
11897SOL    HW137132   4.712   1.063   0.750
11897SOL    HW237133   4.849   1.050   0.686
11898SOL     OW37134   4.758   0.257   0.935
11898SOL    HW137135   4.751   0.189   0.867
11898SOL    HW237136   4.754   0.209   1.018
11899SOL     OW37137   4.303   1.484   0.468
11899SOL    HW137138   4.386   1.444   0.442
11899SOL    HW237139   4.239   1.450   0.405
11900SOL     OW37140   5.437   0.425   1.370
11900SOL    HW137141   5.516   0.478   1.380
11900SOL    HW237142   5.465   0.351   1.315
11901SOL     OW37143   3.920   1.308   0.318
11901SOL    HW137144   3.917   1.369   0.244
11901SOL    HW237145   3.926   1.364   0.395
11902SOL     OW37146   3.842   1.030   1.723
11902SOL    HW137147   3.767   1.003   1.775
11902SOL    HW237148   3.918   0.995   1.770
11903SOL     OW37149   4.361   0.230   1.492
11903SOL    HW137150   4.442   0.280   1.477
11903SOL    HW237151   4.370   0.196   1.581
11904SOL     OW37152   5.133   0.853   1.372
11904SOL    HW137153   5.093   0.834   1.288
11904SOL    HW237154   5.226   0.865   1.353
11905SOL     OW37155   3.820   0.187   0.301
11905SOL    HW137156   3.812   0.281   0.289
11905SOL    HW237157   3.913   0.169   0.291
11906SOL     OW37158   4.897   1.344   0.108
11906SOL    HW137159   4.802   1.338   0.096
11906SOL    HW237160   4.912   1.317   0.198
11907SOL     OW37161   4.322   0.868   1.437
11907SOL    HW137162   4.384   0.939   1.424
11907SOL    HW237163   4.376   0.788   1.437
11908SOL     OW37164   5.226   1.778   0.984
11908SOL    HW137165   5.240   1.856   0.931
11908SOL    HW237166   5.304   1.770   1.038
11909SOL     OW37167   4.448   0.566   1.700
11909SOL    HW137168   4.497   0.625   1.759
11909SOL    HW237169   4.514   0.504   1.669
11910SOL     OW37170   5.209   1.180   1.633
11910SOL    HW137171   5.192   1.200   1.726
11910SOL    HW237172   5.300   1.207   1.619
11911SOL     OW37173   4.087   1.750   1.566
11911SOL    HW137174   4.003   1.788   1.540
11911SOL    HW237175   4.065   1.664   1.602
11912SOL     OW37176   5.379   0.882   1.257
11912SOL    HW137177   5.389   0.794   1.220
11912SOL    HW237178   5.372   0.939   1.181
11913SOL     OW37179   4.943   0.318   0.449
11913SOL    HW137180   5.010   0.251   0.443
11913SOL    HW237181   4.965   0.368   0.527
11914SOL     OW37182   4.287   0.735   0.686
11914SOL    HW137183   4.340   0.814   0.673
11914SOL    HW237184   4.233   0.729   0.608
11915SOL     OW37185   5.472   0.386   1.638
11915SOL    HW137186   5.452   0.399   1.545
11915SOL    HW237187   5.401   0.330   1.670
11916SOL     OW37188   5.451   0.946   1.520
11916SOL    HW137189   5.458   1.042   1.525
11916SOL    HW237190   5.445   0.928   1.427
11917SOL     OW37191   4.623   1.374   0.060
11917SOL    HW137192   4.531   1.357   0.079
11917SOL    HW237193   4.626   1.468   0.040
11918SOL     OW37194   4.388   1.789   0.920
11918SOL    HW137195   4.366   1.882   0.913
11918SOL    HW237196   4.483   1.786   0.930
11919SOL     OW37197   4.593   0.971   0.858
11919SOL    HW137198   4.647   0.901   0.897
11919SOL    HW237199   4.553   1.015   0.933
11920SOL     OW37200   4.825   0.992   0.104
11920SOL    HW137201   4.837   1.059   0.037
11920SOL    HW237202   4.903   0.937   0.096
11921SOL     OW37203   5.568   1.549   0.830
11921SOL    HW137204   5.485   1.544   0.782
11921SOL    HW237205   5.550   1.504   0.913
11922SOL     OW37206   3.933   1.283   1.845
11922SOL    HW137207   3.874   1.221   1.801
11922SOL    HW237208   3.895   1.294   1.932
11923SOL     OW37209   3.820   1.187   0.674
11923SOL    HW137210   3.861   1.237   0.745
11923SOL    HW237211   3.879   1.197   0.600
11924SOL     OW37212   4.351   1.400   1.639
11924SOL    HW137213   4.303   1.425   1.560
11924SOL    HW237214   4.376   1.483   1.679
11925SOL     OW37215   5.540   0.230   1.222
11925SOL    HW137216   5.579   0.156   1.267
11925SOL    HW237217   5.563   0.218   1.129
11926SOL     OW37218   4.143   0.436   0.521
11926SOL    HW137219   4.164   0.372   0.452
11926SOL    HW237220   4.083   0.389   0.580
11927SOL     OW37221   5.452   1.459   1.065
11927SOL    HW137222   5.361   1.437   1.043
11927SOL    HW237223   5.469   1.412   1.147
11928SOL     OW37224   4.065   0.568   1.292
11928SOL    HW137225   4.111   0.511   1.353
11928SOL    HW237226   4.084   0.533   1.205
11929SOL     OW37227   4.564   1.549   0.668
11929SOL    HW137228   4.547   1.604   0.592
11929SOL    HW237229   4.483   1.498   0.678
11930SOL     OW37230   5.133   0.186   1.125
11930SOL    HW137231   5.198   0.146   1.183
11930SOL    HW237232   5.089   0.250   1.180
11931SOL     OW37233   4.755   0.073   1.138
11931SOL    HW137234   4.716  -0.013   1.154
11931SOL    HW237235   4.846   0.063   1.163
11932SOL     OW37236   4.504   1.333   0.375
11932SOL    HW137237   4.446   1.317   0.301
11932SOL    HW237238   4.566   1.260   0.373
11933SOL     OW37239   4.367   1.519   1.313
11933SOL    HW137240   4.358   1.601   1.362
11933SOL    HW237241   4.440   1.534   1.253
11934SOL     OW37242   5.125   0.046   0.167
11934SOL    HW137243   5.125  -0.049   0.155
11934SOL    HW237244   5.034   0.072   0.149
11935SOL     OW37245   5.002   0.459   0.673
11935SOL    HW137246   4.960   0.545   0.680
11935SOL    HW237247   5.016   0.433   0.764
11936SOL     OW37248   5.293   0.207   0.886
11936SOL    HW137249   5.252   0.253   0.959
11936SOL    HW237250   5.304   0.274   0.818
11937SOL     OW37251   3.754   1.088   0.321
11937SOL    HW137252   3.801   1.170   0.307
11937SOL    HW237253   3.818   1.029   0.359
11938SOL     OW37254   4.598   1.663   0.361
11938SOL    HW137255   4.531   1.645   0.296
11938SOL    HW237256   4.568   1.743   0.404
11939SOL     OW37257   3.943   0.628   1.992
11939SOL    HW137258   3.858   0.616   2.034
11939SOL    HW237259   3.929   0.601   1.901
11940SOL     OW37260   3.954   0.302   2.845
11940SOL    HW137261   3.982   0.268   2.930
11940SOL    HW237262   3.872   0.256   2.827
11941SOL     OW37263   3.734   0.408   2.485
11941SOL    HW137264   3.645   0.416   2.520
11941SOL    HW237265   3.727   0.341   2.417
11942SOL     OW37266   4.218   1.214   3.004
11942SOL    HW137267   4.178   1.299   2.984
11942SOL    HW237268   4.289   1.235   3.065
11943SOL     OW37269   5.304   1.512   2.571
11943SOL    HW137270   5.258   1.489   2.652
11943SOL    HW237271   5.235   1.515   2.505
11944SOL     OW37272   4.850   0.700   2.555
11944SOL    HW137273   4.901   0.779   2.539
11944SOL    HW237274   4.809   0.715   2.641
11945SOL     OW37275   5.474   0.602   2.078
11945SOL    HW137276   5.487   0.561   1.993
11945SOL    HW237277   5.443   0.531   2.135
11946SOL     OW37278   4.455   1.120   2.873
11946SOL    HW137279   4.371   1.156   2.900
11946SOL    HW237280   4.520   1.170   2.922
11947SOL     OW37281   4.589   0.751   3.687
11947SOL    HW137282   4.577   0.785   3.775
11947SOL    HW237283   4.616   0.827   3.636
11948SOL     OW37284   4.414   0.993   2.496
11948SOL    HW137285   4.483   0.980   2.561
11948SOL    HW237286   4.354   1.056   2.536
11949SOL     OW37287   4.437   1.166   3.658
11949SOL    HW137288   4.478   1.242   3.699
11949SOL    HW237289   4.351   1.196   3.630
11950SOL     OW37290   4.065   1.430   2.920
11950SOL    HW137291   3.987   1.417   2.868
11950SOL    HW237292   4.118   1.491   2.869
11951SOL     OW37293   5.183   1.516   3.228
11951SOL    HW137294   5.241   1.589   3.252
11951SOL    HW237295   5.114   1.517   3.294
11952SOL     OW37296   4.138   0.397   3.420
11952SOL    HW137297   4.219   0.347   3.409
11952SOL    HW237298   4.122   0.436   3.334
11953SOL     OW37299   5.340   0.428   2.603
11953SOL    HW137300   5.269   0.465   2.551
11953SOL    HW237301   5.360   0.495   2.668
11954SOL     OW37302   3.947   1.714   2.324
11954SOL    HW137303   3.966   1.787   2.382
11954SOL    HW237304   4.025   1.707   2.268
11955SOL     OW37305   4.856   1.351   3.568
11955SOL    HW137306   4.888   1.347   3.658
11955SOL    HW237307   4.805   1.270   3.557
11956SOL     OW37308   3.948   1.444   2.395
11956SOL    HW137309   3.939   1.539   2.392
11956SOL    HW237310   3.891   1.417   2.467
11957SOL     OW37311   4.334   1.800   3.291
11957SOL    HW137312   4.255   1.770   3.335
11957SOL    HW237313   4.355   1.883   3.333
11958SOL     OW37314   4.295   0.994   2.003
11958SOL    HW137315   4.341   1.043   1.934
11958SOL    HW237316   4.339   1.021   2.084
11959SOL     OW37317   5.285   0.177   3.307
11959SOL    HW137318   5.334   0.255   3.281
11959SOL    HW237319   5.299   0.170   3.401
11960SOL     OW37320   3.847   0.661   2.419
11960SOL    HW137321   3.818   0.571   2.437
11960SOL    HW237322   3.841   0.706   2.503
11961SOL     OW37323   5.572   1.756   2.192
11961SOL    HW137324   5.641   1.731   2.253
11961SOL    HW237325   5.591   1.847   2.169
11962SOL     OW37326   3.773   1.579   1.986
11962SOL    HW137327   3.745   1.490   2.009
11962SOL    HW237328   3.743   1.633   2.059
11963SOL     OW37329   5.419   0.905   2.512
11963SOL    HW137330   5.509   0.880   2.531
11963SOL    HW237331   5.425   0.959   2.432
11964SOL     OW37332   5.382   1.104   2.279
11964SOL    HW137333   5.469   1.104   2.240
11964SOL    HW237334   5.389   1.165   2.353
11965SOL     OW37335   3.870   0.754   3.443
11965SOL    HW137336   3.965   0.763   3.455
11965SOL    HW237337   3.833   0.831   3.485
11966SOL     OW37338   4.322   1.394   2.595
11966SOL    HW137339   4.277   1.309   2.593
11966SOL    HW237340   4.318   1.425   2.505
11967SOL     OW37341   5.019   1.242   3.284
11967SOL    HW137342   5.039   1.168   3.226
11967SOL    HW237343   5.074   1.227   3.362
11968SOL     OW37344   4.554   0.033   2.411
11968SOL    HW137345   4.604   0.110   2.385
11968SOL    HW237346   4.469   0.067   2.438
11969SOL     OW37347   3.918   0.941   3.131
11969SOL    HW137348   3.995   0.884   3.140
11969SOL    HW237349   3.843   0.883   3.144
11970SOL     OW37350   5.266   0.961   2.075
11970SOL    HW137351   5.184   0.932   2.113
11970SOL    HW237352   5.307   1.014   2.143
11971SOL     OW37353   4.924   1.820   3.487
11971SOL    HW137354   4.918   1.868   3.405
11971SOL    HW237355   4.936   1.728   3.461
11972SOL     OW37356   4.043   0.225   3.657
11972SOL    HW137357   4.105   0.298   3.661
11972SOL    HW237358   3.965   0.257   3.703
11973SOL     OW37359   5.178   1.431   2.802
11973SOL    HW137360   5.121   1.440   2.878
11973SOL    HW237361   5.165   1.341   2.773
11974SOL     OW37362   5.373   1.764   2.438
11974SOL    HW137363   5.360   1.726   2.352
11974SOL    HW237364   5.365   1.690   2.499
11975SOL     OW37365   4.319   0.710   2.137
11975SOL    HW137366   4.327   0.796   2.096
11975SOL    HW237367   4.252   0.722   2.205
11976SOL     OW37368   5.011   0.373   2.814
11976SOL    HW137369   4.922   0.341   2.805
11976SOL    HW237370   5.055   0.309   2.870
11977SOL     OW37371   5.307   1.669   2.176
11977SOL    HW137372   5.398   1.697   2.167
11977SOL    HW237373   5.278   1.653   2.086
11978SOL     OW37374   4.488   0.607   3.306
11978SOL    HW137375   4.478   0.593   3.401
11978SOL    HW237376   4.419   0.553   3.267
11979SOL     OW37377   5.148   0.482   3.535
11979SOL    HW137378   5.143   0.531   3.617
11979SOL    HW237379   5.155   0.391   3.562
11980SOL     OW37380   4.682   0.890   3.438
11980SOL    HW137381   4.747   0.826   3.411
11980SOL    HW237382   4.644   0.923   3.357
11981SOL     OW37383   4.774   0.699   2.287
11981SOL    HW137384   4.795   0.696   2.380
11981SOL    HW237385   4.691   0.651   2.279
11982SOL     OW37386   3.818   0.830   2.633
11982SOL    HW137387   3.896   0.819   2.687
11982SOL    HW237388   3.767   0.897   2.677
11983SOL     OW37389   3.831   1.819   3.425
11983SOL    HW137390   3.845   1.808   3.519
11983SOL    HW237391   3.757   1.879   3.419
11984SOL     OW37392   4.615   0.347   2.055
11984SOL    HW137393   4.664   0.402   1.994
11984SOL    HW237394   4.629   0.258   2.024
11985SOL     OW37395   5.437   0.572   3.694
11985SOL    HW137396   5.400   0.645   3.645
11985SOL    HW237397   5.465   0.509   3.627
11986SOL     OW37398   5.108   1.139   2.390
11986SOL    HW137399   5.194   1.136   2.348
11986SOL    HW237400   5.060   1.205   2.340
11987SOL     OW37401   4.271   0.251   2.737
11987SOL    HW137402   4.259   0.240   2.831
11987SOL    HW237403   4.268   0.346   2.723
11988SOL     OW37404   4.715   1.442   2.323
11988SOL    HW137405   4.688   1.522   2.278
11988SOL    HW237406   4.708   1.464   2.416
11989SOL     OW37407   4.078   1.815   2.729
11989SOL    HW137408   4.127   1.734   2.743
11989SOL    HW237409   4.136   1.885   2.760
11990SOL     OW37410   5.512   1.070   2.735
11990SOL    HW137411   5.456   1.039   2.664
11990SOL    HW237412   5.452   1.084   2.808
11991SOL     OW37413   4.958   1.547   3.389
11991SOL    HW137414   4.946   1.482   3.459
11991SOL    HW237415   4.894   1.522   3.322
11992SOL     OW37416   4.030   0.961   2.122
11992SOL    HW137417   4.114   0.978   2.078
11992SOL    HW237418   4.011   0.870   2.101
11993SOL     OW37419   5.197   0.757   2.587
11993SOL    HW137420   5.193   0.713   2.672
11993SOL    HW237421   5.278   0.808   2.591
11994SOL     OW37422   4.191   1.266   3.594
11994SOL    HW137423   4.165   1.266   3.501
11994SOL    HW237424   4.108   1.265   3.642
11995SOL     OW37425   4.850   1.777   2.096
11995SOL    HW137426   4.771   1.739   2.135
11995SOL    HW237427   4.877   1.714   2.029
11996SOL     OW37428   3.888   0.241   3.376
11996SOL    HW137429   3.841   0.325   3.375
11996SOL    HW237430   3.966   0.258   3.428
11997SOL     OW37431   5.348   1.368   1.949
11997SOL    HW137432   5.312   1.456   1.939
11997SOL    HW237433   5.274   1.310   1.930
11998SOL     OW37434   4.200   1.721   2.184
11998SOL    HW137435   4.235   1.788   2.244
11998SOL    HW237436   4.270   1.708   2.120
11999SOL     OW37437   5.145   0.134   2.278
11999SOL    HW137438   5.165   0.087   2.197
11999SOL    HW237439   5.229   0.139   2.325
12000SOL     OW37440   4.016   1.801   3.090
12000SOL    HW137441   4.051   1.727   3.140
12000SOL    HW237442   3.960   1.761   3.024
12001SOL     OW37443   4.117   0.703   2.330
12001SOL    HW137444   4.137   0.611   2.347
12001SOL    HW237445   4.024   0.711   2.349
12002SOL     OW37446   5.303   0.201   3.594
12002SOL    HW137447   5.312   0.242   3.680
12002SOL    HW237448   5.209   0.183   3.586
12003SOL     OW37449   4.305   0.089   1.989
12003SOL    HW137450   4.396   0.073   2.015
12003SOL    HW237451   4.297   0.046   1.904
12004SOL     OW37452   4.473   0.296   3.640
12004SOL    HW137453   4.463   0.206   3.609
12004SOL    HW237454   4.442   0.293   3.731
12005SOL     OW37455   4.670   1.558   2.998
12005SOL    HW137456   4.595   1.499   3.009
12005SOL    HW237457   4.725   1.541   3.074
12006SOL     OW37458   5.080   0.594   3.296
12006SOL    HW137459   5.111   0.561   3.380
12006SOL    HW237460   5.119   0.682   3.289
12007SOL     OW37461   4.547   1.401   2.748
12007SOL    HW137462   4.594   1.320   2.731
12007SOL    HW237463   4.459   1.385   2.715
12008SOL     OW37464   4.643   0.508   2.753
12008SOL    HW137465   4.609   0.493   2.665
12008SOL    HW237466   4.682   0.424   2.779
12009SOL     OW37467   5.141   1.191   1.903
12009SOL    HW137468   5.163   1.117   1.961
12009SOL    HW237469   5.060   1.226   1.940
12010SOL     OW37470   4.042   0.037   2.113
12010SOL    HW137471   4.060   0.119   2.067
12010SOL    HW237472   4.076  -0.031   2.054
12011SOL     OW37473   4.674   0.255   2.310
12011SOL    HW137474   4.651   0.296   2.227
12011SOL    HW237475   4.768   0.268   2.318
12012SOL     OW37476   4.809   0.615   3.303
12012SOL    HW137477   4.799   0.584   3.393
12012SOL    HW237478   4.904   0.619   3.290
12013SOL     OW37479   4.936   1.603   2.672
12013SOL    HW137480   4.955   1.662   2.599
12013SOL    HW237481   5.016   1.601   2.724
12014SOL     OW37482   4.198   1.145   2.584
12014SOL    HW137483   4.165   1.075   2.640
12014SOL    HW237484   4.143   1.141   2.506
12015SOL     OW37485   4.986   1.794   2.477
12015SOL    HW137486   5.037   1.854   2.424
12015SOL    HW237487   4.919   1.849   2.518
12016SOL     OW37488   4.747   0.525   1.889
12016SOL    HW137489   4.706   0.610   1.873
12016SOL    HW237490   4.810   0.542   1.959
12017SOL     OW37491   3.799   0.559   3.266
12017SOL    HW137492   3.888   0.542   3.235
12017SOL    HW237493   3.809   0.631   3.328
12018SOL     OW37494   4.287   0.207   3.042
12018SOL    HW137495   4.317   0.197   3.133
12018SOL    HW237496   4.192   0.209   3.049
12019SOL     OW37497   4.559   0.435   2.494
12019SOL    HW137498   4.533   0.502   2.431
12019SOL    HW237499   4.611   0.373   2.443
12020SOL     OW37500   4.744   0.028   2.619
12020SOL    HW137501   4.678   0.014   2.551
12020SOL    HW237502   4.722  -0.035   2.688
12021SOL     OW37503   5.108   1.190   2.696
12021SOL    HW137504   5.117   1.112   2.751
12021SOL    HW237505   5.130   1.160   2.608
12022SOL     OW37506   5.171   0.605   2.813
12022SOL    HW137507   5.116   0.527   2.816
12022SOL    HW237508   5.235   0.592   2.883
12023SOL     OW37509   5.557   0.806   2.234
12023SOL    HW137510   5.617   0.775   2.302
12023SOL    HW237511   5.538   0.729   2.181
12024SOL     OW37512   4.188   1.412   1.966
12024SOL    HW137513   4.137   1.376   2.039
12024SOL    HW237514   4.151   1.499   1.951
12025SOL     OW37515   5.413   1.262   2.489
12025SOL    HW137516   5.504   1.255   2.516
12025SOL    HW237517   5.384   1.347   2.524
12026SOL     OW37518   5.141   0.576   1.951
12026SOL    HW137519   5.063   0.565   2.005
12026SOL    HW237520   5.199   0.504   1.978
12027SOL     OW37521   4.219   0.260   2.185
12027SOL    HW137522   4.262   0.205   2.119
12027SOL    HW237523   4.204   0.343   2.140
12028SOL     OW37524   5.470   1.246   3.422
12028SOL    HW137525   5.545   1.193   3.449
12028SOL    HW237526   5.494   1.335   3.446
12029SOL     OW37527   4.814   1.400   3.198
12029SOL    HW137528   4.726   1.362   3.207
12029SOL    HW237529   4.871   1.336   3.241
12030SOL     OW37530   5.332   1.636   3.530
12030SOL    HW137531   5.340   1.664   3.439
12030SOL    HW237532   5.394   1.564   3.538
12031SOL     OW37533   4.810   1.186   2.974
12031SOL    HW137534   4.744   1.233   3.024
12031SOL    HW237535   4.818   1.235   2.892
12032SOL     OW37536   5.346   1.150   2.937
12032SOL    HW137537   5.339   1.207   3.014
12032SOL    HW237538   5.353   1.062   2.973
12033SOL     OW37539   4.632   0.158   3.213
12033SOL    HW137540   4.644   0.063   3.213
12033SOL    HW237541   4.698   0.190   3.275
12034SOL     OW37542   4.700   1.121   3.579
12034SOL    HW137543   4.609   1.136   3.606
12034SOL    HW237544   4.696   1.039   3.529
12035SOL     OW37545   4.437   1.063   2.229
12035SOL    HW137546   4.423   1.042   2.321
12035SOL    HW237547   4.512   1.009   2.204
12036SOL     OW37548   4.153   0.807   3.113
12036SOL    HW137549   4.215   0.816   3.186
12036SOL    HW237550   4.131   0.714   3.113
12037SOL     OW37551   5.008   0.405   3.119
12037SOL    HW137552   5.041   0.462   3.188
12037SOL    HW237553   4.999   0.461   3.042
12038SOL     OW37554   3.805   1.587   3.218
12038SOL    HW137555   3.795   1.679   3.242
12038SOL    HW237556   3.900   1.573   3.216
12039SOL     OW37557   4.041   1.121   2.360
12039SOL    HW137558   4.046   1.198   2.303
12039SOL    HW237559   4.043   1.047   2.299
12040SOL     OW37560   4.273   0.523   2.708
12040SOL    HW137561   4.290   0.584   2.637
12040SOL    HW237562   4.325   0.556   2.782
12041SOL     OW37563   4.970   1.355   2.245
12041SOL    HW137564   5.026   1.424   2.281
12041SOL    HW237565   4.883   1.373   2.281
12042SOL     OW37566   5.015   1.468   3.019
12042SOL    HW137567   5.082   1.478   3.086
12042SOL    HW237568   4.942   1.425   3.064
12043SOL     OW37569   5.301   0.645   2.360
12043SOL    HW137570   5.246   0.678   2.431
12043SOL    HW237571   5.369   0.711   2.350
12044SOL     OW37572   4.066   1.525   3.175
12044SOL    HW137573   4.059   1.484   3.089
12044SOL    HW237574   4.160   1.540   3.187
12045SOL     OW37575   4.148   0.736   3.473
12045SOL    HW137576   4.212   0.781   3.418
12045SOL    HW237577   4.194   0.659   3.506
12046SOL     OW37578   5.342   0.782   3.551
12046SOL    HW137579   5.254   0.820   3.544
12046SOL    HW237580   5.390   0.822   3.478
12047SOL     OW37581   4.737   0.009   3.665
12047SOL    HW137582   4.802   0.077   3.649
12047SOL    HW237583   4.660   0.038   3.617
12048SOL     OW37584   4.132  -0.026   3.593
12048SOL    HW137585   4.225  -0.025   3.575
12048SOL    HW237586   4.112   0.062   3.624
12049SOL     OW37587   4.287   0.901   2.887
12049SOL    HW137588   4.354   0.968   2.898
12049SOL    HW237589   4.267   0.872   2.976
12050SOL     OW37590   5.095   0.901   2.862
12050SOL    HW137591   5.036   0.829   2.843
12050SOL    HW237592   5.173   0.859   2.897
12051SOL     OW37593   4.918   0.541   2.108
12051SOL    HW137594   4.930   0.454   2.147
12051SOL    HW237595   4.878   0.593   2.178
12052SOL     OW37596   4.017   0.205   3.096
12052SOL    HW137597   4.023   0.296   3.123
12052SOL    HW237598   3.996   0.158   3.177
12053SOL     OW37599   3.782   1.322   3.133
12053SOL    HW137600   3.796   1.267   3.210
12053SOL    HW237601   3.783   1.411   3.166
12054SOL     OW37602   4.433   0.638   2.896
12054SOL    HW137603   4.515   0.619   2.850
12054SOL    HW237604   4.416   0.730   2.877
12055SOL     OW37605   5.462   0.967   3.719
12055SOL    HW137606   5.424   0.893   3.672
12055SOL    HW237607   5.404   0.979   3.795
12056SOL     OW37608   4.068   0.080   2.570
12056SOL    HW137609   4.049   0.172   2.588
12056SOL    HW237610   4.044   0.034   2.650
12057SOL     OW37611   5.314   0.420   2.212
12057SOL    HW137612   5.374   0.360   2.257
12057SOL    HW237613   5.297   0.489   2.276
12058SOL     OW37614   4.742   0.753   2.818
12058SOL    HW137615   4.741   0.763   2.913
12058SOL    HW237616   4.716   0.662   2.803
12059SOL     OW37617   4.705   1.586   3.574
12059SOL    HW137618   4.702   1.616   3.483
12059SOL    HW237619   4.738   1.496   3.568
12060SOL     OW37620   5.582   1.504   3.466
12060SOL    HW137621   5.589   1.599   3.451
12060SOL    HW237622   5.656   1.483   3.523
12061SOL     OW37623   4.069   0.928   3.659
12061SOL    HW137624   4.138   0.957   3.719
12061SOL    HW237625   4.109   0.857   3.608
12062SOL     OW37626   5.267   0.283   1.984
12062SOL    HW137627   5.274   0.190   2.008
12062SOL    HW237628   5.294   0.330   2.063
12063SOL     OW37629   5.007   0.818   1.880
12063SOL    HW137630   5.050   0.733   1.888
12063SOL    HW237631   5.035   0.852   1.795
12064SOL     OW37632   4.820   1.326   2.705
12064SOL    HW137633   4.803   1.248   2.653
12064SOL    HW237634   4.912   1.345   2.692
12065SOL     OW37635   4.031   0.851   2.820
12065SOL    HW137636   4.127   0.856   2.825
12065SOL    HW237637   4.011   0.758   2.829
12066SOL     OW37638   4.017   0.573   2.799
12066SOL    HW137639   4.004   0.492   2.848
12066SOL    HW237640   4.103   0.563   2.757
12067SOL     OW37641   4.847   0.471   3.533
12067SOL    HW137642   4.813   0.492   3.620
12067SOL    HW237643   4.928   0.423   3.549
12068SOL     OW37644   4.873   0.242   3.319
12068SOL    HW137645   4.913   0.219   3.403
12068SOL    HW237646   4.944   0.283   3.270
12069SOL     OW37647   3.736   1.307   2.052
12069SOL    HW137648   3.647   1.326   2.020
12069SOL    HW237649   3.728   1.220   2.093
12070SOL     OW37650   3.811   1.790   2.789
12070SOL    HW137651   3.784   1.706   2.752
12070SOL    HW237652   3.904   1.797   2.768
12071SOL     OW37653   4.228   1.589   2.766
12071SOL    HW137654   4.304   1.641   2.790
12071SOL    HW237655   4.263   1.522   2.707
12072SOL     OW37656   4.696   0.754   3.090
12072SOL    HW137657   4.747   0.719   3.163
12072SOL    HW237658   4.621   0.797   3.132
12073SOL     OW37659   3.760   0.569   2.977
12073SOL    HW137660   3.834   0.560   2.916
12073SOL    HW237661   3.798   0.553   3.063
12074SOL     OW37662   3.917   0.511   3.581
12074SOL    HW137663   3.998   0.485   3.537
12074SOL    HW237664   3.888   0.589   3.534
12075SOL     OW37665   5.107   0.922   3.512
12075SOL    HW137666   5.126   1.016   3.515
12075SOL    HW237667   5.112   0.900   3.419
12076SOL     OW37668   4.540   0.562   2.233
12076SOL    HW137669   4.548   0.492   2.168
12076SOL    HW237670   4.466   0.614   2.202
12077SOL     OW37671   5.346   0.521   2.998
12077SOL    HW137672   5.342   0.515   3.094
12077SOL    HW237673   5.436   0.546   2.979
12078SOL     OW37674   3.960   1.542   3.574
12078SOL    HW137675   3.944   1.612   3.638
12078SOL    HW237676   3.966   1.462   3.627
12079SOL     OW37677   4.458   0.437   3.081
12079SOL    HW137678   4.384   0.377   3.075
12079SOL    HW237679   4.436   0.509   3.022
12080SOL     OW37680   4.656   1.685   3.315
12080SOL    HW137681   4.569   1.647   3.304
12080SOL    HW237682   4.643   1.779   3.309
12081SOL     OW37683   4.179   0.488   2.040
12081SOL    HW137684   4.240   0.557   2.065
12081SOL    HW237685   4.095   0.532   2.032
12082SOL     OW37686   3.852   1.134   3.330
12082SOL    HW137687   3.856   1.095   3.418
12082SOL    HW237688   3.882   1.065   3.271
12083SOL     OW37689   5.024   1.047   3.085
12083SOL    HW137690   5.064   1.006   3.009
12083SOL    HW237691   4.949   1.095   3.051
12084SOL     OW37692   5.034   0.865   2.164
12084SOL    HW137693   4.975   0.835   2.233
12084SOL    HW237694   4.992   0.836   2.083
12085SOL     OW37695   5.540   1.714   3.031
12085SOL    HW137696   5.580   1.748   2.951
12085SOL    HW237697   5.485   1.642   3.001
12086SOL     OW37698   4.955   1.732   2.950
12086SOL    HW137699   5.038   1.761   2.913
12086SOL    HW237700   4.973   1.644   2.984
12087SOL     OW37701   3.854   1.214   2.897
12087SOL    HW137702   3.825   1.259   2.976
12087SOL    HW237703   3.778   1.213   2.839
12088SOL     OW37704   4.404   1.680   3.604
12088SOL    HW137705   4.370   1.769   3.596
12088SOL    HW237706   4.499   1.690   3.606
12089SOL     OW37707   5.410   0.134   2.361
12089SOL    HW137708   5.460   0.167   2.286
12089SOL    HW237709   5.476   0.111   2.426
12090SOL     OW37710   5.116   1.567   2.355
12090SOL    HW137711   5.177   1.602   2.289
12090SOL    HW237712   5.068   1.644   2.386
12091SOL     OW37713   3.884   1.789   3.692
12091SOL    HW137714   3.828   1.735   3.748
12091SOL    HW237715   3.933   1.844   3.753
12092SOL     OW37716   4.995   0.923   2.509
12092SOL    HW137717   5.070   0.871   2.539
12092SOL    HW237718   5.035   0.996   2.461
12093SOL     OW37719   4.401   1.606   2.015
12093SOL    HW137720   4.410   1.635   1.924
12093SOL    HW237721   4.361   1.520   2.009
12094SOL     OW37722   5.380   1.729   3.271
12094SOL    HW137723   5.424   1.730   3.186
12094SOL    HW237724   5.357   1.820   3.287
12095SOL     OW37725   5.568   0.185   2.817
12095SOL    HW137726   5.585   0.095   2.843
12095SOL    HW237727   5.483   0.182   2.773
12096SOL     OW37728   3.985   0.336   2.575
12096SOL    HW137729   3.899   0.367   2.548
12096SOL    HW237730   3.984   0.344   2.670
12097SOL     OW37731   4.935   1.605   1.895
12097SOL    HW137732   4.918   1.514   1.918
12097SOL    HW237733   4.870   1.626   1.829
12098SOL     OW37734   4.564   1.000   3.212
12098SOL    HW137735   4.625   1.015   3.140
12098SOL    HW237736   4.529   1.087   3.232
12099SOL     OW37737   4.638   0.905   2.147
12099SOL    HW137738   4.701   0.938   2.083
12099SOL    HW237739   4.688   0.841   2.199
12100SOL     OW37740   5.218   1.613   1.911
12100SOL    HW137741   5.123   1.618   1.899
12100SOL    HW237742   5.253   1.622   1.823
12101SOL     OW37743   4.086   1.286   3.343
12101SOL    HW137744   4.081   1.375   3.310
12101SOL    HW237745   3.996   1.254   3.341
12102SOL     OW37746   5.354   1.308   3.166
12102SOL    HW137747   5.388   1.267   3.246
12102SOL    HW237748   5.282   1.363   3.196
12103SOL     OW37749   4.782   1.100   2.565
12103SOL    HW137750   4.715   1.044   2.603
12103SOL    HW237751   4.854   1.041   2.545
12104SOL     OW37752   4.761   0.256   2.789
12104SOL    HW137753   4.755   0.203   2.709
12104SOL    HW237754   4.766   0.192   2.860
12105SOL     OW37755   4.325   1.489   2.339
12105SOL    HW137756   4.377   1.443   2.272
12105SOL    HW237757   4.271   1.551   2.291
12106SOL     OW37758   5.440   0.406   3.245
12106SOL    HW137759   5.510   0.472   3.250
12106SOL    HW237760   5.473   0.341   3.184
12107SOL     OW37761   3.993   1.342   2.153
12107SOL    HW137762   3.901   1.336   2.126
12107SOL    HW237763   3.991   1.385   2.238
12108SOL     OW37764   3.832   1.032   3.582
12108SOL    HW137765   3.760   1.008   3.640
12108SOL    HW237766   3.910   0.994   3.624
12109SOL     OW37767   4.371   0.200   3.304
12109SOL    HW137768   4.463   0.198   3.277
12109SOL    HW237769   4.367   0.142   3.381
12110SOL     OW37770   3.800   0.321   1.881
12110SOL    HW137771   3.707   0.305   1.870
12110SOL    HW237772   3.816   0.404   1.836
12111SOL     OW37773   5.148   0.860   3.249
12111SOL    HW137774   5.098   0.925   3.199
12111SOL    HW237775   5.232   0.855   3.204
12112SOL     OW37776   3.852   0.244   2.178
12112SOL    HW137777   3.806   0.271   2.099
12112SOL    HW237778   3.857   0.148   2.172
12113SOL     OW37779   4.903   1.333   1.976
12113SOL    HW137780   4.813   1.301   1.983
12113SOL    HW237781   4.932   1.342   2.067
12114SOL     OW37782   4.344   0.837   3.301
12114SOL    HW137783   4.403   0.913   3.295
12114SOL    HW237784   4.403   0.762   3.311
12115SOL     OW37785   5.199   1.793   2.839
12115SOL    HW137786   5.229   1.868   2.788
12115SOL    HW237787   5.278   1.740   2.852
12116SOL     OW37788   4.431   0.567   3.563
12116SOL    HW137789   4.481   0.630   3.616
12116SOL    HW237790   4.445   0.483   3.607
12117SOL     OW37791   5.198   1.188   3.494
12117SOL    HW137792   5.182   1.199   3.588
12117SOL    HW237793   5.291   1.206   3.483
12118SOL     OW37794   4.097   1.739   3.421
12118SOL    HW137795   4.009   1.775   3.409
12118SOL    HW237796   4.083   1.656   3.465
12119SOL     OW37797   4.938   0.319   2.317
12119SOL    HW137798   5.008   0.256   2.299
12119SOL    HW237799   4.969   0.367   2.394
12120SOL     OW37800   4.310   0.733   2.533
12120SOL    HW137801   4.354   0.817   2.517
12120SOL    HW237802   4.244   0.727   2.464
12121SOL     OW37803   5.496   0.375   3.509
12121SOL    HW137804   5.468   0.397   3.420
12121SOL    HW237805   5.432   0.310   3.540
12122SOL     OW37806   5.481   0.929   3.363
12122SOL    HW137807   5.456   1.021   3.369
12122SOL    HW237808   5.463   0.906   3.271
12123SOL     OW37809   4.588   1.358   1.909
12123SOL    HW137810   4.562   1.383   1.997
12123SOL    HW237811   4.613   1.441   1.867
12124SOL     OW37812   4.418   1.797   2.788
12124SOL    HW137813   4.371   1.878   2.768
12124SOL    HW237814   4.464   1.816   2.870
12125SOL     OW37815   4.594   0.955   2.700
12125SOL    HW137816   4.646   0.890   2.746
12125SOL    HW237817   4.552   1.006   2.770
12126SOL     OW37818   4.796   0.980   1.941
12126SOL    HW137819   4.784   1.037   1.865
12126SOL    HW237820   4.872   0.926   1.919
12127SOL     OW37821   5.575   1.539   2.712
12127SOL    HW137822   5.495   1.524   2.662
12127SOL    HW237823   5.591   1.458   2.759
12128SOL     OW37824   3.929   1.286   3.693
12128SOL    HW137825   3.891   1.205   3.659
12128SOL    HW237826   3.878   1.306   3.772
12129SOL     OW37827   3.797   1.218   2.525
12129SOL    HW137828   3.788   1.155   2.597
12129SOL    HW237829   3.871   1.185   2.474
12130SOL     OW37830   4.347   1.466   3.444
12130SOL    HW137831   4.318   1.392   3.498
12130SOL    HW237832   4.369   1.534   3.507
12131SOL     OW37833   5.538   0.216   3.091
12131SOL    HW137834   5.605   0.156   3.123
12131SOL    HW237835   5.559   0.229   2.999
12132SOL     OW37836   4.161   0.448   2.391
12132SOL    HW137837   4.185   0.375   2.335
12132SOL    HW237838   4.105   0.409   2.459
12133SOL     OW37839   5.401   1.495   2.969
12133SOL    HW137840   5.337   1.465   2.904
12133SOL    HW237841   5.398   1.428   3.038
12134SOL     OW37842   4.603   1.614   2.558
12134SOL    HW137843   4.573   1.682   2.497
12134SOL    HW237844   4.525   1.562   2.577
12135SOL     OW37845   5.141   0.193   3.003
12135SOL    HW137846   5.213   0.165   3.059
12135SOL    HW237847   5.092   0.256   3.056
12136SOL     OW37848   4.774   0.040   2.948
12136SOL    HW137849   4.702  -0.006   2.992
12136SOL    HW237850   4.852   0.014   2.996
12137SOL     OW37851   4.498   1.335   2.178
12137SOL    HW137852   4.475   1.243   2.195
12137SOL    HW237853   4.575   1.351   2.233
12138SOL     OW37854   4.332   1.564   3.140
12138SOL    HW137855   4.350   1.636   3.200
12138SOL    HW237856   4.387   1.492   3.172
12139SOL     OW37857   5.108   8.009   1.968
12139SOL    HW137858   5.179   7.951   1.995
12139SOL    HW237859   5.034   7.986   2.025
12140SOL     OW37860   5.008   0.461   2.543
12140SOL    HW137861   4.960   0.544   2.547
12140SOL    HW237862   5.015   0.433   2.634
12141SOL     OW37863   5.291   0.202   2.756
12141SOL    HW137864   5.283   0.254   2.835
12141SOL    HW237865   5.304   0.266   2.686
12142SOL     OW37866   3.763   1.058   2.172
12142SOL    HW137867   3.856   1.048   2.152
12142SOL    HW237868   3.733   0.970   2.194
12143SOL     OW37869   4.613   1.663   2.196
12143SOL    HW137870   4.538   1.650   2.137
12143SOL    HW237871   4.585   1.733   2.254
12144SOL     OW37872   3.920   0.586   3.855
12144SOL    HW137873   3.835   0.610   3.892
12144SOL    HW237874   3.909   0.597   3.761
12145SOL     OW37875   3.961   0.277   4.703
12145SOL    HW137876   3.991   0.238   4.785
12145SOL    HW237877   3.871   0.248   4.693
12146SOL     OW37878   3.724   0.402   4.354
12146SOL    HW137879   3.645   0.435   4.397
12146SOL    HW237880   3.702   0.311   4.331
12147SOL     OW37881   4.293   1.300   4.912
12147SOL    HW137882   4.208   1.307   4.869
12147SOL    HW237883   4.310   1.387   4.947
12148SOL     OW37884   5.299   1.519   4.438
12148SOL    HW137885   5.257   1.490   4.518
12148SOL    HW237886   5.229   1.522   4.373
12149SOL     OW37887   4.854   0.697   4.425
12149SOL    HW137888   4.902   0.775   4.398
12149SOL    HW237889   4.816   0.721   4.510
12150SOL     OW37890   5.513   0.599   3.950
12150SOL    HW137891   5.483   0.593   3.859
12150SOL    HW237892   5.471   0.525   3.994
12151SOL     OW37893   4.464   1.140   4.772
12151SOL    HW137894   4.398   1.180   4.829
12151SOL    HW237895   4.508   1.214   4.730
12152SOL     OW37896   4.584   0.771   5.541
12152SOL    HW137897   4.574   0.843   5.603
12152SOL    HW237898   4.605   0.814   5.458
12153SOL     OW37899   4.402   0.991   4.387
12153SOL    HW137900   4.474   0.985   4.450
12153SOL    HW237901   4.338   1.049   4.428
12154SOL     OW37902   4.436   1.145   5.544
12154SOL    HW137903   4.486   1.221   5.574
12154SOL    HW237904   4.357   1.182   5.505
12155SOL     OW37905   4.064   1.414   4.789
12155SOL    HW137906   3.999   1.374   4.732
12155SOL    HW237907   4.109   1.478   4.735
12156SOL     OW37908   5.196   1.556   5.116
12156SOL    HW137909   5.116   1.594   5.153
12156SOL    HW237910   5.177   1.462   5.110
12157SOL     OW37911   4.180   0.360   5.159
12157SOL    HW137912   4.251   0.301   5.184
12157SOL    HW237913   4.159   0.409   5.239
12158SOL     OW37914   5.329   0.460   4.448
12158SOL    HW137915   5.273   0.484   4.374
12158SOL    HW237916   5.328   0.536   4.506
12159SOL     OW37917   3.945   1.712   4.191
12159SOL    HW137918   3.959   1.784   4.252
12159SOL    HW237919   4.024   1.711   4.136
12160SOL     OW37920   4.861   1.350   5.421
12160SOL    HW137921   4.905   1.341   5.505
12160SOL    HW237922   4.814   1.267   5.409
12161SOL     OW37923   3.903   1.453   4.262
12161SOL    HW137924   3.912   1.547   4.252
12161SOL    HW237925   3.863   1.442   4.349
12162SOL     OW37926   4.333   1.787   5.151
12162SOL    HW137927   4.249   1.771   5.195
12162SOL    HW237928   4.355   1.877   5.176
12163SOL     OW37929   4.277   1.011   3.830
12163SOL    HW137930   4.339   1.060   3.776
12163SOL    HW237931   4.332   0.967   3.895
12164SOL     OW37932   3.830   0.667   4.279
12164SOL    HW137933   3.806   0.577   4.301
12164SOL    HW237934   3.818   0.716   4.361
12165SOL     OW37935   5.569   1.750   4.038
12165SOL    HW137936   5.633   1.724   4.104
12165SOL    HW237937   5.584   1.843   4.025
12166SOL     OW37938   3.762   1.596   3.841
12166SOL    HW137939   3.753   1.507   3.875
12166SOL    HW237940   3.738   1.652   3.915
12167SOL     OW37941   5.412   0.923   4.365
12167SOL    HW137942   5.489   0.875   4.335
12167SOL    HW237943   5.388   0.979   4.290
12168SOL     OW37944   5.378   1.104   4.149
12168SOL    HW137945   5.465   1.100   4.109
12168SOL    HW237946   5.386   1.171   4.217
12169SOL     OW37947   3.829   0.757   5.313
12169SOL    HW137948   3.924   0.751   5.306
12169SOL    HW237949   3.813   0.846   5.345
12170SOL     OW37950   4.343   1.402   4.445
12170SOL    HW137951   4.300   1.318   4.466
12170SOL    HW237952   4.320   1.418   4.353
12171SOL     OW37953   4.549   0.030   4.281
12171SOL    HW137954   4.590   0.111   4.250
12171SOL    HW237955   4.456   0.042   4.265
12172SOL     OW37956   3.910   0.965   4.983
12172SOL    HW137957   3.991   0.914   4.981
12172SOL    HW237958   3.900   0.997   4.893
12173SOL     OW37959   5.262   0.994   3.925
12173SOL    HW137960   5.189   0.940   3.956
12173SOL    HW237961   5.301   1.030   4.005
12174SOL     OW37962   4.886   1.825   5.348
12174SOL    HW137963   4.910   1.887   5.279
12174SOL    HW237964   4.915   1.740   5.316
12175SOL     OW37965   4.054   0.259   5.496
12175SOL    HW137966   4.103   0.334   5.531
12175SOL    HW237967   3.980   0.249   5.554
12176SOL     OW37968   5.200   1.409   4.669
12176SOL    HW137969   5.129   1.432   4.729
12176SOL    HW237970   5.179   1.320   4.640
12177SOL     OW37971   5.368   1.768   4.296
12177SOL    HW137972   5.345   1.725   4.214
12177SOL    HW237973   5.358   1.699   4.363
12178SOL     OW37974   4.263   0.734   3.972
12178SOL    HW137975   4.355   0.758   3.978
12178SOL    HW237976   4.233   0.732   4.063
12179SOL     OW37977   5.014   0.372   4.660
12179SOL    HW137978   4.926   0.335   4.656
12179SOL    HW237979   5.061   0.316   4.721
12180SOL     OW37980   5.298   1.685   4.036
12180SOL    HW137981   5.392   1.700   4.026
12180SOL    HW237982   5.268   1.666   3.947
12181SOL     OW37983   4.531   0.562   5.189
12181SOL    HW137984   4.481   0.626   5.241
12181SOL    HW237985   4.496   0.571   5.100
12182SOL     OW37986   5.126   0.494   5.387
12182SOL    HW137987   5.160   0.555   5.452
12182SOL    HW237988   5.178   0.414   5.400
12183SOL     OW37989   4.658   0.887   5.304
12183SOL    HW137990   4.721   0.824   5.270
12183SOL    HW237991   4.627   0.934   5.226
12184SOL     OW37992   4.713   0.416   4.934
12184SOL    HW137993   4.629   0.431   4.979
12184SOL    HW237994   4.718   0.485   4.868
12185SOL     OW37995   4.812   0.704   4.138
12185SOL    HW137996   4.798   0.697   4.233
12185SOL    HW237997   4.733   0.745   4.105
12186SOL     OW37998   3.797   0.803   4.508
12186SOL    HW137999   3.876   0.789   4.559
12186SOL    HW238000   3.765   0.889   4.535
12187SOL     OW38001   3.853   1.854   5.276
12187SOL    HW138002   3.827   1.827   5.364
12187SOL    HW238003   3.771   1.875   5.232
12188SOL     OW38004   4.616   0.342   3.922
12188SOL    HW138005   4.659   0.408   3.867
12188SOL    HW238006   4.639   0.258   3.883
12189SOL     OW38007   5.403   0.573   5.566
12189SOL    HW138008   5.379   0.653   5.519
12189SOL    HW238009   5.439   0.515   5.499
12190SOL     OW38010   5.109   1.146   4.272
12190SOL    HW138011   5.187   1.138   4.216
12190SOL    HW238012   5.053   1.208   4.225
12191SOL     OW38013   4.301   0.242   4.659
12191SOL    HW138014   4.225   0.295   4.683
12191SOL    HW238015   4.315   0.261   4.566
12192SOL     OW38016   4.713   1.448   4.180
12192SOL    HW138017   4.684   1.519   4.123
12192SOL    HW238018   4.689   1.477   4.268
12193SOL     OW38019   4.070   1.815   4.590
12193SOL    HW138020   4.113   1.732   4.613
12193SOL    HW238021   4.126   1.882   4.628
12194SOL     OW38022   5.527   1.050   4.587
12194SOL    HW138023   5.471   1.028   4.513
12194SOL    HW238024   5.466   1.062   4.660
12195SOL     OW38025   4.943   1.575   5.235
12195SOL    HW138026   4.949   1.488   5.275
12195SOL    HW238027   4.857   1.577   5.193
12196SOL     OW38028   4.045   0.961   3.975
12196SOL    HW138029   4.122   0.986   3.924
12196SOL    HW238030   4.048   0.866   3.980
12197SOL     OW38031   5.209   0.751   4.440
12197SOL    HW138032   5.195   0.725   4.531
12197SOL    HW238033   5.280   0.814   4.443
12198SOL     OW38034   4.192   1.245   5.456
12198SOL    HW138035   4.163   1.250   5.365
12198SOL    HW238036   4.113   1.261   5.507
12199SOL     OW38037   4.863   1.799   3.936
12199SOL    HW138038   4.777   1.779   3.975
12199SOL    HW238039   4.881   1.724   3.879
12200SOL     OW38040   3.883   0.249   5.250
12200SOL    HW138041   3.861   0.341   5.237
12200SOL    HW238042   3.933   0.248   5.332
12201SOL     OW38043   5.345   1.386   3.798
12201SOL    HW138044   5.295   1.467   3.804
12201SOL    HW238045   5.279   1.317   3.790
12202SOL     OW38046   4.178   1.727   4.046
12202SOL    HW138047   4.234   1.783   4.101
12202SOL    HW238048   4.238   1.687   3.984
12203SOL     OW38049   5.133   0.119   4.162
12203SOL    HW138050   5.129   0.083   4.073
12203SOL    HW238051   5.226   0.131   4.179
12204SOL     OW38052   3.957   1.752   4.931
12204SOL    HW138053   4.023   1.733   4.997
12204SOL    HW238054   3.955   1.847   4.926
12205SOL     OW38055   4.666   1.702   4.624
12205SOL    HW138056   4.723   1.639   4.669
12205SOL    HW238057   4.633   1.653   4.548
12206SOL     OW38058   4.104   0.702   4.202
12206SOL    HW138059   4.117   0.607   4.204
12206SOL    HW238060   4.013   0.714   4.227
12207SOL     OW38061   5.251   0.258   5.440
12207SOL    HW138062   5.266   0.229   5.530
12207SOL    HW238063   5.285   0.186   5.386
12208SOL     OW38064   4.316   0.107   3.817
12208SOL    HW138065   4.383   0.075   3.878
12208SOL    HW238066   4.341   0.071   3.732
12209SOL     OW38067   4.474   0.238   5.510
12209SOL    HW138068   4.540   0.264   5.446
12209SOL    HW238069   4.433   0.320   5.537
12210SOL     OW38070   4.597   1.528   4.902
12210SOL    HW138071   4.573   1.486   4.820
12210SOL    HW238072   4.661   1.469   4.942
12211SOL     OW38073   5.052   0.595   5.147
12211SOL    HW138074   5.092   0.565   5.229
12211SOL    HW238075   5.094   0.679   5.130
12212SOL     OW38076   4.545   1.386   4.664
12212SOL    HW138077   4.631   1.376   4.624
12212SOL    HW238078   4.486   1.401   4.590
12213SOL     OW38079   4.650   0.512   4.619
12213SOL    HW138080   4.615   0.512   4.530
12213SOL    HW238081   4.679   0.421   4.632
12214SOL     OW38082   4.291   0.068   4.203
12214SOL    HW138083   4.209   0.050   4.248
12214SOL    HW238084   4.268   0.130   4.134
12215SOL     OW38085   5.155   1.187   3.764
12215SOL    HW138086   5.195   1.119   3.818
12215SOL    HW238087   5.060   1.177   3.778
12216SOL     OW38088   4.019   0.062   3.930
12216SOL    HW138089   4.098   0.085   3.880
12216SOL    HW238090   4.046  -0.011   3.985
12217SOL     OW38091   4.669   0.254   4.183
12217SOL    HW138092   4.641   0.292   4.100
12217SOL    HW238093   4.764   0.268   4.185
12218SOL     OW38094   4.800   0.687   5.189
12218SOL    HW138095   4.744   0.610   5.192
12218SOL    HW238096   4.888   0.653   5.178
12219SOL     OW38097   4.957   1.564   4.513
12219SOL    HW138098   4.962   1.635   4.449
12219SOL    HW238099   5.004   1.597   4.590
12220SOL     OW38100   4.195   1.163   4.461
12220SOL    HW138101   4.136   1.141   4.534
12220SOL    HW238102   4.141   1.150   4.383
12221SOL     OW38103   4.983   1.790   4.338
12221SOL    HW138104   5.023   1.859   4.286
12221SOL    HW238105   4.907   1.831   4.379
12222SOL     OW38106   4.743   0.533   3.773
12222SOL    HW138107   4.700   0.617   3.761
12222SOL    HW238108   4.808   0.549   3.841
12223SOL     OW38109   3.794   0.558   5.138
12223SOL    HW138110   3.882   0.557   5.101
12223SOL    HW238111   3.792   0.637   5.192
12224SOL     OW38112   4.327   0.142   4.947
12224SOL    HW138113   4.341   0.158   5.040
12224SOL    HW238114   4.234   0.157   4.933
12225SOL     OW38115   4.557   0.440   4.361
12225SOL    HW138116   4.526   0.502   4.295
12225SOL    HW238117   4.611   0.378   4.313
12226SOL     OW38118   4.710   0.031   4.502
12226SOL    HW138119   4.656   0.027   4.423
12226SOL    HW238120   4.747  -0.057   4.510
12227SOL     OW38121   5.149   1.154   4.574
12227SOL    HW138122   5.094   1.078   4.596
12227SOL    HW238123   5.145   1.159   4.479
12228SOL     OW38124   5.178   0.618   4.688
12228SOL    HW138125   5.129   0.535   4.688
12228SOL    HW238126   5.237   0.611   4.762
12229SOL     OW38127   5.564   0.812   4.111
12229SOL    HW138128   5.624   0.765   4.169
12229SOL    HW238129   5.541   0.748   4.044
12230SOL     OW38130   4.141   1.387   3.919
12230SOL    HW138131   4.204   1.456   3.940
12230SOL    HW238132   4.173   1.351   3.836
12231SOL     OW38133   5.415   1.279   4.344
12231SOL    HW138134   5.507   1.276   4.371
12231SOL    HW238135   5.381   1.360   4.382
12232SOL     OW38136   5.118   0.578   3.793
12232SOL    HW138137   5.056   0.553   3.861
12232SOL    HW238138   5.202   0.545   3.823
12233SOL     OW38139   4.239   0.267   4.025
12233SOL    HW138140   4.273   0.218   3.950
12233SOL    HW238141   4.218   0.354   3.990
12234SOL     OW38142   5.487   1.259   5.287
12234SOL    HW138143   5.545   1.202   5.338
12234SOL    HW238144   5.533   1.343   5.285
12235SOL     OW38145   4.763   1.339   5.021
12235SOL    HW138146   4.698   1.316   5.087
12235SOL    HW238147   4.847   1.319   5.062
12236SOL     OW38148   5.360   1.619   5.373
12236SOL    HW138149   5.328   1.646   5.286
12236SOL    HW238150   5.354   1.524   5.373
12237SOL     OW38151   4.823   1.177   4.801
12237SOL    HW138152   4.799   1.230   4.877
12237SOL    HW238153   4.812   1.235   4.726
12238SOL     OW38154   5.363   1.101   4.799
12238SOL    HW138155   5.363   1.158   4.876
12238SOL    HW238156   5.272   1.103   4.768
12239SOL     OW38157   4.632   0.111   5.116
12239SOL    HW138158   4.654   0.075   5.029
12239SOL    HW238159   4.714   0.148   5.148
12240SOL     OW38160   4.716   1.109   5.456
12240SOL    HW138161   4.630   1.144   5.478
12240SOL    HW238162   4.698   1.035   5.398
12241SOL     OW38163   4.418   1.064   4.122
12241SOL    HW138164   4.419   1.038   4.215
12241SOL    HW238165   4.471   0.997   4.079
12242SOL     OW38166   4.138   0.804   4.968
12242SOL    HW138167   4.219   0.806   5.019
12242SOL    HW238168   4.092   0.726   5.000
12243SOL     OW38169   4.980   0.367   5.019
12243SOL    HW138170   5.014   0.450   5.054
12243SOL    HW238171   4.895   0.391   4.981
12244SOL     OW38172   3.803   1.558   5.074
12244SOL    HW138173   3.788   1.639   5.025
12244SOL    HW238174   3.898   1.547   5.073
12245SOL     OW38175   4.102   1.147   4.174
12245SOL    HW138176   4.197   1.149   4.171
12245SOL    HW238177   4.077   1.066   4.130
12246SOL     OW38178   4.278   0.532   4.568
12246SOL    HW138179   4.285   0.592   4.494
12246SOL    HW238180   4.336   0.569   4.635
12247SOL     OW38181   4.971   1.354   4.126
12247SOL    HW138182   5.024   1.426   4.162
12247SOL    HW238183   4.881   1.375   4.153
12248SOL     OW38184   5.006   1.474   4.853
12248SOL    HW138185   5.054   1.460   4.935
12248SOL    HW238186   4.938   1.407   4.854
12249SOL     OW38187   5.291   0.625   4.210
12249SOL    HW138188   5.246   0.671   4.280
12249SOL    HW238189   5.329   0.694   4.155
12250SOL     OW38190   4.072   1.493   5.048
12250SOL    HW138191   4.060   1.471   4.956
12250SOL    HW238192   4.162   1.526   5.054
12251SOL     OW38193   5.307   0.754   5.394
12251SOL    HW138194   5.229   0.809   5.393
12251SOL    HW238195   5.370   0.803   5.341
12252SOL     OW38196   4.751   0.068   5.438
12252SOL    HW138197   4.776   0.141   5.496
12252SOL    HW238198   4.764   0.103   5.350
12253SOL     OW38199   4.225   0.041   5.457
12253SOL    HW138200   4.202  -0.012   5.381
12253SOL    HW238201   4.156   0.107   5.461
12254SOL     OW38202   4.336   0.884   4.777
12254SOL    HW138203   4.363   0.975   4.765
12254SOL    HW238204   4.257   0.889   4.831
12255SOL     OW38205   5.041   0.868   4.675
12255SOL    HW138206   4.949   0.844   4.679
12255SOL    HW238207   5.088   0.789   4.701
12256SOL     OW38208   4.926   0.516   3.982
12256SOL    HW138209   4.933   0.439   4.039
12256SOL    HW238210   4.892   0.585   4.038
12257SOL     OW38211   4.052   0.201   4.957
12257SOL    HW138212   4.067   0.264   5.027
12257SOL    HW238213   3.984   0.142   4.991
12258SOL     OW38214   3.724   1.304   5.011
12258SOL    HW138215   3.778   1.251   5.071
12258SOL    HW238216   3.747   1.394   5.031
12259SOL     OW38217   4.434   0.635   4.767
12259SOL    HW138218   4.514   0.641   4.714
12259SOL    HW238219   4.402   0.725   4.772
12260SOL     OW38220   5.463   0.878   5.652
12260SOL    HW138221   5.511   0.928   5.585
12260SOL    HW238222   5.384   0.930   5.669
12261SOL     OW38223   4.073   0.063   4.370
12261SOL    HW138224   4.054   0.152   4.400
12261SOL    HW238225   4.075   0.011   4.451
12262SOL     OW38226   5.362   0.397   4.077
12262SOL    HW138227   5.375   0.322   4.136
12262SOL    HW238228   5.329   0.467   4.135
12263SOL     OW38229   4.759   0.755   4.685
12263SOL    HW138230   4.743   0.767   4.778
12263SOL    HW238231   4.726   0.668   4.665
12264SOL     OW38232   4.692   1.567   5.435
12264SOL    HW138233   4.684   1.606   5.348
12264SOL    HW238234   4.746   1.489   5.421
12265SOL     OW38235   5.612   1.523   5.287
12265SOL    HW138236   5.555   1.584   5.334
12265SOL    HW238237   5.692   1.520   5.340
12266SOL     OW38238   4.072   0.888   5.553
12266SOL    HW138239   4.153   0.931   5.578
12266SOL    HW238240   4.097   0.829   5.482
12267SOL     OW38241   5.278   0.312   3.835
12267SOL    HW138242   5.193   0.277   3.861
12267SOL    HW238243   5.320   0.336   3.918
12268SOL     OW38244   4.997   0.823   3.747
12268SOL    HW138245   5.040   0.739   3.758
12268SOL    HW238246   5.032   0.858   3.666
12269SOL     OW38247   4.797   1.345   4.576
12269SOL    HW138248   4.804   1.272   4.514
12269SOL    HW238249   4.856   1.412   4.541
12270SOL     OW38250   4.018   0.779   4.666
12270SOL    HW138251   4.014   0.874   4.658
12270SOL    HW238252   4.084   0.763   4.733
12271SOL     OW38253   4.106   0.492   4.770
12271SOL    HW138254   4.044   0.427   4.737
12271SOL    HW238255   4.153   0.522   4.693
12272SOL     OW38256   4.893   0.378   5.448
12272SOL    HW138257   4.833   0.443   5.485
12272SOL    HW238258   4.971   0.428   5.423
12273SOL     OW38259   4.853   0.231   5.219
12273SOL    HW138260   4.890   0.275   5.296
12273SOL    HW238261   4.909   0.260   5.146
12274SOL     OW38262   3.766   1.312   3.919
12274SOL    HW138263   3.677   1.330   3.888
12274SOL    HW238264   3.762   1.223   3.954
12275SOL     OW38265   3.794   1.778   4.643
12275SOL    HW138266   3.789   1.691   4.603
12275SOL    HW238267   3.887   1.799   4.643
12276SOL     OW38268   4.217   1.575   4.628
12276SOL    HW138269   4.281   1.643   4.647
12276SOL    HW238270   4.261   1.517   4.566
12277SOL     OW38271   4.686   0.759   4.947
12277SOL    HW138272   4.744   0.752   5.023
12277SOL    HW238273   4.613   0.813   4.977
12278SOL     OW38274   3.765   0.551   4.836
12278SOL    HW138275   3.833   0.586   4.778
12278SOL    HW238276   3.808   0.547   4.922
12279SOL     OW38277   3.900   0.520   5.439
12279SOL    HW138278   3.986   0.550   5.410
12279SOL    HW238279   3.839   0.582   5.400
12280SOL     OW38280   5.092   0.921   5.380
12280SOL    HW138281   5.140   1.004   5.389
12280SOL    HW238282   5.080   0.911   5.286
12281SOL     OW38283   4.505   0.533   4.106
12281SOL    HW138284   4.532   0.477   4.033
12281SOL    HW238285   4.518   0.622   4.074
12282SOL     OW38286   5.358   0.602   4.893
12282SOL    HW138287   5.352   0.556   4.977
12282SOL    HW238288   5.447   0.584   4.863
12283SOL     OW38289   3.997   1.560   5.457
12283SOL    HW138290   3.940   1.625   5.499
12283SOL    HW238291   3.984   1.481   5.509
12284SOL     OW38292   4.425   0.435   4.941
12284SOL    HW138293   4.343   0.434   4.991
12284SOL    HW238294   4.418   0.512   4.885
12285SOL     OW38295   4.665   1.666   5.175
12285SOL    HW138296   4.615   1.636   5.099
12285SOL    HW238297   4.653   1.761   5.176
12286SOL     OW38298   4.172   0.491   3.889
12286SOL    HW138299   4.224   0.568   3.912
12286SOL    HW238300   4.082   0.522   3.884
12287SOL     OW38301   3.844   1.126   5.192
12287SOL    HW138302   3.862   1.078   5.273
12287SOL    HW238303   3.869   1.064   5.123
12288SOL     OW38304   5.089   1.018   4.928
12288SOL    HW138305   5.028   1.023   4.855
12288SOL    HW238306   5.074   1.098   4.978
12289SOL     OW38307   5.042   0.857   4.022
12289SOL    HW138308   4.975   0.824   4.081
12289SOL    HW238309   5.007   0.841   3.934
12290SOL     OW38310   5.486   1.715   4.857
12290SOL    HW138311   5.548   1.750   4.793
12290SOL    HW238312   5.469   1.626   4.826
12291SOL     OW38313   4.966   1.742   4.816
12291SOL    HW138314   5.054   1.767   4.785
12291SOL    HW238315   4.975   1.650   4.841
12292SOL     OW38316   3.753   1.300   4.737
12292SOL    HW138317   3.756   1.292   4.832
12292SOL    HW238318   3.811   1.231   4.705
12293SOL     OW38319   4.395   1.667   5.473
12293SOL    HW138320   4.335   1.741   5.464
12293SOL    HW238321   4.473   1.693   5.423
12294SOL     OW38322   5.406   0.154   4.206
12294SOL    HW138323   5.439   0.124   4.121
12294SOL    HW238324   5.474   0.128   4.268
12295SOL     OW38325   5.119   1.572   4.221
12295SOL    HW138326   5.170   1.611   4.150
12295SOL    HW238327   5.064   1.643   4.253
12296SOL     OW38328   4.995   0.921   4.369
12296SOL    HW138329   5.070   0.868   4.396
12296SOL    HW238330   5.033   0.997   4.327
12297SOL     OW38331   4.516   1.273   5.152
12297SOL    HW138332   4.491   1.318   5.233
12297SOL    HW238333   4.448   1.297   5.090
12298SOL     OW38334   4.327   1.597   3.862
12298SOL    HW138335   4.347   1.608   3.769
12298SOL    HW238336   4.411   1.609   3.906
12299SOL     OW38337   5.442   1.757   5.128
12299SOL    HW138338   5.395   1.734   5.048
12299SOL    HW238339   5.394   1.832   5.163
12300SOL     OW38340   5.583   0.172   4.677
12300SOL    HW138341   5.603   0.102   4.614
12300SOL    HW238342   5.496   0.202   4.652
12301SOL     OW38343   3.972   0.303   4.433
12301SOL    HW138344   3.898   0.359   4.410
12301SOL    HW238345   3.974   0.305   4.529
12302SOL     OW38346   4.932   1.599   3.753
12302SOL    HW138347   4.916   1.514   3.794
12302SOL    HW238348   4.857   1.613   3.696
12303SOL     OW38349   4.564   1.015   5.077
12303SOL    HW138350   4.592   1.036   4.988
12303SOL    HW238351   4.546   1.100   5.118
12304SOL     OW38352   5.203   1.647   3.776
12304SOL    HW138353   5.110   1.627   3.762
12304SOL    HW238354   5.240   1.648   3.687
12305SOL     OW38355   4.082   1.275   5.216
12305SOL    HW138356   4.084   1.355   5.164
12305SOL    HW238357   3.999   1.234   5.193
12306SOL     OW38358   5.362   1.268   5.020
12306SOL    HW138359   5.405   1.262   5.106
12306SOL    HW238360   5.269   1.267   5.040
12307SOL     OW38361   4.791   1.111   4.435
12307SOL    HW138362   4.719   1.063   4.476
12307SOL    HW238363   4.852   1.043   4.406
12308SOL     OW38364   4.694   0.243   4.671
12308SOL    HW138365   4.701   0.187   4.593
12308SOL    HW238366   4.729   0.190   4.742
12309SOL     OW38367   4.301   1.459   4.177
12309SOL    HW138368   4.367   1.415   4.124
12309SOL    HW238369   4.312   1.552   4.157
12310SOL     OW38370   5.445   0.432   5.108
12310SOL    HW138371   5.523   0.488   5.110
12310SOL    HW238372   5.470   0.358   5.053
12311SOL     OW38373   3.837   0.998   5.441
12311SOL    HW138374   3.772   1.001   5.511
12311SOL    HW238375   3.919   0.977   5.486
12312SOL     OW38376   4.389   0.188   5.212
12312SOL    HW138377   4.476   0.159   5.184
12312SOL    HW238378   4.398   0.199   5.307
12313SOL     OW38379   3.800   0.309   3.781
12313SOL    HW138380   3.723   0.297   3.725
12313SOL    HW238381   3.830   0.398   3.762
12314SOL     OW38382   5.161   0.840   5.116
12314SOL    HW138383   5.130   0.901   5.049
12314SOL    HW238384   5.255   0.858   5.122
12315SOL     OW38385   4.901   1.348   3.854
12315SOL    HW138386   4.874   1.256   3.844
12315SOL    HW238387   4.927   1.355   3.946
12316SOL     OW38388   4.370   0.800   5.123
12316SOL    HW138389   4.415   0.884   5.126
12316SOL    HW238390   4.314   0.800   5.200
12317SOL     OW38391   5.218   1.804   4.717
12317SOL    HW138392   5.236   1.861   4.643
12317SOL    HW238393   5.304   1.781   4.752
12318SOL     OW38394   4.463   0.513   5.512
12318SOL    HW138395   4.449   0.606   5.525
12318SOL    HW238396   4.531   0.507   5.445
12319SOL     OW38397   5.256   1.133   5.406
12319SOL    HW138398   5.219   1.181   5.480
12319SOL    HW238399   5.310   1.197   5.359
12320SOL     OW38400   4.099   1.740   5.279
12320SOL    HW138401   4.016   1.785   5.263
12320SOL    HW238402   4.075   1.664   5.333
12321SOL     OW38403   5.422   0.879   4.964
12321SOL    HW138404   5.387   0.798   4.927
12321SOL    HW238405   5.395   0.947   4.903
12322SOL     OW38406   4.938   0.312   4.177
12322SOL    HW138407   5.005   0.244   4.173
12322SOL    HW238408   4.964   0.366   4.252
12323SOL     OW38409   4.315   0.725   4.383
12323SOL    HW138410   4.351   0.814   4.382
12323SOL    HW238411   4.243   0.728   4.320
12324SOL     OW38412   5.483   0.386   5.381
12324SOL    HW138413   5.478   0.406   5.288
12324SOL    HW238414   5.402   0.338   5.400
12325SOL     OW38415   5.455   0.915   5.233
12325SOL    HW138416   5.458   1.008   5.256
12325SOL    HW238417   5.461   0.914   5.137
12326SOL     OW38418   4.547   1.386   3.768
12326SOL    HW138419   4.531   1.375   3.862
12326SOL    HW238420   4.595   1.468   3.761
12327SOL     OW38421   4.388   1.781   4.645
12327SOL    HW138422   4.363   1.873   4.637
12327SOL    HW238423   4.483   1.783   4.646
12328SOL     OW38424   4.598   0.974   4.582
12328SOL    HW138425   4.653   0.908   4.623
12328SOL    HW238426   4.560   1.023   4.656
12329SOL     OW38427   4.888   1.086   3.777
12329SOL    HW138428   4.815   1.088   3.716
12329SOL    HW238429   4.908   0.993   3.789
12330SOL     OW38430   5.561   1.542   4.559
12330SOL    HW138431   5.476   1.537   4.515
12330SOL    HW238432   5.553   1.483   4.634
12331SOL     OW38433   3.966   1.311   5.595
12331SOL    HW138434   3.874   1.295   5.570
12331SOL    HW238435   3.964   1.316   5.691
12332SOL     OW38436   3.804   1.198   4.398
12332SOL    HW138437   3.834   1.164   4.483
12332SOL    HW238438   3.878   1.181   4.339
12333SOL     OW38439   4.400   1.408   5.359
12333SOL    HW138440   4.322   1.367   5.395
12333SOL    HW238441   4.400   1.496   5.396
12334SOL     OW38442   5.557   0.229   4.951
12334SOL    HW138443   5.490   0.169   4.984
12334SOL    HW238444   5.551   0.221   4.856
12335SOL     OW38445   4.119   0.433   4.225
12335SOL    HW138446   4.178   0.373   4.179
12335SOL    HW238447   4.103   0.392   4.310
12336SOL     OW38448   5.427   1.454   4.815
12336SOL    HW138449   5.346   1.443   4.764
12336SOL    HW238450   5.413   1.400   4.893
12337SOL     OW38451   4.030   0.548   5.017
12337SOL    HW138452   4.092   0.502   5.073
12337SOL    HW238453   4.060   0.530   4.928
12338SOL     OW38454   4.570   1.584   4.393
12338SOL    HW138455   4.553   1.660   4.337
12338SOL    HW238456   4.486   1.539   4.399
12339SOL     OW38457   5.130   0.216   4.846
12339SOL    HW138458   5.208   0.172   4.878
12339SOL    HW238459   5.097   0.266   4.921
12340SOL     OW38460   4.747   0.065   4.864
12340SOL    HW138461   4.725  -0.027   4.874
12340SOL    HW238462   4.842   0.069   4.876
12341SOL     OW38463   4.492   1.317   4.037
12341SOL    HW138464   4.473   1.227   4.062
12341SOL    HW238465   4.574   1.338   4.083
12342SOL     OW38466   4.346   1.553   5.012
12342SOL    HW138467   4.342   1.635   5.062
12342SOL    HW238468   4.431   1.555   4.968
12343SOL     OW38469   5.068   0.038   3.901
12343SOL    HW138470   5.056   0.080   3.815
12343SOL    HW238471   4.984  -0.004   3.918
12344SOL     OW38472   5.003   0.461   4.395
12344SOL    HW138473   4.957   0.545   4.400
12344SOL    HW238474   5.018   0.437   4.487
12345SOL     OW38475   5.337   0.239   4.606
12345SOL    HW138476   5.251   0.200   4.618
12345SOL    HW238477   5.323   0.311   4.545
12346SOL     OW38478   3.793   1.063   4.027
12346SOL    HW138479   3.882   1.037   4.001
12346SOL    HW238480   3.750   0.981   4.049
12347SOL     OW38481   3.942   0.616   5.708
12347SOL    HW138482   3.884   0.545   5.682
12347SOL    HW238483   3.969   0.656   5.626
12348SOL     OW38484   3.939   0.299   6.571
12348SOL    HW138485   3.978   0.259   6.649
12348SOL    HW238486   3.863   0.244   6.552
12349SOL     OW38487   3.727   0.388   6.211
12349SOL    HW138488   3.647   0.413   6.257
12349SOL    HW238489   3.700   0.318   6.153
12350SOL     OW38490   4.277   1.289   6.783
12350SOL    HW138491   4.207   1.312   6.722
12350SOL    HW238492   4.301   1.371   6.825
12351SOL     OW38493   5.259   1.497   6.277
12351SOL    HW138494   5.198   1.501   6.351
12351SOL    HW238495   5.205   1.516   6.200
12352SOL     OW38496   4.864   0.690   6.290
12352SOL    HW138497   4.914   0.771   6.289
12352SOL    HW238498   4.776   0.716   6.315
12353SOL     OW38499   5.501   0.610   5.818
12353SOL    HW138500   5.470   0.639   5.732
12353SOL    HW238501   5.487   0.515   5.818
12354SOL     OW38502   4.484   1.144   6.671
12354SOL    HW138503   4.405   1.183   6.710
12354SOL    HW238504   4.525   1.217   6.624
12355SOL     OW38505   4.603   0.763   7.402
12355SOL    HW138506   4.569   0.833   7.458
12355SOL    HW238507   4.626   0.807   7.320
12356SOL     OW38508   4.415   0.986   6.252
12356SOL    HW138509   4.476   0.986   6.325
12356SOL    HW238510   4.346   1.047   6.278
12357SOL     OW38511   4.435   1.158   7.411
12357SOL    HW138512   4.477   1.240   7.434
12357SOL    HW238513   4.356   1.183   7.364
12358SOL     OW38514   4.064   1.408   6.644
12358SOL    HW138515   3.993   1.386   6.584
12358SOL    HW238516   4.115   1.475   6.598
12359SOL     OW38517   5.184   1.504   6.956
12359SOL    HW138518   5.238   1.582   6.966
12359SOL    HW238519   5.109   1.519   7.013
12360SOL     OW38520   4.168   0.388   7.070
12360SOL    HW138521   4.247   0.334   7.073
12360SOL    HW238522   4.096   0.325   7.073
12361SOL     OW38523   5.347   0.457   6.311
12361SOL    HW138524   5.302   0.484   6.231
12361SOL    HW238525   5.349   0.535   6.365
12362SOL     OW38526   3.953   1.698   6.045
12362SOL    HW138527   3.972   1.773   6.100
12362SOL    HW238528   4.024   1.697   5.980
12363SOL     OW38529   4.862   1.333   7.271
12363SOL    HW138530   4.905   1.327   7.356
12363SOL    HW238531   4.811   1.252   7.263
12364SOL     OW38532   3.904   1.446   6.143
12364SOL    HW138533   3.932   1.527   6.101
12364SOL    HW238534   3.886   1.471   6.234
12365SOL     OW38535   3.963   1.086   6.467
12365SOL    HW138536   3.970   0.998   6.503
12365SOL    HW238537   3.906   1.132   6.529
12366SOL     OW38538   4.354   1.766   7.045
12366SOL    HW138539   4.263   1.762   7.072
12366SOL    HW238540   4.376   1.859   7.046
12367SOL     OW38541   4.301   0.976   5.713
12367SOL    HW138542   4.348   1.032   5.651
12367SOL    HW238543   4.333   1.004   5.799
12368SOL     OW38544   5.404   0.108   7.057
12368SOL    HW138545   5.371   0.182   7.006
12368SOL    HW238546   5.356   0.114   7.140
12369SOL     OW38547   3.830   0.653   6.136
12369SOL    HW138548   3.795   0.567   6.158
12369SOL    HW238549   3.811   0.707   6.213
12370SOL     OW38550   5.580   1.751   5.919
12370SOL    HW138551   5.656   1.731   5.973
12370SOL    HW238552   5.588   1.843   5.898
12371SOL     OW38553   3.644   1.569   5.741
12371SOL    HW138554   3.726   1.528   5.769
12371SOL    HW238555   3.671   1.637   5.679
12372SOL     OW38556   5.418   0.917   6.218
12372SOL    HW138557   5.485   0.875   6.164
12372SOL    HW238558   5.380   0.984   6.162
12373SOL     OW38559   5.360   1.108   6.027
12373SOL    HW138560   5.442   1.111   5.979
12373SOL    HW238561   5.369   1.175   6.094
12374SOL     OW38562   3.843   0.747   7.173
12374SOL    HW138563   3.933   0.781   7.182
12374SOL    HW238564   3.789   0.826   7.168
12375SOL     OW38565   4.332   1.352   6.390
12375SOL    HW138566   4.281   1.271   6.385
12375SOL    HW238567   4.335   1.383   6.299
12376SOL     OW38568   5.007   1.217   7.012
12376SOL    HW138569   5.039   1.154   6.947
12376SOL    HW238570   5.075   1.220   7.079
12377SOL     OW38571   4.541  -0.011   6.135
12377SOL    HW138572   4.550   0.063   6.195
12377SOL    HW238573   4.449  -0.011   6.110
12378SOL     OW38574   3.901   0.985   6.899
12378SOL    HW138575   3.981   0.936   6.882
12378SOL    HW238576   3.851   0.980   6.817
12379SOL     OW38577   5.236   1.000   5.801
12379SOL    HW138578   5.171   0.939   5.838
12379SOL    HW238579   5.279   1.037   5.878
12380SOL     OW38580   4.907   1.816   7.220
12380SOL    HW138581   4.912   1.892   7.162
12380SOL    HW238582   4.934   1.743   7.164
12381SOL     OW38583   4.047   0.229   7.416
12381SOL    HW138584   4.099   0.309   7.426
12381SOL    HW238585   3.958   0.256   7.440
12382SOL     OW38586   5.203   1.406   6.557
12382SOL    HW138587   5.125   1.424   6.609
12382SOL    HW238588   5.183   1.323   6.512
12383SOL     OW38589   5.410   1.717   6.180
12383SOL    HW138590   5.398   1.716   6.085
12383SOL    HW238591   5.343   1.658   6.213
12384SOL     OW38592   4.321   0.719   5.846
12384SOL    HW138593   4.332   0.796   5.790
12384SOL    HW238594   4.264   0.749   5.917
12385SOL     OW38595   5.026   0.367   6.518
12385SOL    HW138596   4.932   0.349   6.520
12385SOL    HW238597   5.062   0.310   6.586
12386SOL     OW38598   5.319   1.668   5.910
12386SOL    HW138599   5.410   1.689   5.894
12386SOL    HW238600   5.270   1.720   5.847
12387SOL     OW38601   4.497   0.652   7.019
12387SOL    HW138602   4.490   0.624   7.110
12387SOL    HW238603   4.481   0.573   6.968
12388SOL     OW38604   5.131   0.477   7.261
12388SOL    HW138605   5.144   0.521   7.345
12388SOL    HW238606   5.171   0.391   7.273
12389SOL     OW38607   4.672   0.890   7.155
12389SOL    HW138608   4.725   0.819   7.117
12389SOL    HW238609   4.633   0.933   7.080
12390SOL     OW38610   4.733   0.426   6.792
12390SOL    HW138611   4.643   0.424   6.823
12390SOL    HW238612   4.732   0.379   6.709
12391SOL     OW38613   4.773   0.683   6.003
12391SOL    HW138614   4.786   0.675   6.097
12391SOL    HW238615   4.687   0.644   5.987
12392SOL     OW38616   3.801   0.821   6.353
12392SOL    HW138617   3.882   0.818   6.403
12392SOL    HW238618   3.747   0.887   6.397
12393SOL     OW38619   3.770   1.765   7.178
12393SOL    HW138620   3.805   1.814   7.252
12393SOL    HW238621   3.813   1.803   7.102
12394SOL     OW38622   4.623   0.376   5.772
12394SOL    HW138623   4.653   0.429   5.698
12394SOL    HW238624   4.587   0.297   5.731
12395SOL     OW38625   5.462   0.593   7.385
12395SOL    HW138626   5.409   0.662   7.345
12395SOL    HW238627   5.446   0.516   7.329
12396SOL     OW38628   5.088   1.129   6.128
12396SOL    HW138629   5.168   1.125   6.075
12396SOL    HW238630   5.037   1.200   6.089
12397SOL     OW38631   4.254   0.197   6.493
12397SOL    HW138632   4.242   0.280   6.540
12397SOL    HW238633   4.320   0.217   6.427
12398SOL     OW38634   4.722   1.455   6.069
12398SOL    HW138635   4.703   1.522   6.003
12398SOL    HW238636   4.671   1.481   6.146
12399SOL     OW38637   4.072   1.818   6.460
12399SOL    HW138638   4.122   1.738   6.477
12399SOL    HW238639   4.134   1.889   6.477
12400SOL     OW38640   5.521   1.043   6.475
12400SOL    HW138641   5.481   1.051   6.388
12400SOL    HW238642   5.447   1.050   6.536
12401SOL     OW38643   4.944   1.544   7.090
12401SOL    HW138644   4.926   1.464   7.139
12401SOL    HW238645   4.859   1.573   7.058
12402SOL     OW38646   3.996   0.903   5.814
12402SOL    HW138647   4.070   0.956   5.844
12402SOL    HW238648   4.011   0.890   5.721
12403SOL     OW38649   5.236   0.731   6.302
12403SOL    HW138650   5.224   0.713   6.395
12403SOL    HW238651   5.304   0.799   6.300
12404SOL     OW38652   4.189   1.252   7.307
12404SOL    HW138653   4.150   1.239   7.221
12404SOL    HW238654   4.114   1.264   7.366
12405SOL     OW38655   4.876   1.723   5.903
12405SOL    HW138656   4.781   1.712   5.906
12405SOL    HW238657   4.899   1.708   5.812
12406SOL     OW38658   3.907   0.273   7.088
12406SOL    HW138659   3.857   0.344   7.047
12406SOL    HW238660   3.884   0.278   7.180
12407SOL     OW38661   5.360   1.388   5.681
12407SOL    HW138662   5.317   1.472   5.668
12407SOL    HW238663   5.291   1.323   5.668
12408SOL     OW38664   4.184   1.735   5.896
12408SOL    HW138665   4.233   1.784   5.963
12408SOL    HW238666   4.252   1.686   5.848
12409SOL     OW38667   5.111   0.160   6.014
12409SOL    HW138668   5.103   0.095   5.943
12409SOL    HW238669   5.193   0.206   5.995
12410SOL     OW38670   4.661   1.693   6.470
12410SOL    HW138671   4.745   1.647   6.472
12410SOL    HW238672   4.612   1.649   6.400
12411SOL     OW38673   4.093   0.692   6.052
12411SOL    HW138674   4.128   0.603   6.060
12411SOL    HW238675   4.022   0.696   6.115
12412SOL     OW38676   4.290   0.087   5.715
12412SOL    HW138677   4.386   0.087   5.725
12412SOL    HW238678   4.276   0.077   5.621
12413SOL     OW38679   4.479   0.289   7.360
12413SOL    HW138680   4.515   0.201   7.349
12413SOL    HW238681   4.413   0.281   7.428
12414SOL     OW38682   4.605   1.515   6.780
12414SOL    HW138683   4.585   1.488   6.690
12414SOL    HW238684   4.684   1.465   6.802
12415SOL     OW38685   5.049   0.603   7.024
12415SOL    HW138686   5.088   0.569   7.105
12415SOL    HW238687   5.092   0.688   7.011
12416SOL     OW38688   4.557   1.375   6.542
12416SOL    HW138689   4.632   1.381   6.484
12416SOL    HW238690   4.481   1.380   6.484
12417SOL     OW38691   4.646   0.550   6.485
12417SOL    HW138692   4.628   0.545   6.391
12417SOL    HW238693   4.681   0.464   6.507
12418SOL     OW38694   4.290   0.038   6.049
12418SOL    HW138695   4.223   0.037   6.117
12418SOL    HW238696   4.277   0.121   6.004
12419SOL     OW38697   5.152   1.216   5.647
12419SOL    HW138698   5.166   1.136   5.697
12419SOL    HW238699   5.062   1.242   5.667
12420SOL     OW38700   4.020   0.039   5.799
12420SOL    HW138701   4.104   0.060   5.758
12420SOL    HW238702   4.043  -0.017   5.873
12421SOL     OW38703   4.746   0.243   6.022
12421SOL    HW138704   4.669   0.289   6.057
12421SOL    HW238705   4.711   0.188   5.951
12422SOL     OW38706   4.784   0.678   7.003
12422SOL    HW138707   4.741   0.599   7.034
12422SOL    HW238708   4.878   0.657   7.004
12423SOL     OW38709   4.954   1.581   6.389
12423SOL    HW138710   4.959   1.633   6.308
12423SOL    HW238711   4.975   1.642   6.459
12424SOL     OW38712   4.191   1.122   6.330
12424SOL    HW138713   4.111   1.113   6.382
12424SOL    HW238714   4.160   1.136   6.241
12425SOL     OW38715   4.986   1.802   6.223
12425SOL    HW138716   5.027   1.850   6.151
12425SOL    HW238717   4.910   1.856   6.247
12426SOL     OW38718   4.765   0.573   5.605
12426SOL    HW138719   4.690   0.629   5.587
12426SOL    HW238720   4.839   0.633   5.613
12427SOL     OW38721   3.827   0.548   6.987
12427SOL    HW138722   3.917   0.558   6.955
12427SOL    HW238723   3.816   0.619   7.050
12428SOL     OW38724   4.297   0.238   6.791
12428SOL    HW138725   4.326   0.169   6.851
12428SOL    HW238726   4.202   0.235   6.795
12429SOL     OW38727   4.596   0.504   6.221
12429SOL    HW138728   4.558   0.524   6.136
12429SOL    HW238729   4.567   0.415   6.241
12430SOL     OW38730   4.772  -0.004   6.346
12430SOL    HW138731   4.723   0.078   6.340
12430SOL    HW238732   4.712  -0.071   6.316
12431SOL     OW38733   5.171   1.158   6.435
12431SOL    HW138734   5.087   1.136   6.396
12431SOL    HW238735   5.229   1.176   6.361
12432SOL     OW38736   5.186   0.618   6.554
12432SOL    HW138737   5.136   0.537   6.548
12432SOL    HW238738   5.243   0.605   6.629
12433SOL     OW38739   5.565   0.813   5.992
12433SOL    HW138740   5.628   0.755   6.035
12433SOL    HW238741   5.538   0.765   5.914
12434SOL     OW38742   4.238   1.398   5.734
12434SOL    HW138743   4.178   1.382   5.807
12434SOL    HW238744   4.184   1.388   5.656
12435SOL     OW38745   5.383   1.249   6.264
12435SOL    HW138746   5.479   1.257   6.264
12435SOL    HW238747   5.351   1.339   6.263
12436SOL     OW38748   5.135   0.576   5.665
12436SOL    HW138749   5.113   0.549   5.754
12436SOL    HW238750   5.230   0.569   5.660
12437SOL     OW38751   4.250   0.272   5.909
12437SOL    HW138752   4.264   0.210   5.837
12437SOL    HW238753   4.228   0.355   5.866
12438SOL     OW38754   5.490   1.237   7.163
12438SOL    HW138755   5.577   1.203   7.143
12438SOL    HW238756   5.503   1.329   7.182
12439SOL     OW38757   4.787   1.336   6.901
12439SOL    HW138758   4.710   1.319   6.955
12439SOL    HW238759   4.860   1.301   6.952
12440SOL     OW38760   5.340   1.621   7.247
12440SOL    HW138761   5.326   1.669   7.165
12440SOL    HW238762   5.424   1.577   7.234
12441SOL     OW38763   4.837   1.175   6.684
12441SOL    HW138764   4.801   1.234   6.750
12441SOL    HW238765   4.834   1.226   6.603
12442SOL     OW38766   5.324   1.092   6.661
12442SOL    HW138767   5.323   1.170   6.717
12442SOL    HW238768   5.257   1.109   6.594
12443SOL     OW38769   4.647   0.123   6.993
12443SOL    HW138770   4.653   0.106   6.899
12443SOL    HW238771   4.738   0.128   7.023
12444SOL     OW38772   4.704   1.105   7.323
12444SOL    HW138773   4.612   1.126   7.341
12444SOL    HW238774   4.700   1.034   7.259
12445SOL     OW38775   4.392   0.998   5.970
12445SOL    HW138776   4.402   1.021   6.063
12445SOL    HW238777   4.482   0.982   5.940
12446SOL     OW38778   4.121   0.834   6.849
12446SOL    HW138779   4.194   0.846   6.909
12446SOL    HW238780   4.099   0.741   6.856
12447SOL     OW38781   4.989   0.382   6.872
12447SOL    HW138782   5.017   0.463   6.915
12447SOL    HW238783   4.902   0.402   6.838
12448SOL     OW38784   3.732   1.560   6.917
12448SOL    HW138785   3.664   1.627   6.923
12448SOL    HW238786   3.813   1.609   6.905
12449SOL     OW38787   4.085   1.119   6.072
12449SOL    HW138788   4.096   1.209   6.041
12449SOL    HW238789   4.155   1.070   6.029
12450SOL     OW38790   4.286   0.558   6.460
12450SOL    HW138791   4.276   0.620   6.388
12450SOL    HW238792   4.374   0.521   6.448
12451SOL     OW38793   4.964   1.344   6.009
12451SOL    HW138794   5.020   1.422   6.012
12451SOL    HW238795   4.876   1.376   6.028
12452SOL     OW38796   5.012   1.460   6.747
12452SOL    HW138797   5.068   1.467   6.824
12452SOL    HW238798   4.932   1.417   6.779
12453SOL     OW38799   5.311   0.605   6.063
12453SOL    HW138800   5.270   0.665   6.125
12453SOL    HW238801   5.354   0.662   6.000
12454SOL     OW38802   4.048   1.464   6.910
12454SOL    HW138803   4.057   1.458   6.815
12454SOL    HW238804   4.075   1.554   6.930
12455SOL     OW38805   4.149   0.731   7.191
12455SOL    HW138806   4.202   0.784   7.132
12455SOL    HW238807   4.197   0.648   7.198
12456SOL     OW38808   5.333   0.795   7.268
12456SOL    HW138809   5.247   0.836   7.260
12456SOL    HW238810   5.386   0.835   7.199
12457SOL     OW38811   4.773   0.069   7.338
12457SOL    HW138812   4.798   0.160   7.320
12457SOL    HW238813   4.680   0.066   7.315
12458SOL     OW38814   4.229   0.032   7.321
12458SOL    HW138815   4.203  -0.033   7.256
12458SOL    HW238816   4.152   0.087   7.332
12459SOL     OW38817   4.318   0.871   6.645
12459SOL    HW138818   4.325   0.956   6.602
12459SOL    HW238819   4.236   0.876   6.694
12460SOL     OW38820   5.025   0.841   6.585
12460SOL    HW138821   5.029   0.884   6.500
12460SOL    HW238822   5.083   0.765   6.576
12461SOL     OW38823   4.938   0.492   5.885
12461SOL    HW138824   4.887   0.468   5.808
12461SOL    HW238825   4.899   0.575   5.914
12462SOL     OW38826   4.028   0.202   6.821
12462SOL    HW138827   3.965   0.199   6.893
12462SOL    HW238828   4.021   0.117   6.779
12463SOL     OW38829   3.812   1.304   6.903
12463SOL    HW138830   3.904   1.325   6.889
12463SOL    HW238831   3.769   1.389   6.910
12464SOL     OW38832   4.485   0.663   6.684
12464SOL    HW138833   4.527   0.633   6.604
12464SOL    HW238834   4.420   0.726   6.655
12465SOL     OW38835   5.469   0.923   7.472
12465SOL    HW138836   5.422   0.880   7.401
12465SOL    HW238837   5.400   0.956   7.530
12466SOL     OW38838   4.108   0.063   6.255
12466SOL    HW138839   4.102   0.155   6.280
12466SOL    HW238840   4.017   0.035   6.243
12467SOL     OW38841   5.307   0.354   5.963
12467SOL    HW138842   5.377   0.313   6.013
12467SOL    HW238843   5.305   0.445   5.992
12468SOL     OW38844   4.760   0.766   6.633
12468SOL    HW138845   4.851   0.791   6.614
12468SOL    HW238846   4.743   0.693   6.574
12469SOL     OW38847   4.706   1.553   7.308
12469SOL    HW138848   4.682   1.609   7.233
12469SOL    HW238849   4.756   1.481   7.269
12470SOL     OW38850   5.582   1.502   7.184
12470SOL    HW138851   5.593   1.526   7.091
12470SOL    HW238852   5.656   1.545   7.228
12471SOL     OW38853   4.065   0.926   7.365
12471SOL    HW138854   4.128   0.938   7.436
12471SOL    HW238855   4.101   0.853   7.314
12472SOL     OW38856   5.254   0.238   5.718
12472SOL    HW138857   5.223   0.154   5.751
12472SOL    HW238858   5.278   0.287   5.796
12473SOL     OW38859   5.005   0.811   5.613
12473SOL    HW138860   5.063   0.735   5.617
12473SOL    HW238861   5.033   0.857   5.533
12474SOL     OW38862   4.829   1.336   6.460
12474SOL    HW138863   4.822   1.271   6.390
12474SOL    HW238864   4.874   1.410   6.419
12475SOL     OW38865   4.030   0.811   6.515
12475SOL    HW138866   4.115   0.815   6.473
12475SOL    HW238867   4.030   0.727   6.562
12476SOL     OW38868   4.060   0.538   6.607
12476SOL    HW138869   4.020   0.455   6.580
12476SOL    HW238870   4.139   0.544   6.553
12477SOL     OW38871   4.886   0.352   7.301
12477SOL    HW138872   4.822   0.412   7.340
12477SOL    HW238873   4.961   0.408   7.279
12478SOL     OW38874   4.900   0.207   7.061
12478SOL    HW138875   4.909   0.253   7.145
12478SOL    HW238876   4.932   0.269   6.996
12479SOL     OW38877   3.739   1.300   5.789
12479SOL    HW138878   3.653   1.326   5.755
12479SOL    HW238879   3.725   1.213   5.826
12480SOL     OW38880   3.801   1.785   6.497
12480SOL    HW138881   3.790   1.698   6.457
12480SOL    HW238882   3.895   1.802   6.493
12481SOL     OW38883   4.219   1.580   6.506
12481SOL    HW138884   4.286   1.647   6.521
12481SOL    HW238885   4.261   1.515   6.450
12482SOL     OW38886   3.756   0.540   6.707
12482SOL    HW138887   3.828   0.527   6.645
12482SOL    HW238888   3.799   0.542   6.793
12483SOL     OW38889   3.915   0.516   7.306
12483SOL    HW138890   3.994   0.505   7.252
12483SOL    HW238891   3.870   0.590   7.267
12484SOL     OW38892   5.100   0.934   7.241
12484SOL    HW138893   5.127   1.026   7.238
12484SOL    HW238894   5.096   0.908   7.149
12485SOL     OW38895   4.532   0.562   5.955
12485SOL    HW138896   4.550   0.496   5.889
12485SOL    HW238897   4.462   0.616   5.917
12486SOL     OW38898   5.366   0.595   6.762
12486SOL    HW138899   5.356   0.541   6.840
12486SOL    HW238900   5.453   0.574   6.729
12487SOL     OW38901   3.982   1.551   7.311
12487SOL    HW138902   3.958   1.629   7.361
12487SOL    HW238903   3.969   1.478   7.372
12488SOL     OW38904   4.462   0.445   6.849
12488SOL    HW138905   4.400   0.374   6.832
12488SOL    HW238906   4.446   0.509   6.780
12489SOL     OW38907   4.683   1.658   7.041
12489SOL    HW138908   4.636   1.627   6.964
12489SOL    HW238909   4.674   1.753   7.039
12490SOL     OW38910   4.181   0.494   5.775
12490SOL    HW138911   4.241   0.567   5.786
12490SOL    HW238912   4.097   0.535   5.753
12491SOL     OW38913   5.026   1.021   6.800
12491SOL    HW138914   5.040   0.959   6.728
12491SOL    HW238915   4.961   1.083   6.766
12492SOL     OW38916   5.034   0.833   5.888
12492SOL    HW138917   4.948   0.849   5.926
12492SOL    HW238918   5.018   0.830   5.793
12493SOL     OW38919   5.474   1.705   6.716
12493SOL    HW138920   5.558   1.743   6.688
12493SOL    HW238921   5.408   1.760   6.673
12494SOL     OW38922   4.965   1.723   6.668
12494SOL    HW138923   5.052   1.764   6.669
12494SOL    HW238924   4.982   1.634   6.699
12495SOL     OW38925   3.799   1.225   6.634
12495SOL    HW138926   3.794   1.256   6.725
12495SOL    HW238927   3.720   1.260   6.593
12496SOL     OW38928   4.386   1.676   7.317
12496SOL    HW138929   4.320   1.741   7.340
12496SOL    HW238930   4.415   1.701   7.229
12497SOL     OW38931   5.461   0.157   6.087
12497SOL    HW138932   5.475   0.120   6.000
12497SOL    HW238933   5.408   0.093   6.133
12498SOL     OW38934   5.112   1.573   6.060
12498SOL    HW138935   5.179   1.600   5.998
12498SOL    HW238936   5.043   1.639   6.052
12499SOL     OW38937   3.892   1.766   7.449
12499SOL    HW138938   3.834   1.708   7.498
12499SOL    HW238939   3.856   1.853   7.462
12500SOL     OW38940   5.026   0.911   6.286
12500SOL    HW138941   5.099   0.856   6.258
12500SOL    HW238942   5.030   0.988   6.229
12501SOL     OW38943   4.534   1.271   7.019
12501SOL    HW138944   4.506   1.310   7.102
12501SOL    HW238945   4.486   1.320   6.952
12502SOL     OW38946   4.396   1.619   5.744
12502SOL    HW138947   4.401   1.635   5.650
12502SOL    HW238948   4.352   1.534   5.752
12503SOL     OW38949   5.346   1.722   6.975
12503SOL    HW138950   5.401   1.729   6.897
12503SOL    HW238951   5.334   1.812   7.005
12504SOL     OW38952   5.580   0.156   6.530
12504SOL    HW138953   5.610   0.118   6.448
12504SOL    HW238954   5.491   0.186   6.512
12505SOL     OW38955   3.989   0.324   6.298
12505SOL    HW138956   3.903   0.351   6.266
12505SOL    HW238957   3.978   0.316   6.393
12506SOL     OW38958   4.878   1.610   5.650
12506SOL    HW138959   4.953   1.561   5.617
12506SOL    HW238960   4.823   1.625   5.573
12507SOL     OW38961   4.559   1.007   6.908
12507SOL    HW138962   4.540   1.035   6.818
12507SOL    HW238963   4.561   1.089   6.958
12508SOL     OW38964   4.647   0.919   5.904
12508SOL    HW138965   4.693   0.953   5.828
12508SOL    HW238966   4.696   0.840   5.928
12509SOL     OW38967   5.206   1.605   5.607
12509SOL    HW138968   5.184   1.689   5.647
12509SOL    HW238969   5.253   1.628   5.527
12510SOL     OW38970   4.054   1.239   7.064
12510SOL    HW138971   4.043   1.333   7.048
12510SOL    HW238972   4.115   1.210   6.997
12511SOL     OW38973   5.348   1.331   6.815
12511SOL    HW138974   5.425   1.309   6.867
12511SOL    HW238975   5.289   1.374   6.877
12512SOL     OW38976   4.783   1.118   6.301
12512SOL    HW138977   4.702   1.074   6.324
12512SOL    HW238978   4.788   1.110   6.206
12513SOL     OW38979   4.759   0.288   6.554
12513SOL    HW138980   4.698   0.267   6.484
12513SOL    HW238981   4.766   0.207   6.606
12514SOL     OW38982   5.464   0.403   6.965
12514SOL    HW138983   5.532   0.470   6.972
12514SOL    HW238984   5.501   0.337   6.906
12515SOL     OW38985   3.993   1.337   5.883
12515SOL    HW138986   3.898   1.339   5.867
12515SOL    HW238987   4.005   1.386   5.964
12516SOL     OW38988   3.834   1.052   7.299
12516SOL    HW138989   3.763   1.021   7.355
12516SOL    HW238990   3.913   1.010   7.334
12517SOL     OW38991   4.402   0.231   7.091
12517SOL    HW138992   4.474   0.174   7.061
12517SOL    HW238993   4.425   0.253   7.181
12518SOL     OW38994   3.806   0.352   5.625
12518SOL    HW138995   3.717   0.329   5.598
12518SOL    HW238996   3.840   0.405   5.552
12519SOL     OW38997   5.146   0.859   6.982
12519SOL    HW138998   5.094   0.916   6.925
12519SOL    HW238999   5.234   0.863   6.946
12520SOL     OW39000   3.815   0.208   5.874
12520SOL    HW139001   3.812   0.268   5.799
12520SOL    HW239002   3.885   0.147   5.853
12521SOL     OW39003   4.896   1.301   5.707
12521SOL    HW139004   4.803   1.312   5.687
12521SOL    HW239005   4.906   1.334   5.796
12522SOL     OW39006   4.329   0.859   7.021
12522SOL    HW139007   4.383   0.933   6.994
12522SOL    HW239008   4.389   0.785   7.024
12523SOL     OW39009   5.250   1.802   6.580
12523SOL    HW139010   5.257   1.810   6.484
12523SOL    HW239011   5.229   1.890   6.610
12524SOL     OW39012   4.447   0.564   7.275
12524SOL    HW139013   4.492   0.622   7.337
12524SOL    HW239014   4.467   0.476   7.305
12525SOL     OW39015   5.211   1.185   7.211
12525SOL    HW139016   5.197   1.213   7.302
12525SOL    HW239017   5.302   1.208   7.192
12526SOL     OW39018   4.102   1.738   7.140
12526SOL    HW139019   4.046   1.763   7.066
12526SOL    HW239020   4.053   1.669   7.185
12527SOL     OW39021   5.382   0.880   6.841
12527SOL    HW139022   5.382   0.798   6.792
12527SOL    HW239023   5.368   0.948   6.774
12528SOL     OW39024   4.283   0.745   6.264
12528SOL    HW139025   4.337   0.823   6.251
12528SOL    HW239026   4.238   0.733   6.180
12529SOL     OW39027   5.481   0.360   7.236
12529SOL    HW139028   5.468   0.375   7.142
12529SOL    HW239029   5.408   0.304   7.262
12530SOL     OW39030   5.493   0.924   7.091
12530SOL    HW139031   5.503   1.018   7.103
12530SOL    HW239032   5.466   0.914   6.999
12531SOL     OW39033   4.608   1.349   5.616
12531SOL    HW139034   4.575   1.360   5.705
12531SOL    HW239035   4.610   1.438   5.580
12532SOL     OW39036   4.390   1.786   6.531
12532SOL    HW139037   4.361   1.874   6.507
12532SOL    HW239038   4.484   1.785   6.509
12533SOL     OW39039   4.585   0.973   6.470
12533SOL    HW139040   4.652   0.923   6.516
12533SOL    HW239041   4.552   1.034   6.536
12534SOL     OW39042   4.792   0.970   5.682
12534SOL    HW139043   4.774   1.037   5.617
12534SOL    HW239044   4.870   0.925   5.649
12535SOL     OW39045   5.525   1.511   6.447
12535SOL    HW139046   5.485   1.546   6.368
12535SOL    HW239047   5.592   1.450   6.415
12536SOL     OW39048   3.967   1.303   7.457
12536SOL    HW139049   3.891   1.249   7.433
12536SOL    HW239050   3.961   1.310   7.553
12537SOL     OW39051   3.804   1.201   6.252
12537SOL    HW139052   3.869   1.156   6.307
12537SOL    HW239053   3.856   1.260   6.197
12538SOL     OW39054   4.419   1.400   7.239
12538SOL    HW139055   4.329   1.372   7.253
12538SOL    HW239056   4.418   1.494   7.256
12539SOL     OW39057   5.562   0.206   6.808
12539SOL    HW139058   5.485   0.149   6.810
12539SOL    HW239059   5.572   0.228   6.715
12540SOL     OW39060   4.159   0.440   6.114
12540SOL    HW139061   4.192   0.373   6.055
12540SOL    HW239062   4.106   0.392   6.178
12541SOL     OW39063   4.072   0.567   6.881
12541SOL    HW139064   4.120   0.500   6.930
12541SOL    HW239065   4.081   0.540   6.789
12542SOL     OW39066   4.541   1.592   6.243
12542SOL    HW139067   4.541   1.676   6.196
12542SOL    HW239068   4.472   1.542   6.201
12543SOL     OW39069   5.142   0.213   6.711
12543SOL    HW139070   5.202   0.159   6.763
12543SOL    HW239071   5.092   0.263   6.777
12544SOL     OW39072   4.730   0.070   6.724
12544SOL    HW139073   4.643   0.065   6.684
12544SOL    HW239074   4.750  -0.021   6.748
12545SOL     OW39075   4.529   1.331   5.875
12545SOL    HW139076   4.439   1.339   5.904
12545SOL    HW239077   4.581   1.360   5.949
12546SOL     OW39078   4.364   1.524   6.901
12546SOL    HW139079   4.351   1.607   6.945
12546SOL    HW239080   4.442   1.537   6.847
12547SOL     OW39081   5.106   8.009   5.782
12547SOL    HW139082   5.124   7.928   5.736
12547SOL    HW239083   5.031   8.047   5.736
12548SOL     OW39084   4.993   0.446   6.250
12548SOL    HW139085   4.953   0.532   6.261
12548SOL    HW239086   5.016   0.419   6.339
12549SOL     OW39087   5.327   0.232   6.469
12549SOL    HW139088   5.243   0.243   6.513
12549SOL    HW239089   5.331   0.305   6.407
12550SOL     OW39090   3.748   1.047   5.893
12550SOL    HW139091   3.840   1.055   5.917
12550SOL    HW239092   3.749   1.006   5.806
12551SOL     OW39093   4.604   1.658   5.926
12551SOL    HW139094   4.534   1.638   5.864
12551SOL    HW239095   4.570   1.730   5.978
12552SOL     OW39096   3.943   0.605   7.571
12552SOL    HW139097   3.857   0.628   7.608
12552SOL    HW239098   3.924   0.587   7.478
12553SOL     OW39099   3.940   0.289   8.422
12553SOL    HW139100   4.027   0.250   8.412
12553SOL    HW239101   3.885   0.241   8.360
12554SOL     OW39102   3.720   0.367   8.080
12554SOL    HW139103   3.640   0.408   8.113
12554SOL    HW239104   3.693   0.325   7.998
12555SOL     OW39105   4.295   1.299   8.626
12555SOL    HW139106   4.210   1.305   8.582
12555SOL    HW239107   4.310   1.386   8.663
12556SOL     OW39108   5.258   1.493   8.163
12556SOL    HW139109   5.195   1.475   8.234
12556SOL    HW239110   5.203   1.513   8.087
12557SOL     OW39111   5.509   0.587   7.664
12557SOL    HW139112   5.445   0.588   7.592
12557SOL    HW239113   5.475   0.521   7.725
12558SOL     OW39114   4.482   1.162   8.481
12558SOL    HW139115   4.411   1.189   8.540
12558SOL    HW239116   4.513   1.244   8.443
12559SOL     OW39117   4.594   0.772   9.268
12559SOL    HW139118   4.548   0.845   9.311
12559SOL    HW239119   4.624   0.809   9.184
12560SOL     OW39120   4.431   1.004   8.107
12560SOL    HW139121   4.468   0.987   8.194
12560SOL    HW239122   4.351   1.053   8.124
12561SOL     OW39123   4.432   1.162   9.273
12561SOL    HW139124   4.478   1.245   9.283
12561SOL    HW239125   4.350   1.184   9.230
12562SOL     OW39126   4.058   1.411   8.512
12562SOL    HW139127   3.985   1.377   8.460
12562SOL    HW239128   4.104   1.471   8.453
12563SOL     OW39129   5.195   1.493   8.821
12563SOL    HW139130   5.247   1.573   8.832
12563SOL    HW239131   5.114   1.511   8.869
12564SOL     OW39132   4.161   0.315   8.869
12564SOL    HW139133   4.245   0.279   8.897
12564SOL    HW239134   4.122   0.351   8.948
12565SOL     OW39135   5.326   0.450   8.165
12565SOL    HW139136   5.237   0.455   8.128
12565SOL    HW239137   5.341   0.536   8.204
12566SOL     OW39138   3.958   1.711   7.912
12566SOL    HW139139   3.975   1.785   7.970
12566SOL    HW239140   3.997   1.737   7.828
12567SOL     OW39141   4.868   1.331   9.135
12567SOL    HW139142   4.893   1.333   9.228
12567SOL    HW239143   4.811   1.254   9.127
12568SOL     OW39144   3.991   1.449   7.988
12568SOL    HW139145   3.967   1.541   7.976
12568SOL    HW239146   3.920   1.412   8.041
12569SOL     OW39147   4.015   1.100   8.366
12569SOL    HW139148   4.004   1.006   8.381
12569SOL    HW239149   3.941   1.141   8.409
12570SOL     OW39150   4.313   1.782   8.851
12570SOL    HW139151   4.241   1.768   8.912
12570SOL    HW239152   4.356   1.862   8.883
12571SOL     OW39153   4.298   0.982   7.585
12571SOL    HW139154   4.340   1.035   7.517
12571SOL    HW239155   4.336   1.015   7.667
12572SOL     OW39156   5.399   0.121   8.945
12572SOL    HW139157   5.346   0.089   8.872
12572SOL    HW239158   5.336   0.163   9.004
12573SOL     OW39159   3.794   0.661   8.018
12573SOL    HW139160   3.813   0.569   7.999
12573SOL    HW239161   3.880   0.702   8.028
12574SOL     OW39162   5.560   1.763   7.814
12574SOL    HW139163   5.646   1.736   7.844
12574SOL    HW239164   5.574   1.850   7.776
12575SOL     OW39165   3.750   1.593   7.601
12575SOL    HW139166   3.737   1.500   7.616
12575SOL    HW239167   3.728   1.635   7.684
12576SOL     OW39168   5.422   0.923   8.097
12576SOL    HW139169   5.484   0.863   8.056
12576SOL    HW239170   5.389   0.976   8.025
12577SOL     OW39171   5.366   1.093   7.882
12577SOL    HW139172   5.451   1.095   7.839
12577SOL    HW239173   5.370   1.163   7.947
12578SOL     OW39174   3.803   0.721   9.040
12578SOL    HW139175   3.896   0.741   9.044
12578SOL    HW239176   3.762   0.803   9.014
12579SOL     OW39177   4.349   1.386   8.192
12579SOL    HW139178   4.298   1.305   8.190
12579SOL    HW239179   4.339   1.423   8.104
12580SOL     OW39180   5.000   1.229   8.862
12580SOL    HW139181   5.033   1.166   8.798
12580SOL    HW239182   5.050   1.212   8.942
12581SOL     OW39183   4.564   0.039   8.010
12581SOL    HW139184   4.599   0.120   7.972
12581SOL    HW239185   4.472   0.039   7.983
12582SOL     OW39186   3.910   0.968   8.731
12582SOL    HW139187   3.992   0.920   8.722
12582SOL    HW239188   3.869   0.961   8.645
12583SOL     OW39189   5.256   0.998   7.646
12583SOL    HW139190   5.185   0.941   7.677
12583SOL    HW239191   5.294   1.034   7.727
12584SOL     OW39192   4.966   1.818   9.085
12584SOL    HW139193   4.956   1.893   9.026
12584SOL    HW239194   4.962   1.741   9.029
12585SOL     OW39195   4.055   0.251   9.267
12585SOL    HW139196   4.089   0.341   9.263
12585SOL    HW239197   3.968   0.260   9.305
12586SOL     OW39198   5.185   1.399   8.418
12586SOL    HW139199   5.113   1.417   8.478
12586SOL    HW239200   5.169   1.311   8.386
12587SOL     OW39201   5.427   1.700   8.045
12587SOL    HW139202   5.475   1.718   7.965
12587SOL    HW239203   5.338   1.681   8.016
12588SOL     OW39204   4.314   0.732   7.721
12588SOL    HW139205   4.307   0.810   7.666
12588SOL    HW239206   4.251   0.746   7.792
12589SOL     OW39207   5.021   0.367   8.385
12589SOL    HW139208   4.930   0.336   8.389
12589SOL    HW239209   5.067   0.314   8.450
12590SOL     OW39210   5.295   1.661   7.755
12590SOL    HW139211   5.377   1.711   7.748
12590SOL    HW239212   5.266   1.650   7.664
12591SOL     OW39213   4.548   0.578   8.926
12591SOL    HW139214   4.488   0.577   9.001
12591SOL    HW239215   4.494   0.552   8.852
12592SOL     OW39216   5.142   0.499   9.119
12592SOL    HW139217   5.158   0.534   9.206
12592SOL    HW239218   5.192   0.418   9.116
12593SOL     OW39219   4.678   0.889   9.035
12593SOL    HW139220   4.731   0.820   8.994
12593SOL    HW239221   4.637   0.935   8.962
12594SOL     OW39222   4.718   0.420   8.674
12594SOL    HW139223   4.628   0.442   8.700
12594SOL    HW239224   4.707   0.356   8.604
12595SOL     OW39225   4.767   0.654   7.913
12595SOL    HW139226   4.743   0.597   7.986
12595SOL    HW239227   4.694   0.646   7.851
12596SOL     OW39228   3.777   0.789   8.316
12596SOL    HW139229   3.871   0.806   8.313
12596SOL    HW239230   3.736   0.872   8.295
12597SOL     OW39231   3.832   1.800   9.012
12597SOL    HW139232   3.833   1.809   9.107
12597SOL    HW239233   3.815   1.889   8.980
12598SOL     OW39234   4.617   0.349   7.651
12598SOL    HW139235   4.660   0.399   7.582
12598SOL    HW239236   4.589   0.268   7.608
12599SOL     OW39237   5.435   0.582   9.286
12599SOL    HW139238   5.401   0.661   9.243
12599SOL    HW239239   5.457   0.523   9.214
12600SOL     OW39240   5.093   1.125   7.995
12600SOL    HW139241   5.171   1.110   7.941
12600SOL    HW239242   5.046   1.195   7.950
12601SOL     OW39243   4.199   0.240   8.383
12601SOL    HW139244   4.254   0.265   8.457
12601SOL    HW239245   4.255   0.252   8.306
12602SOL     OW39246   4.744   1.473   7.932
12602SOL    HW139247   4.672   1.506   7.877
12602SOL    HW239248   4.766   1.546   7.989
12603SOL     OW39249   4.073   1.819   8.333
12603SOL    HW139250   4.130   1.742   8.336
12603SOL    HW239251   4.133   1.894   8.344
12604SOL     OW39252   5.534   1.066   8.311
12604SOL    HW139253   5.484   1.033   8.237
12604SOL    HW239254   5.471   1.066   8.384
12605SOL     OW39255   4.956   1.542   8.940
12605SOL    HW139256   4.929   1.464   8.990
12605SOL    HW239257   4.874   1.579   8.908
12606SOL     OW39258   4.031   0.977   7.693
12606SOL    HW139259   4.117   0.980   7.649
12606SOL    HW239260   4.039   0.903   7.754
12607SOL     OW39261   5.213   0.750   8.177
12607SOL    HW139262   5.208   0.711   8.264
12607SOL    HW239263   5.288   0.809   8.181
12608SOL     OW39264   4.181   1.259   9.196
12608SOL    HW139265   4.155   1.263   9.104
12608SOL    HW239266   4.098   1.266   9.244
12609SOL     OW39267   4.871   1.747   7.697
12609SOL    HW139268   4.785   1.780   7.670
12609SOL    HW239269   4.901   1.694   7.624
12610SOL     OW39270   3.865   0.255   8.987
12610SOL    HW139271   3.848   0.338   8.941
12610SOL    HW239272   3.894   0.282   9.074
12611SOL     OW39273   5.356   1.381   7.555
12611SOL    HW139274   5.320   1.467   7.532
12611SOL    HW239275   5.291   1.318   7.524
12612SOL     OW39276   4.240   1.739   7.757
12612SOL    HW139277   4.178   1.810   7.742
12612SOL    HW239278   4.287   1.730   7.674
12613SOL     OW39279   5.138   0.125   7.863
12613SOL    HW139280   5.128   0.091   7.775
12613SOL    HW239281   5.233   0.136   7.874
12614SOL     OW39282   3.978   1.780   8.673
12614SOL    HW139283   4.070   1.759   8.691
12614SOL    HW239284   3.973   1.787   8.577
12615SOL     OW39285   4.664   1.701   8.370
12615SOL    HW139286   4.754   1.672   8.386
12615SOL    HW239287   4.612   1.620   8.370
12616SOL     OW39288   5.255   0.215   9.164
12616SOL    HW139289   5.255   0.233   9.258
12616SOL    HW239290   5.201   0.137   9.153
12617SOL     OW39291   4.330   0.146   7.545
12617SOL    HW139292   4.399   0.091   7.583
12617SOL    HW239293   4.298   0.095   7.470
12618SOL     OW39294   4.489   0.269   9.292
12618SOL    HW139295   4.518   0.211   9.221
12618SOL    HW239296   4.448   0.343   9.248
12619SOL     OW39297   4.600   1.516   8.631
12619SOL    HW139298   4.579   1.482   8.544
12619SOL    HW239299   4.670   1.459   8.663
12620SOL     OW39300   5.057   0.597   8.878
12620SOL    HW139301   5.100   0.568   8.958
12620SOL    HW239302   5.093   0.684   8.862
12621SOL     OW39303   4.555   1.417   8.375
12621SOL    HW139304   4.635   1.389   8.330
12621SOL    HW239305   4.486   1.411   8.309
12622SOL     OW39306   4.664   0.525   8.333
12622SOL    HW139307   4.635   0.513   8.243
12622SOL    HW239308   4.691   0.438   8.361
12623SOL     OW39309   4.314   0.047   7.889
12623SOL    HW139310   4.237   0.002   7.925
12623SOL    HW239311   4.280   0.132   7.859
12624SOL     OW39312   5.154   1.208   7.485
12624SOL    HW139313   5.175   1.130   7.536
12624SOL    HW239314   5.066   1.233   7.514
12625SOL     OW39315   4.007   0.056   7.646
12625SOL    HW139316   4.025   0.105   7.566
12625SOL    HW239317   4.091   0.018   7.671
12626SOL     OW39318   4.675   0.272   7.910
12626SOL    HW139319   4.648   0.295   7.821
12626SOL    HW239320   4.770   0.278   7.909
12627SOL     OW39321   4.798   0.692   8.898
12627SOL    HW139322   4.727   0.629   8.905
12627SOL    HW239323   4.877   0.639   8.889
12628SOL     OW39324   4.952   1.579   8.251
12628SOL    HW139325   4.966   1.641   8.180
12628SOL    HW239326   4.975   1.628   8.330
12629SOL     OW39327   4.207   1.149   8.177
12629SOL    HW139328   4.143   1.136   8.247
12629SOL    HW239329   4.157   1.142   8.096
12630SOL     OW39330   4.992   1.795   8.068
12630SOL    HW139331   5.038   1.856   8.010
12630SOL    HW239332   4.918   1.845   8.102
12631SOL     OW39333   4.748   0.530   7.474
12631SOL    HW139334   4.705   0.613   7.452
12631SOL    HW239335   4.811   0.554   7.542
12632SOL     OW39336   3.810   0.507   8.874
12632SOL    HW139337   3.894   0.523   8.830
12632SOL    HW239338   3.798   0.584   8.929
12633SOL     OW39339   4.311   0.233   8.636
12633SOL    HW139340   4.333   0.143   8.658
12633SOL    HW239341   4.238   0.255   8.695
12634SOL     OW39342   4.611   0.489   8.071
12634SOL    HW139343   4.533   0.526   8.029
12634SOL    HW239344   4.624   0.405   8.026
12635SOL     OW39345   4.687   0.033   8.247
12635SOL    HW139346   4.645   0.038   8.161
12635SOL    HW239347   4.713  -0.059   8.255
12636SOL     OW39348   5.164   1.149   8.303
12636SOL    HW139349   5.088   1.091   8.298
12636SOL    HW239350   5.192   1.161   8.212
12637SOL     OW39351   5.190   0.609   8.417
12637SOL    HW139352   5.141   0.527   8.415
12637SOL    HW239353   5.250   0.600   8.491
12638SOL     OW39354   5.576   0.804   7.833
12638SOL    HW139355   5.631   0.750   7.890
12638SOL    HW239356   5.540   0.743   7.769
12639SOL     OW39357   4.213   1.422   7.595
12639SOL    HW139358   4.141   1.396   7.652
12639SOL    HW239359   4.181   1.406   7.506
12640SOL     OW39360   5.385   1.261   8.089
12640SOL    HW139361   5.479   1.276   8.101
12640SOL    HW239362   5.345   1.346   8.110
12641SOL     OW39363   5.141   0.571   7.524
12641SOL    HW139364   5.067   0.556   7.584
12641SOL    HW239365   5.203   0.501   7.544
12642SOL     OW39366   4.238   0.280   7.757
12642SOL    HW139367   4.272   0.230   7.683
12642SOL    HW239368   4.211   0.363   7.720
12643SOL     OW39369   4.776   1.335   8.750
12643SOL    HW139370   4.697   1.319   8.802
12643SOL    HW239371   4.848   1.302   8.805
12644SOL     OW39372   5.348   1.601   9.115
12644SOL    HW139373   5.337   1.645   9.031
12644SOL    HW239374   5.437   1.566   9.113
12645SOL     OW39375   4.851   1.185   8.532
12645SOL    HW139376   4.808   1.234   8.602
12645SOL    HW239377   4.833   1.237   8.453
12646SOL     OW39378   5.347   1.088   8.517
12646SOL    HW139379   5.330   1.149   8.589
12646SOL    HW239380   5.274   1.102   8.456
12647SOL     OW39381   4.653   0.128   8.849
12647SOL    HW139382   4.650   0.072   8.771
12647SOL    HW239383   4.746   0.133   8.871
12648SOL     OW39384   4.703   1.108   9.191
12648SOL    HW139385   4.610   1.128   9.203
12648SOL    HW239386   4.704   1.035   9.130
12649SOL     OW39387   4.432   1.051   7.817
12649SOL    HW139388   4.410   1.029   7.908
12649SOL    HW239389   4.518   1.011   7.804
12650SOL     OW39390   4.134   0.813   8.705
12650SOL    HW139391   4.215   0.823   8.755
12650SOL    HW239392   4.097   0.730   8.735
12651SOL     OW39393   4.977   0.380   8.738
12651SOL    HW139394   5.012   0.461   8.775
12651SOL    HW239395   4.889   0.404   8.708
12652SOL     OW39396   3.789   1.595   8.773
12652SOL    HW139397   3.736   1.656   8.722
12652SOL    HW239398   3.876   1.635   8.776
12653SOL     OW39399   4.056   1.106   7.956
12653SOL    HW139400   4.048   1.134   7.865
12653SOL    HW239401   4.064   1.011   7.952
12654SOL     OW39402   4.271   0.540   8.311
12654SOL    HW139403   4.292   0.587   8.230
12654SOL    HW239404   4.342   0.563   8.371
12655SOL     OW39405   4.972   1.342   7.860
12655SOL    HW139406   5.032   1.415   7.871
12655SOL    HW239407   4.886   1.378   7.880
12656SOL     OW39408   5.005   1.460   8.615
12656SOL    HW139409   5.068   1.460   8.687
12656SOL    HW239410   4.928   1.415   8.650
12657SOL     OW39411   5.296   0.646   7.929
12657SOL    HW139412   5.252   0.684   8.005
12657SOL    HW239413   5.274   0.705   7.856
12658SOL     OW39414   4.083   1.492   8.772
12658SOL    HW139415   4.061   1.470   8.681
12658SOL    HW239416   4.173   1.523   8.769
12659SOL     OW39417   5.341   0.797   9.142
12659SOL    HW139418   5.252   0.831   9.134
12659SOL    HW239419   5.383   0.819   9.058
12660SOL     OW39420   4.764   0.079   9.200
12660SOL    HW139421   4.780   0.170   9.174
12660SOL    HW239422   4.672   0.064   9.177
12661SOL     OW39423   4.220   0.041   9.199
12661SOL    HW139424   4.188  -0.008   9.123
12661SOL    HW239425   4.157   0.112   9.210
12662SOL     OW39426   4.326   0.871   8.496
12662SOL    HW139427   4.322   0.965   8.477
12662SOL    HW239428   4.254   0.856   8.558
12663SOL     OW39429   5.066   0.848   8.475
12663SOL    HW139430   4.978   0.824   8.447
12663SOL    HW239431   5.118   0.768   8.461
12664SOL     OW39432   4.922   0.544   7.701
12664SOL    HW139433   4.935   0.451   7.722
12664SOL    HW239434   4.883   0.581   7.780
12665SOL     OW39435   3.974   0.183   8.704
12665SOL    HW139436   4.032   0.221   8.770
12665SOL    HW239437   4.030   0.120   8.657
12666SOL     OW39438   3.769   1.330   8.745
12666SOL    HW139439   3.811   1.297   8.665
12666SOL    HW239440   3.784   1.425   8.743
12667SOL     OW39441   4.452   0.628   8.498
12667SOL    HW139442   4.527   0.626   8.439
12667SOL    HW239443   4.418   0.717   8.491
12668SOL     OW39444   5.455   0.976   9.316
12668SOL    HW139445   5.420   0.910   9.257
12668SOL    HW239446   5.388   0.988   9.383
12669SOL     OW39447   4.136   0.076   8.135
12669SOL    HW139448   4.081   0.154   8.131
12669SOL    HW239449   4.096   0.014   8.074
12670SOL     OW39450   5.376   0.398   7.840
12670SOL    HW139451   5.374   0.325   7.902
12670SOL    HW239452   5.342   0.472   7.889
12671SOL     OW39453   4.788   0.757   8.400
12671SOL    HW139454   4.768   0.770   8.492
12671SOL    HW239455   4.757   0.668   8.381
12672SOL     OW39456   4.771   1.603   9.164
12672SOL    HW139457   4.679   1.626   9.177
12672SOL    HW239458   4.770   1.529   9.103
12673SOL     OW39459   5.599   1.436   9.040
12673SOL    HW139460   5.594   1.489   8.961
12673SOL    HW239461   5.673   1.471   9.089
12674SOL     OW39462   4.068   0.919   9.280
12674SOL    HW139463   4.156   0.950   9.302
12674SOL    HW239464   4.083   0.850   9.215
12675SOL     OW39465   5.331   0.363   7.571
12675SOL    HW139466   5.277   0.293   7.535
12675SOL    HW239467   5.329   0.349   7.666
12676SOL     OW39468   5.023   0.822   7.480
12676SOL    HW139469   5.070   0.739   7.482
12676SOL    HW239470   5.048   0.862   7.397
12677SOL     OW39471   4.808   1.337   8.298
12677SOL    HW139472   4.822   1.274   8.227
12677SOL    HW239473   4.862   1.413   8.273
12678SOL     OW39474   4.043   0.819   8.393
12678SOL    HW139475   4.128   0.821   8.349
12678SOL    HW239476   4.037   0.731   8.430
12679SOL     OW39477   4.057   0.532   8.467
12679SOL    HW139478   4.017   0.447   8.449
12679SOL    HW239479   4.132   0.535   8.408
12680SOL     OW39480   4.898   0.359   9.155
12680SOL    HW139481   4.810   0.392   9.135
12680SOL    HW239482   4.956   0.431   9.131
12681SOL     OW39483   4.910   0.198   8.924
12681SOL    HW139484   4.900   0.251   9.003
12681SOL    HW239485   4.930   0.262   8.855
12682SOL     OW39486   3.728   1.321   7.656
12682SOL    HW139487   3.643   1.330   7.612
12682SOL    HW239488   3.732   1.229   7.681
12683SOL     OW39489   3.809   1.781   8.386
12683SOL    HW139490   3.780   1.705   8.336
12683SOL    HW239491   3.899   1.797   8.356
12684SOL     OW39492   4.221   1.572   8.358
12684SOL    HW139493   4.288   1.640   8.365
12684SOL    HW239494   4.259   1.508   8.297
12685SOL     OW39495   4.694   0.784   8.655
12685SOL    HW139496   4.747   0.766   8.733
12685SOL    HW239497   4.606   0.757   8.680
12686SOL     OW39498   3.759   0.462   8.578
12686SOL    HW139499   3.795   0.493   8.494
12686SOL    HW239500   3.811   0.508   8.644
12687SOL     OW39501   3.906   0.498   9.178
12687SOL    HW139502   3.985   0.542   9.149
12687SOL    HW239503   3.834   0.551   9.141
12688SOL     OW39504   5.102   0.926   9.108
12688SOL    HW139505   5.122   1.020   9.100
12688SOL    HW239506   5.094   0.896   9.017
12689SOL     OW39507   4.544   0.593   7.779
12689SOL    HW139508   4.542   0.509   7.733
12689SOL    HW239509   4.460   0.634   7.758
12690SOL     OW39510   5.366   0.613   8.630
12690SOL    HW139511   5.357   0.549   8.701
12690SOL    HW239512   5.455   0.600   8.597
12691SOL     OW39513   3.982   1.549   9.182
12691SOL    HW139514   3.955   1.630   9.225
12691SOL    HW239515   3.971   1.482   9.249
12692SOL     OW39516   4.444   0.461   8.707
12692SOL    HW139517   4.397   0.381   8.681
12692SOL    HW239518   4.434   0.520   8.633
12693SOL     OW39519   4.720   1.662   8.863
12693SOL    HW139520   4.658   1.631   8.797
12693SOL    HW239521   4.696   1.754   8.877
12694SOL     OW39522   4.185   0.507   7.630
12694SOL    HW139523   4.235   0.584   7.656
12694SOL    HW239524   4.097   0.540   7.613
12695SOL     OW39525   3.816   1.108   8.943
12695SOL    HW139526   3.869   1.083   9.019
12695SOL    HW239527   3.859   1.063   8.869
12696SOL     OW39528   5.042   1.040   8.663
12696SOL    HW139529   5.065   0.974   8.598
12696SOL    HW239530   4.974   1.093   8.620
12697SOL     OW39531   5.049   0.851   7.755
12697SOL    HW139532   4.966   0.839   7.801
12697SOL    HW239533   5.027   0.835   7.663
12698SOL     OW39534   5.533   1.726   8.609
12698SOL    HW139535   5.476   1.802   8.600
12698SOL    HW239536   5.492   1.659   8.555
12699SOL     OW39537   4.961   1.718   8.518
12699SOL    HW139538   5.034   1.773   8.546
12699SOL    HW239539   4.978   1.633   8.559
12700SOL     OW39540   3.791   1.259   8.471
12700SOL    HW139541   3.724   1.325   8.489
12700SOL    HW239542   3.749   1.198   8.411
12701SOL     OW39543   5.415   0.148   7.959
12701SOL    HW139544   5.454   0.102   7.886
12701SOL    HW239545   5.392   0.079   8.022
12702SOL     OW39546   5.121   1.572   7.939
12702SOL    HW139547   5.175   1.598   7.865
12702SOL    HW239548   5.062   1.646   7.953
12703SOL     OW39549   3.877   1.780   9.288
12703SOL    HW139550   3.828   1.722   9.347
12703SOL    HW239551   3.918   1.844   9.347
12704SOL     OW39552   4.990   0.899   8.118
12704SOL    HW139553   5.066   0.843   8.128
12704SOL    HW239554   5.021   0.973   8.066
12705SOL     OW39555   4.526   1.287   8.862
12705SOL    HW139556   4.498   1.324   8.946
12705SOL    HW239557   4.458   1.314   8.801
12706SOL     OW39558   4.431   1.582   7.579
12706SOL    HW139559   4.425   1.622   7.492
12706SOL    HW239560   4.352   1.529   7.586
12707SOL     OW39561   5.358   1.711   8.862
12707SOL    HW139562   5.377   1.725   8.769
12707SOL    HW239563   5.345   1.800   8.897
12708SOL     OW39564   5.585   0.168   8.407
12708SOL    HW139565   5.578   0.076   8.432
12708SOL    HW239566   5.499   0.190   8.371
12709SOL     OW39567   3.972   0.299   8.140
12709SOL    HW139568   3.888   0.337   8.117
12709SOL    HW239569   4.002   0.351   8.215
12710SOL     OW39570   4.944   1.613   7.473
12710SOL    HW139571   4.918   1.521   7.476
12710SOL    HW239572   4.896   1.650   7.399
12711SOL     OW39573   4.569   1.020   8.826
12711SOL    HW139574   4.595   1.015   8.734
12711SOL    HW239575   4.552   1.113   8.841
12712SOL     OW39576   4.676   0.935   7.782
12712SOL    HW139577   4.722   0.963   7.702
12712SOL    HW239578   4.671   0.840   7.775
12713SOL     OW39579   5.223   1.616   7.493
12713SOL    HW139580   5.128   1.623   7.479
12713SOL    HW239581   5.261   1.628   7.406
12714SOL     OW39582   4.076   1.286   8.949
12714SOL    HW139583   4.081   1.370   8.904
12714SOL    HW239584   4.028   1.229   8.890
12715SOL     OW39585   5.328   1.273   8.719
12715SOL    HW139586   5.419   1.295   8.741
12715SOL    HW239587   5.277   1.345   8.756
12716SOL     OW39588   4.749   1.107   8.125
12716SOL    HW139589   4.657   1.126   8.143
12716SOL    HW239590   4.762   1.135   8.034
12717SOL     OW39591   4.757   0.266   8.390
12717SOL    HW139592   4.736   0.213   8.314
12717SOL    HW239593   4.761   0.204   8.463
12718SOL     OW39594   4.323   1.498   7.939
12718SOL    HW139595   4.380   1.440   7.888
12718SOL    HW239596   4.239   1.494   7.894
12719SOL     OW39597   5.430   0.424   8.829
12719SOL    HW139598   5.511   0.473   8.840
12719SOL    HW239599   5.456   0.345   8.782
12720SOL     OW39600   3.988   1.344   7.738
12720SOL    HW139601   3.894   1.341   7.723
12720SOL    HW239602   3.997   1.377   7.828
12721SOL     OW39603   3.844   1.057   9.217
12721SOL    HW139604   3.765   1.017   9.254
12721SOL    HW239605   3.915   1.000   9.243
12722SOL     OW39606   4.393   0.196   8.947
12722SOL    HW139607   4.455   0.178   8.876
12722SOL    HW239608   4.417   0.135   9.016
12723SOL     OW39609   3.799   0.322   7.477
12723SOL    HW139610   3.705   0.311   7.470
12723SOL    HW239611   3.819   0.398   7.423
12724SOL     OW39612   5.145   0.860   8.845
12724SOL    HW139613   5.093   0.918   8.790
12724SOL    HW239614   5.233   0.862   8.807
12725SOL     OW39615   3.828   0.209   7.794
12725SOL    HW139616   3.799   0.267   7.724
12725SOL    HW239617   3.887   0.147   7.751
12726SOL     OW39618   4.896   1.328   7.556
12726SOL    HW139619   4.801   1.333   7.549
12726SOL    HW239620   4.914   1.331   7.650
12727SOL     OW39621   4.368   0.827   8.835
12727SOL    HW139622   4.432   0.897   8.846
12727SOL    HW239623   4.346   0.800   8.925
12728SOL     OW39624   5.278   1.774   8.354
12728SOL    HW139625   5.240   1.840   8.297
12728SOL    HW239626   5.277   1.814   8.441
12729SOL     OW39627   4.473   0.527   9.191
12729SOL    HW139628   4.476   0.618   9.219
12729SOL    HW239629   4.559   0.492   9.216
12730SOL     OW39630   5.180   1.198   9.086
12730SOL    HW139631   5.166   1.204   9.180
12730SOL    HW239632   5.198   1.288   9.058
12731SOL     OW39633   4.103   1.743   9.016
12731SOL    HW139634   4.016   1.777   8.993
12731SOL    HW239635   4.085   1.662   9.064
12732SOL     OW39636   5.388   0.883   8.716
12732SOL    HW139637   5.387   0.795   8.678
12732SOL    HW239638   5.377   0.941   8.641
12733SOL     OW39639   4.946   0.314   7.909
12733SOL    HW139640   5.005   0.243   7.883
12733SOL    HW239641   4.993   0.359   7.979
12734SOL     OW39642   4.344   0.730   8.121
12734SOL    HW139643   4.378   0.818   8.105
12734SOL    HW239644   4.265   0.725   8.068
12735SOL     OW39645   5.477   0.374   9.112
12735SOL    HW139646   5.489   0.395   9.019
12735SOL    HW239647   5.406   0.309   9.113
12736SOL     OW39648   5.493   0.989   8.953
12736SOL    HW139649   5.566   0.929   8.968
12736SOL    HW239650   5.455   0.962   8.870
12737SOL     OW39651   4.619   1.393   7.516
12737SOL    HW139652   4.550   1.448   7.552
12737SOL    HW239653   4.647   1.437   7.436
12738SOL     OW39654   4.387   1.784   8.352
12738SOL    HW139655   4.353   1.873   8.347
12738SOL    HW239656   4.481   1.795   8.366
12739SOL     OW39657   4.591   0.959   8.335
12739SOL    HW139658   4.609   0.893   8.401
12739SOL    HW239659   4.553   1.033   8.383
12740SOL     OW39660   4.806   0.981   7.549
12740SOL    HW139661   4.779   1.036   7.475
12740SOL    HW239662   4.879   0.930   7.516
12741SOL     OW39663   3.936   1.293   9.317
12741SOL    HW139664   3.906   1.215   9.271
12741SOL    HW239665   3.865   1.316   9.377
12742SOL     OW39666   3.834   1.227   8.092
12742SOL    HW139667   3.830   1.164   8.164
12742SOL    HW239668   3.900   1.193   8.032
12743SOL     OW39669   4.423   1.398   9.091
12743SOL    HW139670   4.329   1.386   9.103
12743SOL    HW239671   4.440   1.486   9.123
12744SOL     OW39672   5.539   0.220   8.680
12744SOL    HW139673   5.471   0.153   8.679
12744SOL    HW239674   5.566   0.229   8.589
12745SOL     OW39675   4.219   0.400   8.007
12745SOL    HW139676   4.223   0.374   7.915
12745SOL    HW239677   4.126   0.412   8.025
12746SOL     OW39678   5.426   1.502   8.479
12746SOL    HW139679   5.338   1.471   8.461
12746SOL    HW239680   5.457   1.446   8.551
12747SOL     OW39681   4.035   0.544   8.734
12747SOL    HW139682   4.105   0.491   8.774
12747SOL    HW239683   4.055   0.544   8.641
12748SOL     OW39684   5.147   0.230   8.582
12748SOL    HW139685   5.203   0.169   8.630
12748SOL    HW239686   5.096   0.275   8.650
12749SOL     OW39687   4.744   0.070   8.572
12749SOL    HW139688   4.660   0.030   8.550
12749SOL    HW239689   4.805  -0.003   8.578
12750SOL     OW39690   4.487   1.322   7.806
12750SOL    HW139691   4.454   1.233   7.802
12750SOL    HW239692   4.554   1.326   7.738
12751SOL     OW39693   4.351   1.544   8.736
12751SOL    HW139694   4.341   1.630   8.778
12751SOL    HW239695   4.438   1.547   8.696
12752SOL     OW39696   5.083   8.023   7.613
12752SOL    HW139697   5.121   7.984   7.534
12752SOL    HW239698   4.994   7.986   7.618
12753SOL     OW39699   5.046   0.450   8.129
12753SOL    HW139700   4.970   0.508   8.120
12753SOL    HW239701   5.040   0.416   8.218
12754SOL     OW39702   5.344   0.227   8.323
12754SOL    HW139703   5.259   0.193   8.352
12754SOL    HW239704   5.322   0.300   8.266
12755SOL     OW39705   3.777   1.069   7.741
12755SOL    HW139706   3.865   1.042   7.716
12755SOL    HW239707   3.734   0.989   7.772
12756SOL     OW39708   4.558   1.662   7.805
12756SOL    HW139709   4.519   1.630   7.724
12756SOL    HW239710   4.593   1.748   7.782
12757SOL     OW39711   3.959   0.642   9.438
12757SOL    HW139712   3.869   0.612   9.441
12757SOL    HW239713   3.978   0.653   9.345
12758SOL     OW39714   3.934   0.287  10.300
12758SOL    HW139715   3.966   0.260  10.387
12758SOL    HW239716   3.866   0.223  10.279
12759SOL     OW39717   3.744   0.391   9.920
12759SOL    HW139718   3.654   0.381   9.950
12759SOL    HW239719   3.746   0.346   9.835
12760SOL     OW39720   4.292   1.294  10.481
12760SOL    HW139721   4.205   1.312  10.445
12760SOL    HW239722   4.315   1.373  10.530
12761SOL     OW39723   5.275   1.516  10.015
12761SOL    HW139724   5.217   1.480  10.082
12761SOL    HW239725   5.219   1.529   9.939
12762SOL     OW39726   4.858   0.688  10.008
12762SOL    HW139727   4.904   0.770   9.990
12762SOL    HW239728   4.823   0.699  10.096
12763SOL     OW39729   4.466   1.133  10.345
12763SOL    HW139730   4.401   1.172  10.403
12763SOL    HW239731   4.513   1.208  10.308
12764SOL     OW39732   4.524   0.805  11.120
12764SOL    HW139733   4.547   0.847  11.203
12764SOL    HW239734   4.578   0.851  11.055
12765SOL     OW39735   4.456   1.013   9.960
12765SOL    HW139736   4.487   0.989  10.048
12765SOL    HW239737   4.376   1.063   9.976
12766SOL     OW39738   4.441   1.138  11.111
12766SOL    HW139739   4.480   1.219  11.143
12766SOL    HW239740   4.356   1.166  11.075
12767SOL     OW39741   4.063   1.410  10.372
12767SOL    HW139742   3.982   1.384  10.327
12767SOL    HW239743   4.106   1.470  10.311
12768SOL     OW39744   4.166   0.369  10.764
12768SOL    HW139745   4.248   0.319  10.769
12768SOL    HW239746   4.117   0.344  10.843
12769SOL     OW39747   5.320   0.442  10.026
12769SOL    HW139748   5.231   0.455   9.993
12769SOL    HW239749   5.347   0.529  10.055
12770SOL     OW39750   3.953   1.691   9.786
12770SOL    HW139751   3.965   1.769   9.840
12770SOL    HW239752   4.028   1.692   9.725
12771SOL     OW39753   4.871   1.348  11.010
12771SOL    HW139754   4.901   1.347  11.101
12771SOL    HW239755   4.815   1.271  11.002
12772SOL     OW39756   3.893   1.443   9.916
12772SOL    HW139757   3.944   1.512   9.872
12772SOL    HW239758   3.813   1.486   9.945
12773SOL     OW39759   3.971   1.106  10.148
12773SOL    HW139760   3.985   1.019  10.185
12773SOL    HW239761   3.927   1.155  10.217
12774SOL     OW39762   4.301   1.801  10.714
12774SOL    HW139763   4.233   1.775  10.776
12774SOL    HW239764   4.341   1.879  10.754
12775SOL     OW39765   4.305   0.988   9.450
12775SOL    HW139766   4.347   1.042   9.382
12775SOL    HW239767   4.345   1.018   9.532
12776SOL     OW39768   5.335   0.153  10.772
12776SOL    HW139769   5.370   0.238  10.744
12776SOL    HW239770   5.312   0.166  10.864
12777SOL     OW39771   3.847   0.658   9.871
12777SOL    HW139772   3.824   0.567   9.889
12777SOL    HW239773   3.833   0.703   9.955
12778SOL     OW39774   5.565   1.756   9.645
12778SOL    HW139775   5.641   1.733   9.700
12778SOL    HW239776   5.581   1.848   9.620
12779SOL     OW39777   3.777   1.588   9.454
12779SOL    HW139778   3.724   1.509   9.461
12779SOL    HW239779   3.742   1.646   9.522
12780SOL     OW39780   5.406   0.914   9.961
12780SOL    HW139781   5.493   0.874   9.952
12780SOL    HW239782   5.395   0.965   9.881
12781SOL     OW39783   5.371   1.097   9.744
12781SOL    HW139784   5.455   1.103   9.699
12781SOL    HW239785   5.376   1.164   9.813
12782SOL     OW39786   3.863   0.731  10.918
12782SOL    HW139787   3.953   0.763  10.908
12782SOL    HW239788   3.812   0.809  10.938
12783SOL     OW39789   4.342   1.390  10.049
12783SOL    HW139790   4.305   1.302  10.049
12783SOL    HW239791   4.323   1.424   9.961
12784SOL     OW39792   5.014   1.242  10.731
12784SOL    HW139793   5.067   1.187  10.673
12784SOL    HW239794   5.059   1.238  10.816
12785SOL     OW39795   4.572   0.031   9.897
12785SOL    HW139796   4.601   0.106   9.844
12785SOL    HW239797   4.535  -0.030   9.833
12786SOL     OW39798   3.915   0.958  10.593
12786SOL    HW139799   4.002   0.923  10.577
12786SOL    HW239800   3.858   0.909  10.533
12787SOL     OW39801   5.250   1.001   9.514
12787SOL    HW139802   5.180   0.944   9.546
12787SOL    HW239803   5.293   1.032   9.594
12788SOL     OW39804   4.914   1.818  10.933
12788SOL    HW139805   4.914   1.873  10.855
12788SOL    HW239806   4.923   1.729  10.900
12789SOL     OW39807   4.035   0.329  11.062
12789SOL    HW139808   4.114   0.344  11.115
12789SOL    HW239809   3.965   0.315  11.126
12790SOL     OW39810   5.172   1.417  10.245
12790SOL    HW139811   5.109   1.429  10.316
12790SOL    HW239812   5.170   1.323  10.227
12791SOL     OW39813   5.402   1.747   9.897
12791SOL    HW139814   5.394   1.722   9.805
12791SOL    HW239815   5.361   1.676   9.946
12792SOL     OW39816   4.322   0.730   9.586
12792SOL    HW139817   4.312   0.805   9.527
12792SOL    HW239818   4.249   0.738   9.648
12793SOL     OW39819   5.020   0.378  10.269
12793SOL    HW139820   4.933   0.340  10.264
12793SOL    HW239821   5.065   0.325  10.335
12794SOL     OW39822   5.295   1.693   9.618
12794SOL    HW139823   5.387   1.718   9.610
12794SOL    HW239824   5.270   1.668   9.529
12795SOL     OW39825   4.529   0.610  10.776
12795SOL    HW139826   4.484   0.598  10.859
12795SOL    HW239827   4.475   0.563  10.712
12796SOL     OW39828   5.156   0.501  10.993
12796SOL    HW139829   5.136   0.542  11.077
12796SOL    HW239830   5.237   0.453  11.008
12797SOL     OW39831   4.667   0.891  10.888
12797SOL    HW139832   4.751   0.850  10.866
12797SOL    HW239833   4.639   0.933  10.806
12798SOL     OW39834   4.753   0.409  10.542
12798SOL    HW139835   4.679   0.400  10.602
12798SOL    HW239836   4.723   0.371  10.460
12799SOL     OW39837   4.769   0.696   9.746
12799SOL    HW139838   4.792   0.672   9.836
12799SOL    HW239839   4.687   0.649   9.729
12800SOL     OW39840   3.801   0.821  10.089
12800SOL    HW139841   3.883   0.820  10.139
12800SOL    HW239842   3.752   0.895  10.125
12801SOL     OW39843   3.816   1.813  10.864
12801SOL    HW139844   3.826   1.799  10.958
12801SOL    HW239845   3.802   1.908  10.855
12802SOL     OW39846   4.616   0.366   9.520
12802SOL    HW139847   4.669   0.425   9.467
12802SOL    HW239848   4.568   0.313   9.457
12803SOL     OW39849   5.418   0.565  11.140
12803SOL    HW139850   5.386   0.642  11.092
12803SOL    HW239851   5.496   0.538  11.091
12804SOL     OW39852   5.092   1.143   9.848
12804SOL    HW139853   5.173   1.125   9.800
12804SOL    HW239854   5.050   1.213   9.799
12805SOL     OW39855   4.305   0.254  10.212
12805SOL    HW139856   4.284   0.257  10.305
12805SOL    HW239857   4.289   0.343  10.181
12806SOL     OW39858   4.730   1.451   9.789
12806SOL    HW139859   4.698   1.522   9.732
12806SOL    HW239860   4.696   1.473   9.875
12807SOL     OW39861   4.067   1.821  10.202
12807SOL    HW139862   4.121   1.742  10.197
12807SOL    HW239863   4.129   1.893  10.213
12808SOL     OW39864   5.522   1.058  10.180
12808SOL    HW139865   5.463   1.031  10.109
12808SOL    HW239866   5.465   1.067  10.256
12809SOL     OW39867   4.947   1.552  10.828
12809SOL    HW139868   4.934   1.479  10.888
12809SOL    HW239869   5.021   1.525  10.773
12810SOL     OW39870   4.039   0.956   9.573
12810SOL    HW139871   4.114   0.983   9.519
12810SOL    HW239872   4.005   0.878   9.529
12811SOL     OW39873   5.181   0.773  10.033
12811SOL    HW139874   5.189   0.722  10.114
12811SOL    HW239875   5.265   0.818  10.025
12812SOL     OW39876   4.204   1.227  11.020
12812SOL    HW139877   4.158   1.245  10.938
12812SOL    HW239878   4.144   1.256  11.089
12813SOL     OW39879   4.835   1.772   9.511
12813SOL    HW139880   4.763   1.755   9.572
12813SOL    HW239881   4.884   1.690   9.508
12814SOL     OW39882   3.895   0.232  10.814
12814SOL    HW139883   3.819   0.289  10.817
12814SOL    HW239884   3.936   0.240  10.900
12815SOL     OW39885   5.363   1.369   9.394
12815SOL    HW139886   5.328   1.457   9.383
12815SOL    HW239887   5.289   1.311   9.379
12816SOL     OW39888   4.195   1.709   9.663
12816SOL    HW139889   4.229   1.789   9.704
12816SOL    HW239890   4.257   1.691   9.592
12817SOL     OW39891   5.135   0.140   9.719
12817SOL    HW139892   5.129   0.087   9.639
12817SOL    HW239893   5.227   0.137   9.743
12818SOL     OW39894   3.990   1.800  10.539
12818SOL    HW139895   4.034   1.737  10.595
12818SOL    HW239896   4.012   1.772  10.450
12819SOL     OW39897   4.659   1.708  10.208
12819SOL    HW139898   4.738   1.662  10.238
12819SOL    HW239899   4.625   1.654  10.137
12820SOL     OW39900   4.122   0.706   9.788
12820SOL    HW139901   4.138   0.612   9.796
12820SOL    HW239902   4.027   0.715   9.794
12821SOL     OW39903   5.261   0.229  11.037
12821SOL    HW139904   5.285   0.238  11.129
12821SOL    HW239905   5.165   0.233  11.037
12822SOL     OW39906   4.344   0.094   9.433
12822SOL    HW139907   4.405   0.154   9.389
12822SOL    HW239908   4.294   0.055   9.362
12823SOL     OW39909   4.450   0.225  11.070
12823SOL    HW139910   4.529   0.278  11.081
12823SOL    HW239911   4.397   0.246  11.148
12824SOL     OW39912   4.598   1.513  10.497
12824SOL    HW139913   4.586   1.471  10.412
12824SOL    HW239914   4.667   1.461  10.539
12825SOL     OW39915   5.121   0.595  10.732
12825SOL    HW139916   5.149   0.567  10.819
12825SOL    HW239917   5.143   0.689  10.729
12826SOL     OW39918   4.566   1.369  10.239
12826SOL    HW139919   4.646   1.367  10.186
12826SOL    HW239920   4.497   1.395  10.178
12827SOL     OW39921   4.647   0.520  10.200
12827SOL    HW139922   4.615   0.507  10.110
12827SOL    HW239923   4.685   0.435  10.224
12828SOL     OW39924   5.143   1.207   9.356
12828SOL    HW139925   5.168   1.130   9.408
12828SOL    HW239926   5.056   1.230   9.388
12829SOL     OW39927   4.039   0.041   9.563
12829SOL    HW139928   4.067   0.092   9.487
12829SOL    HW239929   3.996  -0.036   9.526
12830SOL     OW39930   4.679   0.269   9.778
12830SOL    HW139931   4.650   0.281   9.688
12830SOL    HW239932   4.774   0.280   9.774
12831SOL     OW39933   4.798   0.662  10.770
12831SOL    HW139934   4.704   0.651  10.787
12831SOL    HW239935   4.840   0.624  10.847
12832SOL     OW39936   4.930   1.584  10.113
12832SOL    HW139937   4.951   1.648  10.045
12832SOL    HW239938   4.969   1.619  10.193
12833SOL     OW39939   4.219   1.140  10.014
12833SOL    HW139940   4.152   1.124  10.081
12833SOL    HW239941   4.172   1.131   9.931
12834SOL     OW39942   4.984   1.792   9.923
12834SOL    HW139943   5.034   1.857   9.874
12834SOL    HW239944   4.911   1.841   9.960
12835SOL     OW39945   4.731   0.548   9.351
12835SOL    HW139946   4.693   0.632   9.325
12835SOL    HW239947   4.813   0.571   9.395
12836SOL     OW39948   3.813   0.563  10.705
12836SOL    HW139949   3.905   0.562  10.679
12836SOL    HW239950   3.809   0.630  10.774
12837SOL     OW39951   4.286   0.235  10.489
12837SOL    HW139952   4.325   0.164  10.541
12837SOL    HW239953   4.194   0.237  10.516
12838SOL     OW39954   4.572   0.458   9.943
12838SOL    HW139955   4.535   0.512   9.874
12838SOL    HW239956   4.615   0.386   9.897
12839SOL     OW39957   4.691   0.030  10.131
12839SOL    HW139958   4.649   0.035  10.046
12839SOL    HW239959   4.732  -0.056  10.133
12840SOL     OW39960   5.147   1.154  10.165
12840SOL    HW139961   5.114   1.066  10.182
12840SOL    HW239962   5.169   1.154  10.072
12841SOL     OW39963   5.178   0.619  10.276
12841SOL    HW139964   5.136   0.533  10.273
12841SOL    HW239965   5.245   0.610  10.345
12842SOL     OW39966   5.557   0.812   9.688
12842SOL    HW139967   5.608   0.759   9.750
12842SOL    HW239968   5.584   0.782   9.602
12843SOL     OW39969   4.215   1.395   9.462
12843SOL    HW139970   4.134   1.360   9.500
12843SOL    HW239971   4.207   1.377   9.368
12844SOL     OW39972   5.398   1.269   9.947
12844SOL    HW139973   5.492   1.269   9.966
12844SOL    HW239974   5.368   1.357   9.971
12845SOL     OW39975   5.122   0.546   9.395
12845SOL    HW139976   5.064   0.567   9.469
12845SOL    HW239977   5.114   0.452   9.384
12846SOL     OW39978   4.236   0.262   9.620
12846SOL    HW139979   4.281   0.214   9.550
12846SOL    HW239980   4.214   0.347   9.580
12847SOL     OW39981   5.465   1.245  10.863
12847SOL    HW139982   5.553   1.210  10.848
12847SOL    HW239983   5.481   1.331  10.902
12848SOL     OW39984   4.778   1.327  10.623
12848SOL    HW139985   4.703   1.312  10.680
12848SOL    HW239986   4.854   1.306  10.678
12849SOL     OW39987   5.330   1.628  10.957
12849SOL    HW139988   5.298   1.622  10.867
12849SOL    HW239989   5.414   1.583  10.955
12850SOL     OW39990   4.812   1.164  10.407
12850SOL    HW139991   4.795   1.215  10.486
12850SOL    HW239992   4.816   1.229  10.336
12851SOL     OW39993   5.350   1.100  10.392
12851SOL    HW139994   5.351   1.153  10.471
12851SOL    HW239995   5.270   1.126  10.347
12852SOL     OW39996   4.627   0.055  10.753
12852SOL    HW139997   4.629   0.032  10.660
12852SOL    HW239998   4.703   0.111  10.766
12853SOL     OW39999   4.711   1.127  11.016
12853SOL    HW140000   4.629   1.152  11.058
12853SOL    HW240001   4.694   1.041  10.978
12854SOL     OW40002   4.440   1.050   9.679
12854SOL    HW140003   4.423   1.036   9.773
12854SOL    HW240004   4.525   1.009   9.664
12855SOL     OW40005   4.153   0.816  10.558
12855SOL    HW140006   4.219   0.828  10.627
12855SOL    HW240007   4.117   0.729  10.575
12856SOL     OW40008   3.808   1.598  10.685
12856SOL    HW140009   3.817   1.679  10.735
12856SOL    HW240010   3.898   1.575  10.660
12857SOL     OW40011   4.052   1.126   9.794
12857SOL    HW140012   4.049   1.200   9.733
12857SOL    HW240013   4.056   1.048   9.737
12858SOL     OW40014   4.267   0.526  10.169
12858SOL    HW140015   4.278   0.584  10.093
12858SOL    HW240016   4.330   0.559  10.233
12859SOL     OW40017   4.970   1.354   9.713
12859SOL    HW140018   5.029   1.426   9.734
12859SOL    HW240019   4.884   1.383   9.743
12860SOL     OW40020   4.979   1.426  10.446
12860SOL    HW140021   5.052   1.459  10.498
12860SOL    HW240022   4.914   1.400  10.511
12861SOL     OW40023   5.308   0.652   9.797
12861SOL    HW140024   5.241   0.695   9.850
12861SOL    HW240025   5.357   0.724   9.757
12862SOL     OW40026   4.065   1.526  10.618
12862SOL    HW140027   4.059   1.479  10.534
12862SOL    HW240028   4.158   1.538  10.632
12863SOL     OW40029   4.162   0.707  10.922
12863SOL    HW140030   4.211   0.759  10.858
12863SOL    HW240031   4.228   0.654  10.966
12864SOL     OW40032   5.337   0.778  10.994
12864SOL    HW140033   5.252   0.822  10.992
12864SOL    HW240034   5.391   0.826  10.931
12865SOL     OW40035   4.729   0.073  11.027
12865SOL    HW140036   4.728   0.155  11.077
12865SOL    HW240037   4.801   0.084  10.965
12866SOL     OW40038   4.252   8.005  11.019
12866SOL    HW140039   4.230   7.938  10.955
12866SOL    HW240040   4.170   8.052  11.034
12867SOL     OW40041   4.316   0.881  10.341
12867SOL    HW140042   4.355   0.967  10.348
12867SOL    HW240043   4.260   0.873  10.419
12868SOL     OW40044   5.056   0.867  10.300
12868SOL    HW140045   4.965   0.839  10.284
12868SOL    HW240046   5.106   0.786  10.300
12869SOL     OW40047   4.926   0.542   9.581
12869SOL    HW140048   4.935   0.459   9.628
12869SOL    HW240049   4.870   0.596   9.638
12870SOL     OW40050   4.020   0.209  10.551
12870SOL    HW140051   3.988   0.237  10.637
12870SOL    HW240052   4.022   0.113  10.557
12871SOL     OW40053   3.784   1.330  10.579
12871SOL    HW140054   3.800   1.266  10.649
12871SOL    HW240055   3.780   1.414  10.624
12872SOL     OW40056   4.435   0.627  10.357
12872SOL    HW140057   4.515   0.616  10.305
12872SOL    HW240058   4.410   0.719  10.345
12873SOL     OW40059   5.468   0.961  11.168
12873SOL    HW140060   5.423   0.890  11.124
12873SOL    HW240061   5.412   0.984  11.242
12874SOL     OW40062   4.094   0.067  10.010
12874SOL    HW140063   4.049   0.152  10.015
12874SOL    HW240064   4.023   0.003  10.001
12875SOL     OW40065   5.382   0.412   9.691
12875SOL    HW140066   5.376   0.334   9.747
12875SOL    HW240067   5.348   0.483   9.745
12876SOL     OW40068   4.767   0.753  10.269
12876SOL    HW140069   4.754   0.766  10.363
12876SOL    HW240070   4.725   0.669  10.251
12877SOL     OW40071   4.708   1.572  11.027
12877SOL    HW140072   4.691   1.617  10.944
12877SOL    HW240073   4.761   1.496  11.002
12878SOL     OW40074   5.578   1.498  10.912
12878SOL    HW140075   5.607   1.524  10.825
12878SOL    HW240076   5.653   1.513  10.968
12879SOL     OW40077   4.081   0.864  11.152
12879SOL    HW140078   4.144   0.916  11.202
12879SOL    HW240079   4.128   0.840  11.072
12880SOL     OW40080   5.296   0.272   9.436
12880SOL    HW140081   5.200   0.267   9.439
12880SOL    HW240082   5.325   0.196   9.487
12881SOL     OW40083   5.015   0.815   9.345
12881SOL    HW140084   5.061   0.731   9.344
12881SOL    HW240085   5.039   0.857   9.262
12882SOL     OW40086   4.826   1.328  10.126
12882SOL    HW140087   4.909   1.281  10.138
12882SOL    HW240088   4.852   1.419  10.114
12883SOL     OW40089   4.037   0.826  10.241
12883SOL    HW140090   4.131   0.844  10.247
12883SOL    HW240091   4.027   0.738  10.278
12884SOL     OW40092   4.040   0.536  10.318
12884SOL    HW140093   4.002   0.449  10.304
12884SOL    HW240094   4.117   0.538  10.261
12885SOL     OW40095   4.918   0.438  10.889
12885SOL    HW140096   4.857   0.428  10.963
12885SOL    HW240097   5.002   0.456  10.930
12886SOL     OW40098   4.882   0.193  10.771
12886SOL    HW140099   4.900   0.270  10.826
12886SOL    HW240100   4.849   0.230  10.689
12887SOL     OW40101   3.734   1.304   9.505
12887SOL    HW140102   3.648   1.325   9.469
12887SOL    HW240103   3.724   1.216   9.541
12888SOL     OW40104   3.805   1.731  10.250
12888SOL    HW140105   3.797   1.668  10.179
12888SOL    HW240106   3.891   1.772  10.236
12889SOL     OW40107   4.210   1.575  10.210
12889SOL    HW140108   4.277   1.639  10.233
12889SOL    HW240109   4.256   1.513  10.153
12890SOL     OW40110   4.710   0.771  10.532
12890SOL    HW140111   4.750   0.750  10.616
12890SOL    HW240112   4.628   0.816  10.554
12891SOL     OW40113   3.763   0.547  10.430
12891SOL    HW140114   3.846   0.549  10.382
12891SOL    HW240115   3.789   0.552  10.522
12892SOL     OW40116   5.111   0.927  10.957
12892SOL    HW140117   5.129   1.021  10.964
12892SOL    HW240118   5.113   0.910  10.863
12893SOL     OW40119   4.534   0.576   9.688
12893SOL    HW140120   4.547   0.502   9.629
12893SOL    HW240121   4.460   0.624   9.649
12894SOL     OW40122   5.363   0.602  10.477
12894SOL    HW140123   5.353   0.551  10.557
12894SOL    HW240124   5.453   0.585  10.449
12895SOL     OW40125   3.956   1.541  11.029
12895SOL    HW140126   3.941   1.598  11.105
12895SOL    HW240127   3.965   1.453  11.066
12896SOL     OW40128   4.430   0.460  10.572
12896SOL    HW140129   4.377   0.385  10.545
12896SOL    HW240130   4.428   0.519  10.498
12897SOL     OW40131   4.624   1.693  10.793
12897SOL    HW140132   4.615   1.649  10.708
12897SOL    HW240133   4.628   1.787  10.771
12898SOL     OW40134   4.185   0.499   9.504
12898SOL    HW140135   4.247   0.571   9.514
12898SOL    HW240136   4.101   0.541   9.485
12899SOL     OW40137   3.848   1.139  10.784
12899SOL    HW140138   3.856   1.094  10.868
12899SOL    HW240139   3.875   1.074  10.719
12900SOL     OW40140   5.041   1.037  10.514
12900SOL    HW140141   5.058   0.981  10.438
12900SOL    HW240142   4.964   1.088  10.489
12901SOL     OW40143   5.036   0.858   9.616
12901SOL    HW140144   4.967   0.810   9.663
12901SOL    HW240145   5.016   0.843   9.523
12902SOL     OW40146   5.467   1.736  10.397
12902SOL    HW140147   5.558   1.759  10.378
12902SOL    HW240148   5.461   1.740  10.493
12903SOL     OW40149   4.964   1.726  10.386
12903SOL    HW140150   5.052   1.760  10.369
12903SOL    HW240151   4.978   1.658  10.452
12904SOL     OW40152   3.819   1.254  10.320
12904SOL    HW140153   3.816   1.280  10.413
12904SOL    HW240154   3.732   1.217  10.303
12905SOL     OW40155   4.403   1.669  11.040
12905SOL    HW140156   4.358   1.753  11.037
12905SOL    HW240157   4.488   1.686  10.999
12906SOL     OW40158   5.400   0.152   9.804
12906SOL    HW140159   5.461   0.134   9.732
12906SOL    HW240160   5.431   0.097   9.876
12907SOL     OW40161   5.118   1.576   9.797
12907SOL    HW140162   5.174   1.617   9.730
12907SOL    HW240163   5.065   1.648   9.831
12908SOL     OW40164   3.878   1.813  11.134
12908SOL    HW140165   3.823   1.751  11.182
12908SOL    HW240166   3.928   1.859  11.202
12909SOL     OW40167   4.966   0.939   9.969
12909SOL    HW140168   5.039   0.884   9.996
12909SOL    HW240169   5.006   1.011   9.920
12910SOL     OW40170   4.539   1.269  10.749
12910SOL    HW140171   4.538   1.295  10.841
12910SOL    HW240172   4.461   1.311  10.712
12911SOL     OW40173   4.395   1.589   9.523
12911SOL    HW140174   4.422   1.621   9.436
12911SOL    HW240175   4.333   1.519   9.505
12912SOL     OW40176   5.433   1.756  10.676
12912SOL    HW140177   5.356   1.702  10.659
12912SOL    HW240178   5.398   1.836  10.715
12913SOL     OW40179   5.595   0.154  10.228
12913SOL    HW140180   5.585   0.076  10.283
12913SOL    HW240181   5.506   0.185  10.214
12914SOL     OW40182   3.988   0.321  10.027
12914SOL    HW140183   3.904   0.347   9.990
12914SOL    HW240184   3.974   0.321  10.122
12915SOL     OW40185   4.962   1.583   9.345
12915SOL    HW140186   4.952   1.495   9.382
12915SOL    HW240187   4.906   1.582   9.268
12916SOL     OW40188   4.570   1.014  10.659
12916SOL    HW140189   4.597   1.040  10.571
12916SOL    HW240190   4.553   1.096  10.705
12917SOL     OW40191   4.697   0.952   9.679
12917SOL    HW140192   4.729   0.977   9.592
12917SOL    HW240193   4.714   0.858   9.684
12918SOL     OW40194   5.232   1.614   9.362
12918SOL    HW140195   5.138   1.614   9.348
12918SOL    HW240196   5.269   1.624   9.274
12919SOL     OW40197   4.082   1.291  10.788
12919SOL    HW140198   4.068   1.376  10.747
12919SOL    HW240199   3.995   1.250  10.788
12920SOL     OW40200   5.321   1.252  10.622
12920SOL    HW140201   5.369   1.250  10.705
12920SOL    HW240202   5.279   1.338  10.621
12921SOL     OW40203   4.762   0.270  10.263
12921SOL    HW140204   4.743   0.213  10.189
12921SOL    HW240205   4.764   0.211  10.339
12922SOL     OW40206   4.308   1.489   9.804
12922SOL    HW140207   4.361   1.441   9.740
12922SOL    HW240208   4.268   1.560   9.753
12923SOL     OW40209   5.443   0.410  10.694
12923SOL    HW140210   5.514   0.474  10.703
12923SOL    HW240211   5.472   0.351  10.625
12924SOL     OW40212   3.981   1.338   9.635
12924SOL    HW140213   3.899   1.331   9.586
12924SOL    HW240214   3.993   1.432   9.649
12925SOL     OW40215   3.837   0.993  11.017
12925SOL    HW140216   3.758   0.988  11.071
12925SOL    HW240217   3.907   1.011  11.080
12926SOL     OW40218   4.387   0.214  10.805
12926SOL    HW140219   4.472   0.225  10.762
12926SOL    HW240220   4.400   0.245  10.894
12927SOL     OW40221   3.800   0.328   9.364
12927SOL    HW140222   3.715   0.300   9.331
12927SOL    HW240223   3.829   0.395   9.302
12928SOL     OW40224   5.152   0.864  10.693
12928SOL    HW140225   5.105   0.929  10.640
12928SOL    HW240226   5.243   0.871  10.665
12929SOL     OW40227   3.827   0.238   9.642
12929SOL    HW140228   3.809   0.278   9.557
12929SOL    HW240229   3.882   0.162   9.622
12930SOL     OW40230   4.891   1.333   9.431
12930SOL    HW140231   4.796   1.340   9.421
12930SOL    HW240232   4.906   1.328   9.525
12931SOL     OW40233   4.350   0.829  10.747
12931SOL    HW140234   4.388   0.917  10.746
12931SOL    HW240235   4.424   0.771  10.765
12932SOL     OW40236   5.234   1.783  10.255
12932SOL    HW140237   5.235   1.863  10.202
12932SOL    HW240238   5.296   1.800  10.325
12933SOL     OW40239   4.431   0.575  11.024
12933SOL    HW140240   4.448   0.660  11.064
12933SOL    HW240241   4.497   0.517  11.062
12934SOL     OW40242   5.191   1.192  10.946
12934SOL    HW140243   5.171   1.207  11.038
12934SOL    HW240244   5.283   1.216  10.937
12935SOL     OW40245   4.085   1.733  10.873
12935SOL    HW140246   3.997   1.771  10.863
12935SOL    HW240247   4.071   1.652  10.922
12936SOL     OW40248   5.394   0.881  10.562
12936SOL    HW140249   5.392   0.798  10.515
12936SOL    HW240250   5.386   0.948  10.493
12937SOL     OW40251   4.950   0.332   9.770
12937SOL    HW140252   5.011   0.261   9.749
12937SOL    HW240253   4.986   0.373   9.848
12938SOL     OW40254   4.308   0.738   9.989
12938SOL    HW140255   4.358   0.814   9.959
12938SOL    HW240256   4.241   0.725   9.922
12939SOL     OW40257   5.494   0.352  10.959
12939SOL    HW140258   5.467   0.384  10.872
12939SOL    HW240259   5.415   0.310  10.994
12940SOL     OW40260   5.465   0.939  10.822
12940SOL    HW140261   5.457   1.033  10.838
12940SOL    HW240262   5.453   0.930  10.727
12941SOL     OW40263   4.615   1.393   9.395
12941SOL    HW140264   4.541   1.407   9.455
12941SOL    HW240265   4.605   1.462   9.329
12942SOL     OW40266   4.383   1.778  10.239
12942SOL    HW140267   4.360   1.870  10.228
12942SOL    HW240268   4.478   1.776  10.240
12943SOL     OW40269   4.642   0.981  10.160
12943SOL    HW140270   4.687   0.910  10.206
12943SOL    HW240271   4.600   1.032  10.230
12944SOL     OW40272   4.799   0.987   9.422
12944SOL    HW140273   4.770   1.039   9.347
12944SOL    HW240274   4.867   0.930   9.387
12945SOL     OW40275   3.946   1.289  11.140
12945SOL    HW140276   3.859   1.287  11.181
12945SOL    HW240277   4.005   1.312  11.212
12946SOL     OW40278   4.381   1.419  10.918
12946SOL    HW140279   4.320   1.364  10.968
12946SOL    HW240280   4.384   1.501  10.967
12947SOL     OW40281   5.536   0.242  10.511
12947SOL    HW140282   5.537   0.148  10.529
12947SOL    HW240283   5.558   0.250  10.419
12948SOL     OW40284   4.154   0.448   9.840
12948SOL    HW140285   4.198   0.380   9.788
12948SOL    HW240286   4.106   0.400   9.907
12949SOL     OW40287   5.447   1.427  10.412
12949SOL    HW140288   5.380   1.455  10.474
12949SOL    HW240289   5.515   1.386  10.466
12950SOL     OW40290   4.062   0.560  10.600
12950SOL    HW140291   4.109   0.496  10.653
12950SOL    HW240292   4.075   0.532  10.510
12951SOL     OW40293   4.563   1.586   9.982
12951SOL    HW140294   4.552   1.664   9.928
12951SOL    HW240295   4.480   1.538   9.971
12952SOL     OW40296   5.143   0.238  10.476
12952SOL    HW140297   5.222   0.200  10.437
12952SOL    HW240298   5.142   0.204  10.566
12953SOL     OW40299   4.740   0.091  10.463
12953SOL    HW140300   4.657   0.058  10.428
12953SOL    HW240301   4.791   0.013  10.482
12954SOL     OW40302   4.479   1.326   9.662
12954SOL    HW140303   4.456   1.234   9.649
12954SOL    HW240304   4.574   1.329   9.651
12955SOL     OW40305   4.341   1.554  10.590
12955SOL    HW140306   4.337   1.638  10.637
12955SOL    HW240307   4.432   1.549  10.559
12956SOL     OW40308   5.075   7.999   9.480
12956SOL    HW140309   5.130   7.926   9.453
12956SOL    HW240310   4.990   7.960   9.498
12957SOL     OW40311   5.035   0.465  10.001
12957SOL    HW140312   4.977   0.541   9.998
12957SOL    HW240313   5.028   0.432  10.091
12958SOL     OW40314   5.342   0.230  10.198
12958SOL    HW140315   5.265   0.173  10.196
12958SOL    HW240316   5.322   0.299  10.135
12959SOL     OW40317   3.769   1.062   9.644
12959SOL    HW140318   3.856   1.056   9.605
12959SOL    HW240319   3.742   0.972   9.658
12960SOL     OW40320   4.620   1.668   9.661
12960SOL    HW140321   4.544   1.642   9.609
12960SOL    HW240322   4.590   1.742   9.714
12961SOL     OW40323   3.928   0.665  11.270
12961SOL    HW140324   3.871   0.686  11.343
12961SOL    HW240325   3.976   0.746  11.253
12962SOL     OW40326   3.948   0.273  12.157
12962SOL    HW140327   3.976   0.246  12.245
12962SOL    HW240328   3.858   0.244  12.150
12963SOL     OW40329   3.723   0.398  11.810
12963SOL    HW140330   3.636   0.425  11.837
12963SOL    HW240331   3.719   0.303  11.805
12964SOL     OW40332   4.261   1.240  12.350
12964SOL    HW140333   4.196   1.298  12.310
12964SOL    HW240334   4.274   1.276  12.438
12965SOL     OW40335   5.284   1.485  11.890
12965SOL    HW140336   5.238   1.509  11.970
12965SOL    HW240337   5.277   1.562  11.834
12966SOL     OW40338   4.847   0.697  11.865
12966SOL    HW140339   4.898   0.777  11.852
12966SOL    HW240340   4.804   0.710  11.950
12967SOL     OW40341   5.513   0.582  11.397
12967SOL    HW140342   5.479   0.579  11.308
12967SOL    HW240343   5.465   0.513  11.443
12968SOL     OW40344   4.469   1.136  12.223
12968SOL    HW140345   4.392   1.170  12.268
12968SOL    HW240346   4.505   1.211  12.176
12969SOL     OW40347   4.400   0.981  11.831
12969SOL    HW140348   4.472   0.984  11.894
12969SOL    HW240349   4.335   1.042  11.866
12970SOL     OW40350   4.075   1.413  12.239
12970SOL    HW140351   4.023   1.366  12.174
12970SOL    HW240352   4.124   1.478  12.188
12971SOL     OW40353   5.332   0.459  11.897
12971SOL    HW140354   5.249   0.480  11.853
12971SOL    HW240355   5.349   0.534  11.953
12972SOL     OW40356   3.943   1.717  11.640
12972SOL    HW140357   3.962   1.789  11.700
12972SOL    HW240358   4.021   1.709  11.586
12973SOL     OW40359   3.932   1.448  11.696
12973SOL    HW140360   3.935   1.543  11.690
12973SOL    HW240361   3.899   1.430  11.784
12974SOL     OW40362   4.277   0.999  11.294
12974SOL    HW140363   4.336   1.044  11.235
12974SOL    HW240364   4.318   1.007  11.380
12975SOL     OW40365   3.845   0.642  11.736
12975SOL    HW140366   3.809   0.557  11.764
12975SOL    HW240367   3.833   0.699  11.811
12976SOL     OW40368   5.625   1.746  11.496
12976SOL    HW140369   5.565   1.731  11.570
12976SOL    HW240370   5.622   1.840  11.482
12977SOL     OW40371   3.749   1.617  11.265
12977SOL    HW140372   3.725   1.524  11.272
12977SOL    HW240373   3.731   1.652  11.353
12978SOL     OW40374   5.383   1.102  11.582
12978SOL    HW140375   5.410   1.025  11.631
12978SOL    HW240376   5.385   1.173  11.646
12979SOL     OW40377   3.897   0.723   0.241
12979SOL    HW140378   3.971   0.778   0.266
12979SOL    HW240379   3.836   0.782   0.198
12980SOL     OW40380   4.333   1.394  11.912
12980SOL    HW140381   4.290   1.309  11.923
12980SOL    HW240382   4.315   1.418  11.821
12981SOL     OW40383   4.547   0.011  11.710
12981SOL    HW140384   4.603   0.085  11.687
12981SOL    HW240385   4.469   0.051  11.748
12982SOL     OW40386   3.927   0.936  12.478
12982SOL    HW140387   4.014   0.903  12.456
12982SOL    HW240388   3.891   0.966  12.395
12983SOL     OW40389   5.260   1.003  11.363
12983SOL    HW140390   5.196   0.943  11.401
12983SOL    HW240391   5.305   1.042  11.438
12984SOL     OW40392   5.215   1.401  12.167
12984SOL    HW140393   5.133   1.427  12.209
12984SOL    HW240394   5.191   1.325  12.114
12985SOL     OW40395   4.327   0.704  11.442
12985SOL    HW140396   4.365   0.791  11.429
12985SOL    HW240397   4.263   0.717  11.512
12986SOL     OW40398   5.023   0.368  12.097
12986SOL    HW140399   4.934   0.333  12.105
12986SOL    HW240400   5.074   0.319  12.161
12987SOL     OW40401   5.256   1.746  11.462
12987SOL    HW140402   5.321   1.734  11.531
12987SOL    HW240403   5.278   1.680  11.396
12988SOL     OW40404   4.672   0.321  12.378
12988SOL    HW140405   4.717   0.389  12.429
12988SOL    HW240406   4.585   0.356  12.362
12989SOL     OW40407   4.782   0.689  11.594
12989SOL    HW140408   4.802   0.695  11.687
12989SOL    HW240409   4.697   0.647  11.590
12990SOL     OW40410   3.800   0.807  11.941
12990SOL    HW140411   3.872   0.766  11.988
12990SOL    HW240412   3.807   0.900  11.963
12991SOL     OW40413   4.592   0.336  11.377
12991SOL    HW140414   4.616   0.392  11.304
12991SOL    HW240415   4.653   0.262  11.372
12992SOL     OW40416   5.095   1.133  11.697
12992SOL    HW140417   5.187   1.149  11.678
12992SOL    HW240418   5.048   1.206  11.657
12993SOL     OW40419   4.256   0.252  12.047
12993SOL    HW140420   4.254   0.241  12.142
12993SOL    HW240421   4.256   0.347  12.034
12994SOL     OW40422   4.748   1.440  11.668
12994SOL    HW140423   4.680   1.425  11.602
12994SOL    HW240424   4.703   1.485  11.739
12995SOL     OW40425   4.082   1.816  12.040
12995SOL    HW140426   4.137   1.740  12.060
12995SOL    HW240427   4.139   1.891  12.058
12996SOL     OW40428   5.527   1.067  12.030
12996SOL    HW140429   5.489   1.014  11.959
12996SOL    HW240430   5.461   1.065  12.099
12997SOL     OW40431   4.042   0.954  11.452
12997SOL    HW140432   4.110   0.991  11.396
12997SOL    HW240433   4.080   0.873  11.485
12998SOL     OW40434   5.189   0.735  11.883
12998SOL    HW140435   5.192   0.704  11.974
12998SOL    HW240436   5.273   0.779  11.870
12999SOL     OW40437   4.859   1.806  11.374
12999SOL    HW140438   4.776   1.783  11.416
12999SOL    HW240439   4.885   1.725  11.328
13000SOL     OW40440   5.341   1.379  11.230
13000SOL    HW140441   5.301   1.465  11.227
13000SOL    HW240442   5.267   1.318  11.229
13001SOL     OW40443   4.176   1.724  11.494
13001SOL    HW140444   4.229   1.782  11.549
13001SOL    HW240445   4.237   1.690  11.429
13002SOL     OW40446   5.135   0.122  11.601
13002SOL    HW140447   5.137   0.083  11.513
13002SOL    HW240448   5.227   0.126  11.627
13003SOL     OW40449   4.002   1.778  12.415
13003SOL    HW140450   4.031   1.691  12.444
13003SOL    HW240451   3.956   1.761  12.333
13004SOL     OW40452   4.710   1.706  12.082
13004SOL    HW140453   4.743   1.622  12.049
13004SOL    HW240454   4.617   1.691  12.098
13005SOL     OW40455   4.098   0.687  11.610
13005SOL    HW140456   4.122   0.598  11.634
13005SOL    HW240457   4.014   0.702  11.652
13006SOL     OW40458   4.292   0.098  11.276
13006SOL    HW140459   4.369   0.063  11.322
13006SOL    HW240460   4.295   0.059  11.189
13007SOL     OW40461   4.546   1.356  12.095
13007SOL    HW140462   4.634   1.367  12.058
13007SOL    HW240463   4.487   1.383  12.024
13008SOL     OW40464   4.650   0.515  12.066
13008SOL    HW140465   4.603   0.497  11.984
13008SOL    HW240466   4.693   0.432  12.087
13009SOL     OW40467   4.211   0.013  11.605
13009SOL    HW140468   4.181   0.027  11.695
13009SOL    HW240469   4.250   0.097  11.579
13010SOL     OW40470   5.134   1.199  11.214
13010SOL    HW140471   5.170   1.128  11.268
13010SOL    HW240472   5.055   1.227  11.260
13011SOL     OW40473   4.029   0.045  11.384
13011SOL    HW140474   4.106   0.078  11.336
13011SOL    HW240475   4.064   0.018  11.469
13012SOL     OW40476   4.676   0.235  11.624
13012SOL    HW140477   4.644   0.304  11.566
13012SOL    HW240478   4.768   0.254  11.636
13013SOL     OW40479   4.953   1.568  11.968
13013SOL    HW140480   4.953   1.628  11.893
13013SOL    HW240481   5.002   1.614  12.036
13014SOL     OW40482   4.184   1.147  11.911
13014SOL    HW140483   4.117   1.124  11.975
13014SOL    HW240484   4.139   1.141  11.826
13015SOL     OW40485   4.975   1.789  11.788
13015SOL    HW140486   5.019   1.854  11.733
13015SOL    HW240487   4.904   1.836  11.830
13016SOL     OW40488   4.263   0.218  12.320
13016SOL    HW140489   4.303   0.153  12.377
13016SOL    HW240490   4.175   0.232  12.356
13017SOL     OW40491   4.544   0.429  11.812
13017SOL    HW140492   4.523   0.501  11.752
13017SOL    HW240493   4.619   0.385  11.773
13018SOL     OW40494   4.725   0.039  11.937
13018SOL    HW140495   4.663   0.015  11.868
13018SOL    HW240496   4.741  -0.043  11.985
13019SOL     OW40497   5.176   1.164  12.028
13019SOL    HW140498   5.096   1.117  12.002
13019SOL    HW240499   5.220   1.183  11.945
13020SOL     OW40500   5.178   0.605  12.130
13020SOL    HW140501   5.126   0.524  12.131
13020SOL    HW240502   5.240   0.595  12.201
13021SOL     OW40503   5.596   0.812  11.516
13021SOL    HW140504   5.564   0.817  11.606
13021SOL    HW240505   5.563   0.728  11.483
13022SOL     OW40506   4.161   1.389  11.274
13022SOL    HW140507   4.122   1.370  11.360
13022SOL    HW240508   4.223   1.459  11.292
13023SOL     OW40509   5.379   1.255  11.802
13023SOL    HW140510   5.472   1.259  11.823
13023SOL    HW240511   5.343   1.339  11.830
13024SOL     OW40512   5.112   0.582  11.248
13024SOL    HW140513   5.049   0.556  11.316
13024SOL    HW240514   5.196   0.589  11.294
13025SOL     OW40515   4.264   0.266  11.488
13025SOL    HW140516   4.275   0.218  11.406
13025SOL    HW240517   4.240   0.354  11.461
13026SOL     OW40518   4.830   1.233  12.283
13026SOL    HW140519   4.744   1.250  12.321
13026SOL    HW240520   4.823   1.263  12.192
13027SOL     OW40521   5.341   1.098  12.242
13027SOL    HW140522   5.321   1.157  12.315
13027SOL    HW240523   5.275   1.118  12.176
13028SOL     OW40524   4.389   0.974  11.542
13028SOL    HW140525   4.391   0.996  11.635
13028SOL    HW240526   4.481   0.960  11.519
13029SOL     OW40527   4.186   0.838  12.459
13029SOL    HW140528   4.222   0.909  12.511
13029SOL    HW240529   4.214   0.758  12.504
13030SOL     OW40530   4.987   0.381  12.443
13030SOL    HW140531   5.050   0.442  12.481
13030SOL    HW240532   4.904   0.429  12.441
13031SOL     OW40533   4.049   1.134  11.668
13031SOL    HW140534   4.057   1.215  11.618
13031SOL    HW240535   4.045   1.065  11.603
13032SOL     OW40536   4.262   0.523  12.021
13032SOL    HW140537   4.273   0.584  11.947
13032SOL    HW240538   4.321   0.557  12.089
13033SOL     OW40539   4.981   1.354  11.563
13033SOL    HW140540   5.036   1.429  11.586
13033SOL    HW240541   4.897   1.372  11.605
13034SOL     OW40542   4.996   1.452  12.321
13034SOL    HW140543   5.053   1.440  12.397
13034SOL    HW240544   4.939   1.375  12.322
13035SOL     OW40545   5.280   0.631  11.636
13035SOL    HW140546   5.216   0.657  11.703
13035SOL    HW240547   5.347   0.699  11.640
13036SOL     OW40548   4.074   1.526  12.491
13036SOL    HW140549   4.070   1.482  12.406
13036SOL    HW240550   4.138   1.475  12.541
13037SOL     OW40551   4.325   0.878  12.219
13037SOL    HW140552   4.356   0.968  12.212
13037SOL    HW240553   4.272   0.877  12.299
13038SOL     OW40554   5.054   0.847  12.181
13038SOL    HW140555   4.966   0.829  12.147
13038SOL    HW240556   5.102   0.766  12.167
13039SOL     OW40557   4.941   0.508  11.447
13039SOL    HW140558   4.946   0.440  11.514
13039SOL    HW240559   4.896   0.581  11.489
13040SOL     OW40560   4.014   0.232  12.424
13040SOL    HW140561   3.986   0.316  12.460
13040SOL    HW240562   3.972   0.166  12.480
13041SOL     OW40563   3.791   1.332  12.441
13041SOL    HW140564   3.849   1.268  12.483
13041SOL    HW240565   3.790   1.407  12.501
13042SOL     OW40566   4.423   0.627  12.210
13042SOL    HW140567   4.511   0.625  12.173
13042SOL    HW240568   4.400   0.720  12.211
13043SOL     OW40569   4.082   0.050  11.844
13043SOL    HW140570   4.072   0.143  11.861
13043SOL    HW240571   4.069   0.008  11.930
13044SOL     OW40572   5.337   0.395  11.523
13044SOL    HW140573   5.350   0.338  11.599
13044SOL    HW240574   5.308   0.478  11.560
13045SOL     OW40575   4.758   0.754  12.143
13045SOL    HW140576   4.749   0.766  12.238
13045SOL    HW240577   4.726   0.665  12.127
13046SOL     OW40578   5.289   0.238  11.302
13046SOL    HW140579   5.229   0.178  11.347
13046SOL    HW240580   5.314   0.301  11.368
13047SOL     OW40581   4.992   0.823  11.181
13047SOL    HW140582   5.039   0.742  11.202
13047SOL    HW240583   5.041   0.861  11.108
13048SOL     OW40584   4.812   1.337  12.029
13048SOL    HW140585   4.813   1.270  11.961
13048SOL    HW240586   4.866   1.408  11.993
13049SOL     OW40587   4.035   0.772  12.070
13049SOL    HW140588   4.033   0.868  12.080
13049SOL    HW240589   4.081   0.742  12.148
13050SOL     OW40590   4.053   0.517  12.208
13050SOL    HW140591   4.020   0.429  12.187
13050SOL    HW240592   4.120   0.534  12.141
13051SOL     OW40593   4.894   0.199   0.129
13051SOL    HW140594   4.883   0.252   0.207
13051SOL    HW240595   4.926   0.260   0.063
13052SOL     OW40596   3.825   1.781  12.120
13052SOL    HW140597   3.798   1.699  12.079
13052SOL    HW240598   3.915   1.795  12.089
13053SOL     OW40599   4.230   1.587  12.095
13053SOL    HW140600   4.296   1.643  12.135
13053SOL    HW240601   4.280   1.530  12.036
13054SOL     OW40602   4.713   0.785  12.417
13054SOL    HW140603   4.783   0.825  12.468
13054SOL    HW240604   4.640   0.846  12.425
13055SOL     OW40605   3.781   0.545  12.286
13055SOL    HW140606   3.862   0.556  12.236
13055SOL    HW240607   3.810   0.536  12.377
13056SOL     OW40608   4.541   0.556  11.555
13056SOL    HW140609   4.542   0.490  11.486
13056SOL    HW240610   4.474   0.619  11.526
13057SOL     OW40611   5.369   0.603  12.321
13057SOL    HW140612   5.379   0.560  12.407
13057SOL    HW240613   5.455   0.642  12.304
13058SOL     OW40614   4.427   0.435  12.402
13058SOL    HW140615   4.346   0.387  12.382
13058SOL    HW240616   4.419   0.516  12.352
13059SOL     OW40617   4.628   1.653  12.512
13059SOL    HW140618   4.602   1.680  12.423
13059SOL    HW240619   4.635   1.735  12.561
13060SOL     OW40620   4.182   0.491  11.337
13060SOL    HW140621   4.248   0.559  11.353
13060SOL    HW240622   4.101   0.528  11.370
13061SOL     OW40623   5.003   1.032  12.374
13061SOL    HW140624   5.032   0.980  12.299
13061SOL    HW240625   4.953   1.104  12.336
13062SOL     OW40626   5.054   0.850  11.462
13062SOL    HW140627   4.994   0.845  11.537
13062SOL    HW240628   4.996   0.846  11.386
13063SOL     OW40629   5.469   1.745  12.286
13063SOL    HW140630   5.547   1.769  12.236
13063SOL    HW240631   5.466   1.650  12.283
13064SOL     OW40632   4.970   1.727  12.290
13064SOL    HW140633   5.048   1.756  12.243
13064SOL    HW240634   4.976   1.631  12.290
13065SOL     OW40635   3.742   1.308  12.178
13065SOL    HW140636   3.770   1.315  12.269
13065SOL    HW240637   3.790   1.234  12.143
13066SOL     OW40638   5.401   0.121  11.664
13066SOL    HW140639   5.493   0.142  11.645
13066SOL    HW240640   5.396   0.123  11.760
13067SOL     OW40641   5.098   1.586  11.635
13067SOL    HW140642   5.158   1.644  11.588
13067SOL    HW240643   5.049   1.645  11.692
13068SOL     OW40644   4.996   0.919  11.825
13068SOL    HW140645   5.072   0.865  11.843
13068SOL    HW240646   5.031   0.994  11.776
13069SOL     OW40647   4.336   1.610  11.306
13069SOL    HW140648   4.370   1.623  11.218
13069SOL    HW240649   4.403   1.557  11.350
13070SOL     OW40650   5.359   1.810   0.027
13070SOL    HW140651   5.403   1.777  -0.051
13070SOL    HW240652   5.398   1.896   0.042
13071SOL     OW40653   5.607   0.149  12.060
13071SOL    HW140654   5.607   0.083  12.129
13071SOL    HW240655   5.515   0.171  12.048
13072SOL     OW40656   3.980   0.301  11.886
13072SOL    HW140657   3.908   0.363  11.870
13072SOL    HW240658   3.988   0.300  11.981
13073SOL     OW40659   4.935   1.595  11.205
13073SOL    HW140660   4.916   1.511  11.246
13073SOL    HW240661   4.861   1.611  11.147
13074SOL     OW40662   4.553   1.002  12.447
13074SOL    HW140663   4.524   1.056  12.373
13074SOL    HW240664   4.543   1.058  12.524
13075SOL     OW40665   4.626   0.877  11.442
13075SOL    HW140666   4.681   0.924  11.379
13075SOL    HW240667   4.688   0.828  11.496
13076SOL     OW40668   5.214   1.619  11.207
13076SOL    HW140669   5.118   1.620  11.200
13076SOL    HW240670   5.245   1.634  11.118
13077SOL     OW40671   4.793   1.106  11.886
13077SOL    HW140672   4.719   1.059  11.925
13077SOL    HW240673   4.853   1.037  11.857
13078SOL     OW40674   4.765   0.263  12.094
13078SOL    HW140675   4.752   0.190  12.034
13078SOL    HW240676   4.752   0.225  12.181
13079SOL     OW40677   4.304   1.475  11.658
13079SOL    HW140678   4.374   1.446  11.599
13079SOL    HW240679   4.252   1.536  11.605
13080SOL     OW40680   5.496   0.465   0.040
13080SOL    HW140681   5.552   0.436   0.112
13080SOL    HW240682   5.450   0.386   0.012
13081SOL     OW40683   3.961   1.324  11.459
13081SOL    HW140684   3.874   1.319  11.422
13081SOL    HW240685   3.949   1.373  11.541
13082SOL     OW40686   3.810   0.375  11.208
13082SOL    HW140687   3.746   0.304  11.212
13082SOL    HW240688   3.785   0.434  11.279
13083SOL     OW40689   3.776   0.152  11.441
13083SOL    HW140690   3.797   0.232  11.489
13083SOL    HW240691   3.861   0.113  11.421
13084SOL     OW40692   4.890   1.336  11.304
13084SOL    HW140693   4.796   1.322  11.319
13084SOL    HW240694   4.927   1.343  11.392
13085SOL     OW40695   5.210   1.772  12.150
13085SOL    HW140696   5.234   1.837  12.084
13085SOL    HW240697   5.292   1.755  12.197
13086SOL     OW40698   5.418   0.878  12.390
13086SOL    HW140699   5.351   0.812  12.368
13086SOL    HW240700   5.393   0.955  12.338
13087SOL     OW40701   4.936   0.304  11.640
13087SOL    HW140702   5.007   0.239  11.632
13087SOL    HW240703   4.963   0.359  11.713
13088SOL     OW40704   4.311   0.715  11.823
13088SOL    HW140705   4.354   0.800  11.835
13088SOL    HW240706   4.233   0.735  11.772
13089SOL     OW40707   5.544   0.913   0.129
13089SOL    HW140708   5.519   1.003   0.152
13089SOL    HW240709   5.495   0.895   0.048
13090SOL     OW40710   4.584   1.360  11.163
13090SOL    HW140711   4.566   1.376  11.256
13090SOL    HW240712   4.611   1.445  11.129
13091SOL     OW40713   4.599   0.969  12.032
13091SOL    HW140714   4.649   0.901  12.076
13091SOL    HW240715   4.560   1.020  12.103
13092SOL     OW40716   4.781   0.977  11.246
13092SOL    HW140717   4.781   1.050  11.185
13092SOL    HW240718   4.858   0.925  11.222
13093SOL     OW40719   5.580   1.575  12.001
13093SOL    HW140720   5.517   1.587  11.930
13093SOL    HW240721   5.536   1.517  12.062
13094SOL     OW40722   3.797   1.219  11.828
13094SOL    HW140723   3.836   1.177  11.904
13094SOL    HW240724   3.860   1.206  11.758
13095SOL     OW40725   5.565   0.245  12.359
13095SOL    HW140726   5.563   0.172  12.420
13095SOL    HW240727   5.500   0.223  12.292
13096SOL     OW40728   4.135   0.427  11.683
13096SOL    HW140729   4.199   0.361  11.658
13096SOL    HW240730   4.097   0.395  11.765
13097SOL     OW40731   5.459   1.481  12.260
13097SOL    HW140732   5.372   1.447  12.241
13097SOL    HW240733   5.491   1.427  12.333
13098SOL     OW40734   4.568   1.572  11.837
13098SOL    HW140735   4.548   1.661  11.807
13098SOL    HW240736   4.483   1.528  11.840
13099SOL     OW40737   5.181   0.258  12.288
13099SOL    HW140738   5.231   0.188  12.329
13099SOL    HW240739   5.122   0.289  12.357
13100SOL     OW40740   4.750   0.037  12.274
13100SOL    HW140741   4.732   0.067  12.363
13100SOL    HW240742   4.844   0.017  12.274
13101SOL     OW40743   5.093   8.016  11.347
13101SOL    HW140744   5.132   7.933  11.318
13101SOL    HW240745   5.009   7.992  11.385
13102SOL     OW40746   5.012   0.463  11.842
13102SOL    HW140747   4.967   0.548  11.851
13102SOL    HW240748   5.018   0.430  11.932
13103SOL     OW40749   5.350   0.207  12.017
13103SOL    HW140750   5.282   0.172  12.074
13103SOL    HW240751   5.321   0.295  11.995
13104SOL     OW40752   3.746   1.029  11.509
13104SOL    HW140753   3.831   1.052  11.472
13104SOL    HW240754   3.748   0.933  11.514
13105SOL     OW40755   4.618   1.720  11.471
13105SOL    HW140756   4.598   1.627  11.470
13105SOL    HW240757   4.596   1.749  11.560
13106SOL     OW40758   4.023   2.461   0.053
13106SOL    HW140759   3.972   2.507   0.120
13106SOL    HW240760   3.958   2.423  -0.005
13107SOL     OW40761   3.715   2.259   0.629
13107SOL    HW140762   3.640   2.287   0.680
13107SOL    HW240763   3.685   2.179   0.585
13108SOL     OW40764   4.286   3.149   1.194
13108SOL    HW140765   4.202   3.157   1.149
13108SOL    HW240766   4.301   3.236   1.232
13109SOL     OW40767   5.276   3.368   0.702
13109SOL    HW140768   5.220   3.370   0.780
13109SOL    HW240769   5.215   3.374   0.629
13110SOL     OW40770   4.863   2.548   0.686
13110SOL    HW140771   4.903   2.634   0.672
13110SOL    HW240772   4.816   2.556   0.769
13111SOL     OW40773   5.388   2.475   0.296
13111SOL    HW140774   5.411   2.469   0.204
13111SOL    HW240775   5.376   2.384   0.324
13112SOL     OW40776   4.452   3.004   1.032
13112SOL    HW140777   4.390   3.038   1.097
13112SOL    HW240778   4.502   3.081   1.005
13113SOL     OW40779   4.605   2.631   1.826
13113SOL    HW140780   4.602   2.700   1.893
13113SOL    HW240781   4.632   2.677   1.746
13114SOL     OW40782   4.413   2.868   0.662
13114SOL    HW140783   4.479   2.862   0.731
13114SOL    HW240784   4.345   2.923   0.698
13115SOL     OW40785   4.443   3.015   1.816
13115SOL    HW140786   4.474   3.098   1.852
13115SOL    HW240787   4.359   3.036   1.775
13116SOL     OW40788   4.061   3.264   1.067
13116SOL    HW140789   3.984   3.221   1.030
13116SOL    HW240790   4.095   3.318   0.996
13117SOL     OW40791   5.200   3.431   1.413
13117SOL    HW140792   5.108   3.439   1.438
13117SOL    HW240793   5.213   3.336   1.402
13118SOL     OW40794   4.143   2.283   1.521
13118SOL    HW140795   4.224   2.232   1.519
13118SOL    HW240796   4.073   2.219   1.509
13119SOL     OW40797   5.308   2.307   0.732
13119SOL    HW140798   5.217   2.316   0.703
13119SOL    HW240799   5.313   2.359   0.812
13120SOL     OW40800   3.932   3.573   0.457
13120SOL    HW140801   3.957   3.641   0.519
13120SOL    HW240802   4.013   3.552   0.410
13121SOL     OW40803   4.848   3.227   1.709
13121SOL    HW140804   4.885   3.197   1.792
13121SOL    HW240805   4.796   3.154   1.678
13122SOL     OW40806   3.945   3.302   0.544
13122SOL    HW140807   3.921   3.394   0.551
13122SOL    HW240808   3.894   3.259   0.614
13123SOL     OW40809   4.000   2.949   0.897
13123SOL    HW140810   3.988   2.858   0.926
13123SOL    HW240811   3.935   2.998   0.947
13124SOL     OW40812   4.362   3.640   1.430
13124SOL    HW140813   4.276   3.622   1.467
13124SOL    HW240814   4.374   3.734   1.439
13125SOL     OW40815   4.333   2.787   0.140
13125SOL    HW140816   4.397   2.806   0.072
13125SOL    HW240817   4.351   2.851   0.208
13126SOL     OW40818   3.837   2.513   0.549
13126SOL    HW140819   3.802   2.428   0.575
13126SOL    HW240820   3.832   2.566   0.628
13127SOL     OW40821   3.751   3.401   0.113
13127SOL    HW140822   3.665   3.359   0.116
13127SOL    HW240823   3.745   3.472   0.177
13128SOL     OW40824   5.396   2.778   0.628
13128SOL    HW140825   5.486   2.764   0.659
13128SOL    HW240826   5.401   2.859   0.577
13129SOL     OW40827   5.375   2.986   0.436
13129SOL    HW140828   5.460   2.986   0.393
13129SOL    HW240829   5.384   3.046   0.509
13130SOL     OW40830   4.345   3.255   0.735
13130SOL    HW140831   4.300   3.171   0.748
13130SOL    HW240832   4.326   3.278   0.644
13131SOL     OW40833   5.091   3.142   1.382
13131SOL    HW140834   5.067   3.058   1.343
13131SOL    HW240835   5.099   3.124   1.475
13132SOL     OW40836   4.537   1.883   0.524
13132SOL    HW140837   4.576   1.963   0.491
13132SOL    HW240838   4.473   1.912   0.590
13133SOL     OW40839   3.914   2.787   1.337
13133SOL    HW140840   3.998   2.762   1.298
13133SOL    HW240841   3.853   2.786   1.263
13134SOL     OW40842   5.263   2.856   0.225
13134SOL    HW140843   5.187   2.807   0.257
13134SOL    HW240844   5.291   2.908   0.300
13135SOL     OW40845   4.935   3.683   1.625
13135SOL    HW140846   4.916   3.743   1.553
13135SOL    HW240847   4.931   3.596   1.586
13136SOL     OW40848   4.067   2.105   1.850
13136SOL    HW140849   4.115   2.188   1.855
13136SOL    HW240850   3.975   2.131   1.858
13137SOL     OW40851   5.203   3.278   0.968
13137SOL    HW140852   5.120   3.326   0.961
13137SOL    HW240853   5.182   3.189   0.937
13138SOL     OW40854   5.364   3.612   0.593
13138SOL    HW140855   5.355   3.581   0.502
13138SOL    HW240856   5.337   3.537   0.646
13139SOL     OW40857   5.013   2.220   0.926
13139SOL    HW140858   4.922   2.193   0.932
13139SOL    HW240859   5.057   2.171   0.996
13140SOL     OW40860   5.313   3.526   0.326
13140SOL    HW140861   5.399   3.564   0.309
13140SOL    HW240862   5.273   3.520   0.239
13141SOL     OW40863   4.525   2.461   1.446
13141SOL    HW140864   4.492   2.445   1.534
13141SOL    HW240865   4.471   2.406   1.389
13142SOL     OW40866   5.107   2.350   1.668
13142SOL    HW140867   5.109   2.388   1.756
13142SOL    HW240868   5.169   2.277   1.672
13143SOL     OW40869   4.687   2.752   1.590
13143SOL    HW140870   4.734   2.674   1.563
13143SOL    HW240871   4.638   2.780   1.512
13144SOL     OW40872   4.718   2.258   1.250
13144SOL    HW140873   4.646   2.313   1.281
13144SOL    HW240874   4.680   2.171   1.242
13145SOL     OW40875   4.765   2.549   0.425
13145SOL    HW140876   4.783   2.544   0.519
13145SOL    HW240877   4.679   2.510   0.415
13146SOL     OW40878   3.826   2.677   0.766
13146SOL    HW140879   3.899   2.673   0.827
13146SOL    HW240880   3.772   2.749   0.798
13147SOL     OW40881   3.861   3.750   1.575
13147SOL    HW140882   3.852   3.730   1.668
13147SOL    HW240883   3.805   3.687   1.531
13148SOL     OW40884   4.628   2.217   0.205
13148SOL    HW140885   4.663   2.289   0.153
13148SOL    HW240886   4.594   2.155   0.141
13149SOL     OW40887   5.478   2.482   1.813
13149SOL    HW140888   5.406   2.536   1.779
13149SOL    HW240889   5.474   2.402   1.761
13150SOL     OW40890   5.108   3.002   0.541
13150SOL    HW140891   5.191   3.014   0.495
13150SOL    HW240892   5.049   3.064   0.498
13151SOL     OW40893   4.315   2.057   0.893
13151SOL    HW140894   4.309   2.067   0.988
13151SOL    HW240895   4.289   2.142   0.858
13152SOL     OW40896   4.722   3.290   0.475
13152SOL    HW140897   4.677   3.367   0.440
13152SOL    HW240898   4.721   3.302   0.570
13153SOL     OW40899   4.098   3.669   0.857
13153SOL    HW140900   4.131   3.581   0.875
13153SOL    HW240901   4.161   3.728   0.899
13154SOL     OW40902   5.512   2.916   0.876
13154SOL    HW140903   5.460   2.957   0.807
13154SOL    HW240904   5.455   2.915   0.952
13155SOL     OW40905   4.944   3.413   1.513
13155SOL    HW140906   4.939   3.354   1.587
13155SOL    HW240907   4.888   3.374   1.446
13156SOL     OW40908   4.078   2.806   0.278
13156SOL    HW140909   4.092   2.840   0.190
13156SOL    HW240910   4.012   2.737   0.267
13157SOL     OW40911   5.203   2.605   0.704
13157SOL    HW140912   5.184   2.556   0.785
13157SOL    HW240913   5.273   2.665   0.728
13158SOL     OW40914   4.205   3.081   1.710
13158SOL    HW140915   4.167   3.105   1.625
13158SOL    HW240916   4.132   3.087   1.771
13159SOL     OW40917   4.796   3.655   0.256
13159SOL    HW140918   4.834   3.623   0.338
13159SOL    HW240919   4.846   3.610   0.187
13160SOL     OW40920   3.909   2.133   1.490
13160SOL    HW140921   3.823   2.167   1.467
13160SOL    HW240922   3.892   2.052   1.537
13161SOL     OW40923   5.378   3.246   0.018
13161SOL    HW140924   5.324   3.323   0.035
13161SOL    HW240925   5.322   3.172   0.040
13162SOL     OW40926   4.182   3.577   0.337
13162SOL    HW140927   4.231   3.642   0.388
13162SOL    HW240928   4.246   3.545   0.273
13163SOL     OW40929   5.149   1.977   0.443
13163SOL    HW140930   5.150   1.974   0.348
13163SOL    HW240931   5.242   1.982   0.468
13164SOL     OW40932   3.976   3.674   1.212
13164SOL    HW140933   4.010   3.588   1.236
13164SOL    HW240934   3.884   3.659   1.191
13165SOL     OW40935   4.678   3.563   0.898
13165SOL    HW140936   4.768   3.529   0.894
13165SOL    HW240937   4.631   3.514   0.831
13166SOL     OW40938   4.097   2.559   0.470
13166SOL    HW140939   4.127   2.471   0.492
13166SOL    HW240940   4.004   2.560   0.492
13167SOL     OW40941   5.279   2.145   1.725
13167SOL    HW140942   5.263   2.119   1.816
13167SOL    HW240943   5.289   2.062   1.678
13168SOL     OW40944   4.372   1.987   0.136
13168SOL    HW140945   4.461   1.952   0.124
13168SOL    HW240946   4.343   2.008   0.048
13169SOL     OW40947   4.488   2.138   1.776
13169SOL    HW140948   4.566   2.085   1.759
13169SOL    HW240949   4.496   2.165   1.867
13170SOL     OW40950   4.607   3.412   1.212
13170SOL    HW140951   4.593   3.385   1.122
13170SOL    HW240952   4.668   3.348   1.248
13171SOL     OW40953   5.060   2.450   1.417
13171SOL    HW140954   5.080   2.419   1.505
13171SOL    HW240955   5.090   2.541   1.415
13172SOL     OW40956   4.539   3.271   0.957
13172SOL    HW140957   4.624   3.254   0.917
13172SOL    HW240958   4.476   3.267   0.885
13173SOL     OW40959   4.648   2.366   0.906
13173SOL    HW140960   4.626   2.355   0.813
13173SOL    HW240961   4.683   2.280   0.932
13174SOL     OW40962   5.192   3.060   0.054
13174SOL    HW140963   5.203   2.982   0.108
13174SOL    HW240964   5.100   3.084   0.064
13175SOL     OW40965   4.035   1.931   0.199
13175SOL    HW140966   4.036   1.996   0.129
13175SOL    HW240967   4.032   1.847   0.154
13176SOL     OW40968   4.666   2.115   0.458
13176SOL    HW140969   4.645   2.148   0.371
13176SOL    HW240970   4.761   2.128   0.466
13177SOL     OW40971   4.794   2.521   1.507
13177SOL    HW140972   4.713   2.487   1.470
13177SOL    HW240973   4.863   2.483   1.452
13178SOL     OW40974   4.199   3.021   0.730
13178SOL    HW140975   4.135   2.999   0.797
13178SOL    HW240976   4.153   3.009   0.647
13179SOL     OW40977   4.975   3.633   0.544
13179SOL    HW140978   5.019   3.717   0.533
13179SOL    HW240979   4.966   3.622   0.638
13180SOL     OW40980   4.740   2.435   0.092
13180SOL    HW140981   4.732   2.505   0.027
13180SOL    HW240982   4.825   2.451   0.133
13181SOL     OW40983   3.829   2.493   1.440
13181SOL    HW140984   3.901   2.465   1.383
13181SOL    HW240985   3.751   2.486   1.385
13182SOL     OW40986   4.312   2.073   1.171
13182SOL    HW140987   4.378   2.023   1.219
13182SOL    HW240988   4.229   2.047   1.211
13183SOL     OW40989   4.585   2.323   0.638
13183SOL    HW140990   4.542   2.379   0.573
13183SOL    HW240991   4.610   2.244   0.589
13184SOL     OW40992   4.760   1.904   0.721
13184SOL    HW140993   4.691   1.901   0.655
13184SOL    HW240994   4.731   1.843   0.789
13185SOL     OW40995   5.160   3.020   0.866
13185SOL    HW140996   5.090   2.957   0.880
13185SOL    HW240997   5.165   3.030   0.771
13186SOL     OW40998   5.192   2.458   0.955
13186SOL    HW140999   5.129   2.389   0.974
13186SOL    HW241000   5.248   2.460   1.033
13187SOL     OW41001   5.544   2.678   0.407
13187SOL    HW141002   5.600   2.623   0.462
13187SOL    HW241003   5.521   2.622   0.333
13188SOL     OW41004   4.208   3.249   0.157
13188SOL    HW141005   4.146   3.210   0.219
13188SOL    HW241006   4.154   3.304   0.101
13189SOL     OW41007   5.404   3.121   0.663
13189SOL    HW141008   5.499   3.134   0.671
13189SOL    HW241009   5.367   3.208   0.679
13190SOL     OW41010   5.119   2.413   0.080
13190SOL    HW141011   5.064   2.410   0.158
13190SOL    HW241012   5.168   2.331   0.082
13191SOL     OW41013   4.251   2.151   0.312
13191SOL    HW141014   4.301   2.100   0.248
13191SOL    HW241015   4.249   2.240   0.275
13192SOL     OW41016   5.479   3.101   1.544
13192SOL    HW141017   5.566   3.064   1.527
13192SOL    HW241018   5.496   3.188   1.578
13193SOL     OW41019   4.758   3.251   1.377
13193SOL    HW141020   4.680   3.202   1.402
13193SOL    HW241021   4.808   3.191   1.321
13194SOL     OW41022   5.327   3.493   1.656
13194SOL    HW141023   5.276   3.473   1.578
13194SOL    HW241024   5.409   3.446   1.644
13195SOL     OW41025   4.822   3.121   1.118
13195SOL    HW141026   4.803   3.028   1.131
13195SOL    HW241027   4.800   3.138   1.026
13196SOL     OW41028   5.343   2.956   1.081
13196SOL    HW141029   5.343   3.021   1.151
13196SOL    HW241030   5.270   2.982   1.025
13197SOL     OW41031   4.681   3.018   1.662
13197SOL    HW141032   4.603   3.013   1.718
13197SOL    HW241033   4.701   2.927   1.640
13198SOL     OW41034   4.413   2.876   0.389
13198SOL    HW141035   4.418   2.887   0.484
13198SOL    HW241036   4.502   2.849   0.364
13199SOL     OW41037   4.150   2.678   1.252
13199SOL    HW141038   4.223   2.682   1.314
13199SOL    HW241039   4.117   2.588   1.260
13200SOL     OW41040   4.993   2.254   1.242
13200SOL    HW141041   5.020   2.323   1.302
13200SOL    HW241042   4.898   2.261   1.237
13201SOL     OW41043   3.792   3.427   1.371
13201SOL    HW141044   3.748   3.489   1.312
13201SOL    HW241045   3.885   3.434   1.348
13202SOL     OW41046   4.071   2.980   0.492
13202SOL    HW141047   4.058   3.060   0.442
13202SOL    HW241048   4.077   2.911   0.425
13203SOL     OW41049   4.276   2.382   0.843
13203SOL    HW141050   4.317   2.411   0.762
13203SOL    HW241051   4.333   2.414   0.912
13204SOL     OW41052   4.969   3.197   0.395
13204SOL    HW141053   5.023   3.272   0.419
13204SOL    HW241054   4.880   3.222   0.422
13205SOL     OW41055   4.993   3.322   1.201
13205SOL    HW141056   5.033   3.262   1.264
13205SOL    HW241057   4.932   3.267   1.151
13206SOL     OW41058   4.052   3.421   1.286
13206SOL    HW141059   4.050   3.364   1.209
13206SOL    HW241060   4.123   3.387   1.340
13207SOL     OW41061   4.130   2.601   1.571
13207SOL    HW141062   4.206   2.641   1.530
13207SOL    HW241063   4.152   2.509   1.579
13208SOL     OW41064   5.320   2.659   1.688
13208SOL    HW141065   5.238   2.700   1.712
13208SOL    HW241066   5.325   2.667   1.593
13209SOL     OW41067   4.727   2.002   1.775
13209SOL    HW141068   4.778   2.076   1.744
13209SOL    HW241069   4.767   1.925   1.735
13210SOL     OW41070   4.212   1.883   1.766
13210SOL    HW141071   4.171   1.844   1.689
13210SOL    HW241072   4.168   1.967   1.777
13211SOL     OW41073   4.301   2.745   1.025
13211SOL    HW141074   4.345   2.830   1.028
13211SOL    HW241075   4.255   2.738   1.109
13212SOL     OW41076   5.077   2.732   1.016
13212SOL    HW141077   4.984   2.733   1.040
13212SOL    HW241078   5.098   2.639   1.010
13213SOL     OW41079   4.948   2.394   0.292
13213SOL    HW141080   4.949   2.315   0.346
13213SOL    HW241081   4.886   2.453   0.336
13214SOL     OW41082   4.050   2.017   1.265
13214SOL    HW141083   3.999   2.064   1.331
13214SOL    HW241084   4.014   2.047   1.182
13215SOL     OW41085   3.757   3.171   1.291
13215SOL    HW141086   3.802   3.122   1.360
13215SOL    HW241087   3.766   3.263   1.317
13216SOL     OW41088   4.433   2.480   1.039
13216SOL    HW141089   4.519   2.459   1.002
13216SOL    HW241090   4.429   2.576   1.036
13217SOL     OW41091   5.476   2.827   1.846
13217SOL    HW141092   5.424   2.767   1.793
13217SOL    HW241093   5.424   2.842   1.925
13218SOL     OW41094   4.043   1.933   0.600
13218SOL    HW141095   4.009   2.018   0.629
13218SOL    HW241096   4.058   1.885   0.682
13219SOL     OW41097   5.321   2.228   0.391
13219SOL    HW141098   5.375   2.158   0.427
13219SOL    HW241099   5.258   2.247   0.461
13220SOL     OW41100   4.759   2.615   0.932
13220SOL    HW141101   4.764   2.661   1.016
13220SOL    HW241102   4.727   2.528   0.954
13221SOL     OW41103   4.676   3.442   1.652
13221SOL    HW141104   4.606   3.440   1.718
13221SOL    HW241105   4.725   3.362   1.667
13222SOL     OW41106   5.569   3.367   1.599
13222SOL    HW141107   5.594   3.390   1.510
13222SOL    HW241108   5.650   3.376   1.650
13223SOL     OW41109   4.097   2.738   1.823
13223SOL    HW141110   4.169   2.789   1.862
13223SOL    HW241111   4.136   2.694   1.748
13224SOL     OW41112   5.226   2.161   0.135
13224SOL    HW141113   5.189   2.073   0.146
13224SOL    HW241114   5.269   2.180   0.218
13225SOL     OW41115   5.036   2.685   0.067
13225SOL    HW141116   5.070   2.599   0.043
13225SOL    HW241117   5.054   2.741  -0.008
13226SOL     OW41118   4.781   3.205   0.854
13226SOL    HW141119   4.794   3.132   0.793
13226SOL    HW241120   4.849   3.268   0.831
13227SOL     OW41121   4.036   2.663   0.947
13227SOL    HW141122   4.126   2.692   0.959
13227SOL    HW241123   4.034   2.573   0.979
13228SOL     OW41124   4.065   2.376   1.015
13228SOL    HW141125   4.028   2.288   1.004
13228SOL    HW241126   4.137   2.380   0.951
13229SOL     OW41127   4.856   2.234   1.696
13229SOL    HW141128   4.805   2.296   1.747
13229SOL    HW241129   4.939   2.278   1.679
13230SOL     OW41130   4.916   2.041   1.503
13230SOL    HW141131   4.894   2.115   1.560
13230SOL    HW241132   4.898   2.072   1.414
13231SOL     OW41133   3.822   3.683   0.855
13231SOL    HW141134   3.780   3.598   0.860
13231SOL    HW241135   3.915   3.664   0.869
13232SOL     OW41136   4.225   3.434   0.908
13232SOL    HW141137   4.297   3.487   0.941
13232SOL    HW241138   4.265   3.371   0.849
13233SOL     OW41139   3.785   2.401   1.133
13233SOL    HW141140   3.805   2.409   1.040
13233SOL    HW241141   3.853   2.344   1.168
13234SOL     OW41142   3.920   2.405   1.696
13234SOL    HW141143   3.997   2.363   1.658
13234SOL    HW241144   3.855   2.406   1.625
13235SOL     OW41145   5.107   2.835   1.646
13235SOL    HW141146   5.019   2.849   1.681
13235SOL    HW241147   5.092   2.788   1.563
13236SOL     OW41148   4.521   2.416   0.369
13236SOL    HW141149   4.560   2.354   0.308
13236SOL    HW241150   4.428   2.419   0.345
13237SOL     OW41151   5.374   2.472   1.169
13237SOL    HW141152   5.356   2.419   1.247
13237SOL    HW241153   5.462   2.447   1.144
13238SOL     OW41154   4.391   2.324   1.259
13238SOL    HW141155   4.364   2.237   1.228
13238SOL    HW241156   4.400   2.376   1.179
13239SOL     OW41157   4.260   2.399   0.190
13239SOL    HW141158   4.315   2.379   0.114
13239SOL    HW241159   4.173   2.416   0.153
13240SOL     OW41160   3.866   3.010   1.486
13240SOL    HW141161   3.867   2.970   1.573
13240SOL    HW241162   3.884   2.937   1.426
13241SOL     OW41163   5.060   2.914   1.231
13241SOL    HW141164   5.097   2.871   1.154
13241SOL    HW241165   4.966   2.898   1.223
13242SOL     OW41166   5.082   2.682   0.345
13242SOL    HW141167   4.999   2.688   0.392
13242SOL    HW241168   5.057   2.669   0.254
13243SOL     OW41169   5.530   3.591   1.171
13243SOL    HW141170   5.581   3.623   1.097
13243SOL    HW241171   5.497   3.506   1.142
13244SOL     OW41172   4.988   3.590   1.152
13244SOL    HW141173   4.995   3.579   1.057
13244SOL    HW241174   4.981   3.501   1.186
13245SOL     OW41175   3.825   3.113   1.032
13245SOL    HW141176   3.805   3.130   1.124
13245SOL    HW241177   3.743   3.133   0.986
13246SOL     OW41178   4.413   3.554   1.729
13246SOL    HW141179   4.353   3.627   1.740
13246SOL    HW241180   4.361   3.487   1.683
13247SOL     OW41181   4.644   1.930   0.084
13247SOL    HW141182   4.661   1.930  -0.010
13247SOL    HW241183   4.725   1.964   0.123
13248SOL     OW41184   5.437   2.013   0.505
13248SOL    HW141185   5.512   1.992   0.450
13248SOL    HW241186   5.420   1.932   0.554
13249SOL     OW41187   5.118   3.412   0.479
13249SOL    HW141188   5.183   3.450   0.420
13249SOL    HW241189   5.060   3.484   0.502
13250SOL     OW41190   3.830   3.684   1.838
13250SOL    HW141191   3.794   3.598   1.861
13250SOL    HW241192   3.887   3.707   1.912
13251SOL     OW41193   4.995   2.782   0.646
13251SOL    HW141194   5.070   2.732   0.678
13251SOL    HW241195   5.034   2.862   0.609
13252SOL     OW41196   4.510   3.143   1.409
13252SOL    HW141197   4.478   3.177   1.493
13252SOL    HW241198   4.431   3.135   1.355
13253SOL     OW41199   4.380   3.465   0.185
13253SOL    HW141200   4.451   3.468   0.121
13253SOL    HW241201   4.339   3.380   0.170
13254SOL     OW41202   5.520   2.016   1.020
13254SOL    HW141203   5.601   1.990   0.976
13254SOL    HW241204   5.454   2.015   0.950
13255SOL     OW41205   3.976   2.181   0.685
13255SOL    HW141206   3.889   2.217   0.670
13255SOL    HW241207   3.977   2.161   0.779
13256SOL     OW41208   4.553   2.862   1.374
13256SOL    HW141209   4.615   2.846   1.303
13256SOL    HW241210   4.552   2.957   1.385
13257SOL     OW41211   4.648   2.779   0.305
13257SOL    HW141212   4.700   2.806   0.229
13257SOL    HW241213   4.695   2.704   0.340
13258SOL     OW41214   5.220   3.457   0.043
13258SOL    HW141215   5.126   3.467   0.025
13258SOL    HW241216   5.257   3.544   0.030
13259SOL     OW41217   4.092   3.178   1.480
13259SOL    HW141218   4.064   3.248   1.538
13259SOL    HW241219   4.014   3.125   1.467
13260SOL     OW41220   5.345   3.135   1.296
13260SOL    HW141221   5.393   3.114   1.376
13260SOL    HW241222   5.253   3.132   1.321
13261SOL     OW41223   4.794   2.971   0.712
13261SOL    HW141224   4.720   2.928   0.754
13261SOL    HW241225   4.850   2.899   0.683
13262SOL     OW41226   4.761   2.110   0.922
13262SOL    HW141227   4.758   2.053   0.846
13262SOL    HW241228   4.754   2.050   0.997
13263SOL     OW41229   4.315   3.331   0.477
13263SOL    HW141230   4.368   3.305   0.401
13263SOL    HW241231   4.250   3.392   0.441
13264SOL     OW41232   5.426   2.282   1.376
13264SOL    HW141233   5.499   2.245   1.326
13264SOL    HW241234   5.377   2.206   1.407
13265SOL     OW41235   3.991   3.176   0.314
13265SOL    HW141236   3.902   3.159   0.284
13265SOL    HW241237   3.980   3.231   0.392
13266SOL     OW41238   3.844   2.858   1.714
13266SOL    HW141239   3.762   2.851   1.762
13266SOL    HW241240   3.905   2.899   1.776
13267SOL     OW41241   4.358   2.103   1.527
13267SOL    HW141242   4.423   2.062   1.470
13267SOL    HW241243   4.402   2.113   1.611
13268SOL     OW41244   5.152   2.713   1.397
13268SOL    HW141245   5.095   2.772   1.347
13268SOL    HW241246   5.237   2.719   1.354
13269SOL     OW41247   3.779   2.001   0.305
13269SOL    HW141248   3.736   2.033   0.226
13269SOL    HW241249   3.870   1.987   0.279
13270SOL     OW41250   4.917   3.116   0.129
13270SOL    HW141251   4.844   3.172   0.100
13270SOL    HW241252   4.936   3.146   0.218
13271SOL     OW41253   4.354   2.682   1.431
13271SOL    HW141254   4.409   2.759   1.416
13271SOL    HW241255   4.415   2.609   1.436
13272SOL     OW41256   5.256   3.646   1.025
13272SOL    HW141257   5.204   3.695   0.961
13272SOL    HW241258   5.282   3.566   0.979
13273SOL     OW41259   4.438   2.436   1.701
13273SOL    HW141260   4.486   2.499   1.755
13273SOL    HW241261   4.459   2.350   1.739
13274SOL     OW41262   5.203   3.127   1.636
13274SOL    HW141263   5.173   3.091   1.719
13274SOL    HW241264   5.288   3.085   1.621
13275SOL     OW41265   4.118   3.620   1.556
13275SOL    HW141266   4.036   3.665   1.536
13275SOL    HW241267   4.091   3.539   1.599
13276SOL     OW41268   5.387   2.738   1.253
13276SOL    HW141269   5.381   2.654   1.208
13276SOL    HW241270   5.375   2.803   1.183
13277SOL     OW41271   4.944   2.175   0.463
13277SOL    HW141272   5.005   2.101   0.460
13277SOL    HW241273   4.969   2.223   0.543
13278SOL     OW41274   4.345   2.617   0.586
13278SOL    HW141275   4.378   2.695   0.631
13278SOL    HW241276   4.260   2.600   0.627
13279SOL     OW41277   5.505   2.273   1.643
13279SOL    HW141278   5.493   2.283   1.549
13279SOL    HW241279   5.436   2.213   1.670
13280SOL     OW41280   5.510   2.756   1.494
13280SOL    HW141281   5.484   2.844   1.523
13280SOL    HW241282   5.477   2.749   1.405
13281SOL     OW41283   4.634   3.215   0.050
13281SOL    HW141284   4.586   3.201   0.132
13281SOL    HW241285   4.624   3.309   0.032
13282SOL     OW41286   4.404   3.658   0.956
13282SOL    HW141287   4.390   3.740   0.908
13282SOL    HW241288   4.494   3.633   0.936
13283SOL     OW41289   4.600   2.839   0.856
13283SOL    HW141290   4.653   2.768   0.892
13283SOL    HW241291   4.562   2.882   0.933
13284SOL     OW41292   4.813   2.855   0.100
13284SOL    HW141293   4.851   2.943   0.101
13284SOL    HW241294   4.886   2.797   0.078
13285SOL     OW41295   5.565   3.411   0.865
13285SOL    HW141296   5.493   3.396   0.804
13285SOL    HW241297   5.587   3.323   0.898
13286SOL     OW41298   3.967   3.088   1.858
13286SOL    HW141299   3.948   3.173   1.817
13286SOL    HW241300   3.972   3.107   1.951
13287SOL     OW41301   3.809   3.089   0.681
13287SOL    HW141302   3.794   3.035   0.758
13287SOL    HW241303   3.872   3.040   0.628
13288SOL     OW41304   4.402   3.284   1.632
13288SOL    HW141305   4.318   3.238   1.636
13288SOL    HW241306   4.434   3.281   1.723
13289SOL     OW41307   5.601   2.107   1.263
13289SOL    HW141308   5.549   2.049   1.319
13289SOL    HW241309   5.584   2.076   1.174
13290SOL     OW41310   4.169   2.311   0.533
13290SOL    HW141311   4.193   2.244   0.469
13290SOL    HW241312   4.109   2.266   0.593
13291SOL     OW41313   5.376   3.370   1.150
13291SOL    HW141314   5.320   3.339   1.079
13291SOL    HW241315   5.396   3.291   1.201
13292SOL     OW41316   4.049   2.421   1.289
13292SOL    HW141317   4.106   2.368   1.344
13292SOL    HW241318   4.070   2.394   1.199
13293SOL     OW41319   4.547   3.448   0.687
13293SOL    HW141320   4.544   3.482   0.598
13293SOL    HW241321   4.475   3.385   0.692
13294SOL     OW41322   5.172   2.094   1.120
13294SOL    HW141323   5.222   2.044   1.184
13294SOL    HW241324   5.111   2.146   1.172
13295SOL     OW41325   4.758   1.913   1.105
13295SOL    HW141326   4.698   1.910   1.180
13295SOL    HW241327   4.814   1.837   1.116
13296SOL     OW41328   4.518   3.179   0.302
13296SOL    HW141329   4.476   3.100   0.335
13296SOL    HW241330   4.587   3.198   0.366
13297SOL     OW41331   4.344   3.400   1.284
13297SOL    HW141332   4.325   3.492   1.304
13297SOL    HW241333   4.427   3.402   1.237
13298SOL     OW41334   5.101   1.904   0.188
13298SOL    HW141335   5.118   1.851   0.111
13298SOL    HW241336   5.015   1.943   0.172
13299SOL     OW41337   5.033   2.324   0.677
13299SOL    HW141338   4.976   2.401   0.678
13299SOL    HW241339   5.021   2.285   0.764
13300SOL     OW41340   5.281   2.037   0.872
13300SOL    HW141341   5.241   2.062   0.955
13300SOL    HW241342   5.282   2.117   0.820
13301SOL     OW41343   3.766   2.973   0.308
13301SOL    HW141344   3.852   2.938   0.332
13301SOL    HW241345   3.732   2.911   0.243
13302SOL     OW41346   4.570   3.501   0.404
13302SOL    HW141347   4.516   3.501   0.325
13302SOL    HW241348   4.578   3.593   0.427
13303SOL     OW41349   3.929   2.446   1.971
13303SOL    HW141350   3.883   2.522   2.006
13303SOL    HW241351   3.936   2.463   1.877
13304SOL     OW41352   3.953   2.132   2.852
13304SOL    HW141353   3.968   2.103   2.942
13304SOL    HW241354   3.863   2.104   2.833
13305SOL     OW41355   3.717   2.248   2.518
13305SOL    HW141356   3.699   2.249   2.612
13305SOL    HW241357   3.776   2.173   2.506
13306SOL     OW41358   5.294   3.391   2.581
13306SOL    HW141359   5.257   3.366   2.666
13306SOL    HW241360   5.219   3.403   2.524
13307SOL     OW41361   4.857   2.556   2.553
13307SOL    HW141362   4.905   2.637   2.537
13307SOL    HW241363   4.813   2.569   2.637
13308SOL     OW41364   5.515   2.470   2.082
13308SOL    HW141365   5.496   2.472   1.988
13308SOL    HW241366   5.474   2.389   2.113
13309SOL     OW41367   4.447   2.978   2.885
13309SOL    HW141368   4.369   3.027   2.910
13309SOL    HW241369   4.493   3.036   2.825
13310SOL     OW41370   4.603   2.663   3.708
13310SOL    HW141371   4.528   2.700   3.754
13310SOL    HW241372   4.589   2.688   3.616
13311SOL     OW41373   4.392   2.883   2.508
13311SOL    HW141374   4.462   2.873   2.572
13311SOL    HW241375   4.350   2.966   2.532
13312SOL     OW41376   4.451   3.031   3.653
13312SOL    HW141377   4.491   3.113   3.682
13312SOL    HW241378   4.361   3.054   3.631
13313SOL     OW41379   5.184   3.365   3.223
13313SOL    HW141380   5.226   3.450   3.235
13313SOL    HW241381   5.110   3.365   3.283
13314SOL     OW41382   4.180   2.225   3.344
13314SOL    HW141383   4.215   2.137   3.360
13314SOL    HW241384   4.088   2.219   3.369
13315SOL     OW41385   5.327   2.300   2.614
13315SOL    HW141386   5.258   2.320   2.550
13315SOL    HW241387   5.315   2.364   2.684
13316SOL     OW41388   3.948   3.573   2.329
13316SOL    HW141389   3.961   3.648   2.388
13316SOL    HW241390   4.025   3.575   2.271
13317SOL     OW41391   4.868   3.181   3.565
13317SOL    HW141392   4.897   3.185   3.656
13317SOL    HW241393   4.815   3.101   3.560
13318SOL     OW41394   3.937   3.300   2.390
13318SOL    HW141395   3.939   3.396   2.380
13318SOL    HW241396   3.996   3.283   2.463
13319SOL     OW41397   4.309   2.850   1.997
13319SOL    HW141398   4.360   2.896   1.930
13319SOL    HW241399   4.346   2.880   2.080
13320SOL     OW41400   5.331   1.991   3.329
13320SOL    HW141401   5.345   2.075   3.285
13320SOL    HW241402   5.295   2.015   3.414
13321SOL     OW41403   3.833   2.520   2.413
13321SOL    HW141404   3.799   2.436   2.443
13321SOL    HW241405   3.829   2.577   2.490
13322SOL     OW41406   5.593   3.582   2.153
13322SOL    HW141407   5.664   3.568   2.215
13322SOL    HW241408   5.584   3.677   2.147
13323SOL     OW41409   3.701   3.453   1.965
13323SOL    HW141410   3.733   3.367   1.991
13323SOL    HW241411   3.708   3.507   2.044
13324SOL     OW41412   5.420   2.781   2.508
13324SOL    HW141413   5.477   2.720   2.462
13324SOL    HW241414   5.381   2.834   2.439
13325SOL     OW41415   5.363   2.964   2.308
13325SOL    HW141416   5.441   2.952   2.253
13325SOL    HW241417   5.381   3.043   2.359
13326SOL     OW41418   3.834   2.616   3.429
13326SOL    HW141419   3.918   2.657   3.450
13326SOL    HW241420   3.770   2.686   3.440
13327SOL     OW41421   5.010   3.086   3.287
13327SOL    HW141422   5.043   3.022   3.225
13327SOL    HW241423   5.069   3.080   3.362
13328SOL     OW41424   4.542   1.862   2.376
13328SOL    HW141425   4.582   1.944   2.348
13328SOL    HW241426   4.449   1.881   2.380
13329SOL     OW41427   3.914   2.823   3.136
13329SOL    HW141428   3.994   2.775   3.113
13329SOL    HW241429   3.845   2.781   3.086
13330SOL     OW41430   5.292   2.858   2.046
13330SOL    HW141431   5.236   2.791   2.007
13330SOL    HW241432   5.270   2.857   2.139
13331SOL     OW41433   5.012   3.667   3.509
13331SOL    HW141434   4.925   3.703   3.525
13331SOL    HW241435   4.997   3.577   3.481
13332SOL     OW41436   4.088   2.135   3.658
13332SOL    HW141437   4.119   2.202   3.717
13332SOL    HW241438   3.995   2.126   3.678
13333SOL     OW41439   5.210   3.270   2.812
13333SOL    HW141440   5.137   3.288   2.871
13333SOL    HW241441   5.188   3.186   2.771
13334SOL     OW41442   5.368   3.634   2.422
13334SOL    HW141443   5.320   3.575   2.364
13334SOL    HW241444   5.365   3.592   2.508
13335SOL     OW41445   4.320   2.575   2.133
13335SOL    HW141446   4.326   2.660   2.088
13335SOL    HW241447   4.255   2.589   2.202
13336SOL     OW41448   5.000   2.234   2.796
13336SOL    HW141449   4.912   2.198   2.808
13336SOL    HW241450   5.055   2.181   2.854
13337SOL     OW41451   5.300   3.536   2.143
13337SOL    HW141452   5.337   3.624   2.146
13337SOL    HW241453   5.254   3.532   2.059
13338SOL     OW41454   5.119   2.337   3.542
13338SOL    HW141455   5.120   2.380   3.627
13338SOL    HW241456   5.167   2.255   3.556
13339SOL     OW41457   4.664   2.744   3.434
13339SOL    HW141458   4.717   2.671   3.401
13339SOL    HW241459   4.639   2.792   3.355
13340SOL     OW41460   4.722   2.262   3.079
13340SOL    HW141461   4.632   2.285   3.104
13340SOL    HW241462   4.713   2.222   2.993
13341SOL     OW41463   4.775   2.562   2.285
13341SOL    HW141464   4.793   2.555   2.379
13341SOL    HW241465   4.691   2.518   2.274
13342SOL     OW41466   3.812   2.664   2.640
13342SOL    HW141467   3.894   2.666   2.690
13342SOL    HW241468   3.758   2.733   2.678
13343SOL     OW41469   4.626   2.189   2.032
13343SOL    HW141470   4.659   2.268   1.989
13343SOL    HW241471   4.682   2.119   2.001
13344SOL     OW41472   5.442   2.429   3.690
13344SOL    HW141473   5.402   2.507   3.653
13344SOL    HW241474   5.444   2.366   3.618
13345SOL     OW41475   5.104   3.012   2.416
13345SOL    HW141476   5.174   2.989   2.355
13345SOL    HW241477   5.046   3.068   2.365
13346SOL     OW41478   4.269   2.031   2.772
13346SOL    HW141479   4.272   2.061   2.863
13346SOL    HW241480   4.270   2.112   2.720
13347SOL     OW41481   4.723   3.319   2.333
13347SOL    HW141482   4.693   3.390   2.276
13347SOL    HW241483   4.674   3.332   2.415
13348SOL     OW41484   4.152   3.641   2.650
13348SOL    HW141485   4.201   3.559   2.654
13348SOL    HW241486   4.185   3.693   2.722
13349SOL     OW41487   5.543   2.931   2.700
13349SOL    HW141488   5.486   2.883   2.640
13349SOL    HW241489   5.487   2.950   2.776
13350SOL     OW41490   4.959   3.391   3.378
13350SOL    HW141491   4.944   3.318   3.439
13350SOL    HW241492   4.875   3.401   3.334
13351SOL     OW41493   4.062   2.812   2.113
13351SOL    HW141494   4.143   2.842   2.073
13351SOL    HW241495   4.021   2.756   2.047
13352SOL     OW41496   5.206   2.614   2.582
13352SOL    HW141497   5.196   2.569   2.666
13352SOL    HW241498   5.283   2.669   2.593
13353SOL     OW41499   4.200   3.136   3.610
13353SOL    HW141500   4.153   3.149   3.528
13353SOL    HW241501   4.133   3.107   3.672
13354SOL     OW41502   4.859   3.637   2.099
13354SOL    HW141503   4.775   3.610   2.137
13354SOL    HW241504   4.875   3.574   2.029
13355SOL     OW41505   3.912   2.178   3.377
13355SOL    HW141506   3.832   2.223   3.348
13355SOL    HW241507   3.885   2.129   3.454
13356SOL     OW41508   5.325   3.272   1.971
13356SOL    HW141509   5.283   3.342   1.920
13356SOL    HW241510   5.270   3.195   1.955
13357SOL     OW41511   4.184   3.620   2.179
13357SOL    HW141512   4.226   3.665   2.252
13357SOL    HW241513   4.237   3.541   2.165
13358SOL     OW41514   5.125   1.968   2.311
13358SOL    HW141515   5.118   1.944   2.219
13358SOL    HW241516   5.219   1.974   2.328
13359SOL     OW41517   4.126   2.556   2.332
13359SOL    HW141518   4.130   2.461   2.347
13359SOL    HW241519   4.035   2.579   2.347
13360SOL     OW41520   5.251   2.083   3.587
13360SOL    HW141521   5.263   2.108   3.679
13360SOL    HW241522   5.190   2.009   3.590
13361SOL     OW41523   4.347   1.946   1.996
13361SOL    HW141524   4.439   1.957   1.971
13361SOL    HW241525   4.303   1.926   1.913
13362SOL     OW41526   4.493   2.139   3.626
13362SOL    HW141527   4.574   2.089   3.619
13362SOL    HW241528   4.445   2.097   3.698
13363SOL     OW41529   5.061   2.465   3.299
13363SOL    HW141530   5.096   2.430   3.381
13363SOL    HW241531   5.113   2.544   3.283
13364SOL     OW41532   4.651   2.368   2.759
13364SOL    HW141533   4.624   2.360   2.667
13364SOL    HW241534   4.680   2.280   2.783
13365SOL     OW41535   4.274   1.920   2.357
13365SOL    HW141536   4.195   1.921   2.411
13365SOL    HW241537   4.268   1.999   2.304
13366SOL     OW41538   5.162   3.059   1.910
13366SOL    HW141539   5.212   2.987   1.948
13366SOL    HW241540   5.071   3.032   1.918
13367SOL     OW41541   4.014   1.907   2.046
13367SOL    HW141542   4.058   1.974   1.993
13367SOL    HW241543   4.085   1.856   2.085
13368SOL     OW41544   4.667   2.106   2.313
13368SOL    HW141545   4.640   2.141   2.228
13368SOL    HW241546   4.760   2.127   2.318
13369SOL     OW41547   4.795   2.519   3.329
13369SOL    HW141548   4.774   2.443   3.384
13369SOL    HW241549   4.888   2.511   3.312
13370SOL     OW41550   4.965   3.437   2.662
13370SOL    HW141551   4.897   3.489   2.619
13370SOL    HW241552   4.933   3.427   2.752
13371SOL     OW41553   4.988   3.694   2.433
13371SOL    HW141554   4.920   3.711   2.367
13371SOL    HW241555   4.940   3.690   2.516
13372SOL     OW41556   4.734   2.398   1.895
13372SOL    HW141557   4.696   2.482   1.870
13372SOL    HW241558   4.803   2.421   1.958
13373SOL     OW41559   3.828   2.427   3.232
13373SOL    HW141560   3.923   2.438   3.223
13373SOL    HW241561   3.803   2.491   3.299
13374SOL     OW41562   4.286   2.087   3.047
13374SOL    HW141563   4.320   2.013   3.097
13374SOL    HW241564   4.193   2.091   3.069
13375SOL     OW41565   4.587   2.313   2.498
13375SOL    HW141566   4.545   2.375   2.438
13375SOL    HW241567   4.611   2.239   2.444
13376SOL     OW41568   4.735   1.920   2.606
13376SOL    HW141569   4.695   1.951   2.524
13376SOL    HW241570   4.684   1.844   2.631
13377SOL     OW41571   5.155   3.027   2.697
13377SOL    HW141572   5.085   2.971   2.732
13377SOL    HW241573   5.138   3.029   2.603
13378SOL     OW41574   5.175   2.464   2.814
13378SOL    HW141575   5.109   2.394   2.815
13378SOL    HW241576   5.229   2.447   2.891
13379SOL     OW41577   5.574   2.676   2.249
13379SOL    HW141578   5.624   2.621   2.309
13379SOL    HW241579   5.538   2.615   2.184
13380SOL     OW41580   4.203   3.306   1.983
13380SOL    HW141581   4.139   3.268   2.044
13380SOL    HW241582   4.153   3.323   1.903
13381SOL     OW41583   5.428   3.183   2.453
13381SOL    HW141584   5.494   3.157   2.516
13381SOL    HW241585   5.370   3.242   2.501
13382SOL     OW41586   5.113   2.403   1.938
13382SOL    HW141587   5.044   2.400   2.005
13382SOL    HW241588   5.168   2.327   1.956
13383SOL     OW41589   4.248   2.125   2.180
13383SOL    HW141590   4.287   2.067   2.114
13383SOL    HW241591   4.226   2.204   2.132
13384SOL     OW41592   5.468   3.103   3.427
13384SOL    HW141593   5.541   3.049   3.457
13384SOL    HW241594   5.493   3.193   3.449
13385SOL     OW41595   4.782   3.201   3.190
13385SOL    HW141596   4.707   3.177   3.244
13385SOL    HW241597   4.857   3.164   3.236
13386SOL     OW41598   5.344   3.490   3.517
13386SOL    HW141599   5.335   3.529   3.430
13386SOL    HW241600   5.420   3.433   3.510
13387SOL     OW41601   4.837   3.034   2.977
13387SOL    HW141602   4.805   3.096   3.043
13387SOL    HW241603   4.825   3.079   2.894
13388SOL     OW41604   5.393   3.025   2.908
13388SOL    HW141605   5.381   3.049   3.000
13388SOL    HW241606   5.304   3.014   2.875
13389SOL     OW41607   4.645   1.961   3.250
13389SOL    HW141608   4.669   1.942   3.159
13389SOL    HW241609   4.725   1.998   3.289
13390SOL     OW41610   4.712   2.941   3.618
13390SOL    HW141611   4.625   2.980   3.631
13390SOL    HW241612   4.701   2.881   3.544
13391SOL     OW41613   4.432   2.920   2.231
13391SOL    HW141614   4.417   2.905   2.324
13391SOL    HW241615   4.511   2.869   2.211
13392SOL     OW41616   4.152   2.680   3.108
13392SOL    HW141617   4.210   2.698   3.181
13392SOL    HW241618   4.122   2.590   3.122
13393SOL     OW41619   4.990   2.247   3.143
13393SOL    HW141620   5.019   2.326   3.187
13393SOL    HW241621   4.899   2.264   3.119
13394SOL     OW41622   4.018   2.959   2.339
13394SOL    HW141623   4.099   2.998   2.371
13394SOL    HW241624   4.046   2.899   2.270
13395SOL     OW41625   4.269   2.394   2.719
13395SOL    HW141626   4.281   2.457   2.648
13395SOL    HW241627   4.335   2.417   2.784
13396SOL     OW41628   4.973   3.226   2.270
13396SOL    HW141629   5.023   3.291   2.319
13396SOL    HW241630   4.882   3.241   2.297
13397SOL     OW41631   5.021   3.301   3.002
13397SOL    HW141632   5.072   3.321   3.081
13397SOL    HW241633   4.936   3.274   3.035
13398SOL     OW41634   5.292   2.487   2.350
13398SOL    HW141635   5.253   2.528   2.427
13398SOL    HW241636   5.268   2.544   2.277
13399SOL     OW41637   4.125   2.621   3.474
13399SOL    HW141638   4.202   2.635   3.418
13399SOL    HW241639   4.137   2.533   3.509
13400SOL     OW41640   5.337   2.644   3.565
13400SOL    HW141641   5.249   2.679   3.553
13400SOL    HW241642   5.390   2.688   3.498
13401SOL     OW41643   4.718   1.996   3.593
13401SOL    HW141644   4.791   2.057   3.589
13401SOL    HW241645   4.759   1.909   3.590
13402SOL     OW41646   4.241   1.917   3.583
13402SOL    HW141647   4.181   1.855   3.542
13402SOL    HW241648   4.185   1.989   3.613
13403SOL     OW41649   4.319   2.725   2.893
13403SOL    HW141650   4.349   2.816   2.888
13403SOL    HW241651   4.255   2.725   2.964
13404SOL     OW41652   5.068   2.720   2.875
13404SOL    HW141653   4.979   2.703   2.843
13404SOL    HW241654   5.113   2.637   2.866
13405SOL     OW41655   4.914   2.385   2.125
13405SOL    HW141656   4.925   2.311   2.184
13405SOL    HW241657   4.878   2.455   2.179
13406SOL     OW41658   4.022   2.071   3.116
13406SOL    HW141659   3.971   2.099   3.192
13406SOL    HW241660   4.010   1.976   3.114
13407SOL     OW41661   3.745   3.158   3.189
13407SOL    HW141662   3.788   3.091   3.242
13407SOL    HW241663   3.815   3.213   3.157
13408SOL     OW41664   4.443   2.483   2.920
13408SOL    HW141665   4.520   2.476   2.864
13408SOL    HW241666   4.410   2.572   2.905
13409SOL     OW41667   5.461   2.835   3.730
13409SOL    HW141668   5.425   2.764   3.676
13409SOL    HW241669   5.398   2.846   3.801
13410SOL     OW41670   4.030   1.920   2.485
13410SOL    HW141671   4.006   2.010   2.508
13410SOL    HW241672   4.040   1.876   2.569
13411SOL     OW41673   5.348   2.245   2.227
13411SOL    HW141674   5.383   2.181   2.290
13411SOL    HW241675   5.330   2.323   2.280
13412SOL     OW41676   4.760   2.613   2.813
13412SOL    HW141677   4.755   2.627   2.907
13412SOL    HW241678   4.728   2.523   2.801
13413SOL     OW41679   4.736   3.428   3.571
13413SOL    HW141680   4.699   3.440   3.483
13413SOL    HW241681   4.745   3.333   3.579
13414SOL     OW41682   5.579   3.352   3.467
13414SOL    HW141683   5.595   3.390   3.381
13414SOL    HW241684   5.660   3.368   3.516
13415SOL     OW41685   4.101   2.822   3.661
13415SOL    HW141686   4.123   2.785   3.747
13415SOL    HW241687   4.109   2.748   3.600
13416SOL     OW41688   5.234   2.147   2.000
13416SOL    HW141689   5.178   2.075   2.028
13416SOL    HW241690   5.278   2.176   2.079
13417SOL     OW41691   5.131   2.687   1.914
13417SOL    HW141692   5.110   2.593   1.918
13417SOL    HW241693   5.046   2.730   1.905
13418SOL     OW41694   4.797   3.167   2.743
13418SOL    HW141695   4.793   3.103   2.673
13418SOL    HW241696   4.804   3.251   2.699
13419SOL     OW41697   4.040   2.653   2.790
13419SOL    HW141698   4.130   2.684   2.785
13419SOL    HW241699   4.046   2.570   2.839
13420SOL     OW41700   4.056   2.380   2.885
13420SOL    HW141701   4.018   2.293   2.872
13420SOL    HW241702   4.129   2.384   2.824
13421SOL     OW41703   4.850   2.271   3.522
13421SOL    HW141704   4.809   2.309   3.600
13421SOL    HW241705   4.943   2.296   3.529
13422SOL     OW41706   4.882   2.071   3.328
13422SOL    HW141707   4.867   2.135   3.398
13422SOL    HW241708   4.929   2.121   3.261
13423SOL     OW41709   3.720   3.182   2.050
13423SOL    HW141710   3.634   3.184   2.009
13423SOL    HW241711   3.730   3.093   2.082
13424SOL     OW41712   4.714   2.626   3.080
13424SOL    HW141713   4.752   2.588   3.158
13424SOL    HW241714   4.628   2.658   3.108
13425SOL     OW41715   3.771   2.394   2.968
13425SOL    HW141716   3.860   2.413   2.938
13425SOL    HW241717   3.778   2.392   3.064
13426SOL     OW41718   3.900   2.404   3.585
13426SOL    HW141719   3.908   2.335   3.519
13426SOL    HW241720   3.863   2.478   3.537
13427SOL     OW41721   5.107   2.786   3.507
13427SOL    HW141722   5.128   2.879   3.509
13427SOL    HW241723   5.115   2.761   3.416
13428SOL     OW41724   4.539   2.426   2.228
13428SOL    HW141725   4.538   2.357   2.162
13428SOL    HW241726   4.467   2.484   2.202
13429SOL     OW41727   5.332   2.408   3.022
13429SOL    HW141728   5.342   2.356   3.102
13429SOL    HW241729   5.417   2.451   3.011
13430SOL     OW41730   4.435   2.311   3.131
13430SOL    HW141731   4.386   2.238   3.095
13430SOL    HW241732   4.433   2.378   3.062
13431SOL     OW41733   4.184   2.348   2.040
13431SOL    HW141734   4.238   2.424   2.064
13431SOL    HW241735   4.096   2.384   2.027
13432SOL     OW41736   3.877   2.988   3.347
13432SOL    HW141737   3.865   2.939   3.428
13432SOL    HW241738   3.890   2.921   3.280
13433SOL     OW41739   5.055   2.900   3.078
13433SOL    HW141740   5.070   2.838   3.008
13433SOL    HW241741   4.978   2.950   3.050
13434SOL     OW41742   5.049   2.722   2.205
13434SOL    HW141743   4.968   2.695   2.247
13434SOL    HW241744   5.021   2.763   2.123
13435SOL     OW41745   5.515   3.586   3.031
13435SOL    HW141746   5.525   3.635   2.949
13435SOL    HW241747   5.474   3.504   3.005
13436SOL     OW41748   5.036   3.621   2.965
13436SOL    HW141749   4.997   3.576   2.890
13436SOL    HW241750   4.968   3.619   3.032
13437SOL     OW41751   5.458   2.025   2.368
13437SOL    HW141752   5.525   2.007   2.302
13437SOL    HW241753   5.438   1.940   2.405
13438SOL     OW41754   5.125   3.452   2.364
13438SOL    HW141755   5.132   3.478   2.272
13438SOL    HW241756   5.066   3.516   2.403
13439SOL     OW41757   4.998   2.784   2.523
13439SOL    HW141758   5.074   2.728   2.539
13439SOL    HW241759   5.033   2.859   2.476
13440SOL     OW41760   4.525   3.148   3.300
13440SOL    HW141761   4.501   3.180   3.386
13440SOL    HW241762   4.471   3.198   3.239
13441SOL     OW41763   4.402   3.497   2.012
13441SOL    HW141764   4.420   3.502   1.918
13441SOL    HW241765   4.340   3.424   2.021
13442SOL     OW41766   5.355   3.599   3.263
13442SOL    HW141767   5.400   3.602   3.178
13442SOL    HW241768   5.335   3.691   3.282
13443SOL     OW41769   5.568   2.030   2.831
13443SOL    HW141770   5.597   1.943   2.803
13443SOL    HW241771   5.481   2.039   2.793
13444SOL     OW41772   3.988   2.172   2.585
13444SOL    HW141773   3.962   2.264   2.580
13444SOL    HW241774   3.987   2.151   2.678
13445SOL     OW41775   4.929   3.463   1.893
13445SOL    HW141776   4.914   3.374   1.926
13445SOL    HW241777   4.875   3.469   1.815
13446SOL     OW41778   4.566   2.881   3.218
13446SOL    HW141779   4.589   2.898   3.126
13446SOL    HW241780   4.546   2.968   3.254
13447SOL     OW41781   4.653   2.782   2.138
13447SOL    HW141782   4.720   2.826   2.085
13447SOL    HW241783   4.701   2.713   2.185
13448SOL     OW41784   5.196   3.527   1.894
13448SOL    HW141785   5.104   3.501   1.882
13448SOL    HW241786   5.234   3.521   1.807
13449SOL     OW41787   4.070   3.178   3.376
13449SOL    HW141788   4.027   3.256   3.341
13449SOL    HW241789   4.003   3.109   3.369
13450SOL     OW41790   5.374   3.171   3.165
13450SOL    HW141791   5.399   3.136   3.250
13450SOL    HW241792   5.298   3.227   3.184
13451SOL     OW41793   4.785   2.964   2.564
13451SOL    HW141794   4.711   2.916   2.600
13451SOL    HW241795   4.849   2.897   2.541
13452SOL     OW41796   4.746   2.098   2.831
13452SOL    HW141797   4.746   2.052   2.747
13452SOL    HW241798   4.736   2.028   2.896
13453SOL     OW41799   4.335   3.404   2.326
13453SOL    HW141800   4.352   3.318   2.289
13453SOL    HW241801   4.300   3.387   2.414
13454SOL     OW41802   5.452   2.243   3.230
13454SOL    HW141803   5.520   2.311   3.229
13454SOL    HW241804   5.485   2.174   3.173
13455SOL     OW41805   3.980   3.213   2.126
13455SOL    HW141806   3.888   3.214   2.102
13455SOL    HW241807   3.981   3.230   2.220
13456SOL     OW41808   3.833   2.870   3.581
13456SOL    HW141809   3.758   2.858   3.638
13456SOL    HW241810   3.909   2.860   3.638
13457SOL     OW41811   4.426   2.071   3.365
13457SOL    HW141812   4.503   2.031   3.327
13457SOL    HW241813   4.438   2.063   3.460
13458SOL     OW41814   3.800   2.195   1.903
13458SOL    HW141815   3.740   2.197   1.828
13458SOL    HW241816   3.836   2.283   1.907
13459SOL     OW41817   5.182   2.717   3.249
13459SOL    HW141818   5.138   2.779   3.191
13459SOL    HW241819   5.267   2.701   3.206
13460SOL     OW41820   3.778   2.021   2.148
13460SOL    HW141821   3.766   2.083   2.077
13460SOL    HW241822   3.867   1.987   2.135
13461SOL     OW41823   4.886   3.209   1.997
13461SOL    HW141824   4.868   3.116   1.984
13461SOL    HW241825   4.918   3.216   2.087
13462SOL     OW41826   4.338   2.707   3.312
13462SOL    HW141827   4.322   2.798   3.337
13462SOL    HW241828   4.432   2.704   3.294
13463SOL     OW41829   5.291   3.642   2.833
13463SOL    HW141830   5.257   3.717   2.783
13463SOL    HW241831   5.218   3.614   2.888
13464SOL     OW41832   4.455   2.406   3.566
13464SOL    HW141833   4.456   2.473   3.634
13464SOL    HW241834   4.474   2.324   3.612
13465SOL     OW41835   5.198   3.047   3.497
13465SOL    HW141836   5.184   3.070   3.589
13465SOL    HW241837   5.289   3.071   3.480
13466SOL     OW41838   4.936   2.178   2.321
13466SOL    HW141839   5.000   2.107   2.315
13466SOL    HW241840   4.966   2.231   2.395
13467SOL     OW41841   4.308   2.604   2.537
13467SOL    HW141842   4.337   2.696   2.532
13467SOL    HW241843   4.247   2.595   2.465
13468SOL     OW41844   5.481   2.237   3.500
13468SOL    HW141845   5.460   2.243   3.407
13468SOL    HW241846   5.420   2.172   3.535
13469SOL     OW41847   5.489   2.800   3.403
13469SOL    HW141848   5.450   2.884   3.380
13469SOL    HW241849   5.507   2.757   3.319
13470SOL     OW41850   4.550   3.262   1.898
13470SOL    HW141851   4.512   3.243   1.984
13470SOL    HW241852   4.643   3.274   1.915
13471SOL     OW41853   4.597   2.822   2.705
13471SOL    HW141854   4.651   2.751   2.741
13471SOL    HW241855   4.548   2.856   2.780
13472SOL     OW41856   5.554   3.418   2.714
13472SOL    HW141857   5.473   3.415   2.663
13472SOL    HW241858   5.532   3.378   2.798
13473SOL     OW41859   4.405   3.295   3.503
13473SOL    HW141860   4.329   3.255   3.544
13473SOL    HW241861   4.384   3.388   3.497
13474SOL     OW41862   5.560   2.030   3.105
13474SOL    HW141863   5.553   1.935   3.107
13474SOL    HW241864   5.565   2.052   3.012
13475SOL     OW41865   4.140   2.290   2.380
13475SOL    HW141866   4.182   2.230   2.319
13475SOL    HW241867   4.109   2.235   2.452
13476SOL     OW41868   5.432   3.339   2.954
13476SOL    HW141869   5.353   3.323   2.902
13476SOL    HW241870   5.423   3.279   3.028
13477SOL     OW41871   4.095   2.420   3.155
13477SOL    HW141872   4.121   2.340   3.202
13477SOL    HW241873   4.085   2.391   3.065
13478SOL     OW41874   4.541   3.418   2.518
13478SOL    HW141875   4.489   3.446   2.443
13478SOL    HW241876   4.477   3.398   2.586
13479SOL     OW41877   5.148   2.094   2.979
13479SOL    HW141878   5.161   2.011   3.024
13479SOL    HW241879   5.103   2.149   3.043
13480SOL     OW41880   4.717   1.856   2.996
13480SOL    HW141881   4.673   1.776   3.022
13480SOL    HW241882   4.808   1.829   2.981
13481SOL     OW41883   4.513   3.180   2.162
13481SOL    HW141884   4.478   3.093   2.183
13481SOL    HW241885   4.584   3.193   2.225
13482SOL     OW41886   5.076   1.920   2.044
13482SOL    HW141887   5.096   1.878   1.961
13482SOL    HW241888   4.991   1.884   2.070
13483SOL     OW41889   5.019   2.325   2.537
13483SOL    HW141890   4.967   2.406   2.539
13483SOL    HW241891   5.013   2.291   2.626
13484SOL     OW41892   5.306   2.051   2.752
13484SOL    HW141893   5.254   2.081   2.827
13484SOL    HW241894   5.309   2.127   2.693
13485SOL     OW41895   3.764   2.938   2.171
13485SOL    HW141896   3.853   2.952   2.204
13485SOL    HW241897   3.751   2.844   2.177
13486SOL     OW41898   4.620   3.532   2.188
13486SOL    HW141899   4.541   3.508   2.139
13486SOL    HW241900   4.589   3.594   2.255
13487SOL     OW41901   3.960   2.471   3.851
13487SOL    HW141902   3.898   2.521   3.904
13487SOL    HW241903   3.918   2.465   3.765
13488SOL     OW41904   3.931   2.142   4.687
13488SOL    HW141905   3.959   2.113   4.774
13488SOL    HW241906   3.838   2.119   4.683
13489SOL     OW41907   4.304   3.165   4.903
13489SOL    HW141908   4.215   3.162   4.867
13489SOL    HW241909   4.312   3.251   4.942
13490SOL     OW41910   5.301   3.374   4.453
13490SOL    HW141911   5.275   3.360   4.544
13490SOL    HW241912   5.218   3.382   4.406
13491SOL     OW41913   4.870   2.550   4.420
13491SOL    HW141914   4.903   2.639   4.406
13491SOL    HW241915   4.817   2.557   4.500
13492SOL     OW41916   5.519   2.454   3.948
13492SOL    HW141917   5.477   2.454   3.862
13492SOL    HW241918   5.471   2.389   3.999
13493SOL     OW41919   4.468   2.964   4.817
13493SOL    HW141920   4.398   3.013   4.861
13493SOL    HW241921   4.507   3.026   4.756
13494SOL     OW41922   4.596   2.623   5.550
13494SOL    HW141923   4.563   2.684   5.617
13494SOL    HW241924   4.618   2.679   5.476
13495SOL     OW41925   4.420   2.845   4.374
13495SOL    HW141926   4.482   2.838   4.447
13495SOL    HW241927   4.356   2.910   4.402
13496SOL     OW41928   4.061   3.267   4.791
13496SOL    HW141929   3.982   3.224   4.758
13496SOL    HW241930   4.091   3.321   4.718
13497SOL     OW41931   5.205   3.389   5.109
13497SOL    HW141932   5.173   3.472   5.073
13497SOL    HW241933   5.128   3.349   5.148
13498SOL     OW41934   4.192   2.255   5.198
13498SOL    HW141935   4.258   2.186   5.202
13498SOL    HW241936   4.112   2.215   5.232
13499SOL     OW41937   5.307   2.318   4.466
13499SOL    HW141938   5.219   2.313   4.429
13499SOL    HW241939   5.320   2.412   4.482
13500SOL     OW41940   4.914   3.166   5.396
13500SOL    HW141941   4.925   3.213   5.478
13500SOL    HW241942   4.836   3.111   5.410
13501SOL     OW41943   3.926   2.924   4.629
13501SOL    HW141944   3.941   2.859   4.697
13501SOL    HW241945   3.896   3.002   4.676
13502SOL     OW41946   4.327   3.654   5.153
13502SOL    HW141947   4.243   3.642   5.197
13502SOL    HW241948   4.348   3.746   5.165
13503SOL     OW41949   4.411   2.813   3.826
13503SOL    HW141950   4.399   2.893   3.774
13503SOL    HW241951   4.391   2.840   3.916
13504SOL     OW41952   5.322   1.984   5.207
13504SOL    HW141953   5.317   2.067   5.160
13504SOL    HW241954   5.285   2.004   5.293
13505SOL     OW41955   3.852   2.535   4.261
13505SOL    HW141956   3.813   2.448   4.271
13505SOL    HW241957   3.833   2.580   4.343
13506SOL     OW41958   5.602   3.574   4.021
13506SOL    HW141959   5.669   3.567   4.089
13506SOL    HW241960   5.583   3.668   4.015
13507SOL     OW41961   5.412   2.787   4.371
13507SOL    HW141962   5.498   2.746   4.362
13507SOL    HW241963   5.399   2.834   4.289
13508SOL     OW41964   5.385   2.966   4.148
13508SOL    HW141965   5.473   2.955   4.111
13508SOL    HW241966   5.394   3.037   4.210
13509SOL     OW41967   3.867   2.597   5.312
13509SOL    HW141968   3.961   2.612   5.303
13509SOL    HW241969   3.835   2.674   5.359
13510SOL     OW41970   5.078   3.110   5.118
13510SOL    HW141971   5.022   3.038   5.089
13510SOL    HW241972   5.052   3.127   5.208
13511SOL     OW41973   4.542   1.898   4.306
13511SOL    HW141974   4.579   1.969   4.253
13511SOL    HW241975   4.449   1.896   4.282
13512SOL     OW41976   3.911   2.792   4.899
13512SOL    HW141977   3.997   2.767   4.934
13512SOL    HW241978   3.872   2.847   4.968
13513SOL     OW41979   5.249   2.868   3.926
13513SOL    HW141980   5.176   2.814   3.955
13513SOL    HW241981   5.294   2.895   4.006
13514SOL     OW41982   5.008   3.673   5.321
13514SOL    HW141983   4.966   3.753   5.289
13514SOL    HW241984   4.936   3.612   5.336
13515SOL     OW41985   4.063   2.096   5.576
13515SOL    HW141986   4.105   2.182   5.586
13515SOL    HW241987   3.970   2.115   5.573
13516SOL     OW41988   5.216   3.262   4.693
13516SOL    HW141989   5.149   3.288   4.756
13516SOL    HW241990   5.177   3.189   4.644
13517SOL     OW41991   5.400   3.589   4.280
13517SOL    HW141992   5.311   3.584   4.246
13517SOL    HW241993   5.395   3.549   4.366
13518SOL     OW41994   4.308   2.574   4.005
13518SOL    HW141995   4.275   2.651   3.959
13518SOL    HW241996   4.253   2.566   4.082
13519SOL     OW41997   4.999   2.238   4.663
13519SOL    HW141998   4.908   2.210   4.666
13519SOL    HW241999   5.048   2.165   4.700
13520SOL     OW42000   5.285   3.547   4.000
13520SOL    HW142001   5.271   3.638   4.025
13520SOL    HW242002   5.247   3.540   3.912
13521SOL     OW42003   4.534   2.468   5.174
13521SOL    HW142004   4.498   2.447   5.260
13521SOL    HW242005   4.488   2.410   5.113
13522SOL     OW42006   5.120   2.331   5.406
13522SOL    HW142007   5.124   2.377   5.491
13522SOL    HW242008   5.161   2.246   5.424
13523SOL     OW42009   4.669   2.765   5.308
13523SOL    HW142010   4.723   2.694   5.274
13523SOL    HW242011   4.627   2.802   5.230
13524SOL     OW42012   4.726   2.258   4.971
13524SOL    HW142013   4.651   2.301   5.013
13524SOL    HW242014   4.688   2.211   4.897
13525SOL     OW42015   4.783   2.554   4.156
13525SOL    HW142016   4.796   2.541   4.250
13525SOL    HW242017   4.697   2.515   4.138
13526SOL     OW42018   3.811   2.663   4.496
13526SOL    HW142019   3.895   2.667   4.542
13526SOL    HW242020   3.762   2.739   4.528
13527SOL     OW42021   3.870   3.740   5.293
13527SOL    HW142022   3.829   3.654   5.300
13527SOL    HW242023   3.844   3.772   5.207
13528SOL     OW42024   4.612   2.197   3.924
13528SOL    HW142025   4.657   2.244   3.853
13528SOL    HW242026   4.590   2.112   3.886
13529SOL     OW42027   5.472   2.436   5.535
13529SOL    HW142028   5.421   2.506   5.495
13529SOL    HW242029   5.467   2.364   5.472
13530SOL     OW42030   5.117   3.007   4.273
13530SOL    HW142031   5.195   3.004   4.218
13530SOL    HW242032   5.058   3.068   4.229
13531SOL     OW42033   4.280   2.039   4.633
13531SOL    HW142034   4.280   2.061   4.726
13531SOL    HW242035   4.265   2.121   4.588
13532SOL     OW42036   4.070   3.667   4.608
13532SOL    HW142037   4.121   3.586   4.612
13532SOL    HW242038   4.133   3.736   4.631
13533SOL     OW42039   5.519   2.928   4.588
13533SOL    HW142040   5.463   2.894   4.519
13533SOL    HW242041   5.461   2.935   4.664
13534SOL     OW42042   4.924   3.367   5.193
13534SOL    HW142043   4.910   3.326   5.278
13534SOL    HW242044   4.857   3.435   5.187
13535SOL     OW42045   4.092   2.758   3.929
13535SOL    HW142046   4.029   2.829   3.922
13535SOL    HW242047   4.050   2.695   3.988
13536SOL     OW42048   5.217   2.611   4.454
13536SOL    HW142049   5.180   2.623   4.542
13536SOL    HW242050   5.285   2.678   4.447
13537SOL     OW42051   4.215   3.095   5.371
13537SOL    HW142052   4.177   3.095   5.283
13537SOL    HW242053   4.151   3.142   5.424
13538SOL     OW42054   4.864   3.666   3.970
13538SOL    HW142055   4.779   3.699   3.996
13538SOL    HW242056   4.845   3.593   3.911
13539SOL     OW42057   3.935   2.154   5.268
13539SOL    HW142058   3.937   2.146   5.172
13539SOL    HW242059   3.921   2.065   5.299
13540SOL     OW42060   5.345   3.277   3.838
13540SOL    HW142061   5.301   3.353   3.799
13540SOL    HW242062   5.289   3.203   3.815
13541SOL     OW42063   5.123   1.972   4.162
13541SOL    HW142064   5.120   1.938   4.072
13541SOL    HW242065   5.211   1.952   4.192
13542SOL     OW42066   3.962   3.654   4.956
13542SOL    HW142067   4.011   3.578   4.987
13542SOL    HW242068   3.954   3.641   4.862
13543SOL     OW42069   4.120   2.543   4.197
13543SOL    HW142070   4.137   2.450   4.216
13543SOL    HW242071   4.030   2.557   4.224
13544SOL     OW42072   5.250   2.080   5.462
13544SOL    HW142073   5.272   2.127   5.543
13544SOL    HW242074   5.210   1.999   5.491
13545SOL     OW42075   4.395   1.973   3.826
13545SOL    HW142076   4.434   1.899   3.873
13545SOL    HW242077   4.328   1.934   3.770
13546SOL     OW42078   4.482   2.139   5.480
13546SOL    HW142079   4.565   2.090   5.478
13546SOL    HW242080   4.436   2.104   5.557
13547SOL     OW42081   4.602   3.394   4.947
13547SOL    HW142082   4.587   3.406   4.853
13547SOL    HW242083   4.664   3.321   4.953
13548SOL     OW42084   5.086   2.432   5.155
13548SOL    HW142085   5.106   2.410   5.246
13548SOL    HW242086   5.105   2.525   5.148
13549SOL     OW42087   4.524   3.153   4.639
13549SOL    HW142088   4.531   3.246   4.660
13549SOL    HW242089   4.437   3.144   4.600
13550SOL     OW42090   4.681   2.372   4.617
13550SOL    HW142091   4.648   2.366   4.527
13550SOL    HW242092   4.685   2.281   4.647
13551SOL     OW42093   4.278   1.921   4.213
13551SOL    HW142094   4.204   1.920   4.273
13551SOL    HW242095   4.264   1.999   4.158
13552SOL     OW42096   5.161   3.081   3.773
13552SOL    HW142097   5.184   3.002   3.822
13552SOL    HW242098   5.074   3.105   3.806
13553SOL     OW42099   4.053   1.908   3.881
13553SOL    HW142100   4.093   1.987   3.918
13553SOL    HW242101   4.085   1.837   3.937
13554SOL     OW42102   4.663   2.127   4.185
13554SOL    HW142103   4.642   2.150   4.095
13554SOL    HW242104   4.758   2.134   4.190
13555SOL     OW42105   4.793   2.544   5.186
13555SOL    HW142106   4.704   2.508   5.189
13555SOL    HW242107   4.847   2.477   5.226
13556SOL     OW42108   5.020   3.371   4.478
13556SOL    HW142109   4.957   3.424   4.431
13556SOL    HW242110   4.980   3.356   4.564
13557SOL     OW42111   4.997   3.638   4.270
13557SOL    HW142112   5.054   3.704   4.231
13557SOL    HW242113   4.921   3.687   4.303
13558SOL     OW42114   4.752   2.397   3.750
13558SOL    HW142115   4.699   2.477   3.755
13558SOL    HW242116   4.803   2.398   3.831
13559SOL     OW42117   3.803   2.429   5.108
13559SOL    HW142118   3.895   2.418   5.082
13559SOL    HW242119   3.805   2.497   5.176
13560SOL     OW42120   4.281   2.084   4.906
13560SOL    HW142121   4.317   2.023   4.971
13560SOL    HW242122   4.187   2.086   4.926
13561SOL     OW42123   4.594   2.342   4.360
13561SOL    HW142124   4.504   2.371   4.350
13561SOL    HW242125   4.599   2.262   4.308
13562SOL     OW42126   4.760   1.906   4.470
13562SOL    HW142127   4.686   1.909   4.409
13562SOL    HW242128   4.737   1.837   4.533
13563SOL     OW42129   5.127   3.027   4.584
13563SOL    HW142130   5.035   3.045   4.598
13563SOL    HW242131   5.136   3.021   4.488
13564SOL     OW42132   5.560   2.672   4.108
13564SOL    HW142133   5.616   2.627   4.171
13564SOL    HW242134   5.538   2.606   4.043
13565SOL     OW42135   5.424   3.165   4.319
13565SOL    HW142136   5.506   3.148   4.366
13565SOL    HW242137   5.378   3.228   4.374
13566SOL     OW42138   5.107   2.439   3.798
13566SOL    HW142139   5.038   2.418   3.861
13566SOL    HW242140   5.186   2.397   3.833
13567SOL     OW42141   4.222   2.107   4.007
13567SOL    HW142142   4.296   2.076   3.954
13567SOL    HW242143   4.208   2.198   3.977
13568SOL     OW42144   5.499   3.083   5.287
13568SOL    HW142145   5.535   3.038   5.364
13568SOL    HW242146   5.514   3.176   5.305
13569SOL     OW42147   4.780   3.188   5.034
13569SOL    HW142148   4.697   3.166   5.077
13569SOL    HW242149   4.827   3.241   5.098
13570SOL     OW42150   5.378   3.457   5.364
13570SOL    HW142151   5.321   3.499   5.300
13570SOL    HW242152   5.320   3.429   5.435
13571SOL     OW42153   4.843   3.015   4.835
13571SOL    HW142154   4.809   3.076   4.900
13571SOL    HW242155   4.825   3.057   4.751
13572SOL     OW42156   5.337   2.974   4.795
13572SOL    HW142157   5.336   3.037   4.868
13572SOL    HW242158   5.270   3.005   4.735
13573SOL     OW42159   4.647   1.946   5.120
13573SOL    HW142160   4.671   1.936   5.027
13573SOL    HW242161   4.724   1.987   5.160
13574SOL     OW42162   4.699   3.000   5.467
13574SOL    HW142163   4.618   3.030   5.510
13574SOL    HW242164   4.671   2.926   5.413
13575SOL     OW42165   4.400   2.923   4.100
13575SOL    HW142166   4.320   2.962   4.135
13575SOL    HW242167   4.433   2.869   4.171
13576SOL     OW42168   4.153   2.673   4.975
13576SOL    HW142169   4.215   2.685   5.047
13576SOL    HW242170   4.112   2.588   4.993
13577SOL     OW42171   4.992   2.271   4.970
13577SOL    HW142172   5.016   2.322   5.047
13577SOL    HW242173   4.896   2.272   4.970
13578SOL     OW42174   3.786   3.402   5.031
13578SOL    HW142175   3.750   3.490   5.015
13578SOL    HW242176   3.880   3.415   5.035
13579SOL     OW42177   4.279   2.376   4.569
13579SOL    HW142178   4.287   2.444   4.501
13579SOL    HW242179   4.332   2.409   4.641
13580SOL     OW42180   4.958   3.204   4.124
13580SOL    HW142181   5.015   3.277   4.148
13580SOL    HW242182   4.891   3.202   4.191
13581SOL     OW42183   5.020   3.298   4.871
13581SOL    HW142184   5.006   3.260   4.957
13581SOL    HW242185   4.932   3.313   4.837
13582SOL     OW42186   5.302   2.496   4.199
13582SOL    HW142187   5.250   2.517   4.277
13582SOL    HW242188   5.352   2.575   4.182
13583SOL     OW42189   4.066   3.403   5.023
13583SOL    HW142190   4.057   3.350   4.944
13583SOL    HW242191   4.160   3.410   5.037
13584SOL     OW42192   4.141   2.606   5.326
13584SOL    HW142193   4.206   2.651   5.273
13584SOL    HW242194   4.177   2.518   5.338
13585SOL     OW42195   5.356   2.648   5.407
13585SOL    HW142196   5.266   2.678   5.402
13585SOL    HW242197   5.400   2.690   5.333
13586SOL     OW42198   4.717   2.002   5.483
13586SOL    HW142199   4.778   2.074   5.468
13586SOL    HW242200   4.765   1.924   5.455
13587SOL     OW42201   4.219   1.890   5.479
13587SOL    HW142202   4.172   1.845   5.408
13587SOL    HW242203   4.161   1.963   5.503
13588SOL     OW42204   4.310   2.729   4.760
13588SOL    HW142205   4.340   2.820   4.765
13588SOL    HW242206   4.250   2.720   4.834
13589SOL     OW42207   5.055   2.617   4.749
13589SOL    HW142208   4.967   2.626   4.715
13589SOL    HW242209   5.063   2.688   4.814
13590SOL     OW42210   4.912   2.393   3.981
13590SOL    HW142211   4.928   2.314   4.032
13590SOL    HW242212   4.867   2.452   4.041
13591SOL     OW42213   3.759   3.126   5.033
13591SOL    HW142214   3.785   3.103   5.123
13591SOL    HW242215   3.750   3.221   5.035
13592SOL     OW42216   4.432   2.487   4.765
13592SOL    HW142217   4.518   2.502   4.725
13592SOL    HW242218   4.392   2.574   4.766
13593SOL     OW42219   5.501   2.795   5.594
13593SOL    HW142220   5.452   2.738   5.534
13593SOL    HW242221   5.434   2.830   5.653
13594SOL     OW42222   4.036   1.921   4.344
13594SOL    HW142223   4.009   2.011   4.362
13594SOL    HW242224   4.042   1.880   4.431
13595SOL     OW42225   5.362   2.254   4.079
13595SOL    HW142226   5.380   2.183   4.141
13595SOL    HW242227   5.330   2.326   4.133
13596SOL     OW42228   4.781   2.610   4.687
13596SOL    HW142229   4.759   2.632   4.777
13596SOL    HW242230   4.743   2.524   4.672
13597SOL     OW42231   4.721   3.428   5.442
13597SOL    HW142232   4.680   3.472   5.367
13597SOL    HW242233   4.647   3.398   5.495
13598SOL     OW42234   5.622   3.337   5.322
13598SOL    HW142235   5.561   3.388   5.268
13598SOL    HW242236   5.601   3.362   5.412
13599SOL     OW42237   4.110   2.740   5.575
13599SOL    HW142238   4.196   2.783   5.576
13599SOL    HW242239   4.103   2.704   5.487
13600SOL     OW42240   5.249   2.149   3.849
13600SOL    HW142241   5.194   2.075   3.874
13600SOL    HW242242   5.287   2.179   3.931
13601SOL     OW42243   4.972   2.683   3.726
13601SOL    HW142244   5.021   2.603   3.746
13601SOL    HW242245   5.019   2.721   3.651
13602SOL     OW42246   4.862   3.123   4.577
13602SOL    HW142247   4.787   3.100   4.523
13602SOL    HW242248   4.843   3.211   4.610
13603SOL     OW42249   4.053   2.642   4.634
13603SOL    HW142250   4.130   2.695   4.653
13603SOL    HW242251   4.044   2.584   4.710
13604SOL     OW42252   4.063   2.372   4.748
13604SOL    HW142253   4.016   2.292   4.725
13604SOL    HW242254   4.129   2.381   4.679
13605SOL     OW42255   4.857   2.242   5.406
13605SOL    HW142256   4.807   2.293   5.471
13605SOL    HW242257   4.945   2.278   5.411
13606SOL     OW42258   4.884   2.070   5.192
13606SOL    HW142259   4.873   2.125   5.270
13606SOL    HW242260   4.884   2.131   5.119
13607SOL     OW42261   3.806   3.650   4.651
13607SOL    HW142262   3.781   3.569   4.606
13607SOL    HW242263   3.897   3.665   4.626
13608SOL     OW42264   4.206   3.433   4.617
13608SOL    HW142265   4.300   3.448   4.625
13608SOL    HW242266   4.198   3.365   4.550
13609SOL     OW42267   4.716   2.649   4.942
13609SOL    HW142268   4.754   2.610   5.021
13609SOL    HW242269   4.647   2.706   4.975
13610SOL     OW42270   3.757   2.402   4.834
13610SOL    HW142271   3.838   2.414   4.783
13610SOL    HW242272   3.785   2.414   4.925
13611SOL     OW42273   3.912   2.367   5.454
13611SOL    HW142274   3.918   2.298   5.387
13611SOL    HW242275   3.892   2.446   5.404
13612SOL     OW42276   5.120   2.777   5.371
13612SOL    HW142277   5.147   2.869   5.372
13612SOL    HW242278   5.047   2.774   5.310
13613SOL     OW42279   4.561   2.466   4.027
13613SOL    HW142280   4.544   2.372   4.016
13613SOL    HW242281   4.474   2.506   4.028
13614SOL     OW42282   5.330   2.427   4.886
13614SOL    HW142283   5.339   2.387   4.973
13614SOL    HW242284   5.417   2.422   4.848
13615SOL     OW42285   4.445   2.307   4.971
13615SOL    HW142286   4.379   2.239   4.957
13615SOL    HW242287   4.429   2.371   4.901
13616SOL     OW42288   4.710   3.539   5.164
13616SOL    HW142289   4.656   3.497   5.097
13616SOL    HW242290   4.676   3.628   5.170
13617SOL     OW42291   4.197   2.351   3.882
13617SOL    HW142292   4.247   2.419   3.927
13617SOL    HW242293   4.108   2.387   3.875
13618SOL     OW42294   5.050   2.863   4.903
13618SOL    HW142295   5.108   2.923   4.856
13618SOL    HW242296   4.963   2.901   4.895
13619SOL     OW42297   5.033   2.730   4.025
13619SOL    HW142298   4.981   2.725   4.106
13619SOL    HW242299   5.004   2.655   3.973
13620SOL     OW42300   5.510   3.584   4.874
13620SOL    HW142301   5.536   3.631   4.795
13620SOL    HW242302   5.452   3.514   4.842
13621SOL     OW42303   5.075   3.616   4.852
13621SOL    HW142304   5.010   3.686   4.860
13621SOL    HW242305   5.029   3.537   4.881
13622SOL     OW42306   3.814   3.131   4.765
13622SOL    HW142307   3.804   3.122   4.860
13622SOL    HW242308   3.737   3.182   4.738
13623SOL     OW42309   4.448   3.573   5.396
13623SOL    HW142310   4.375   3.605   5.450
13623SOL    HW242311   4.419   3.587   5.306
13624SOL     OW42312   5.451   2.024   4.230
13624SOL    HW142313   5.513   1.993   4.164
13624SOL    HW242314   5.424   1.945   4.276
13625SOL     OW42315   5.122   3.416   4.182
13625SOL    HW142316   5.163   3.463   4.110
13625SOL    HW242317   5.069   3.482   4.227
13626SOL     OW42318   5.000   2.782   4.366
13626SOL    HW142319   5.076   2.727   4.384
13626SOL    HW242320   5.036   2.865   4.336
13627SOL     OW42321   4.530   3.133   5.129
13627SOL    HW142322   4.508   3.178   5.211
13627SOL    HW242323   4.458   3.155   5.070
13628SOL     OW42324   5.473   3.663   5.137
13628SOL    HW142325   5.453   3.628   5.051
13628SOL    HW242326   5.400   3.721   5.158
13629SOL     OW42327   5.507   2.009   4.728
13629SOL    HW142328   5.598   2.020   4.700
13629SOL    HW242329   5.457   2.014   4.647
13630SOL     OW42330   3.981   2.176   4.416
13630SOL    HW142331   3.898   2.203   4.376
13630SOL    HW242332   3.963   2.176   4.510
13631SOL     OW42333   4.930   3.458   3.758
13631SOL    HW142334   4.921   3.370   3.794
13631SOL    HW242335   4.862   3.462   3.691
13632SOL     OW42336   4.554   2.869   5.069
13632SOL    HW142337   4.530   2.886   4.978
13632SOL    HW242338   4.550   2.954   5.111
13633SOL     OW42339   4.718   2.788   4.017
13633SOL    HW142340   4.685   2.849   4.083
13633SOL    HW242341   4.718   2.703   4.061
13634SOL     OW42342   5.202   3.494   3.750
13634SOL    HW142343   5.107   3.490   3.740
13634SOL    HW242344   5.235   3.504   3.661
13635SOL     OW42345   4.078   3.116   5.135
13635SOL    HW142346   4.066   3.211   5.129
13635SOL    HW242347   3.997   3.084   5.175
13636SOL     OW42348   5.360   3.157   5.030
13636SOL    HW142349   5.363   3.106   5.111
13636SOL    HW242350   5.286   3.216   5.041
13637SOL     OW42351   4.752   2.941   4.359
13637SOL    HW142352   4.686   2.916   4.424
13637SOL    HW242353   4.828   2.886   4.380
13638SOL     OW42354   4.758   2.101   4.678
13638SOL    HW142355   4.754   2.049   4.597
13638SOL    HW242356   4.746   2.037   4.748
13639SOL     OW42357   5.444   2.266   5.096
13639SOL    HW142358   5.519   2.326   5.096
13639SOL    HW242359   5.478   2.187   5.053
13640SOL     OW42360   3.817   2.809   5.471
13640SOL    HW142361   3.768   2.827   5.551
13640SOL    HW242362   3.870   2.888   5.458
13641SOL     OW42363   4.405   2.049   5.221
13641SOL    HW142364   4.491   2.027   5.188
13641SOL    HW242365   4.421   2.087   5.308
13642SOL     OW42366   3.818   2.159   3.708
13642SOL    HW142367   3.769   2.141   3.788
13642SOL    HW242368   3.811   2.254   3.696
13643SOL     OW42369   5.152   2.688   5.084
13643SOL    HW142370   5.100   2.752   5.036
13643SOL    HW242371   5.241   2.723   5.083
13644SOL     OW42372   3.782   2.023   4.015
13644SOL    HW142373   3.756   2.089   4.079
13644SOL    HW242374   3.877   2.018   4.023
13645SOL     OW42375   4.897   3.189   3.849
13645SOL    HW142376   4.801   3.190   3.840
13645SOL    HW242377   4.913   3.190   3.943
13646SOL     OW42378   4.351   2.688   5.165
13646SOL    HW142379   4.399   2.769   5.152
13646SOL    HW242380   4.418   2.621   5.173
13647SOL     OW42381   5.286   3.629   4.673
13647SOL    HW142382   5.268   3.715   4.635
13647SOL    HW242383   5.212   3.612   4.731
13648SOL     OW42384   4.446   2.421   5.420
13648SOL    HW142385   4.484   2.481   5.484
13648SOL    HW242386   4.456   2.334   5.461
13649SOL     OW42387   5.215   3.030   5.373
13649SOL    HW142388   5.174   3.051   5.457
13649SOL    HW242389   5.282   3.097   5.361
13650SOL     OW42390   4.104   3.596   5.297
13650SOL    HW142391   4.023   3.647   5.289
13650SOL    HW242392   4.075   3.505   5.296
13651SOL     OW42393   5.409   2.754   4.969
13651SOL    HW142394   5.390   2.670   4.927
13651SOL    HW242395   5.385   2.819   4.902
13652SOL     OW42396   4.953   2.193   4.170
13652SOL    HW142397   5.006   2.114   4.168
13652SOL    HW242398   4.977   2.237   4.251
13653SOL     OW42399   4.336   2.577   4.376
13653SOL    HW142400   4.360   2.670   4.385
13653SOL    HW242401   4.253   2.579   4.328
13654SOL     OW42402   5.475   2.220   5.365
13654SOL    HW142403   5.451   2.240   5.274
13654SOL    HW242404   5.408   2.159   5.395
13655SOL     OW42405   5.499   2.798   5.223
13655SOL    HW142406   5.475   2.889   5.237
13655SOL    HW242407   5.474   2.780   5.132
13656SOL     OW42408   4.622   3.234   3.759
13656SOL    HW142409   4.586   3.208   3.843
13656SOL    HW242410   4.573   3.312   3.735
13657SOL     OW42411   4.403   3.654   4.686
13657SOL    HW142412   4.382   3.705   4.765
13657SOL    HW242413   4.464   3.587   4.716
13658SOL     OW42414   4.610   2.833   4.580
13658SOL    HW142415   4.662   2.766   4.624
13658SOL    HW242416   4.559   2.874   4.649
13659SOL     OW42417   5.558   3.407   4.574
13659SOL    HW142418   5.474   3.406   4.528
13659SOL    HW242419   5.539   3.371   4.660
13660SOL     OW42420   3.816   3.073   4.424
13660SOL    HW142421   3.863   3.014   4.483
13660SOL    HW242422   3.872   3.150   4.416
13661SOL     OW42423   4.426   3.268   5.333
13661SOL    HW142424   4.357   3.208   5.360
13661SOL    HW242425   4.443   3.321   5.411
13662SOL     OW42426   5.551   2.044   4.991
13662SOL    HW142427   5.549   1.951   5.013
13662SOL    HW242428   5.543   2.046   4.895
13663SOL     OW42429   4.170   2.281   4.245
13663SOL    HW142430   4.164   2.207   4.185
13663SOL    HW242431   4.114   2.257   4.319
13664SOL     OW42432   5.442   3.320   4.816
13664SOL    HW142433   5.360   3.310   4.766
13664SOL    HW242434   5.424   3.277   4.899
13665SOL     OW42435   4.060   2.420   5.020
13665SOL    HW142436   4.112   2.359   5.073
13665SOL    HW242437   4.068   2.386   4.931
13666SOL     OW42438   5.163   2.096   4.832
13666SOL    HW142439   5.189   2.008   4.860
13666SOL    HW242440   5.107   2.127   4.902
13667SOL     OW42441   4.737   1.888   4.858
13667SOL    HW142442   4.676   1.823   4.824
13667SOL    HW242443   4.822   1.844   4.854
13668SOL     OW42444   4.536   3.149   3.993
13668SOL    HW142445   4.495   3.070   4.029
13668SOL    HW242446   4.506   3.220   4.051
13669SOL     OW42447   4.341   3.419   5.016
13669SOL    HW142448   4.336   3.501   5.065
13669SOL    HW242449   4.434   3.409   4.997
13670SOL     OW42450   5.103   1.912   3.884
13670SOL    HW142451   5.140   1.831   3.849
13670SOL    HW242452   5.011   1.891   3.903
13671SOL     OW42453   5.032   2.327   4.404
13671SOL    HW142454   4.976   2.405   4.402
13671SOL    HW242455   5.014   2.287   4.489
13672SOL     OW42456   5.280   2.057   4.575
13672SOL    HW142457   5.251   2.078   4.664
13672SOL    HW242458   5.291   2.143   4.534
13673SOL     OW42459   3.930   2.463   5.711
13673SOL    HW142460   3.920   2.558   5.717
13673SOL    HW242461   3.940   2.446   5.617
13674SOL     OW42462   3.945   2.144   6.577
13674SOL    HW142463   3.975   2.116   6.664
13674SOL    HW242464   3.853   2.116   6.574
13675SOL     OW42465   3.733   2.244   6.230
13675SOL    HW142466   3.647   2.264   6.267
13675SOL    HW242467   3.715   2.181   6.161
13676SOL     OW42468   5.293   3.390   6.296
13676SOL    HW142469   5.258   3.357   6.378
13676SOL    HW242470   5.217   3.397   6.238
13677SOL     OW42471   4.870   2.545   6.296
13677SOL    HW142472   4.922   2.623   6.280
13677SOL    HW242473   4.815   2.568   6.371
13678SOL     OW42474   5.525   2.430   5.799
13678SOL    HW142475   5.488   2.430   5.711
13678SOL    HW242476   5.464   2.378   5.851
13679SOL     OW42477   4.467   3.009   6.629
13679SOL    HW142478   4.385   3.038   6.668
13679SOL    HW242479   4.498   3.085   6.579
13680SOL     OW42480   4.562   2.627   7.415
13680SOL    HW142481   4.510   2.693   7.461
13680SOL    HW242482   4.589   2.671   7.334
13681SOL     OW42483   4.410   2.850   6.239
13681SOL    HW142484   4.479   2.857   6.305
13681SOL    HW242485   4.340   2.907   6.272
13682SOL     OW42486   5.204   3.356   6.923
13682SOL    HW142487   5.262   3.431   6.929
13682SOL    HW242488   5.135   3.372   6.988
13683SOL     OW42489   4.176   2.254   7.079
13683SOL    HW142490   4.246   2.189   7.077
13683SOL    HW242491   4.095   2.203   7.086
13684SOL     OW42492   5.318   2.295   6.316
13684SOL    HW142493   5.232   2.289   6.274
13684SOL    HW242494   5.325   2.387   6.343
13685SOL     OW42495   3.947   3.196   6.161
13685SOL    HW142496   4.028   3.247   6.161
13685SOL    HW242497   3.886   3.247   6.214
13686SOL     OW42498   3.943   2.945   6.499
13686SOL    HW142499   3.975   2.855   6.495
13686SOL    HW242500   3.934   2.964   6.592
13687SOL     OW42501   4.381   2.816   5.696
13687SOL    HW142502   4.410   2.892   5.645
13687SOL    HW242503   4.398   2.840   5.787
13688SOL     OW42504   5.324   1.974   7.068
13688SOL    HW142505   5.362   2.055   7.034
13688SOL    HW242506   5.289   1.998   7.154
13689SOL     OW42507   3.822   2.515   6.149
13689SOL    HW142508   3.821   2.425   6.181
13689SOL    HW242509   3.820   2.569   6.228
13690SOL     OW42510   5.583   3.608   5.897
13690SOL    HW142511   5.623   3.583   5.980
13690SOL    HW242512   5.598   3.703   5.892
13691SOL     OW42513   5.396   2.799   6.207
13691SOL    HW142514   5.458   2.731   6.180
13691SOL    HW242515   5.324   2.792   6.144
13692SOL     OW42516   5.419   3.015   5.973
13692SOL    HW142517   5.370   3.096   5.960
13692SOL    HW242518   5.411   2.996   6.067
13693SOL     OW42519   3.854   2.591   7.176
13693SOL    HW142520   3.944   2.621   7.164
13693SOL    HW242521   3.810   2.664   7.219
13694SOL     OW42522   4.985   3.095   7.023
13694SOL    HW142523   5.013   3.037   6.953
13694SOL    HW242524   5.053   3.086   7.090
13695SOL     OW42525   4.543   1.861   6.117
13695SOL    HW142526   4.585   1.940   6.083
13695SOL    HW242527   4.450   1.880   6.114
13696SOL     OW42528   3.885   2.817   6.776
13696SOL    HW142529   3.970   2.776   6.793
13696SOL    HW242530   3.858   2.853   6.860
13697SOL     OW42531   5.307   2.868   5.767
13697SOL    HW142532   5.246   2.805   5.805
13697SOL    HW242533   5.340   2.918   5.842
13698SOL     OW42534   4.037   2.107   7.404
13698SOL    HW142535   4.044   2.201   7.387
13698SOL    HW242536   3.947   2.095   7.436
13699SOL     OW42537   5.222   3.265   6.524
13699SOL    HW142538   5.154   3.291   6.585
13699SOL    HW242539   5.200   3.175   6.499
13700SOL     OW42540   5.386   3.617   6.150
13700SOL    HW142541   5.346   3.588   6.068
13700SOL    HW242542   5.365   3.548   6.213
13701SOL     OW42543   4.326   2.570   5.849
13701SOL    HW142544   4.344   2.648   5.798
13701SOL    HW242545   4.266   2.599   5.918
13702SOL     OW42546   5.016   2.214   6.531
13702SOL    HW142547   4.922   2.195   6.528
13702SOL    HW242548   5.049   2.157   6.600
13703SOL     OW42549   5.311   3.526   5.893
13703SOL    HW142550   5.400   3.558   5.875
13703SOL    HW242551   5.271   3.517   5.807
13704SOL     OW42552   4.453   2.483   7.037
13704SOL    HW142553   4.470   2.436   7.119
13704SOL    HW242554   4.442   2.414   6.972
13705SOL     OW42555   5.140   2.317   7.268
13705SOL    HW142556   5.124   2.394   7.322
13705SOL    HW242557   5.139   2.349   7.178
13706SOL     OW42558   4.651   2.720   7.163
13706SOL    HW142559   4.706   2.643   7.145
13706SOL    HW242560   4.633   2.756   7.076
13707SOL     OW42561   4.733   2.253   6.830
13707SOL    HW142562   4.695   2.313   6.894
13707SOL    HW242563   4.675   2.260   6.753
13708SOL     OW42564   4.770   2.536   6.021
13708SOL    HW142565   4.789   2.535   6.114
13708SOL    HW242566   4.682   2.499   6.014
13709SOL     OW42567   3.787   2.673   6.374
13709SOL    HW142568   3.875   2.676   6.410
13709SOL    HW242569   3.739   2.741   6.421
13710SOL     OW42570   3.833   3.759   7.165
13710SOL    HW142571   3.821   3.726   7.254
13710SOL    HW242572   3.801   3.689   7.109
13711SOL     OW42573   4.624   2.214   5.786
13711SOL    HW142574   4.664   2.280   5.730
13711SOL    HW242575   4.620   2.135   5.733
13712SOL     OW42576   5.420   2.461   7.406
13712SOL    HW142577   5.389   2.548   7.384
13712SOL    HW242578   5.375   2.403   7.345
13713SOL     OW42579   5.106   2.997   6.140
13713SOL    HW142580   5.126   2.924   6.081
13713SOL    HW242581   5.076   3.068   6.082
13714SOL     OW42582   4.269   2.030   6.480
13714SOL    HW142583   4.273   2.068   6.568
13714SOL    HW242584   4.271   2.105   6.422
13715SOL     OW42585   5.523   2.899   6.432
13715SOL    HW142586   5.455   2.882   6.366
13715SOL    HW242587   5.475   2.923   6.511
13716SOL     OW42588   4.988   3.385   7.079
13716SOL    HW142589   4.968   3.293   7.092
13716SOL    HW242590   4.920   3.416   7.019
13717SOL     OW42591   4.081   2.785   5.844
13717SOL    HW142592   4.172   2.811   5.847
13717SOL    HW242593   4.066   2.759   5.753
13718SOL     OW42594   5.279   2.564   6.336
13718SOL    HW142595   5.217   2.553   6.409
13718SOL    HW242596   5.274   2.657   6.314
13719SOL     OW42597   3.921   2.156   7.083
13719SOL    HW142598   3.861   2.227   7.062
13719SOL    HW242599   3.888   2.122   7.167
13720SOL     OW42600   5.360   3.242   5.645
13720SOL    HW142601   5.317   3.327   5.647
13720SOL    HW242602   5.288   3.178   5.644
13721SOL     OW42603   5.108   1.957   6.021
13721SOL    HW142604   5.092   1.923   5.933
13721SOL    HW242605   5.199   1.987   6.020
13722SOL     OW42606   4.134   2.554   6.064
13722SOL    HW142607   4.134   2.459   6.074
13722SOL    HW242608   4.042   2.578   6.059
13723SOL     OW42609   5.257   2.076   7.320
13723SOL    HW142610   5.261   2.084   7.415
13723SOL    HW242611   5.202   2.149   7.291
13724SOL     OW42612   4.377   1.975   5.688
13724SOL    HW142613   4.428   1.896   5.708
13724SOL    HW242614   4.316   1.947   5.620
13725SOL     OW42615   4.483   2.102   7.369
13725SOL    HW142616   4.574   2.074   7.356
13725SOL    HW242617   4.484   2.196   7.349
13726SOL     OW42618   4.689   3.360   6.746
13726SOL    HW142619   4.597   3.385   6.732
13726SOL    HW242620   4.686   3.295   6.816
13727SOL     OW42621   5.108   2.446   7.024
13727SOL    HW142622   5.017   2.459   7.051
13727SOL    HW242623   5.141   2.534   7.006
13728SOL     OW42624   4.537   3.245   6.502
13728SOL    HW142625   4.631   3.234   6.486
13728SOL    HW242626   4.520   3.337   6.481
13729SOL     OW42627   4.658   2.367   6.487
13729SOL    HW142628   4.629   2.361   6.396
13729SOL    HW242629   4.692   2.280   6.507
13730SOL     OW42630   4.278   1.920   6.082
13730SOL    HW142631   4.193   1.919   6.126
13730SOL    HW242632   4.275   1.997   6.025
13731SOL     OW42633   5.153   3.069   5.632
13731SOL    HW142634   5.168   2.990   5.685
13731SOL    HW242635   5.065   3.098   5.656
13732SOL     OW42636   4.009   1.938   5.821
13732SOL    HW142637   4.031   1.973   5.734
13732SOL    HW242638   4.071   1.867   5.835
13733SOL     OW42639   4.666   2.103   6.043
13733SOL    HW142640   4.636   2.142   5.961
13733SOL    HW242641   4.759   2.124   6.047
13734SOL     OW42642   4.986   3.392   6.386
13734SOL    HW142643   4.916   3.432   6.334
13734SOL    HW242644   4.991   3.446   6.465
13735SOL     OW42645   4.184   2.975   6.337
13735SOL    HW142646   4.106   2.998   6.388
13735SOL    HW242647   4.152   2.968   6.247
13736SOL     OW42648   4.749   2.397   5.612
13736SOL    HW142649   4.703   2.480   5.595
13736SOL    HW242650   4.812   2.419   5.681
13737SOL     OW42651   3.806   2.406   6.979
13737SOL    HW142652   3.897   2.415   6.950
13737SOL    HW242653   3.795   2.474   7.045
13738SOL     OW42654   4.277   2.085   6.751
13738SOL    HW142655   4.309   2.004   6.791
13738SOL    HW242656   4.185   2.092   6.780
13739SOL     OW42657   4.585   2.311   6.227
13739SOL    HW142658   4.542   2.370   6.165
13739SOL    HW242659   4.612   2.236   6.175
13740SOL     OW42660   4.744   1.918   6.332
13740SOL    HW142661   4.688   1.928   6.254
13740SOL    HW242662   4.709   1.842   6.377
13741SOL     OW42663   5.175   3.007   6.436
13741SOL    HW142664   5.099   2.949   6.442
13741SOL    HW242665   5.187   3.021   6.342
13742SOL     OW42666   5.150   2.465   6.565
13742SOL    HW142667   5.100   2.383   6.557
13742SOL    HW242668   5.215   2.446   6.632
13743SOL     OW42669   5.618   2.642   5.942
13743SOL    HW142670   5.653   2.604   6.023
13743SOL    HW242671   5.554   2.578   5.911
13744SOL     OW42672   5.398   3.138   6.224
13744SOL    HW142673   5.489   3.146   6.253
13744SOL    HW242674   5.357   3.220   6.251
13745SOL     OW42675   5.126   2.424   5.661
13745SOL    HW142676   5.056   2.423   5.726
13745SOL    HW242677   5.187   2.357   5.691
13746SOL     OW42678   4.270   2.126   5.903
13746SOL    HW142679   4.311   2.078   5.831
13746SOL    HW242680   4.236   2.206   5.862
13747SOL     OW42681   5.435   3.123   7.171
13747SOL    HW142682   5.480   3.041   7.191
13747SOL    HW242683   5.499   3.191   7.192
13748SOL     OW42684   4.726   3.169   6.948
13748SOL    HW142685   4.702   3.233   7.014
13748SOL    HW242686   4.813   3.138   6.975
13749SOL     OW42687   5.353   3.489   7.246
13749SOL    HW142688   5.337   3.523   7.158
13749SOL    HW242689   5.428   3.431   7.235
13750SOL     OW42690   4.860   3.084   6.703
13750SOL    HW142691   4.785   3.111   6.757
13750SOL    HW242692   4.837   3.114   6.615
13751SOL     OW42693   5.358   2.958   6.651
13751SOL    HW142694   5.346   3.017   6.725
13751SOL    HW242695   5.288   2.980   6.590
13752SOL     OW42696   4.660   1.931   6.981
13752SOL    HW142697   4.668   1.928   6.886
13752SOL    HW242698   4.734   1.985   7.010
13753SOL     OW42699   4.656   2.920   7.341
13753SOL    HW142700   4.571   2.960   7.358
13753SOL    HW242701   4.643   2.864   7.266
13754SOL     OW42702   4.413   2.866   5.959
13754SOL    HW142703   4.402   2.870   6.054
13754SOL    HW242704   4.503   2.838   5.946
13755SOL     OW42705   4.129   2.691   6.836
13755SOL    HW142706   4.198   2.709   6.900
13755SOL    HW242707   4.098   2.603   6.858
13756SOL     OW42708   4.999   2.222   6.873
13756SOL    HW142709   5.035   2.303   6.908
13756SOL    HW242710   4.908   2.243   6.851
13757SOL     OW42711   3.809   3.592   6.945
13757SOL    HW142712   3.779   3.604   6.855
13757SOL    HW242713   3.905   3.584   6.938
13758SOL     OW42714   4.076   2.938   6.088
13758SOL    HW142715   4.068   3.028   6.054
13758SOL    HW242716   4.069   2.883   6.010
13759SOL     OW42717   4.266   2.389   6.449
13759SOL    HW142718   4.278   2.449   6.375
13759SOL    HW242719   4.335   2.413   6.511
13760SOL     OW42720   5.003   3.199   5.983
13760SOL    HW142721   5.046   3.283   6.001
13760SOL    HW242722   4.923   3.202   6.035
13761SOL     OW42723   5.027   3.324   6.710
13761SOL    HW142724   5.083   3.318   6.788
13761SOL    HW242725   4.964   3.252   6.721
13762SOL     OW42726   5.341   2.484   6.076
13762SOL    HW142727   5.322   2.500   6.168
13762SOL    HW242728   5.288   2.549   6.029
13763SOL     OW42729   4.129   2.622   7.172
13763SOL    HW142730   4.191   2.674   7.121
13763SOL    HW242731   4.179   2.546   7.200
13764SOL     OW42732   5.292   2.626   7.242
13764SOL    HW142733   5.214   2.680   7.234
13764SOL    HW242734   5.364   2.682   7.213
13765SOL     OW42735   4.741   1.993   7.375
13765SOL    HW142736   4.791   2.072   7.354
13765SOL    HW242737   4.782   1.924   7.324
13766SOL     OW42738   4.188   1.879   7.362
13766SOL    HW142739   4.151   1.842   7.282
13766SOL    HW242740   4.144   1.963   7.372
13767SOL     OW42741   4.322   2.723   6.629
13767SOL    HW142742   4.337   2.813   6.600
13767SOL    HW242743   4.249   2.730   6.691
13768SOL     OW42744   5.066   2.722   6.607
13768SOL    HW142745   4.986   2.722   6.554
13768SOL    HW242746   5.100   2.633   6.599
13769SOL     OW42747   4.921   2.394   5.840
13769SOL    HW142748   4.922   2.316   5.896
13769SOL    HW242749   4.885   2.462   5.896
13770SOL     OW42750   4.018   2.075   6.835
13770SOL    HW142751   3.986   2.115   6.916
13770SOL    HW242752   3.997   1.982   6.844
13771SOL     OW42753   4.443   2.480   6.640
13771SOL    HW142754   4.521   2.478   6.584
13771SOL    HW242755   4.411   2.570   6.633
13772SOL     OW42756   5.425   2.780   7.510
13772SOL    HW142757   5.462   2.768   7.422
13772SOL    HW242758   5.385   2.867   7.508
13773SOL     OW42759   4.026   1.906   6.206
13773SOL    HW142760   4.007   1.999   6.223
13773SOL    HW242761   4.040   1.869   6.293
13774SOL     OW42762   5.370   2.247   5.958
13774SOL    HW142763   5.388   2.181   6.025
13774SOL    HW242764   5.350   2.326   6.007
13775SOL     OW42765   4.744   2.618   6.556
13775SOL    HW142766   4.746   2.623   6.652
13775SOL    HW242767   4.721   2.527   6.537
13776SOL     OW42768   5.597   3.353   7.196
13776SOL    HW142769   5.605   3.397   7.111
13776SOL    HW242770   5.683   3.366   7.237
13777SOL     OW42771   4.121   2.737   7.433
13777SOL    HW142772   4.167   2.820   7.420
13777SOL    HW242773   4.095   2.709   7.345
13778SOL     OW42774   5.285   2.187   5.710
13778SOL    HW142775   5.253   2.098   5.720
13778SOL    HW242776   5.315   2.212   5.798
13779SOL     OW42777   5.003   2.689   5.602
13779SOL    HW142778   5.054   2.616   5.637
13779SOL    HW242779   5.052   2.717   5.525
13780SOL     OW42780   4.807   3.185   6.453
13780SOL    HW142781   4.805   3.118   6.385
13780SOL    HW242782   4.873   3.247   6.424
13781SOL     OW42783   4.037   2.680   6.498
13781SOL    HW142784   4.126   2.687   6.463
13781SOL    HW242785   4.041   2.605   6.558
13782SOL     OW42786   4.048   2.393   6.606
13782SOL    HW142787   4.012   2.306   6.588
13782SOL    HW242788   4.124   2.399   6.548
13783SOL     OW42789   4.879   2.212   7.293
13783SOL    HW142790   4.835   2.286   7.251
13783SOL    HW242791   4.971   2.239   7.299
13784SOL     OW42792   4.896   2.051   7.068
13784SOL    HW142793   4.882   2.116   7.137
13784SOL    HW242794   4.932   2.100   6.995
13785SOL     OW42795   4.714   2.599   6.834
13785SOL    HW142796   4.771   2.571   6.906
13785SOL    HW242797   4.626   2.598   6.871
13786SOL     OW42798   3.764   2.399   6.699
13786SOL    HW142799   3.845   2.418   6.650
13786SOL    HW242800   3.789   2.408   6.791
13787SOL     OW42801   3.975   2.378   7.302
13787SOL    HW142802   4.030   2.357   7.227
13787SOL    HW242803   3.917   2.448   7.271
13788SOL     OW42804   5.082   2.798   7.246
13788SOL    HW142805   5.110   2.890   7.239
13788SOL    HW242806   5.057   2.774   7.157
13789SOL     OW42807   4.525   2.418   5.969
13789SOL    HW142808   4.537   2.351   5.902
13789SOL    HW242809   4.457   2.475   5.934
13790SOL     OW42810   5.335   2.418   6.756
13790SOL    HW142811   5.333   2.431   6.851
13790SOL    HW242812   5.427   2.405   6.736
13791SOL     OW42813   3.990   3.391   7.340
13791SOL    HW142814   3.917   3.391   7.402
13791SOL    HW242815   4.051   3.327   7.375
13792SOL     OW42816   4.426   2.301   6.839
13792SOL    HW142817   4.374   2.228   6.804
13792SOL    HW242818   4.427   2.365   6.769
13793SOL     OW42819   4.181   2.348   5.772
13793SOL    HW142820   4.238   2.422   5.792
13793SOL    HW242821   4.093   2.386   5.765
13794SOL     OW42822   5.034   2.902   6.811
13794SOL    HW142823   5.056   2.841   6.740
13794SOL    HW242824   4.974   2.965   6.771
13795SOL     OW42825   5.482   3.653   6.735
13795SOL    HW142826   5.539   3.679   6.662
13795SOL    HW242827   5.488   3.558   6.738
13796SOL     OW42828   5.005   3.599   6.743
13796SOL    HW142829   5.066   3.625   6.674
13796SOL    HW242830   4.994   3.505   6.731
13797SOL     OW42831   5.474   2.022   6.108
13797SOL    HW142832   5.531   2.008   6.033
13797SOL    HW242833   5.454   1.933   6.139
13798SOL     OW42834   5.119   3.437   6.071
13798SOL    HW142835   5.178   3.465   6.000
13798SOL    HW242836   5.040   3.490   6.059
13799SOL     OW42837   3.828   3.680   7.429
13799SOL    HW142838   3.807   3.594   7.465
13799SOL    HW242839   3.891   3.718   7.490
13800SOL     OW42840   5.018   2.766   6.258
13800SOL    HW142841   5.057   2.728   6.179
13800SOL    HW242842   5.028   2.860   6.247
13801SOL     OW42843   5.356   3.593   6.985
13801SOL    HW142844   5.398   3.602   6.900
13801SOL    HW242845   5.331   3.683   7.009
13802SOL     OW42846   5.562   2.036   6.555
13802SOL    HW142847   5.586   1.949   6.522
13802SOL    HW242848   5.477   2.053   6.516
13803SOL     OW42849   3.985   2.157   6.302
13803SOL    HW142850   3.904   2.201   6.279
13803SOL    HW242851   3.987   2.158   6.398
13804SOL     OW42852   4.962   3.451   5.577
13804SOL    HW142853   4.941   3.461   5.670
13804SOL    HW242854   4.877   3.446   5.534
13805SOL     OW42855   4.555   2.879   6.947
13805SOL    HW142856   4.577   2.882   6.854
13805SOL    HW242857   4.569   2.969   6.977
13806SOL     OW42858   4.658   2.769   5.906
13806SOL    HW142859   4.704   2.802   5.829
13806SOL    HW242860   4.712   2.696   5.937
13807SOL     OW42861   5.227   3.481   5.618
13807SOL    HW142862   5.134   3.458   5.616
13807SOL    HW242863   5.232   3.566   5.575
13808SOL     OW42864   5.324   3.109   6.881
13808SOL    HW142865   5.377   3.115   6.961
13808SOL    HW242866   5.280   3.195   6.875
13809SOL     OW42867   4.786   2.972   6.286
13809SOL    HW142868   4.715   2.930   6.334
13809SOL    HW242869   4.812   2.907   6.220
13810SOL     OW42870   4.759   2.106   6.538
13810SOL    HW142871   4.754   2.053   6.459
13810SOL    HW242872   4.742   2.045   6.609
13811SOL     OW42873   5.487   2.217   7.010
13811SOL    HW142874   5.536   2.296   6.987
13811SOL    HW242875   5.498   2.160   6.933
13812SOL     OW42876   3.823   2.811   7.350
13812SOL    HW142877   3.798   2.872   7.280
13812SOL    HW242878   3.874   2.864   7.411
13813SOL     OW42879   4.388   2.042   7.095
13813SOL    HW142880   4.471   2.059   7.050
13813SOL    HW242881   4.406   2.062   7.186
13814SOL     OW42882   3.767   2.208   5.647
13814SOL    HW142883   3.719   2.191   5.566
13814SOL    HW242884   3.825   2.281   5.627
13815SOL     OW42885   5.170   2.723   6.975
13815SOL    HW142886   5.117   2.782   6.920
13815SOL    HW242887   5.259   2.756   6.966
13816SOL     OW42888   3.769   2.050   5.879
13816SOL    HW142889   3.761   2.102   5.800
13816SOL    HW242890   3.856   2.010   5.873
13817SOL     OW42891   4.914   3.162   5.706
13817SOL    HW142892   4.818   3.158   5.704
13817SOL    HW242893   4.934   3.194   5.794
13818SOL     OW42894   4.333   2.721   7.015
13818SOL    HW142895   4.401   2.788   7.003
13818SOL    HW242896   4.381   2.639   7.025
13819SOL     OW42897   5.205   3.660   6.566
13819SOL    HW142898   5.248   3.709   6.495
13819SOL    HW242899   5.272   3.599   6.597
13820SOL     OW42900   4.503   2.372   7.297
13820SOL    HW142901   4.466   2.442   7.350
13820SOL    HW242902   4.592   2.402   7.276
13821SOL     OW42903   5.174   3.057   7.222
13821SOL    HW142904   5.174   3.074   7.317
13821SOL    HW242905   5.261   3.084   7.193
13822SOL     OW42906   4.077   3.607   7.207
13822SOL    HW142907   4.005   3.649   7.161
13822SOL    HW242908   4.039   3.528   7.245
13823SOL     OW42909   5.440   2.729   6.781
13823SOL    HW142910   5.374   2.667   6.749
13823SOL    HW242911   5.417   2.812   6.741
13824SOL     OW42912   4.933   2.179   6.043
13824SOL    HW142913   4.992   2.104   6.032
13824SOL    HW242914   4.970   2.228   6.116
13825SOL     OW42915   4.304   2.597   6.273
13825SOL    HW142916   4.348   2.680   6.259
13825SOL    HW242917   4.248   2.586   6.196
13826SOL     OW42918   5.492   2.213   7.280
13826SOL    HW142919   5.488   2.225   7.185
13826SOL    HW242920   5.418   2.155   7.300
13827SOL     OW42921   4.602   2.841   6.445
13827SOL    HW142922   4.646   2.767   6.486
13827SOL    HW242923   4.562   2.889   6.517
13828SOL     OW42924   4.789   2.843   5.683
13828SOL    HW142925   4.772   2.905   5.612
13828SOL    HW242926   4.866   2.793   5.654
13829SOL     OW42927   5.560   3.422   6.420
13829SOL    HW142928   5.475   3.405   6.381
13829SOL    HW242929   5.552   3.391   6.511
13830SOL     OW42930   3.936   3.050   7.445
13830SOL    HW142931   3.877   3.092   7.383
13830SOL    HW242932   3.992   3.120   7.477
13831SOL     OW42933   3.772   3.021   6.289
13831SOL    HW142934   3.839   2.999   6.354
13831SOL    HW242935   3.822   3.043   6.210
13832SOL     OW42936   5.542   2.029   6.825
13832SOL    HW142937   5.636   2.017   6.843
13832SOL    HW242938   5.538   2.042   6.730
13833SOL     OW42939   4.138   2.288   6.106
13833SOL    HW142940   4.184   2.226   6.050
13833SOL    HW242941   4.100   2.234   6.175
13834SOL     OW42942   4.057   2.423   6.883
13834SOL    HW142943   4.121   2.371   6.931
13834SOL    HW242944   4.075   2.403   6.791
13835SOL     OW42945   5.152   2.052   6.726
13835SOL    HW142946   5.234   2.055   6.775
13835SOL    HW242947   5.091   2.104   6.778
13836SOL     OW42948   4.728   1.869   6.710
13836SOL    HW142949   4.676   1.811   6.654
13836SOL    HW242950   4.816   1.831   6.707
13837SOL     OW42951   5.035   2.314   6.267
13837SOL    HW142952   4.984   2.395   6.263
13837SOL    HW242953   5.023   2.283   6.357
13838SOL     OW42954   5.306   2.073   6.472
13838SOL    HW142955   5.232   2.102   6.526
13838SOL    HW242956   5.317   2.143   6.407
13839SOL     OW42957   3.736   2.923   5.968
13839SOL    HW142958   3.783   2.967   5.897
13839SOL    HW242959   3.748   2.830   5.951
13840SOL     OW42960   3.942   2.438   7.573
13840SOL    HW142961   3.931   2.533   7.575
13840SOL    HW242962   3.949   2.416   7.480
13841SOL     OW42963   3.948   2.130   8.430
13841SOL    HW142964   3.973   2.109   8.520
13841SOL    HW242965   3.853   2.115   8.428
13842SOL     OW42966   3.709   2.221   8.084
13842SOL    HW142967   3.633   2.260   8.128
13842SOL    HW242968   3.706   2.256   7.995
13843SOL     OW42969   5.272   3.368   8.157
13843SOL    HW142970   5.207   3.372   8.228
13843SOL    HW242971   5.221   3.388   8.078
13844SOL     OW42972   4.881   2.541   8.167
13844SOL    HW142973   4.926   2.620   8.136
13844SOL    HW242974   4.830   2.571   8.243
13845SOL     OW42975   5.488   2.403   7.659
13845SOL    HW142976   5.444   2.441   7.583
13845SOL    HW242977   5.428   2.418   7.732
13846SOL     OW42978   4.582   2.629   9.278
13846SOL    HW142979   4.529   2.695   9.324
13846SOL    HW242980   4.611   2.673   9.198
13847SOL     OW42981   4.393   2.863   8.143
13847SOL    HW142982   4.456   2.897   8.206
13847SOL    HW242983   4.344   2.940   8.114
13848SOL     OW42984   4.410   3.039   9.265
13848SOL    HW142985   4.439   3.097   9.195
13848SOL    HW242986   4.317   3.026   9.249
13849SOL     OW42987   5.225   3.342   8.891
13849SOL    HW142988   5.179   3.414   8.848
13849SOL    HW242989   5.165   3.268   8.885
13850SOL     OW42990   4.187   2.205   8.988
13850SOL    HW142991   4.183   2.273   8.920
13850SOL    HW242992   4.099   2.166   8.987
13851SOL     OW42993   5.308   2.311   8.177
13851SOL    HW142994   5.220   2.297   8.144
13851SOL    HW242995   5.314   2.406   8.190
13852SOL     OW42996   3.953   3.570   7.920
13852SOL    HW142997   3.977   3.653   7.962
13852SOL    HW242998   4.026   3.550   7.862
13853SOL     OW42999   4.953   3.114   9.179
13853SOL    HW143000   4.943   3.166   9.259
13853SOL    HW243001   4.870   3.067   9.170
13854SOL     OW43002   3.891   3.300   7.996
13854SOL    HW143003   3.914   3.392   7.982
13854SOL    HW243004   3.801   3.302   8.028
13855SOL     OW43005   4.415   2.811   7.560
13855SOL    HW143006   4.409   2.890   7.507
13855SOL    HW243007   4.414   2.843   7.650
13856SOL     OW43008   5.342   1.976   8.918
13856SOL    HW143009   5.307   1.979   8.829
13856SOL    HW243010   5.306   2.055   8.960
13857SOL     OW43011   3.860   2.511   8.010
13857SOL    HW143012   3.809   2.438   8.043
13857SOL    HW243013   3.854   2.578   8.077
13858SOL     OW43014   5.591   3.628   7.795
13858SOL    HW143015   5.537   3.618   7.873
13858SOL    HW243016   5.592   3.722   7.777
13859SOL     OW43017   3.785   3.452   7.577
13859SOL    HW143018   3.765   3.361   7.597
13859SOL    HW243019   3.747   3.502   7.648
13860SOL     OW43020   5.434   2.786   8.073
13860SOL    HW143021   5.485   2.738   8.007
13860SOL    HW243022   5.392   2.856   8.023
13861SOL     OW43023   5.369   2.972   7.880
13861SOL    HW143024   5.454   2.974   7.836
13861SOL    HW243025   5.374   3.042   7.945
13862SOL     OW43026   3.851   2.667   9.092
13862SOL    HW143027   3.918   2.651   9.025
13862SOL    HW243028   3.773   2.692   9.043
13863SOL     OW43029   4.328   3.149   8.145
13863SOL    HW143030   4.249   3.157   8.198
13863SOL    HW243031   4.315   3.212   8.074
13864SOL     OW43032   5.078   3.108   8.883
13864SOL    HW143033   5.061   3.064   8.800
13864SOL    HW243034   5.002   3.087   8.937
13865SOL     OW43035   4.539   1.908   8.001
13865SOL    HW143036   4.593   1.972   7.956
13865SOL    HW243037   4.454   1.950   8.012
13866SOL     OW43038   3.901   2.775   8.782
13866SOL    HW143039   3.984   2.750   8.742
13866SOL    HW243040   3.839   2.781   8.709
13867SOL     OW43041   5.164   2.879   7.699
13867SOL    HW143042   5.172   2.804   7.640
13867SOL    HW243043   5.250   2.885   7.741
13868SOL     OW43044   4.043   2.127   9.287
13868SOL    HW143045   4.075   2.201   9.236
13868SOL    HW243046   3.952   2.150   9.308
13869SOL     OW43047   5.215   3.247   8.431
13869SOL    HW143048   5.139   3.275   8.483
13869SOL    HW243049   5.180   3.180   8.372
13870SOL     OW43050   5.410   3.571   8.002
13870SOL    HW143051   5.358   3.562   7.922
13870SOL    HW243052   5.361   3.521   8.068
13871SOL     OW43053   4.321   2.584   7.713
13871SOL    HW143054   4.336   2.658   7.654
13871SOL    HW243055   4.258   2.618   7.777
13872SOL     OW43056   5.032   2.214   8.428
13872SOL    HW143057   4.941   2.190   8.410
13872SOL    HW243058   5.046   2.188   8.519
13873SOL     OW43059   5.317   3.541   7.742
13873SOL    HW143060   5.401   3.577   7.715
13873SOL    HW243061   5.277   3.511   7.660
13874SOL     OW43062   4.522   2.484   8.895
13874SOL    HW143063   4.498   2.450   8.982
13874SOL    HW243064   4.487   2.419   8.834
13875SOL     OW43065   5.109   2.352   9.119
13875SOL    HW143066   5.111   2.394   9.205
13875SOL    HW243067   5.169   2.277   9.128
13876SOL     OW43068   4.687   2.748   9.045
13876SOL    HW143069   4.733   2.668   9.020
13876SOL    HW243070   4.655   2.784   8.962
13877SOL     OW43071   4.713   2.255   8.678
13877SOL    HW143072   4.623   2.274   8.704
13877SOL    HW243073   4.712   2.265   8.582
13878SOL     OW43074   4.787   2.501   7.890
13878SOL    HW143075   4.783   2.523   7.983
13878SOL    HW243076   4.696   2.487   7.865
13879SOL     OW43077   3.795   2.643   8.236
13879SOL    HW143078   3.876   2.662   8.282
13879SOL    HW243079   3.735   2.712   8.262
13880SOL     OW43080   4.642   2.199   7.640
13880SOL    HW143081   4.672   2.282   7.603
13880SOL    HW243082   4.623   2.144   7.564
13881SOL     OW43083   5.413   2.443   9.285
13881SOL    HW143084   5.380   2.513   9.228
13881SOL    HW243085   5.443   2.376   9.225
13882SOL     OW43086   5.105   2.987   7.988
13882SOL    HW143087   5.179   2.987   7.927
13882SOL    HW243088   5.053   3.063   7.963
13883SOL     OW43089   4.269   2.031   8.348
13883SOL    HW143090   4.274   2.068   8.436
13883SOL    HW243091   4.265   2.106   8.290
13884SOL     OW43092   4.742   3.325   7.939
13884SOL    HW143093   4.725   3.354   7.849
13884SOL    HW243094   4.675   3.368   7.991
13885SOL     OW43095   4.089   3.683   8.300
13885SOL    HW143096   4.126   3.596   8.314
13885SOL    HW243097   4.161   3.743   8.315
13886SOL     OW43098   5.536   2.914   8.306
13886SOL    HW143099   5.485   2.901   8.226
13886SOL    HW243100   5.471   2.922   8.376
13887SOL     OW43101   4.053   2.802   7.689
13887SOL    HW143102   4.071   2.895   7.677
13887SOL    HW243103   4.067   2.764   7.602
13888SOL     OW43104   5.267   2.580   8.166
13888SOL    HW143105   5.208   2.589   8.241
13888SOL    HW243106   5.313   2.664   8.161
13889SOL     OW43107   4.156   3.036   9.165
13889SOL    HW143108   4.158   3.062   9.073
13889SOL    HW243109   4.071   3.066   9.197
13890SOL     OW43110   3.905   2.094   8.993
13890SOL    HW143111   3.890   2.173   8.942
13890SOL    HW243112   3.844   2.100   9.067
13891SOL     OW43113   5.374   3.231   7.558
13891SOL    HW143114   5.340   3.318   7.539
13891SOL    HW243115   5.305   3.171   7.531
13892SOL     OW43116   4.203   3.558   7.793
13892SOL    HW143117   4.254   3.637   7.812
13892SOL    HW243118   4.242   3.522   7.713
13893SOL     OW43119   5.148   1.966   7.888
13893SOL    HW143120   5.126   1.939   7.799
13893SOL    HW243121   5.201   2.045   7.877
13894SOL     OW43122   4.642   3.529   8.348
13894SOL    HW143123   4.627   3.458   8.411
13894SOL    HW243124   4.608   3.495   8.265
13895SOL     OW43125   4.141   2.544   7.941
13895SOL    HW143126   4.154   2.451   7.955
13895SOL    HW243127   4.046   2.556   7.946
13896SOL     OW43128   5.248   2.111   9.178
13896SOL    HW143129   5.251   2.109   9.274
13896SOL    HW243130   5.186   2.042   9.154
13897SOL     OW43131   4.364   1.933   7.561
13897SOL    HW143132   4.420   1.995   7.514
13897SOL    HW243133   4.295   1.911   7.499
13898SOL     OW43134   4.475   2.144   9.266
13898SOL    HW143135   4.516   2.065   9.229
13898SOL    HW243136   4.385   2.140   9.236
13899SOL     OW43137   5.084   2.450   8.857
13899SOL    HW143138   5.089   2.429   8.950
13899SOL    HW243139   5.099   2.544   8.853
13900SOL     OW43140   4.465   3.295   8.329
13900SOL    HW143141   4.554   3.260   8.323
13900SOL    HW243142   4.415   3.243   8.267
13901SOL     OW43143   4.651   2.369   8.351
13901SOL    HW143144   4.620   2.369   8.261
13901SOL    HW243145   4.688   2.281   8.364
13902SOL     OW43146   4.271   1.940   7.977
13902SOL    HW143147   4.183   1.942   8.013
13902SOL    HW243148   4.270   2.005   7.907
13903SOL     OW43149   5.163   3.070   7.499
13903SOL    HW143150   5.168   2.998   7.562
13903SOL    HW243151   5.076   3.107   7.510
13904SOL     OW43152   4.040   1.896   7.666
13904SOL    HW143153   4.006   1.984   7.645
13904SOL    HW243154   4.033   1.848   7.583
13905SOL     OW43155   4.676   2.107   7.893
13905SOL    HW143156   4.653   2.143   7.807
13905SOL    HW243157   4.768   2.130   7.905
13906SOL     OW43158   4.794   2.514   8.952
13906SOL    HW143159   4.705   2.495   8.922
13906SOL    HW243160   4.849   2.502   8.874
13907SOL     OW43161   5.010   3.449   8.267
13907SOL    HW143162   4.996   3.506   8.191
13907SOL    HW243163   4.947   3.481   8.332
13908SOL     OW43164   4.963   3.662   8.097
13908SOL    HW143165   4.977   3.726   8.027
13908SOL    HW243166   4.886   3.694   8.144
13909SOL     OW43167   4.716   2.428   7.518
13909SOL    HW143168   4.658   2.498   7.489
13909SOL    HW243169   4.802   2.453   7.486
13910SOL     OW43170   4.280   2.082   8.628
13910SOL    HW143171   4.311   2.025   8.699
13910SOL    HW243172   4.186   2.091   8.644
13911SOL     OW43173   4.581   2.318   8.090
13911SOL    HW143174   4.522   2.382   8.051
13911SOL    HW243175   4.606   2.261   8.017
13912SOL     OW43176   4.755   1.903   8.194
13912SOL    HW143177   4.692   1.926   8.126
13912SOL    HW243178   4.711   1.836   8.246
13913SOL     OW43179   5.163   3.005   8.299
13913SOL    HW143180   5.068   3.019   8.302
13913SOL    HW243181   5.185   3.013   8.206
13914SOL     OW43182   5.170   2.469   8.426
13914SOL    HW143183   5.123   2.386   8.424
13914SOL    HW243184   5.227   2.462   8.503
13915SOL     OW43185   5.549   2.654   7.843
13915SOL    HW143186   5.634   2.618   7.868
13915SOL    HW243187   5.545   2.641   7.748
13916SOL     OW43188   5.401   3.129   8.102
13916SOL    HW143189   5.492   3.157   8.102
13916SOL    HW243190   5.351   3.208   8.121
13917SOL     OW43191   5.135   2.428   7.537
13917SOL    HW143192   5.074   2.418   7.610
13917SOL    HW243193   5.171   2.341   7.523
13918SOL     OW43194   4.258   2.105   7.766
13918SOL    HW143195   4.289   2.055   7.690
13918SOL    HW243196   4.238   2.192   7.730
13919SOL     OW43197   5.585   3.076   9.114
13919SOL    HW143198   5.620   3.070   9.025
13919SOL    HW243199   5.533   3.157   9.114
13920SOL     OW43200   5.331   3.478   9.126
13920SOL    HW143201   5.270   3.477   9.052
13920SOL    HW243202   5.409   3.433   9.094
13921SOL     OW43203   4.883   3.053   8.540
13921SOL    HW143204   4.788   3.048   8.554
13921SOL    HW243205   4.892   3.095   8.455
13922SOL     OW43206   5.349   2.943   8.512
13922SOL    HW143207   5.342   3.017   8.572
13922SOL    HW243208   5.277   2.956   8.450
13923SOL     OW43209   4.683   1.946   8.855
13923SOL    HW143210   4.678   1.942   8.759
13923SOL    HW243211   4.764   1.994   8.873
13924SOL     OW43212   4.711   2.979   9.184
13924SOL    HW143213   4.625   3.019   9.168
13924SOL    HW243214   4.709   2.897   9.133
13925SOL     OW43215   4.423   2.885   7.822
13925SOL    HW143216   4.336   2.907   7.855
13925SOL    HW243217   4.481   2.952   7.860
13926SOL     OW43218   4.147   2.677   8.694
13926SOL    HW143219   4.219   2.693   8.755
13926SOL    HW243220   4.133   2.582   8.699
13927SOL     OW43221   4.977   2.226   8.736
13927SOL    HW143222   5.014   2.309   8.766
13927SOL    HW243223   4.886   2.246   8.715
13928SOL     OW43224   4.165   2.960   7.897
13928SOL    HW143225   4.111   3.037   7.880
13928SOL    HW243226   4.109   2.885   7.876
13929SOL     OW43227   4.285   2.393   8.313
13929SOL    HW143228   4.286   2.434   8.227
13929SOL    HW243229   4.331   2.454   8.370
13930SOL     OW43230   4.969   3.192   7.883
13930SOL    HW143231   4.996   3.257   7.818
13930SOL    HW243232   4.886   3.225   7.917
13931SOL     OW43233   5.035   3.295   8.628
13931SOL    HW143234   5.027   3.382   8.669
13931SOL    HW243235   4.947   3.275   8.597
13932SOL     OW43236   5.338   2.477   7.906
13932SOL    HW143237   5.289   2.505   7.983
13932SOL    HW243238   5.394   2.552   7.885
13933SOL     OW43239   4.156   2.609   9.050
13933SOL    HW143240   4.217   2.651   8.989
13933SOL    HW243241   4.138   2.523   9.011
13934SOL     OW43242   5.332   2.644   9.122
13934SOL    HW143243   5.242   2.676   9.122
13934SOL    HW243244   5.370   2.679   9.040
13935SOL     OW43245   4.724   1.990   9.183
13935SOL    HW143246   4.761   2.078   9.176
13935SOL    HW243247   4.683   1.973   9.098
13936SOL     OW43248   4.214   1.925   9.213
13936SOL    HW143249   4.197   1.868   9.138
13936SOL    HW243250   4.147   1.993   9.208
13937SOL     OW43251   4.343   2.747   8.498
13937SOL    HW143252   4.334   2.806   8.423
13937SOL    HW243253   4.260   2.757   8.546
13938SOL     OW43254   5.068   2.714   8.492
13938SOL    HW143255   4.997   2.736   8.431
13938SOL    HW243256   5.098   2.627   8.463
13939SOL     OW43257   4.969   2.368   7.739
13939SOL    HW143258   4.940   2.286   7.780
13939SOL    HW243259   4.910   2.435   7.774
13940SOL     OW43260   4.013   2.059   8.693
13940SOL    HW143261   3.964   2.114   8.753
13940SOL    HW243262   3.980   1.970   8.709
13941SOL     OW43263   4.476   2.516   8.535
13941SOL    HW143264   4.521   2.493   8.453
13941SOL    HW243265   4.431   2.598   8.515
13942SOL     OW43266   5.465   2.800   9.304
13942SOL    HW143267   5.406   2.744   9.252
13942SOL    HW243268   5.416   2.818   9.384
13943SOL     OW43269   4.020   1.914   8.079
13943SOL    HW143270   3.995   2.005   8.092
13943SOL    HW243271   4.027   1.878   8.168
13944SOL     OW43272   5.295   2.202   7.857
13944SOL    HW143273   5.369   2.184   7.915
13944SOL    HW243274   5.281   2.296   7.863
13945SOL     OW43275   4.765   2.614   8.409
13945SOL    HW143276   4.763   2.622   8.505
13945SOL    HW243277   4.723   2.529   8.392
13946SOL     OW43278   5.579   3.357   9.052
13946SOL    HW143279   5.589   3.382   8.960
13946SOL    HW243280   5.622   3.428   9.101
13947SOL     OW43281   4.150   2.770   9.275
13947SOL    HW143282   4.125   2.852   9.233
13947SOL    HW243283   4.143   2.705   9.206
13948SOL     OW43284   5.254   2.131   7.588
13948SOL    HW143285   5.185   2.068   7.607
13948SOL    HW243286   5.275   2.170   7.673
13949SOL     OW43287   5.087   2.701   7.504
13949SOL    HW143288   5.107   2.607   7.501
13949SOL    HW243289   5.088   2.728   7.412
13950SOL     OW43290   4.919   3.158   8.294
13950SOL    HW143291   4.863   3.106   8.237
13950SOL    HW243292   4.915   3.246   8.257
13951SOL     OW43293   4.016   2.698   8.381
13951SOL    HW143294   4.020   2.788   8.348
13951SOL    HW243295   4.079   2.696   8.453
13952SOL     OW43296   4.084   2.360   8.494
13952SOL    HW143297   4.026   2.293   8.458
13952SOL    HW243298   4.141   2.383   8.422
13953SOL     OW43299   4.855   2.233   9.147
13953SOL    HW143300   4.798   2.293   9.196
13953SOL    HW243301   4.931   2.285   9.125
13954SOL     OW43302   4.922   2.054   8.942
13954SOL    HW143303   4.896   2.123   9.004
13954SOL    HW243304   4.951   2.102   8.864
13955SOL     OW43305   3.731   3.190   7.643
13955SOL    HW143306   3.646   3.207   7.602
13955SOL    HW243307   3.725   3.100   7.674
13956SOL     OW43308   3.851   3.518   8.262
13956SOL    HW143309   3.814   3.531   8.175
13956SOL    HW243310   3.909   3.593   8.275
13957SOL     OW43311   4.224   3.437   8.370
13957SOL    HW143312   4.315   3.407   8.366
13957SOL    HW243313   4.172   3.361   8.346
13958SOL     OW43314   4.714   2.619   8.680
13958SOL    HW143315   4.702   2.698   8.733
13958SOL    HW243316   4.625   2.590   8.661
13959SOL     OW43317   3.764   2.391   8.568
13959SOL    HW143318   3.825   2.442   8.514
13959SOL    HW243319   3.804   2.391   8.655
13960SOL     OW43320   3.899   2.405   9.177
13960SOL    HW143321   3.892   2.370   9.088
13960SOL    HW243322   3.877   2.498   9.167
13961SOL     OW43323   5.102   2.790   9.112
13961SOL    HW143324   5.136   2.880   9.112
13961SOL    HW243325   5.092   2.768   9.020
13962SOL     OW43326   4.531   2.437   7.816
13962SOL    HW143327   4.536   2.376   7.743
13962SOL    HW243328   4.459   2.496   7.793
13963SOL     OW43329   5.357   2.461   8.638
13963SOL    HW143330   5.325   2.413   8.714
13963SOL    HW243331   5.428   2.407   8.603
13964SOL     OW43332   4.443   2.305   8.704
13964SOL    HW143333   4.374   2.245   8.674
13964SOL    HW243334   4.439   2.378   8.643
13965SOL     OW43335   4.185   2.347   7.675
13965SOL    HW143336   4.235   2.428   7.683
13965SOL    HW243337   4.100   2.375   7.641
13966SOL     OW43338   3.863   2.991   8.966
13966SOL    HW143339   3.870   2.898   8.945
13966SOL    HW243340   3.878   3.036   8.882
13967SOL     OW43341   5.046   2.905   8.681
13967SOL    HW143342   5.064   2.837   8.616
13967SOL    HW243343   4.985   2.964   8.638
13968SOL     OW43344   5.520   3.583   8.619
13968SOL    HW143345   5.564   3.620   8.543
13968SOL    HW243346   5.467   3.511   8.584
13969SOL     OW43347   4.979   3.603   8.536
13969SOL    HW143348   5.066   3.609   8.494
13969SOL    HW243349   4.998   3.587   8.628
13970SOL     OW43350   5.491   2.018   7.987
13970SOL    HW143351   5.543   2.009   7.907
13970SOL    HW243352   5.425   1.950   7.980
13971SOL     OW43353   5.136   3.457   7.945
13971SOL    HW143354   5.165   3.474   7.855
13971SOL    HW243355   5.050   3.499   7.951
13972SOL     OW43356   5.033   2.752   8.107
13972SOL    HW143357   5.111   2.714   8.065
13972SOL    HW243358   5.031   2.842   8.076
13973SOL     OW43359   4.316   3.445   7.570
13973SOL    HW143360   4.329   3.504   7.496
13973SOL    HW243361   4.290   3.362   7.530
13974SOL     OW43362   5.463   3.660   8.880
13974SOL    HW143363   5.452   3.620   8.794
13974SOL    HW243364   5.383   3.711   8.892
13975SOL     OW43365   5.600   2.033   8.383
13975SOL    HW143366   5.606   1.941   8.359
13975SOL    HW243367   5.512   2.060   8.355
13976SOL     OW43368   3.969   2.164   8.155
13976SOL    HW143369   3.880   2.194   8.134
13976SOL    HW243370   3.974   2.168   8.250
13977SOL     OW43371   4.617   2.874   8.810
13977SOL    HW143372   4.614   2.889   8.715
13977SOL    HW243373   4.627   2.962   8.847
13978SOL     OW43374   4.726   2.808   7.773
13978SOL    HW143375   4.701   2.815   7.681
13978SOL    HW243376   4.659   2.752   7.812
13979SOL     OW43377   5.246   3.461   7.492
13979SOL    HW143378   5.154   3.440   7.480
13979SOL    HW243379   5.279   3.478   7.404
13980SOL     OW43380   5.326   3.149   8.716
13980SOL    HW143381   5.324   3.214   8.787
13980SOL    HW243382   5.240   3.154   8.676
13981SOL     OW43383   4.779   2.967   8.158
13981SOL    HW143384   4.703   2.942   8.211
13981SOL    HW243385   4.754   2.946   8.068
13982SOL     OW43386   4.770   2.112   8.406
13982SOL    HW143387   4.763   2.061   8.325
13982SOL    HW243388   4.747   2.050   8.475
13983SOL     OW43389   4.341   3.357   7.951
13983SOL    HW143390   4.385   3.305   7.884
13983SOL    HW243391   4.277   3.409   7.904
13984SOL     OW43392   5.466   2.264   8.853
13984SOL    HW143393   5.534   2.329   8.840
13984SOL    HW243394   5.480   2.199   8.784
13985SOL     OW43395   3.969   3.139   7.793
13985SOL    HW143396   3.907   3.170   7.727
13985SOL    HW243397   3.953   3.196   7.869
13986SOL     OW43398   3.860   2.881   9.287
13986SOL    HW143399   3.766   2.876   9.307
13986SOL    HW243400   3.873   2.815   9.219
13987SOL     OW43401   4.407   2.022   8.934
13987SOL    HW143402   4.494   2.052   8.905
13987SOL    HW243403   4.359   2.102   8.953
13988SOL     OW43404   5.156   2.725   8.850
13988SOL    HW143405   5.100   2.784   8.800
13988SOL    HW243406   5.238   2.722   8.801
13989SOL     OW43407   3.794   2.009   7.824
13989SOL    HW143408   3.774   2.029   7.733
13989SOL    HW243409   3.890   2.016   7.829
13990SOL     OW43410   4.910   3.118   7.593
13990SOL    HW143411   4.833   3.130   7.537
13990SOL    HW243412   4.928   3.205   7.628
13991SOL     OW43413   4.359   2.705   8.873
13991SOL    HW143414   4.419   2.775   8.849
13991SOL    HW243415   4.414   2.627   8.879
13992SOL     OW43416   5.234   3.656   8.415
13992SOL    HW143417   5.196   3.625   8.333
13992SOL    HW243418   5.256   3.747   8.398
13993SOL     OW43419   4.475   2.403   9.147
13993SOL    HW143420   4.489   2.479   9.204
13993SOL    HW243421   4.481   2.327   9.205
13994SOL     OW43422   5.213   3.041   9.116
13994SOL    HW143423   5.132   3.077   9.154
13994SOL    HW243424   5.221   3.086   9.032
13995SOL     OW43425   5.394   2.739   8.701
13995SOL    HW143426   5.378   2.654   8.659
13995SOL    HW243427   5.376   2.803   8.632
13996SOL     OW43428   4.939   2.156   7.930
13996SOL    HW143429   5.014   2.097   7.919
13996SOL    HW243430   4.968   2.219   7.996
13997SOL     OW43431   4.339   2.593   8.124
13997SOL    HW143432   4.360   2.687   8.127
13997SOL    HW243433   4.272   2.586   8.056
13998SOL     OW43434   5.488   2.234   9.121
13998SOL    HW143435   5.477   2.250   9.027
13998SOL    HW243436   5.414   2.179   9.145
13999SOL     OW43437   5.465   2.835   8.952
13999SOL    HW143438   5.400   2.906   8.956
13999SOL    HW243439   5.458   2.801   8.863
14000SOL     OW43440   4.456   3.721   8.462
14000SOL    HW143441   4.393   3.766   8.406
14000SOL    HW243442   4.482   3.644   8.412
14001SOL     OW43443   4.593   2.887   8.347
14001SOL    HW143444   4.638   2.807   8.374
14001SOL    HW243445   4.593   2.942   8.426
14002SOL     OW43446   4.831   2.834   7.516
14002SOL    HW143447   4.768   2.870   7.453
14002SOL    HW243448   4.886   2.776   7.464
14003SOL     OW43449   5.562   3.441   8.302
14003SOL    HW143450   5.510   3.437   8.222
14003SOL    HW243451   5.514   3.386   8.364
14004SOL     OW43452   3.819   2.985   8.102
14004SOL    HW143453   3.894   2.978   8.161
14004SOL    HW243454   3.826   3.072   8.064
14005SOL     OW43455   5.552   2.074   8.674
14005SOL    HW143456   5.555   2.008   8.744
14005SOL    HW243457   5.475   2.050   8.622
14006SOL     OW43458   4.180   2.275   8.004
14006SOL    HW143459   4.182   2.234   7.917
14006SOL    HW243460   4.102   2.240   8.046
14007SOL     OW43461   5.441   3.331   8.538
14007SOL    HW143462   5.361   3.322   8.487
14007SOL    HW243463   5.431   3.268   8.610
14008SOL     OW43464   4.135   2.398   8.756
14008SOL    HW143465   4.045   2.394   8.791
14008SOL    HW243466   4.125   2.381   8.662
14009SOL     OW43467   4.554   3.471   8.089
14009SOL    HW143468   4.549   3.559   8.053
14009SOL    HW243469   4.475   3.427   8.056
14010SOL     OW43470   4.731   1.883   8.581
14010SOL    HW143471   4.675   1.827   8.527
14010SOL    HW243472   4.817   1.842   8.575
14011SOL     OW43473   4.489   3.207   7.767
14011SOL    HW143474   4.440   3.168   7.694
14011SOL    HW243475   4.545   3.273   7.726
14012SOL     OW43476   5.076   1.920   7.623
14012SOL    HW143477   5.080   1.905   7.528
14012SOL    HW243478   4.997   1.876   7.652
14013SOL     OW43479   5.033   2.311   8.142
14013SOL    HW143480   4.982   2.391   8.132
14013SOL    HW243481   5.021   2.287   8.234
14014SOL     OW43482   5.340   2.080   8.318
14014SOL    HW143483   5.271   2.080   8.385
14014SOL    HW243484   5.323   2.158   8.267
14015SOL     OW43485   3.744   2.936   7.756
14015SOL    HW143486   3.838   2.953   7.757
14015SOL    HW243487   3.736   2.843   7.776
14016SOL     OW43488   3.954   2.462   9.441
14016SOL    HW143489   3.865   2.489   9.463
14016SOL    HW243490   3.954   2.452   9.346
14017SOL     OW43491   3.938   2.144  10.300
14017SOL    HW143492   3.965   2.116  10.388
14017SOL    HW243493   3.848   2.113  10.292
14018SOL     OW43494   3.723   2.244   9.964
14018SOL    HW143495   3.639   2.278   9.996
14018SOL    HW243496   3.700   2.166   9.912
14019SOL     OW43497   4.285   3.152  10.480
14019SOL    HW143498   4.214   3.164  10.416
14019SOL    HW243499   4.267   3.217  10.548
14020SOL     OW43500   5.278   3.374  10.004
14020SOL    HW143501   5.235   3.354  10.087
14020SOL    HW243502   5.206   3.386   9.942
14021SOL     OW43503   4.865   2.555  10.008
14021SOL    HW143504   4.905   2.640   9.990
14021SOL    HW243505   4.822   2.566  10.093
14022SOL     OW43506   5.481   2.480   9.546
14022SOL    HW143507   5.462   2.480   9.452
14022SOL    HW243508   5.468   2.389   9.573
14023SOL     OW43509   4.473   3.004  10.342
14023SOL    HW143510   4.405   3.036  10.401
14023SOL    HW243511   4.511   3.083  10.303
14024SOL     OW43512   4.593   2.623  11.133
14024SOL    HW143513   4.560   2.681  11.201
14024SOL    HW243514   4.615   2.682  11.060
14025SOL     OW43515   4.397   2.852   9.996
14025SOL    HW143516   4.427   2.853  10.087
14025SOL    HW243517   4.318   2.907   9.996
14026SOL     OW43518   4.073   3.259  10.331
14026SOL    HW143519   3.990   3.211  10.331
14026SOL    HW243520   4.047   3.350  10.313
14027SOL     OW43521   5.190   3.359  10.675
14027SOL    HW143522   5.239   3.441  10.687
14027SOL    HW243523   5.114   3.368  10.732
14028SOL     OW43524   4.181   2.224  10.759
14028SOL    HW143525   4.266   2.184  10.774
14028SOL    HW243526   4.126   2.193  10.830
14029SOL     OW43527   5.326   2.297  10.059
14029SOL    HW143528   5.259   2.317   9.994
14029SOL    HW243529   5.321   2.369  10.122
14030SOL     OW43530   4.867   3.213  11.010
14030SOL    HW143531   4.904   3.203  11.098
14030SOL    HW243532   4.814   3.134  10.997
14031SOL     OW43533   4.022   2.952  10.232
14031SOL    HW143534   3.992   2.862  10.243
14031SOL    HW243535   3.951   3.006  10.266
14032SOL     OW43536   4.358   3.640  10.758
14032SOL    HW143537   4.267   3.626  10.786
14032SOL    HW243538   4.373   3.734  10.770
14033SOL     OW43539   4.401   2.837   9.452
14033SOL    HW143540   4.420   2.900   9.382
14033SOL    HW243541   4.305   2.840   9.460
14034SOL     OW43542   5.325   1.988  10.785
14034SOL    HW143543   5.341   2.074  10.747
14034SOL    HW243544   5.277   2.006  10.866
14035SOL     OW43545   3.851   2.511   9.873
14035SOL    HW143546   3.810   2.425   9.887
14035SOL    HW243547   3.836   2.558   9.954
14036SOL     OW43548   5.586   3.607   9.652
14036SOL    HW143549   5.544   3.601   9.737
14036SOL    HW243550   5.596   3.701   9.636
14037SOL     OW43551   5.394   2.964   9.777
14037SOL    HW143552   5.445   2.998   9.703
14037SOL    HW243553   5.390   3.036   9.839
14038SOL     OW43554   3.868   2.616  10.889
14038SOL    HW143555   3.963   2.620  10.888
14038SOL    HW243556   3.840   2.697  10.931
14039SOL     OW43557   4.338   3.241  10.053
14039SOL    HW143558   4.281   3.165  10.049
14039SOL    HW243559   4.337   3.276   9.964
14040SOL     OW43560   5.008   3.092  10.728
14040SOL    HW143561   5.040   3.025  10.667
14040SOL    HW243562   5.067   3.086  10.803
14041SOL     OW43563   4.547   1.871   9.837
14041SOL    HW143564   4.585   1.952   9.803
14041SOL    HW243565   4.452   1.887   9.836
14042SOL     OW43566   3.906   2.810  10.586
14042SOL    HW143567   3.993   2.770  10.583
14042SOL    HW243568   3.880   2.818  10.494
14043SOL     OW43569   5.295   2.805   9.531
14043SOL    HW143570   5.208   2.766   9.543
14043SOL    HW243571   5.300   2.873   9.598
14044SOL     OW43572   4.914   3.681  10.905
14044SOL    HW143573   4.949   3.649  10.822
14044SOL    HW243574   4.872   3.604  10.944
14045SOL     OW43575   4.059   2.124  11.087
14045SOL    HW143576   4.120   2.174  11.141
14045SOL    HW243577   3.979   2.119  11.139
14046SOL     OW43578   5.178   3.288  10.249
14046SOL    HW143579   5.118   3.300  10.322
14046SOL    HW243580   5.173   3.195  10.229
14047SOL     OW43581   5.409   3.598   9.865
14047SOL    HW143582   5.347   3.574   9.796
14047SOL    HW243583   5.397   3.531   9.932
14048SOL     OW43584   4.328   2.589   9.591
14048SOL    HW143585   4.340   2.656   9.524
14048SOL    HW243586   4.247   2.614   9.636
14049SOL     OW43587   5.007   2.230  10.249
14049SOL    HW143588   4.916   2.200  10.254
14049SOL    HW243589   5.055   2.171  10.307
14050SOL     OW43590   5.294   3.540   9.614
14050SOL    HW143591   5.385   3.560   9.592
14050SOL    HW243592   5.255   3.511   9.531
14051SOL     OW43593   4.533   2.470  10.762
14051SOL    HW143594   4.498   2.448  10.849
14051SOL    HW243595   4.492   2.407  10.703
14052SOL     OW43596   4.694   2.754  10.893
14052SOL    HW143597   4.741   2.682  10.851
14052SOL    HW243598   4.639   2.791  10.824
14053SOL     OW43599   4.726   2.272  10.541
14053SOL    HW143600   4.639   2.293  10.574
14053SOL    HW243601   4.710   2.232  10.455
14054SOL     OW43602   4.781   2.534   9.739
14054SOL    HW143603   4.796   2.524   9.832
14054SOL    HW243604   4.696   2.494   9.723
14055SOL     OW43605   3.808   2.647  10.104
14055SOL    HW143606   3.889   2.659  10.153
14055SOL    HW243607   3.753   2.721  10.131
14056SOL     OW43608   3.847   3.718  10.870
14056SOL    HW143609   3.826   3.675  10.953
14056SOL    HW243610   3.814   3.658  10.803
14057SOL     OW43611   4.613   2.219   9.502
14057SOL    HW143612   4.667   2.280   9.452
14057SOL    HW243613   4.555   2.180   9.436
14058SOL     OW43614   5.390   2.422  11.138
14058SOL    HW143615   5.380   2.506  11.092
14058SOL    HW243616   5.439   2.367  11.077
14059SOL     OW43617   5.103   3.015   9.866
14059SOL    HW143618   5.171   2.988   9.804
14059SOL    HW243619   5.050   3.079   9.818
14060SOL     OW43620   4.264   2.031  10.217
14060SOL    HW143621   4.271   2.064  10.306
14060SOL    HW243622   4.267   2.108  10.161
14061SOL     OW43623   4.729   3.334   9.801
14061SOL    HW143624   4.660   3.328   9.735
14061SOL    HW243625   4.689   3.382   9.873
14062SOL     OW43626   4.081   3.658  10.163
14062SOL    HW143627   4.116   3.573  10.137
14062SOL    HW243628   4.057   3.700  10.081
14063SOL     OW43629   5.459   2.895  10.125
14063SOL    HW143630   5.438   2.982  10.091
14063SOL    HW243631   5.448   2.904  10.220
14064SOL     OW43632   4.956   3.392  10.808
14064SOL    HW143633   4.941   3.323  10.873
14064SOL    HW243634   4.870   3.411  10.772
14065SOL     OW43635   4.118   2.784   9.541
14065SOL    HW143636   4.116   2.782   9.446
14065SOL    HW243637   4.032   2.752   9.568
14066SOL     OW43638   5.208   2.628  10.045
14066SOL    HW143639   5.174   2.558  10.100
14066SOL    HW243640   5.258   2.684  10.104
14067SOL     OW43641   4.163   3.154  11.086
14067SOL    HW143642   4.136   3.154  10.995
14067SOL    HW243643   4.234   3.090  11.091
14068SOL     OW43644   3.906   2.120  10.836
14068SOL    HW143645   3.853   2.200  10.845
14068SOL    HW243646   3.945   2.108  10.923
14069SOL     OW43647   5.370   3.232   9.420
14069SOL    HW143648   5.325   3.314   9.397
14069SOL    HW243649   5.302   3.165   9.415
14070SOL     OW43650   5.145   1.959   9.756
14070SOL    HW143651   5.160   1.907   9.677
14070SOL    HW243652   5.231   1.991   9.781
14071SOL     OW43653   3.984   3.645  10.513
14071SOL    HW143654   3.933   3.593  10.575
14071SOL    HW243655   3.932   3.645  10.433
14072SOL     OW43656   4.667   3.563  10.210
14072SOL    HW143657   4.746   3.508  10.206
14072SOL    HW243658   4.608   3.525  10.145
14073SOL     OW43659   4.125   2.547   9.807
14073SOL    HW143660   4.147   2.454   9.810
14073SOL    HW243661   4.030   2.550   9.816
14074SOL     OW43662   5.212   2.048  11.046
14074SOL    HW143663   5.246   2.030  11.133
14074SOL    HW243664   5.141   1.985  11.034
14075SOL     OW43665   4.343   1.917   9.446
14075SOL    HW143666   4.422   1.869   9.421
14075SOL    HW243667   4.293   1.925   9.364
14076SOL     OW43668   4.482   2.136  11.062
14076SOL    HW143669   4.565   2.088  11.055
14076SOL    HW243670   4.452   2.121  11.151
14077SOL     OW43671   4.608   3.384  10.503
14077SOL    HW143672   4.589   3.350  10.416
14077SOL    HW243673   4.671   3.322  10.541
14078SOL     OW43674   5.076   2.451  10.748
14078SOL    HW143675   5.163   2.433  10.783
14078SOL    HW243676   5.077   2.544  10.726
14079SOL     OW43677   4.548   3.251  10.244
14079SOL    HW143678   4.631   3.245  10.197
14079SOL    HW243679   4.481   3.258  10.176
14080SOL     OW43680   4.657   2.374  10.202
14080SOL    HW143681   4.630   2.364  10.111
14080SOL    HW243682   4.682   2.285  10.229
14081SOL     OW43683   4.278   1.924   9.812
14081SOL    HW143684   4.194   1.926   9.859
14081SOL    HW243685   4.274   1.998   9.752
14082SOL     OW43686   5.158   3.063   9.427
14082SOL    HW143687   5.151   2.984   9.374
14082SOL    HW243688   5.070   3.101   9.426
14083SOL     OW43689   4.016   1.933   9.481
14083SOL    HW143690   4.035   2.005   9.420
14083SOL    HW243691   4.101   1.892   9.497
14084SOL     OW43692   4.671   2.108   9.755
14084SOL    HW143693   4.643   2.141   9.670
14084SOL    HW243694   4.764   2.127   9.759
14085SOL     OW43695   4.800   2.543  10.756
14085SOL    HW143696   4.717   2.496  10.764
14085SOL    HW243697   4.867   2.474  10.754
14086SOL     OW43698   4.931   3.451  10.118
14086SOL    HW143699   4.942   3.512  10.045
14086SOL    HW243700   5.009   3.462  10.172
14087SOL     OW43701   4.178   3.010  10.018
14087SOL    HW143702   4.135   2.991  10.101
14087SOL    HW243703   4.106   3.027   9.957
14088SOL     OW43704   4.982   3.660   9.927
14088SOL    HW143705   5.025   3.721   9.867
14088SOL    HW243706   4.908   3.709   9.963
14089SOL     OW43707   4.740   2.409   9.343
14089SOL    HW143708   4.685   2.482   9.315
14089SOL    HW243709   4.816   2.450   9.384
14090SOL     OW43710   3.807   2.415  10.707
14090SOL    HW143711   3.898   2.413  10.679
14090SOL    HW243712   3.802   2.488  10.769
14091SOL     OW43713   4.274   2.090  10.490
14091SOL    HW143714   4.316   2.030  10.551
14091SOL    HW243715   4.184   2.099  10.522
14092SOL     OW43716   4.593   2.318   9.941
14092SOL    HW143717   4.537   2.372   9.886
14092SOL    HW243718   4.613   2.241   9.887
14093SOL     OW43719   4.752   1.912  10.047
14093SOL    HW143720   4.687   1.917   9.977
14093SOL    HW243721   4.718   1.845  10.107
14094SOL     OW43722   5.160   3.020  10.168
14094SOL    HW143723   5.096   2.951  10.183
14094SOL    HW243724   5.165   3.029  10.073
14095SOL     OW43725   5.179   2.462  10.276
14095SOL    HW143726   5.122   2.386  10.283
14095SOL    HW243727   5.237   2.455  10.352
14096SOL     OW43728   5.565   2.676   9.721
14096SOL    HW143729   5.621   2.611   9.763
14096SOL    HW243730   5.524   2.628   9.649
14097SOL     OW43731   5.421   3.141   9.984
14097SOL    HW143732   5.509   3.172  10.004
14097SOL    HW243733   5.366   3.219   9.990
14098SOL     OW43734   5.117   2.442   9.379
14098SOL    HW143735   5.064   2.416   9.454
14098SOL    HW243736   5.207   2.428   9.407
14099SOL     OW43737   4.257   2.117   9.627
14099SOL    HW143738   4.292   2.063   9.556
14099SOL    HW243739   4.234   2.200   9.584
14100SOL     OW43740   5.472   3.103  10.860
14100SOL    HW143741   5.560   3.070  10.847
14100SOL    HW243742   5.484   3.191  10.897
14101SOL     OW43743   4.777   3.200  10.626
14101SOL    HW143744   4.699   3.175  10.676
14101SOL    HW243745   4.851   3.167  10.678
14102SOL     OW43746   5.338   3.494  10.976
14102SOL    HW143747   5.328   3.526  10.887
14102SOL    HW243748   5.417   3.440  10.974
14103SOL     OW43749   4.849   3.059  10.400
14103SOL    HW143750   4.804   3.103  10.472
14103SOL    HW243751   4.825   3.109  10.323
14104SOL     OW43752   5.344   2.944  10.388
14104SOL    HW143753   5.348   3.012  10.455
14104SOL    HW243754   5.274   2.973  10.329
14105SOL     OW43755   4.645   1.957  10.697
14105SOL    HW143756   4.672   1.944  10.606
14105SOL    HW243757   4.721   1.995  10.740
14106SOL     OW43758   4.722   2.982  11.035
14106SOL    HW143759   4.630   2.995  11.056
14106SOL    HW243760   4.724   2.902  10.982
14107SOL     OW43761   4.438   2.912   9.710
14107SOL    HW143762   4.349   2.887   9.731
14107SOL    HW243763   4.451   2.880   9.621
14108SOL     OW43764   4.148   2.676  10.566
14108SOL    HW143765   4.218   2.686  10.632
14108SOL    HW243766   4.113   2.589  10.581
14109SOL     OW43767   4.992   2.241  10.590
14109SOL    HW143768   5.022   2.319  10.637
14109SOL    HW243769   4.901   2.259  10.568
14110SOL     OW43770   4.270   2.380  10.174
14110SOL    HW143771   4.284   2.432  10.095
14110SOL    HW243772   4.336   2.412  10.235
14111SOL     OW43773   4.963   3.217   9.732
14111SOL    HW143774   5.023   3.290   9.747
14111SOL    HW243775   4.877   3.251   9.759
14112SOL     OW43776   5.014   3.325  10.466
14112SOL    HW143777   5.076   3.330  10.539
14112SOL    HW243778   4.945   3.266  10.497
14113SOL     OW43779   5.298   2.478   9.798
14113SOL    HW143780   5.249   2.538   9.854
14113SOL    HW243781   5.324   2.530   9.722
14114SOL     OW43782   4.113   3.339  10.636
14114SOL    HW143783   4.030   3.386  10.625
14114SOL    HW243784   4.179   3.399  10.601
14115SOL     OW43785   4.151   2.590  10.920
14115SOL    HW143786   4.207   2.638  10.858
14115SOL    HW243787   4.210   2.529  10.964
14116SOL     OW43788   5.340   2.640  10.987
14116SOL    HW143789   5.256   2.686  10.981
14116SOL    HW243790   5.396   2.683  10.923
14117SOL     OW43791   4.718   1.997  11.042
14117SOL    HW143792   4.789   2.061  11.050
14117SOL    HW243793   4.763   1.913  11.030
14118SOL     OW43794   4.226   1.894  11.048
14118SOL    HW143795   4.172   1.836  10.995
14118SOL    HW243796   4.171   1.971  11.063
14119SOL     OW43797   4.312   2.738  10.346
14119SOL    HW143798   4.339   2.830  10.348
14119SOL    HW243799   4.253   2.729  10.421
14120SOL     OW43800   5.062   2.716  10.318
14120SOL    HW143801   4.971   2.699  10.295
14120SOL    HW243802   5.105   2.631  10.312
14121SOL     OW43803   4.952   2.380   9.586
14121SOL    HW143804   4.946   2.301   9.640
14121SOL    HW243805   4.897   2.444   9.631
14122SOL     OW43806   3.988   2.068  10.562
14122SOL    HW143807   3.983   2.095  10.654
14122SOL    HW243808   3.996   1.973  10.565
14123SOL     OW43809   3.742   3.179  10.595
14123SOL    HW143810   3.789   3.126  10.660
14123SOL    HW243811   3.764   3.270  10.618
14124SOL     OW43812   4.440   2.491  10.358
14124SOL    HW143813   4.519   2.486  10.304
14124SOL    HW243814   4.409   2.581  10.347
14125SOL     OW43815   5.459   2.820  11.168
14125SOL    HW143816   5.417   2.751  11.116
14125SOL    HW243817   5.398   2.837  11.239
14126SOL     OW43818   4.028   1.908   9.939
14126SOL    HW143819   4.004   2.000   9.948
14126SOL    HW243820   4.038   1.877  10.029
14127SOL     OW43821   5.354   2.243   9.668
14127SOL    HW143822   5.380   2.176   9.731
14127SOL    HW243823   5.328   2.318   9.721
14128SOL     OW43824   4.767   2.616  10.266
14128SOL    HW143825   4.749   2.635  10.358
14128SOL    HW243826   4.732   2.528  10.252
14129SOL     OW43827   4.761   3.469  11.017
14129SOL    HW143828   4.705   3.486  10.941
14129SOL    HW243829   4.776   3.375  11.015
14130SOL     OW43830   5.579   3.357  10.923
14130SOL    HW143831   5.602   3.389  10.835
14130SOL    HW243832   5.660   3.367  10.973
14131SOL     OW43833   4.074   2.791  11.108
14131SOL    HW143834   4.143   2.816  11.169
14131SOL    HW243835   4.114   2.725  11.051
14132SOL     OW43836   5.240   2.114   9.451
14132SOL    HW143837   5.153   2.126   9.491
14132SOL    HW243838   5.300   2.158   9.511
14133SOL     OW43839   5.011   2.696   9.350
14133SOL    HW143840   5.048   2.608   9.350
14133SOL    HW243841   5.034   2.732   9.264
14134SOL     OW43842   4.809   3.209  10.158
14134SOL    HW143843   4.843   3.153  10.088
14134SOL    HW243844   4.850   3.294  10.145
14135SOL     OW43845   4.031   2.667  10.262
14135SOL    HW143846   4.123   2.692  10.254
14135SOL    HW243847   4.033   2.576  10.290
14136SOL     OW43848   4.049   2.390  10.325
14136SOL    HW143849   4.008   2.305  10.309
14136SOL    HW243850   4.126   2.391  10.269
14137SOL     OW43851   4.879   2.258  10.990
14137SOL    HW143852   4.826   2.286  11.064
14137SOL    HW243853   4.902   2.338  10.944
14138SOL     OW43854   4.887   2.063  10.779
14138SOL    HW143855   4.880   2.121  10.855
14138SOL    HW243856   4.929   2.117  10.712
14139SOL     OW43857   3.828   3.638  10.268
14139SOL    HW143858   3.791   3.566  10.216
14139SOL    HW243859   3.913   3.655  10.227
14140SOL     OW43860   4.289   3.471  10.224
14140SOL    HW143861   4.302   3.426  10.308
14140SOL    HW243862   4.298   3.401  10.158
14141SOL     OW43863   4.698   2.649  10.523
14141SOL    HW143864   4.753   2.623  10.598
14141SOL    HW243865   4.609   2.651  10.559
14142SOL     OW43866   3.750   2.398  10.434
14142SOL    HW143867   3.824   2.413  10.374
14142SOL    HW243868   3.788   2.409  10.521
14143SOL     OW43869   3.894   2.385  11.031
14143SOL    HW143870   3.989   2.382  11.021
14143SOL    HW243871   3.868   2.465  10.985
14144SOL     OW43872   5.114   2.786  10.961
14144SOL    HW143873   5.127   2.881  10.961
14144SOL    HW243874   5.096   2.764  10.870
14145SOL     OW43875   4.536   2.435   9.679
14145SOL    HW143876   4.538   2.363   9.616
14145SOL    HW243877   4.461   2.488   9.652
14146SOL     OW43878   5.365   2.459  10.484
14146SOL    HW143879   5.365   2.400  10.560
14146SOL    HW243880   5.452   2.450  10.446
14147SOL     OW43881   3.980   3.430  11.025
14147SOL    HW143882   3.958   3.488  11.098
14147SOL    HW243883   4.006   3.348  11.067
14148SOL     OW43884   4.445   2.309  10.560
14148SOL    HW143885   4.382   2.240  10.538
14148SOL    HW243886   4.435   2.374  10.490
14149SOL     OW43887   4.681   3.524  10.755
14149SOL    HW143888   4.640   3.487  10.677
14149SOL    HW243889   4.662   3.618  10.751
14150SOL     OW43890   4.192   2.355   9.522
14150SOL    HW143891   4.243   2.435   9.536
14150SOL    HW243892   4.106   2.386   9.495
14151SOL     OW43893   3.850   2.992  10.781
14151SOL    HW143894   3.858   2.945  10.864
14151SOL    HW243895   3.877   2.928  10.715
14152SOL     OW43896   5.041   2.903  10.519
14152SOL    HW143897   5.062   2.842  10.448
14152SOL    HW243898   4.972   2.959  10.482
14153SOL     OW43899   5.043   2.714   9.623
14153SOL    HW143900   4.963   2.690   9.671
14153SOL    HW243901   5.016   2.713   9.531
14154SOL     OW43902   5.524   3.594  10.482
14154SOL    HW143903   5.574   3.615  10.403
14154SOL    HW243904   5.476   3.514  10.460
14155SOL     OW43905   4.971   3.600  10.432
14155SOL    HW143906   5.052   3.620  10.385
14155SOL    HW243907   4.976   3.505  10.447
14156SOL     OW43908   3.824   3.124  10.335
14156SOL    HW143909   3.798   3.137  10.426
14156SOL    HW243910   3.755   3.167  10.284
14157SOL     OW43911   4.395   3.544  11.051
14157SOL    HW143912   4.338   3.621  11.054
14157SOL    HW243913   4.424   3.539  10.960
14158SOL     OW43914   5.440   2.019   9.812
14158SOL    HW143915   5.507   2.010   9.744
14158SOL    HW243916   5.438   1.933   9.855
14159SOL     OW43917   5.108   3.441   9.798
14159SOL    HW143918   5.162   3.476   9.727
14159SOL    HW243919   5.056   3.516   9.827
14160SOL     OW43920   3.850   3.598  11.210
14160SOL    HW143921   3.779   3.660  11.196
14160SOL    HW243922   3.917   3.648  11.257
14161SOL     OW43923   4.993   2.791   9.980
14161SOL    HW143924   5.073   2.740   9.990
14161SOL    HW243925   5.020   2.869   9.931
14162SOL     OW43926   4.529   3.139  10.730
14162SOL    HW143927   4.511   3.178  10.815
14162SOL    HW243928   4.449   3.151  10.680
14163SOL     OW43929   5.342   3.593  10.711
14163SOL    HW143930   5.397   3.593  10.632
14163SOL    HW243931   5.326   3.685  10.729
14164SOL     OW43932   5.556   2.022  10.267
14164SOL    HW143933   5.586   1.936  10.241
14164SOL    HW243934   5.467   2.028  10.232
14165SOL     OW43935   3.979   2.163  10.017
14165SOL    HW143936   3.896   2.204   9.993
14165SOL    HW243937   3.981   2.170  10.113
14166SOL     OW43938   4.552   2.869  10.684
14166SOL    HW143939   4.579   2.883  10.593
14166SOL    HW243940   4.541   2.957  10.720
14167SOL     OW43941   4.709   2.795   9.679
14167SOL    HW143942   4.729   2.827   9.591
14167SOL    HW243943   4.723   2.701   9.674
14168SOL     OW43944   5.214   3.452   9.367
14168SOL    HW143945   5.122   3.449   9.342
14168SOL    HW243946   5.261   3.468   9.285
14169SOL     OW43947   4.082   3.151  10.830
14169SOL    HW143948   4.098   3.218  10.763
14169SOL    HW243949   4.008   3.101  10.797
14170SOL     OW43950   5.335   3.142  10.593
14170SOL    HW143951   5.386   3.121  10.672
14170SOL    HW243952   5.273   3.209  10.622
14171SOL     OW43953   4.754   2.108  10.268
14171SOL    HW143954   4.752   2.061  10.185
14171SOL    HW243955   4.745   2.039  10.335
14172SOL     OW43956   4.359   3.357   9.803
14172SOL    HW143957   4.409   3.301   9.743
14172SOL    HW243958   4.298   3.404   9.746
14173SOL     OW43959   5.447   2.264  10.691
14173SOL    HW143960   5.525   2.319  10.693
14173SOL    HW243961   5.470   2.191  10.634
14174SOL     OW43962   3.827   2.857  11.018
14174SOL    HW143963   3.758   2.853  11.084
14174SOL    HW243964   3.908   2.842  11.067
14175SOL     OW43965   4.404   2.053  10.805
14175SOL    HW143966   4.490   2.030  10.770
14175SOL    HW243967   4.421   2.079  10.895
14176SOL     OW43968   3.787   2.197   9.344
14176SOL    HW143969   3.709   2.176   9.294
14176SOL    HW243970   3.814   2.283   9.312
14177SOL     OW43971   5.138   2.717  10.695
14177SOL    HW143972   5.089   2.780  10.642
14177SOL    HW243973   5.228   2.723  10.662
14178SOL     OW43974   3.776   2.021   9.595
14178SOL    HW143975   3.744   2.087   9.534
14178SOL    HW243976   3.865   2.002   9.566
14179SOL     OW43977   4.912   3.189   9.450
14179SOL    HW143978   4.840   3.250   9.435
14179SOL    HW243979   4.928   3.193   9.544
14180SOL     OW43980   4.349   2.683  10.748
14180SOL    HW143981   4.399   2.765  10.749
14180SOL    HW243982   4.415   2.615  10.759
14181SOL     OW43983   5.206   3.650  10.299
14181SOL    HW143984   5.233   3.708  10.228
14181SOL    HW243985   5.277   3.587  10.306
14182SOL     OW43986   4.434   2.421  11.008
14182SOL    HW143987   4.479   2.482  11.068
14182SOL    HW243988   4.450   2.335  11.046
14183SOL     OW43989   5.196   3.050  10.937
14183SOL    HW143990   5.181   3.068  11.030
14183SOL    HW243991   5.287   3.075  10.922
14184SOL     OW43992   4.106   3.611  10.860
14184SOL    HW143993   4.026   3.657  10.837
14184SOL    HW243994   4.076   3.528  10.897
14185SOL     OW43995   5.386   2.738  10.572
14185SOL    HW143996   5.385   2.654  10.526
14185SOL    HW243997   5.376   2.804  10.503
14186SOL     OW43998   4.948   2.170   9.774
14186SOL    HW143999   5.012   2.099   9.769
14186SOL    HW244000   4.977   2.224   9.848
14187SOL     OW44001   4.325   2.583   9.989
14187SOL    HW144002   4.346   2.677   9.984
14187SOL    HW244003   4.258   2.571   9.922
14188SOL     OW44004   5.449   2.222  10.968
14188SOL    HW144005   5.463   2.240  10.875
14188SOL    HW244006   5.439   2.127  10.973
14189SOL     OW44007   5.492   2.797  10.820
14189SOL    HW144008   5.465   2.887  10.836
14189SOL    HW244009   5.465   2.779  10.730
14190SOL     OW44010   4.637   2.847  10.145
14190SOL    HW144011   4.686   2.776  10.185
14190SOL    HW244012   4.600   2.896  10.219
14191SOL     OW44013   4.791   2.854   9.424
14191SOL    HW144014   4.759   2.905   9.350
14191SOL    HW244015   4.862   2.801   9.388
14192SOL     OW44016   3.886   3.221  11.191
14192SOL    HW144017   3.872   3.151  11.127
14192SOL    HW244018   3.954   3.188  11.249
14193SOL     OW44019   4.446   3.263  10.958
14193SOL    HW144020   4.428   3.179  11.000
14193SOL    HW244021   4.383   3.324  10.998
14194SOL     OW44022   5.520   2.054  10.540
14194SOL    HW144023   5.606   2.029  10.574
14194SOL    HW244024   5.530   2.051  10.445
14195SOL     OW44025   4.176   2.283   9.851
14195SOL    HW144026   4.195   2.227   9.776
14195SOL    HW244027   4.110   2.236   9.902
14196SOL     OW44028   5.392   3.369  10.422
14196SOL    HW144029   5.339   3.341  10.348
14196SOL    HW244030   5.400   3.291  10.477
14197SOL     OW44031   4.057   2.416  10.603
14197SOL    HW144032   4.111   2.353  10.651
14197SOL    HW244033   4.071   2.395  10.511
14198SOL     OW44034   4.553   3.475   9.967
14198SOL    HW144035   4.553   3.564   9.931
14198SOL    HW244036   4.479   3.432   9.925
14199SOL     OW44037   5.156   2.087  10.434
14199SOL    HW144038   5.207   2.031  10.492
14199SOL    HW244039   5.100   2.138  10.493
14200SOL     OW44040   4.737   1.885  10.438
14200SOL    HW144041   4.675   1.821  10.403
14200SOL    HW244042   4.822   1.842  10.433
14201SOL     OW44043   4.524   3.175   9.666
14201SOL    HW144044   4.465   3.100   9.674
14201SOL    HW244045   4.595   3.144   9.609
14202SOL     OW44046   4.348   3.463  10.547
14202SOL    HW144047   4.353   3.525  10.620
14202SOL    HW244048   4.438   3.433  10.534
14203SOL     OW44049   5.029   2.327   9.991
14203SOL    HW144050   4.972   2.404   9.989
14203SOL    HW244051   5.020   2.292  10.079
14204SOL     OW44052   5.294   2.050  10.192
14204SOL    HW144053   5.246   2.077  10.269
14204SOL    HW244054   5.300   2.129  10.138
14205SOL     OW44055   3.940   2.471  11.295
14205SOL    HW144056   3.866   2.484  11.354
14205SOL    HW244057   3.900   2.458  11.209
14206SOL     OW44058   3.931   2.164  12.183
14206SOL    HW144059   3.958   2.112  12.259
14206SOL    HW244060   3.854   2.117  12.149
14207SOL     OW44061   3.712   2.273  11.810
14207SOL    HW144062   3.627   2.272  11.854
14207SOL    HW244063   3.736   2.181  11.801
14208SOL     OW44064   4.268   3.116  12.341
14208SOL    HW144065   4.193   3.161  12.303
14208SOL    HW244066   4.281   3.158  12.426
14209SOL     OW44067   5.287   3.386  11.886
14209SOL    HW144068   5.255   3.365  11.974
14209SOL    HW244069   5.209   3.383  11.831
14210SOL     OW44070   4.808   2.621  11.843
14210SOL    HW144071   4.880   2.682  11.859
14210SOL    HW244072   4.788   2.584  11.929
14211SOL     OW44073   5.531   2.442  11.380
14211SOL    HW144074   5.473   2.439  11.304
14211SOL    HW244075   5.477   2.409  11.452
14212SOL     OW44076   4.479   2.996  12.231
14212SOL    HW144077   4.400   3.030  12.271
14212SOL    HW244078   4.516   3.071  12.183
14213SOL     OW44079   4.413   2.870  11.819
14213SOL    HW144080   4.478   2.856  11.887
14213SOL    HW244081   4.343   2.920  11.862
14214SOL     OW44082   4.063   3.277  12.238
14214SOL    HW144083   3.984   3.242  12.197
14214SOL    HW244084   4.105   3.329  12.169
14215SOL     OW44085   5.361   2.328  11.944
14215SOL    HW144086   5.296   2.333  11.873
14215SOL    HW244087   5.323   2.380  12.015
14216SOL     OW44088   3.941   3.579  11.629
14216SOL    HW144089   3.956   3.652  11.690
14216SOL    HW244090   4.023   3.571  11.580
14217SOL     OW44091   3.948   3.306  11.704
14217SOL    HW144092   3.934   3.400  11.715
14217SOL    HW244093   3.899   3.267  11.777
14218SOL     OW44094   3.986   2.943  12.064
14218SOL    HW144095   4.000   2.852  12.088
14218SOL    HW244096   3.950   2.984  12.143
14219SOL     OW44097   4.283   2.841  11.322
14219SOL    HW144098   4.329   2.880  11.248
14219SOL    HW244099   4.329   2.875  11.399
14220SOL     OW44100   3.807   2.525  11.739
14220SOL    HW144101   3.787   2.434  11.761
14220SOL    HW244102   3.818   2.569  11.824
14221SOL     OW44103   5.569   3.612  11.502
14221SOL    HW144104   5.639   3.588  11.563
14221SOL    HW244105   5.583   3.706  11.487
14222SOL     OW44106   5.470   2.819  11.837
14222SOL    HW144107   5.480   2.729  11.806
14222SOL    HW244108   5.387   2.848  11.797
14223SOL     OW44109   5.371   2.979  11.586
14223SOL    HW144110   5.460   2.947  11.571
14223SOL    HW244111   5.381   3.045  11.654
14224SOL     OW44112   3.896   2.607   0.243
14224SOL    HW144113   3.857   2.541   0.299
14224SOL    HW244114   3.822   2.647   0.197
14225SOL     OW44115   4.344   3.257  11.895
14225SOL    HW144116   4.297   3.174  11.907
14225SOL    HW244117   4.325   3.282  11.805
14226SOL     OW44118   4.542   1.856  11.706
14226SOL    HW144119   4.583   1.936  11.675
14226SOL    HW244120   4.448   1.875  11.702
14227SOL     OW44121   3.904   2.859  12.406
14227SOL    HW144122   3.977   2.796  12.407
14227SOL    HW244123   3.835   2.816  12.456
14228SOL     OW44124   5.258   2.860  11.365
14228SOL    HW144125   5.191   2.801  11.400
14228SOL    HW244126   5.296   2.901  11.443
14229SOL     OW44127   5.213   3.265  12.122
14229SOL    HW144128   5.146   3.282  12.188
14229SOL    HW244129   5.189   3.180  12.085
14230SOL     OW44130   5.365   3.626  11.746
14230SOL    HW144131   5.357   3.578  11.663
14230SOL    HW244132   5.346   3.562  11.813
14231SOL     OW44133   4.322   2.573  11.448
14231SOL    HW144134   4.308   2.659  11.408
14231SOL    HW244135   4.311   2.588  11.542
14232SOL     OW44136   5.025   2.262  12.138
14232SOL    HW144137   4.938   2.234  12.110
14232SOL    HW244138   5.059   2.188  12.188
14233SOL     OW44139   5.300   3.551  11.480
14233SOL    HW144140   5.393   3.569  11.473
14233SOL    HW244141   5.272   3.532  11.390
14234SOL     OW44142   4.701   2.219  12.389
14234SOL    HW144143   4.632   2.285  12.401
14234SOL    HW244144   4.688   2.187  12.300
14235SOL     OW44145   4.775   2.573  11.579
14235SOL    HW144146   4.783   2.582  11.674
14235SOL    HW244147   4.695   2.522  11.566
14236SOL     OW44148   3.807   2.704  11.955
14236SOL    HW144149   3.891   2.678  11.992
14236SOL    HW244150   3.782   2.782  12.004
14237SOL     OW44151   4.598   2.198  11.346
14237SOL    HW144152   4.665   2.250  11.302
14237SOL    HW244153   4.642   2.115  11.365
14238SOL     OW44154   5.117   3.012  11.717
14238SOL    HW144155   5.191   3.001  11.657
14238SOL    HW244156   5.055   3.067  11.669
14239SOL     OW44157   4.234   2.052  12.051
14239SOL    HW144158   4.314   2.012  12.084
14239SOL    HW244159   4.258   2.142  12.033
14240SOL     OW44160   4.735   3.342  11.635
14240SOL    HW144161   4.650   3.373  11.605
14240SOL    HW244162   4.728   3.341  11.730
14241SOL     OW44163   4.076   3.675  12.040
14241SOL    HW144164   4.124   3.592  12.049
14241SOL    HW244165   4.142   3.743  12.056
14242SOL     OW44166   5.517   2.955  12.075
14242SOL    HW144167   5.509   2.921  11.986
14242SOL    HW244168   5.437   2.928  12.119
14243SOL     OW44169   4.026   2.815  11.438
14243SOL    HW144170   4.108   2.826  11.389
14243SOL    HW244171   4.028   2.723  11.466
14244SOL     OW44172   5.203   2.622  11.892
14244SOL    HW144173   5.179   2.548  11.836
14244SOL    HW244174   5.214   2.583  11.979
14245SOL     OW44175   5.344   3.253  11.252
14245SOL    HW144176   5.298   3.337  11.244
14245SOL    HW244177   5.277   3.187  11.238
14246SOL     OW44178   4.190   3.591  11.498
14246SOL    HW144179   4.231   3.654  11.558
14246SOL    HW244180   4.257   3.571  11.434
14247SOL     OW44181   5.128   1.953  11.608
14247SOL    HW144182   5.148   1.887  11.541
14247SOL    HW244183   5.206   1.956  11.663
14248SOL     OW44184   3.948   3.652  12.407
14248SOL    HW144185   3.975   3.577  12.460
14248SOL    HW244186   3.939   3.616  12.319
14249SOL     OW44187   4.663   3.569  12.072
14249SOL    HW144188   4.735   3.524  12.117
14249SOL    HW244189   4.631   3.505  12.008
14250SOL     OW44190   4.038   2.566  11.588
14250SOL    HW144191   4.096   2.493  11.609
14250SOL    HW244192   3.962   2.553  11.644
14251SOL     OW44193   4.366   1.973  11.276
14251SOL    HW144194   4.423   1.904  11.309
14251SOL    HW244195   4.322   1.933  11.201
14252SOL     OW44196   4.538   3.225  12.102
14252SOL    HW144197   4.626   3.230  12.065
14252SOL    HW244198   4.480   3.241  12.027
14253SOL     OW44199   4.686   2.367  12.075
14253SOL    HW144200   4.647   2.366  11.988
14253SOL    HW244201   4.701   2.275  12.096
14254SOL     OW44202   4.274   1.921  11.659
14254SOL    HW144203   4.202   1.924  11.722
14254SOL    HW244204   4.262   2.000  11.606
14255SOL     OW44205   5.151   3.064  11.210
14255SOL    HW144206   5.178   2.987  11.260
14255SOL    HW244207   5.063   3.084  11.242
14256SOL     OW44208   4.030   1.923  11.360
14256SOL    HW144209   4.089   1.994  11.386
14256SOL    HW244210   4.070   1.844  11.398
14257SOL     OW44211   4.658   2.099  11.629
14257SOL    HW144212   4.627   2.176  11.583
14257SOL    HW244213   4.753   2.112  11.638
14258SOL     OW44214   4.965   3.416  11.947
14258SOL    HW144215   4.963   3.494  11.893
14258SOL    HW244216   4.969   3.449  12.037
14259SOL     OW44217   4.193   3.024  11.902
14259SOL    HW144218   4.131   2.999  11.970
14259SOL    HW244219   4.147   3.008  11.820
14260SOL     OW44220   4.974   3.652  11.756
14260SOL    HW144221   5.024   3.728  11.726
14260SOL    HW244222   4.903   3.689  11.808
14261SOL     OW44223   4.759   2.401  11.190
14261SOL    HW144224   4.705   2.479  11.179
14261SOL    HW244225   4.800   2.412  11.276
14262SOL     OW44226   4.303   2.061  12.381
14262SOL    HW144227   4.339   1.992  12.326
14262SOL    HW244228   4.210   2.063  12.360
14263SOL     OW44229   4.579   2.331  11.828
14263SOL    HW144230   4.489   2.350  11.857
14263SOL    HW244231   4.573   2.243  11.790
14264SOL     OW44232   4.752   1.910  11.913
14264SOL    HW144233   4.678   1.900  11.853
14264SOL    HW244234   4.740   1.841  11.978
14265SOL     OW44235   5.163   3.008  12.023
14265SOL    HW144236   5.100   2.937  12.035
14265SOL    HW244237   5.163   3.024  11.928
14266SOL     OW44238   5.201   2.470  12.134
14266SOL    HW144239   5.137   2.399  12.134
14266SOL    HW244240   5.251   2.458  12.215
14267SOL     OW44241   5.611   2.674  11.535
14267SOL    HW144242   5.650   2.621  11.604
14267SOL    HW244243   5.541   2.619  11.499
14268SOL     OW44244   4.204   3.289  11.318
14268SOL    HW144245   4.134   3.255  11.374
14268SOL    HW244246   4.197   3.237  11.238
14269SOL     OW44247   5.414   3.154  11.783
14269SOL    HW144248   5.503   3.149  11.817
14269SOL    HW244249   5.376   3.230  11.826
14270SOL     OW44250   5.120   2.446  11.295
14270SOL    HW144251   5.040   2.422  11.341
14270SOL    HW244252   5.178   2.480  11.363
14271SOL     OW44253   4.226   2.116  11.466
14271SOL    HW144254   4.292   2.081  11.406
14271SOL    HW244255   4.211   2.205  11.434
14272SOL     OW44256   4.834   3.081  12.289
14272SOL    HW144257   4.757   3.101  12.343
14272SOL    HW244258   4.810   3.112  12.201
14273SOL     OW44259   5.300   2.998  12.272
14273SOL    HW144260   5.237   2.998  12.344
14273SOL    HW244261   5.246   3.001  12.193
14274SOL     OW44262   4.427   2.922  11.545
14274SOL    HW144263   4.417   2.902  11.638
14274SOL    HW244264   4.501   2.869  11.517
14275SOL     OW44265   4.145   2.690  12.444
14275SOL    HW144266   4.210   2.706  12.512
14275SOL    HW244267   4.113   2.601  12.461
14276SOL     OW44268   4.966   2.208  12.447
14276SOL    HW144269   4.998   2.297  12.459
14276SOL    HW244270   4.875   2.219  12.417
14277SOL     OW44271   4.046   2.980  11.673
14277SOL    HW144272   4.068   3.039  11.602
14277SOL    HW244273   4.047   2.893  11.634
14278SOL     OW44274   4.971   3.211  11.563
14278SOL    HW144275   5.028   3.281  11.594
14278SOL    HW244276   4.886   3.229  11.603
14279SOL     OW44277   5.030   3.275  12.317
14279SOL    HW144278   4.995   3.343  12.374
14279SOL    HW244279   4.963   3.206  12.319
14280SOL     OW44280   5.335   2.569  11.583
14280SOL    HW144281   5.298   2.495  11.631
14280SOL    HW244282   5.267   2.636  11.587
14281SOL     OW44283   4.098   3.415  12.470
14281SOL    HW144284   4.075   3.360  12.394
14281SOL    HW244285   4.176   3.463  12.442
14282SOL     OW44286   4.291   2.745  12.213
14282SOL    HW144287   4.328   2.832  12.221
14282SOL    HW244288   4.236   2.735  12.291
14283SOL     OW44289   5.043   2.700  12.165
14283SOL    HW144290   4.954   2.672  12.143
14283SOL    HW244291   5.096   2.621  12.153
14284SOL     OW44292   4.898   2.381  11.430
14284SOL    HW144293   4.912   2.305  11.488
14284SOL    HW244294   4.861   2.448  11.487
14285SOL     OW44295   3.994   2.044  12.434
14285SOL    HW144296   3.902   2.053  12.456
14285SOL    HW244297   4.007   1.950  12.422
14286SOL     OW44298   3.776   3.193  12.432
14286SOL    HW144299   3.800   3.114  12.481
14286SOL    HW244300   3.788   3.264  12.495
14287SOL     OW44301   4.465   2.522  12.258
14287SOL    HW144302   4.472   2.466  12.181
14287SOL    HW244303   4.401   2.590  12.232
14288SOL     OW44304   4.030   1.921  11.796
14288SOL    HW144305   4.008   2.012  11.817
14288SOL    HW244306   4.045   1.880  11.881
14289SOL     OW44307   5.351   2.238  11.534
14289SOL    HW144308   5.393   2.174  11.591
14289SOL    HW244309   5.283   2.277  11.589
14290SOL     OW44310   4.774   2.615  12.141
14290SOL    HW144311   4.756   2.626  12.234
14290SOL    HW244312   4.742   2.527  12.121
14291SOL     OW44313   5.254   2.128  11.312
14291SOL    HW144314   5.197   2.055  11.334
14291SOL    HW244315   5.287   2.160  11.396
14292SOL     OW44316   5.005   2.689  11.196
14292SOL    HW144317   5.049   2.606  11.213
14292SOL    HW244318   5.042   2.719  11.113
14293SOL     OW44319   4.798   3.202  12.025
14293SOL    HW144320   4.802   3.127  11.965
14293SOL    HW244321   4.864   3.263  11.992
14294SOL     OW44322   4.041   2.672  12.100
14294SOL    HW144323   4.134   2.690  12.110
14294SOL    HW244324   4.031   2.581  12.128
14295SOL     OW44325   4.045   2.407  12.166
14295SOL    HW144326   4.015   2.316  12.173
14295SOL    HW244327   4.128   2.401  12.119
14296SOL     OW44328   4.883   2.061   0.159
14296SOL    HW144329   4.846   2.130   0.215
14296SOL    HW244330   4.910   2.107   0.079
14297SOL     OW44331   3.702   3.184  11.419
14297SOL    HW144332   3.618   3.191  11.373
14297SOL    HW244333   3.713   3.090  11.434
14298SOL     OW44334   3.814   3.645  12.108
14298SOL    HW144335   3.787   3.565  12.063
14298SOL    HW244336   3.905   3.659  12.080
14299SOL     OW44337   4.215   3.433  12.070
14299SOL    HW144338   4.284   3.497  12.089
14299SOL    HW244339   4.258   3.370  12.012
14300SOL     OW44340   4.693   2.638  12.408
14300SOL    HW144341   4.679   2.721  12.454
14300SOL    HW244342   4.606   2.613  12.377
14301SOL     OW44343   3.785   2.417  12.291
14301SOL    HW144344   3.868   2.426  12.244
14301SOL    HW244345   3.778   2.324  12.312
14302SOL     OW44346   4.559   2.437  11.485
14302SOL    HW144347   4.539   2.354  11.441
14302SOL    HW244348   4.477   2.486  11.482
14303SOL     OW44349   5.379   2.468  12.352
14303SOL    HW144350   5.372   2.412  12.429
14303SOL    HW244351   5.469   2.456  12.321
14304SOL     OW44352   4.391   2.328  12.459
14304SOL    HW144353   4.361   2.247  12.417
14304SOL    HW244354   4.404   2.389  12.386
14305SOL     OW44355   4.617   3.506   0.048
14305SOL    HW144356   4.711   3.500   0.026
14305SOL    HW244357   4.606   3.596   0.081
14306SOL     OW44358   4.184   2.357  11.337
14306SOL    HW144359   4.240   2.425  11.375
14306SOL    HW244360   4.097   2.397  11.333
14307SOL     OW44361   5.042   2.884  12.360
14307SOL    HW144362   5.038   2.823  12.286
14307SOL    HW244363   4.973   2.947  12.342
14308SOL     OW44364   5.054   2.711  11.481
14308SOL    HW144365   4.996   2.677  11.548
14308SOL    HW244366   5.000   2.716  11.402
14309SOL     OW44367   5.465   3.599  12.285
14309SOL    HW144368   5.545   3.626  12.240
14309SOL    HW244369   5.468   3.504  12.287
14310SOL     OW44370   4.966   3.553  12.181
14310SOL    HW144371   5.056   3.585  12.174
14310SOL    HW244372   4.951   3.545  12.275
14311SOL     OW44373   3.813   3.158  12.166
14311SOL    HW144374   3.799   3.165  12.261
14311SOL    HW244375   3.762   3.081  12.140
14312SOL     OW44376   5.485   2.045  11.678
14312SOL    HW144377   5.545   2.025  11.607
14312SOL    HW244378   5.458   1.959  11.711
14313SOL     OW44379   5.099   3.440  11.637
14313SOL    HW144380   5.170   3.479  11.587
14313SOL    HW244381   5.060   3.512  11.686
14314SOL     OW44382   5.009   2.808  11.860
14314SOL    HW144383   5.078   2.743  11.874
14314SOL    HW244384   5.048   2.872  11.800
14315SOL     OW44385   4.381   3.488  11.322
14315SOL    HW144386   4.395   3.509  11.229
14315SOL    HW244387   4.323   3.412  11.321
14316SOL     OW44388   5.371   3.677   0.036
14316SOL    HW144389   5.421   3.665  -0.044
14316SOL    HW244390   5.437   3.684   0.105
14317SOL     OW44391   5.567   2.037  12.144
14317SOL    HW144392   5.595   1.947  12.125
14317SOL    HW244393   5.480   2.044  12.105
14318SOL     OW44394   3.974   2.167  11.891
14318SOL    HW144395   3.908   2.236  11.895
14318SOL    HW244396   4.012   2.165  11.979
14319SOL     OW44397   4.910   3.473  11.250
14319SOL    HW144398   4.918   3.378  11.249
14319SOL    HW244399   4.856   3.493  11.174
14320SOL     OW44400   4.531   2.887  12.478
14320SOL    HW144401   4.520   2.924  12.390
14320SOL    HW244402   4.587   2.950  12.524
14321SOL     OW44403   4.638   2.783  11.453
14321SOL    HW144404   4.705   2.818  11.394
14321SOL    HW244405   4.682   2.711  11.499
14322SOL     OW44406   5.206   3.501  11.218
14322SOL    HW144407   5.114   3.486  11.198
14322SOL    HW244408   5.249   3.506  11.133
14323SOL     OW44409   4.788   2.976  11.877
14323SOL    HW144410   4.714   2.928  11.915
14323SOL    HW244411   4.856   2.910  11.865
14324SOL     OW44412   4.750   2.097  12.133
14324SOL    HW144413   4.750   2.050  12.049
14324SOL    HW244414   4.744   2.029  12.199
14325SOL     OW44415   4.327   3.348  11.640
14325SOL    HW144416   4.374   3.297  11.574
14325SOL    HW244417   4.261   3.397  11.590
14326SOL     OW44418   5.491   2.294   0.057
14326SOL    HW144419   5.583   2.292   0.028
14326SOL    HW244420   5.455   2.211   0.028
14327SOL     OW44421   3.980   3.209  11.459
14327SOL    HW144422   3.890   3.176  11.454
14327SOL    HW244423   3.986   3.247  11.547
14328SOL     OW44424   3.806   2.181  11.195
14328SOL    HW144425   3.715   2.164  11.171
14328SOL    HW244426   3.830   2.259  11.145
14329SOL     OW44427   3.784   2.012  11.475
14329SOL    HW144428   3.779   2.096  11.429
14329SOL    HW244429   3.872   1.980  11.456
14330SOL     OW44430   4.912   3.202  11.290
14330SOL    HW144431   4.816   3.197  11.285
14330SOL    HW244432   4.931   3.183  11.382
14331SOL     OW44433   5.229   3.636  12.137
14331SOL    HW144434   5.236   3.726  12.106
14331SOL    HW244435   5.302   3.625  12.198
14332SOL     OW44436   5.422   2.741  12.383
14332SOL    HW144437   5.404   2.649  12.367
14332SOL    HW244438   5.342   2.786  12.356
14333SOL     OW44439   4.938   2.167  11.607
14333SOL    HW144440   4.993   2.089  11.603
14333SOL    HW244441   4.987   2.229  11.661
14334SOL     OW44442   4.332   2.613  11.722
14334SOL    HW144443   4.364   2.693  11.765
14334SOL    HW244444   4.319   2.551  11.794
14335SOL     OW44445   5.539   2.737   0.127
14335SOL    HW144446   5.491   2.804   0.175
14335SOL    HW244447   5.496   2.731   0.042
14336SOL     OW44448   4.647   3.273  11.264
14336SOL    HW144449   4.582   3.236  11.324
14336SOL    HW244450   4.599   3.286  11.183
14337SOL     OW44451   4.389   3.636  12.094
14337SOL    HW144452   4.366   3.728  12.084
14337SOL    HW244453   4.485   3.635  12.100
14338SOL     OW44454   4.598   2.838  12.027
14338SOL    HW144455   4.640   2.757  12.057
14338SOL    HW244456   4.559   2.876  12.105
14339SOL     OW44457   4.822   2.875  11.272
14339SOL    HW144458   4.785   2.916  11.194
14339SOL    HW244459   4.881   2.807  11.238
14340SOL     OW44460   5.552   3.409  12.028
14340SOL    HW144461   5.476   3.410  11.970
14340SOL    HW244462   5.519   3.371  12.110
14341SOL     OW44463   3.819   3.076  11.836
14341SOL    HW144464   3.846   3.046  11.923
14341SOL    HW244465   3.886   3.042  11.777
14342SOL     OW44466   5.505   2.041  12.424
14342SOL    HW144467   5.591   2.005  12.446
14342SOL    HW244468   5.507   2.050  12.328
14343SOL     OW44469   4.136   2.316  11.675
14343SOL    HW144470   4.176   2.236  11.640
14343SOL    HW244471   4.142   2.304  11.770
14344SOL     OW44472   5.436   3.315  12.264
14344SOL    HW144473   5.352   3.306  12.219
14344SOL    HW244474   5.413   3.313  12.357
14345SOL     OW44475   4.559   3.437  11.845
14345SOL    HW144476   4.522   3.515  11.804
14345SOL    HW244477   4.485   3.378  11.857
14346SOL     OW44478   5.166   2.085  12.300
14346SOL    HW144479   5.226   2.033  12.353
14346SOL    HW244480   5.100   2.118  12.362
14347SOL     OW44481   4.722   1.882  12.320
14347SOL    HW144482   4.646   1.851  12.269
14347SOL    HW244483   4.794   1.825  12.292
14348SOL     OW44484   4.505   3.182  11.494
14348SOL    HW144485   4.459   3.098  11.493
14348SOL    HW244486   4.581   3.167  11.550
14349SOL     OW44487   5.095   1.911  11.291
14349SOL    HW144488   5.145   1.835  11.320
14349SOL    HW244489   5.005   1.893  11.320
14350SOL     OW44490   5.309   2.057  12.062
14350SOL    HW144491   5.248   2.071  12.135
14350SOL    HW244492   5.297   2.134  12.006
14351SOL     OW44493   3.767   2.920  11.476
14351SOL    HW144494   3.859   2.905  11.456
14351SOL    HW244495   3.733   2.833  11.498
14352SOL     OW44496   4.582   3.528  11.498
14352SOL    HW144497   4.507   3.512  11.440
14352SOL    HW244498   4.550   3.593  11.561
14353SOL     OW44499   3.940   4.283   0.040
14353SOL    HW144500   3.913   4.343   0.110
14353SOL    HW244501   4.008   4.332  -0.008
14354SOL     OW44502   3.954   3.998   0.986
14354SOL    HW144503   3.990   3.964   1.068
14354SOL    HW244504   3.867   3.959   0.980
14355SOL     OW44505   3.723   4.092   0.657
14355SOL    HW144506   3.644   4.124   0.700
14355SOL    HW244507   3.694   4.019   0.603
14356SOL     OW44508   4.301   5.026   1.179
14356SOL    HW144509   4.215   5.029   1.138
14356SOL    HW244510   4.312   5.112   1.219
14357SOL     OW44511   5.294   5.236   0.710
14357SOL    HW144512   5.250   5.242   0.795
14357SOL    HW244513   5.224   5.247   0.646
14358SOL     OW44514   4.868   4.426   0.697
14358SOL    HW144515   4.910   4.511   0.685
14358SOL    HW244516   4.818   4.436   0.779
14359SOL     OW44517   5.462   4.324   0.231
14359SOL    HW144518   5.384   4.331   0.177
14359SOL    HW244519   5.448   4.247   0.286
14360SOL     OW44520   4.494   4.870   1.057
14360SOL    HW144521   4.425   4.903   1.116
14360SOL    HW244522   4.519   4.945   1.004
14361SOL     OW44523   4.567   4.460   1.842
14361SOL    HW144524   4.569   4.535   1.902
14361SOL    HW244525   4.588   4.498   1.757
14362SOL     OW44526   4.398   4.772   0.672
14362SOL    HW144527   4.476   4.745   0.721
14362SOL    HW244528   4.330   4.710   0.699
14363SOL     OW44529   4.425   4.871   1.819
14363SOL    HW144530   4.472   4.949   1.850
14363SOL    HW244531   4.346   4.906   1.778
14364SOL     OW44532   4.064   5.133   1.068
14364SOL    HW144533   3.984   5.095   1.031
14364SOL    HW244534   4.097   5.189   0.998
14365SOL     OW44535   5.183   5.226   1.355
14365SOL    HW144536   5.239   5.303   1.367
14365SOL    HW244537   5.110   5.240   1.416
14366SOL     OW44538   4.200   4.119   1.549
14366SOL    HW144539   4.262   4.059   1.507
14366SOL    HW244540   4.114   4.083   1.530
14367SOL     OW44541   5.317   4.181   0.720
14367SOL    HW144542   5.223   4.176   0.703
14367SOL    HW244543   5.345   4.260   0.675
14368SOL     OW44544   3.946   5.414   0.471
14368SOL    HW144545   3.946   5.493   0.526
14368SOL    HW244546   4.025   5.423   0.418
14369SOL     OW44547   4.857   5.073   1.689
14369SOL    HW144548   4.889   5.056   1.777
14369SOL    HW244549   4.799   4.999   1.670
14370SOL     OW44550   3.965   5.163   0.585
14370SOL    HW144551   3.973   5.253   0.554
14370SOL    HW244552   3.873   5.155   0.611
14371SOL     OW44553   4.017   4.829   0.875
14371SOL    HW144554   4.018   4.738   0.904
14371SOL    HW244555   3.955   4.872   0.933
14372SOL     OW44556   4.323   5.515   1.430
14372SOL    HW144557   4.242   5.497   1.478
14372SOL    HW244558   4.347   5.604   1.455
14373SOL     OW44559   4.314   4.694   0.145
14373SOL    HW144560   4.380   4.719   0.080
14373SOL    HW244561   4.342   4.737   0.226
14374SOL     OW44562   5.311   3.763   1.406
14374SOL    HW144563   5.359   3.838   1.371
14374SOL    HW244564   5.299   3.784   1.499
14375SOL     OW44565   3.851   4.351   0.578
14375SOL    HW144566   3.784   4.284   0.592
14375SOL    HW244567   3.834   4.416   0.646
14376SOL     OW44568   5.586   5.459   0.312
14376SOL    HW144569   5.654   5.441   0.377
14376SOL    HW244570   5.591   5.553   0.298
14377SOL     OW44571   3.761   5.222   0.155
14377SOL    HW144572   3.669   5.198   0.143
14377SOL    HW244573   3.758   5.313   0.184
14378SOL     OW44574   5.421   4.633   0.628
14378SOL    HW144575   5.503   4.612   0.674
14378SOL    HW244576   5.432   4.595   0.541
14379SOL     OW44577   3.859   4.536   1.621
14379SOL    HW144578   3.951   4.511   1.614
14379SOL    HW244579   3.815   4.485   1.553
14380SOL     OW44580   4.308   5.073   0.725
14380SOL    HW144581   4.352   4.991   0.703
14380SOL    HW244582   4.314   5.126   0.645
14381SOL     OW44583   5.004   4.958   1.418
14381SOL    HW144584   5.053   4.902   1.358
14381SOL    HW244585   5.057   4.961   1.497
14382SOL     OW44586   4.556   3.748   0.524
14382SOL    HW144587   4.593   3.831   0.496
14382SOL    HW244588   4.462   3.760   0.520
14383SOL     OW44589   3.913   4.678   1.280
14383SOL    HW144590   4.000   4.642   1.263
14383SOL    HW244591   3.854   4.603   1.270
14384SOL     OW44592   5.256   4.707   0.318
14384SOL    HW144593   5.179   4.651   0.309
14384SOL    HW244594   5.312   4.684   0.244
14385SOL     OW44595   4.919   5.544   1.629
14385SOL    HW144596   4.919   5.612   1.562
14385SOL    HW244597   4.950   5.466   1.582
14386SOL     OW44598   4.071   3.973   1.848
14386SOL    HW144599   4.092   4.060   1.813
14386SOL    HW244600   3.977   3.978   1.869
14387SOL     OW44601   5.190   5.127   0.960
14387SOL    HW144602   5.114   5.148   1.014
14387SOL    HW244603   5.169   5.043   0.920
14388SOL     OW44604   5.378   5.480   0.584
14388SOL    HW144605   5.355   5.446   0.497
14388SOL    HW244606   5.364   5.406   0.643
14389SOL     OW44607   4.353   4.476   0.319
14389SOL    HW144608   4.353   4.539   0.247
14389SOL    HW244609   4.260   4.455   0.332
14390SOL     OW44610   4.999   4.100   0.938
14390SOL    HW144611   4.911   4.062   0.943
14390SOL    HW244612   5.052   4.043   0.993
14391SOL     OW44613   5.319   5.393   0.328
14391SOL    HW144614   5.414   5.405   0.321
14391SOL    HW244615   5.285   5.418   0.242
14392SOL     OW44616   4.503   4.318   1.458
14392SOL    HW144617   4.457   4.276   1.531
14392SOL    HW244618   4.483   4.262   1.383
14393SOL     OW44619   5.124   4.192   1.686
14393SOL    HW144620   5.138   4.223   1.775
14393SOL    HW244621   5.173   4.109   1.682
14394SOL     OW44622   4.651   4.571   1.604
14394SOL    HW144623   4.712   4.520   1.550
14394SOL    HW244624   4.621   4.641   1.547
14395SOL     OW44625   4.726   4.126   1.217
14395SOL    HW144626   4.634   4.141   1.239
14395SOL    HW244627   4.723   4.079   1.134
14396SOL     OW44628   4.788   4.424   0.431
14396SOL    HW144629   4.804   4.414   0.525
14396SOL    HW244630   4.703   4.381   0.417
14397SOL     OW44631   3.815   4.537   0.775
14397SOL    HW144632   3.895   4.540   0.828
14397SOL    HW244633   3.764   4.612   0.805
14398SOL     OW44634   3.846   5.595   1.590
14398SOL    HW144635   3.846   5.567   1.682
14398SOL    HW244636   3.765   5.560   1.554
14399SOL     OW44637   4.621   4.085   0.226
14399SOL    HW144638   4.612   4.156   0.163
14399SOL    HW244639   4.579   4.010   0.184
14400SOL     OW44640   5.445   4.297   1.821
14400SOL    HW144641   5.401   4.368   1.775
14400SOL    HW244642   5.454   4.228   1.754
14401SOL     OW44643   5.111   4.855   0.508
14401SOL    HW144644   5.116   4.798   0.432
14401SOL    HW244645   5.057   4.929   0.480
14402SOL     OW44646   4.275   3.925   0.890
14402SOL    HW144647   4.278   3.938   0.985
14402SOL    HW244648   4.304   4.009   0.854
14403SOL     OW44649   4.727   5.177   0.477
14403SOL    HW144650   4.694   5.243   0.416
14403SOL    HW244651   4.689   5.201   0.562
14404SOL     OW44652   4.079   5.541   0.865
14404SOL    HW144653   4.123   5.456   0.872
14404SOL    HW244654   4.149   5.605   0.874
14405SOL     OW44655   5.509   4.739   0.882
14405SOL    HW144656   5.465   4.774   0.804
14405SOL    HW244657   5.455   4.770   0.955
14406SOL     OW44658   4.940   5.267   1.495
14406SOL    HW144659   4.927   5.195   1.557
14406SOL    HW244660   4.852   5.303   1.481
14407SOL     OW44661   4.046   4.687   0.235
14407SOL    HW144662   4.137   4.695   0.209
14407SOL    HW244663   3.997   4.690   0.153
14408SOL     OW44664   5.195   4.493   0.734
14408SOL    HW144665   5.201   4.437   0.811
14408SOL    HW244666   5.282   4.529   0.723
14409SOL     OW44667   4.192   5.000   1.736
14409SOL    HW144668   4.163   5.011   1.645
14409SOL    HW244669   4.112   4.982   1.785
14410SOL     OW44670   4.843   5.497   0.271
14410SOL    HW144671   4.761   5.461   0.306
14410SOL    HW244672   4.870   5.433   0.205
14411SOL     OW44673   3.952   4.006   1.501
14411SOL    HW144674   3.879   4.063   1.477
14411SOL    HW244675   3.910   3.925   1.530
14412SOL     OW44676   5.370   5.123   0.088
14412SOL    HW144677   5.308   5.190   0.061
14412SOL    HW244678   5.318   5.043   0.095
14413SOL     OW44679   5.143   3.845   0.433
14413SOL    HW144680   5.126   3.810   0.345
14413SOL    HW244681   5.236   3.829   0.448
14414SOL     OW44682   4.001   5.534   1.213
14414SOL    HW144683   4.034   5.452   1.251
14414SOL    HW244684   3.952   5.506   1.135
14415SOL     OW44685   4.668   5.426   0.892
14415SOL    HW144686   4.757   5.392   0.902
14415SOL    HW244687   4.631   5.374   0.821
14416SOL     OW44688   4.108   4.391   0.471
14416SOL    HW144689   4.116   4.333   0.395
14416SOL    HW244690   4.018   4.378   0.501
14417SOL     OW44691   5.249   3.937   1.708
14417SOL    HW144692   5.262   3.947   1.802
14417SOL    HW244693   5.178   3.873   1.700
14418SOL     OW44694   4.326   3.835   0.136
14418SOL    HW144695   4.414   3.799   0.138
14418SOL    HW244696   4.330   3.905   0.071
14419SOL     OW44697   4.488   4.039   1.797
14419SOL    HW144698   4.563   3.987   1.768
14419SOL    HW244699   4.430   3.976   1.839
14420SOL     OW44700   4.596   5.245   1.196
14420SOL    HW144701   4.579   5.220   1.105
14420SOL    HW244702   4.647   5.172   1.232
14421SOL     OW44703   5.065   4.312   1.437
14421SOL    HW144704   5.096   4.285   1.523
14421SOL    HW244705   5.101   4.400   1.425
14422SOL     OW44706   4.553   5.112   0.936
14422SOL    HW144707   4.627   5.120   0.877
14422SOL    HW244708   4.477   5.131   0.882
14423SOL     OW44709   4.650   4.235   0.896
14423SOL    HW144710   4.624   4.223   0.804
14423SOL    HW244711   4.677   4.148   0.925
14424SOL     OW44712   4.286   3.782   0.493
14424SOL    HW144713   4.206   3.772   0.544
14424SOL    HW244714   4.274   3.864   0.445
14425SOL     OW44715   5.167   4.936   0.086
14425SOL    HW144716   5.141   4.856   0.040
14425SOL    HW244717   5.085   4.984   0.100
14426SOL     OW44718   4.049   3.797   0.204
14426SOL    HW144719   4.138   3.820   0.176
14426SOL    HW244720   4.057   3.709   0.240
14427SOL     OW44721   4.679   3.986   0.471
14427SOL    HW144722   4.658   4.020   0.384
14427SOL    HW244723   4.774   3.990   0.477
14428SOL     OW44724   4.801   4.403   1.438
14428SOL    HW144725   4.738   4.333   1.452
14428SOL    HW244726   4.886   4.360   1.442
14429SOL     OW44727   4.945   5.319   0.805
14429SOL    HW144728   4.957   5.375   0.728
14429SOL    HW244729   4.999   5.360   0.873
14430SOL     OW44730   4.981   5.518   0.614
14430SOL    HW144731   5.035   5.578   0.562
14430SOL    HW244732   4.914   5.575   0.653
14431SOL     OW44733   4.741   4.338   0.088
14431SOL    HW144734   4.732   4.274   0.017
14431SOL    HW244735   4.801   4.297   0.150
14432SOL     OW44736   4.291   3.952   1.163
14432SOL    HW144737   4.325   3.866   1.189
14432SOL    HW244738   4.201   3.952   1.196
14433SOL     OW44739   4.583   4.184   0.640
14433SOL    HW144740   4.558   4.237   0.565
14433SOL    HW244741   4.614   4.102   0.602
14434SOL     OW44742   4.704   3.804   0.764
14434SOL    HW144743   4.668   3.788   0.676
14434SOL    HW244744   4.708   3.717   0.804
14435SOL     OW44745   5.149   4.879   0.848
14435SOL    HW144746   5.095   4.802   0.831
14435SOL    HW244747   5.185   4.901   0.762
14436SOL     OW44748   5.173   4.345   0.970
14436SOL    HW144749   5.124   4.263   0.964
14436SOL    HW244750   5.240   4.329   1.036
14437SOL     OW44751   5.547   4.539   0.399
14437SOL    HW144752   5.594   4.476   0.453
14437SOL    HW244753   5.497   4.485   0.338
14438SOL     OW44754   4.233   5.101   0.149
14438SOL    HW144755   4.153   5.071   0.192
14438SOL    HW244756   4.237   5.052   0.068
14439SOL     OW44757   5.409   4.995   0.624
14439SOL    HW144758   5.500   4.987   0.650
14439SOL    HW244759   5.381   5.081   0.655
14440SOL     OW44760   4.245   4.005   0.345
14440SOL    HW144761   4.283   3.953   0.274
14440SOL    HW244762   4.230   4.091   0.306
14441SOL     OW44763   5.489   4.955   1.573
14441SOL    HW144764   5.545   4.912   1.637
14441SOL    HW244765   5.511   5.048   1.582
14442SOL     OW44766   4.771   5.025   1.292
14442SOL    HW144767   4.692   5.014   1.345
14442SOL    HW244768   4.843   5.007   1.352
14443SOL     OW44769   5.344   5.344   1.659
14443SOL    HW144770   5.330   5.388   1.575
14443SOL    HW244771   5.427   5.298   1.649
14444SOL     OW44772   5.336   4.821   1.078
14444SOL    HW144773   5.334   4.889   1.146
14444SOL    HW244774   5.262   4.843   1.021
14445SOL     OW44775   4.662   3.744   1.392
14445SOL    HW144776   4.675   3.746   1.297
14445SOL    HW244777   4.728   3.805   1.426
14446SOL     OW44778   4.681   4.865   1.674
14446SOL    HW144779   4.595   4.865   1.717
14446SOL    HW244780   4.729   4.794   1.718
14447SOL     OW44781   4.427   4.788   0.379
14447SOL    HW144782   4.415   4.779   0.473
14447SOL    HW244783   4.508   4.740   0.360
14448SOL     OW44784   4.160   4.550   1.249
14448SOL    HW144785   4.219   4.562   1.323
14448SOL    HW244786   4.135   4.458   1.253
14449SOL     OW44787   4.988   4.091   1.286
14449SOL    HW144788   5.019   4.170   1.331
14449SOL    HW244789   4.900   4.111   1.257
14450SOL     OW44790   3.796   5.297   1.362
14450SOL    HW144791   3.754   5.354   1.298
14450SOL    HW244792   3.889   5.302   1.340
14451SOL     OW44793   4.078   4.860   0.474
14451SOL    HW144794   4.060   4.924   0.405
14451SOL    HW244795   4.088   4.777   0.427
14452SOL     OW44796   4.262   4.252   0.848
14452SOL    HW144797   4.276   4.320   0.782
14452SOL    HW244798   4.326   4.271   0.917
14453SOL     OW44799   4.971   5.072   0.413
14453SOL    HW144800   5.026   5.147   0.435
14453SOL    HW244801   4.882   5.099   0.436
14454SOL     OW44802   5.001   5.152   1.169
14454SOL    HW144803   5.083   5.166   1.217
14454SOL    HW244804   4.932   5.177   1.232
14455SOL     OW44805   5.296   4.362   0.496
14455SOL    HW144806   5.225   4.408   0.540
14455SOL    HW244807   5.278   4.374   0.402
14456SOL     OW44808   4.065   5.267   1.300
14456SOL    HW144809   4.056   5.214   1.220
14456SOL    HW244810   4.159   5.274   1.313
14457SOL     OW44811   4.135   4.467   1.605
14457SOL    HW144812   4.205   4.501   1.550
14457SOL    HW244813   4.134   4.373   1.588
14458SOL     OW44814   5.338   4.502   1.683
14458SOL    HW144815   5.251   4.540   1.689
14458SOL    HW244816   5.381   4.551   1.613
14459SOL     OW44817   4.703   3.877   1.743
14459SOL    HW144818   4.774   3.937   1.718
14459SOL    HW244819   4.741   3.790   1.734
14460SOL     OW44820   4.236   3.781   1.743
14460SOL    HW144821   4.189   3.725   1.680
14460SOL    HW244822   4.170   3.845   1.771
14461SOL     OW44823   4.312   4.604   1.032
14461SOL    HW144824   4.338   4.696   1.040
14461SOL    HW244825   4.257   4.588   1.109
14462SOL     OW44826   5.046   4.584   1.012
14462SOL    HW144827   4.969   4.565   0.957
14462SOL    HW244828   5.100   4.505   1.005
14463SOL     OW44829   4.894   4.217   0.279
14463SOL    HW144830   4.924   4.153   0.343
14463SOL    HW244831   4.874   4.295   0.331
14464SOL     OW44832   4.035   3.932   1.241
14464SOL    HW144833   4.002   3.959   1.327
14464SOL    HW244834   4.012   3.840   1.235
14465SOL     OW44835   3.793   5.034   1.274
14465SOL    HW144836   3.809   4.977   1.349
14465SOL    HW244837   3.781   5.121   1.312
14466SOL     OW44838   4.435   4.350   1.040
14466SOL    HW144839   4.514   4.337   0.987
14466SOL    HW244840   4.411   4.441   1.025
14467SOL     OW44841   5.470   4.685   1.849
14467SOL    HW144842   5.425   4.616   1.801
14467SOL    HW244843   5.413   4.702   1.925
14468SOL     OW44844   4.042   3.767   0.614
14468SOL    HW144845   4.024   3.859   0.635
14468SOL    HW244846   4.054   3.725   0.699
14469SOL     OW44847   5.401   4.106   0.384
14469SOL    HW144848   5.402   4.016   0.414
14469SOL    HW244849   5.334   4.149   0.438
14470SOL     OW44850   4.753   4.480   0.953
14470SOL    HW144851   4.746   4.495   1.047
14470SOL    HW244852   4.725   4.390   0.941
14471SOL     OW44853   4.706   5.294   1.728
14471SOL    HW144854   4.691   5.334   1.642
14471SOL    HW244855   4.748   5.210   1.708
14472SOL     OW44856   5.587   5.218   1.587
14472SOL    HW144857   5.596   5.260   1.501
14472SOL    HW244858   5.664   5.245   1.635
14473SOL     OW44859   4.092   4.670   1.797
14473SOL    HW144860   4.171   4.667   1.851
14473SOL    HW244861   4.103   4.599   1.734
14474SOL     OW44862   5.299   3.974   0.087
14474SOL    HW144863   5.250   3.900   0.122
14474SOL    HW244864   5.249   4.051   0.114
14475SOL     OW44865   5.034   4.558   0.062
14475SOL    HW144866   5.079   4.474   0.057
14475SOL    HW244867   5.057   4.603  -0.020
14476SOL     OW44868   4.830   5.074   0.862
14476SOL    HW144869   4.821   5.009   0.792
14476SOL    HW244870   4.871   5.149   0.820
14477SOL     OW44871   4.041   4.542   0.933
14477SOL    HW144872   4.136   4.555   0.944
14477SOL    HW244873   4.025   4.455   0.969
14478SOL     OW44874   4.026   4.254   0.981
14478SOL    HW144875   4.010   4.161   1.000
14478SOL    HW244876   4.113   4.256   0.941
14479SOL     OW44877   4.862   4.101   1.679
14479SOL    HW144878   4.814   4.154   1.743
14479SOL    HW244879   4.950   4.140   1.677
14480SOL     OW44880   4.869   3.916   1.470
14480SOL    HW144881   4.860   3.982   1.538
14480SOL    HW244882   4.913   3.961   1.398
14481SOL     OW44883   3.822   5.498   0.949
14481SOL    HW144884   3.786   5.424   0.901
14481SOL    HW244885   3.907   5.515   0.908
14482SOL     OW44886   4.211   5.293   0.896
14482SOL    HW144887   4.281   5.353   0.919
14482SOL    HW244888   4.251   5.232   0.834
14483SOL     OW44889   4.700   4.525   1.217
14483SOL    HW144890   4.751   4.491   1.291
14483SOL    HW244891   4.610   4.497   1.234
14484SOL     OW44892   3.769   4.294   1.108
14484SOL    HW144893   3.854   4.287   1.064
14484SOL    HW244894   3.790   4.291   1.201
14485SOL     OW44895   3.910   4.242   1.725
14485SOL    HW144896   3.940   4.186   1.653
14485SOL    HW244897   3.855   4.308   1.682
14486SOL     OW44898   5.116   4.658   1.638
14486SOL    HW144899   5.121   4.753   1.638
14486SOL    HW244900   5.115   4.634   1.545
14487SOL     OW44901   4.545   4.304   0.397
14487SOL    HW144902   4.551   4.233   0.333
14487SOL    HW244903   4.478   4.363   0.362
14488SOL     OW44904   5.364   4.328   1.169
14488SOL    HW144905   5.334   4.270   1.239
14488SOL    HW244906   5.454   4.299   1.152
14489SOL     OW44907   3.960   5.265   1.724
14489SOL    HW144908   3.942   5.333   1.788
14489SOL    HW244909   3.964   5.184   1.775
14490SOL     OW44910   4.453   4.165   1.241
14490SOL    HW144911   4.392   4.092   1.226
14490SOL    HW244912   4.431   4.229   1.174
14491SOL     OW44913   4.682   5.390   1.459
14491SOL    HW144914   4.636   5.356   1.382
14491SOL    HW244915   4.668   5.485   1.455
14492SOL     OW44916   4.157   4.247   0.233
14492SOL    HW144917   4.233   4.234   0.177
14492SOL    HW244918   4.082   4.236   0.175
14493SOL     OW44919   3.864   4.853   1.480
14493SOL    HW144920   3.873   4.795   1.556
14493SOL    HW244921   3.879   4.796   1.404
14494SOL     OW44922   5.018   4.762   1.209
14494SOL    HW144923   5.043   4.706   1.136
14494SOL    HW244924   4.942   4.720   1.247
14495SOL     OW44925   5.021   4.568   0.336
14495SOL    HW144926   4.941   4.528   0.368
14495SOL    HW244927   5.015   4.561   0.241
14496SOL     OW44928   5.500   5.450   1.163
14496SOL    HW144929   5.553   5.489   1.093
14496SOL    HW244930   5.459   5.373   1.123
14497SOL     OW44931   4.952   5.450   1.089
14497SOL    HW144932   5.002   5.532   1.086
14497SOL    HW244933   5.011   5.387   1.129
14498SOL     OW44934   3.835   4.982   1.012
14498SOL    HW144935   3.819   4.997   1.106
14498SOL    HW244936   3.748   4.963   0.976
14499SOL     OW44937   4.399   5.400   1.746
14499SOL    HW144938   4.340   5.475   1.743
14499SOL    HW244939   4.473   5.425   1.690
14500SOL     OW44940   4.610   3.798   0.117
14500SOL    HW144941   4.660   3.833   0.043
14500SOL    HW244942   4.677   3.767   0.178
14501SOL     OW44943   5.450   3.855   0.491
14501SOL    HW144944   5.496   3.805   0.424
14501SOL    HW244945   5.424   3.789   0.556
14502SOL     OW44946   5.118   5.294   0.498
14502SOL    HW144947   5.178   5.326   0.431
14502SOL    HW244948   5.064   5.370   0.521
14503SOL     OW44949   3.868   5.505   1.851
14503SOL    HW144950   3.816   5.441   1.900
14503SOL    HW244951   3.914   5.554   1.919
14504SOL     OW44952   5.004   4.673   0.687
14504SOL    HW144953   5.073   4.607   0.699
14504SOL    HW244954   5.037   4.729   0.616
14505SOL     OW44955   4.531   5.008   1.416
14505SOL    HW144956   4.522   5.040   1.506
14505SOL    HW244957   4.448   5.031   1.374
14506SOL     OW44958   4.417   5.304   0.148
14506SOL    HW144959   4.355   5.366   0.189
14506SOL    HW244960   4.369   5.222   0.144
14507SOL     OW44961   5.341   5.441   1.394
14507SOL    HW144962   5.397   5.450   1.316
14507SOL    HW244963   5.320   5.531   1.419
14508SOL     OW44964   5.564   3.891   0.975
14508SOL    HW144965   5.593   3.804   0.949
14508SOL    HW244966   5.480   3.903   0.929
14509SOL     OW44967   4.917   5.329   0.067
14509SOL    HW144968   4.915   5.236   0.089
14509SOL    HW244969   4.831   5.347   0.031
14510SOL     OW44970   4.550   4.732   1.391
14510SOL    HW144971   4.584   4.731   1.301
14510SOL    HW244972   4.545   4.825   1.413
14511SOL     OW44973   4.662   4.663   0.334
14511SOL    HW144974   4.712   4.695   0.258
14511SOL    HW244975   4.700   4.577   0.352
14512SOL     OW44976   5.184   5.303   0.012
14512SOL    HW144977   5.093   5.325   0.032
14512SOL    HW244978   5.232   5.385   0.024
14513SOL     OW44979   4.081   5.036   1.493
14513SOL    HW144980   4.065   5.109   1.433
14513SOL    HW244981   4.010   4.975   1.477
14514SOL     OW44982   5.336   5.012   1.279
14514SOL    HW144983   5.397   4.996   1.351
14514SOL    HW244984   5.279   5.081   1.312
14515SOL     OW44985   4.786   4.845   0.727
14515SOL    HW144986   4.712   4.790   0.753
14515SOL    HW244987   4.850   4.783   0.691
14516SOL     OW44988   4.747   3.969   0.976
14516SOL    HW144989   4.732   3.929   0.891
14516SOL    HW244990   4.746   3.896   1.038
14517SOL     OW44991   4.345   5.218   0.499
14517SOL    HW144992   4.385   5.166   0.429
14517SOL    HW244993   4.299   5.288   0.453
14518SOL     OW44994   5.503   4.129   1.373
14518SOL    HW144995   5.537   4.185   1.304
14518SOL    HW244996   5.503   4.041   1.336
14519SOL     OW44997   3.983   5.063   0.302
14519SOL    HW144998   3.923   5.110   0.244
14519SOL    HW244999   3.988   5.118   0.380
14520SOL     OW45000   3.838   4.778   1.794
14520SOL    HW145001   3.782   4.710   1.756
14520SOL    HW245002   3.925   4.738   1.797
14521SOL     OW45003   4.406   3.909   1.493
14521SOL    HW145004   4.500   3.897   1.476
14521SOL    HW245005   4.399   3.910   1.588
14522SOL     OW45006   5.159   4.578   1.380
14522SOL    HW145007   5.116   4.643   1.324
14522SOL    HW245008   5.250   4.576   1.351
14523SOL     OW45009   3.800   3.873   0.300
14523SOL    HW145010   3.790   3.960   0.263
14523SOL    HW245011   3.889   3.846   0.275
14524SOL     OW45012   4.917   5.064   0.128
14524SOL    HW145013   4.829   5.034   0.105
14524SOL    HW245014   4.925   5.046   0.222
14525SOL     OW45015   4.350   4.549   1.445
14525SOL    HW145016   4.409   4.624   1.438
14525SOL    HW245017   4.408   4.473   1.452
14526SOL     OW45018   5.239   5.462   0.925
14526SOL    HW145019   5.277   5.519   0.859
14526SOL    HW245020   5.212   5.522   0.995
14527SOL     OW45021   5.193   4.927   1.626
14527SOL    HW145022   5.177   4.932   1.720
14527SOL    HW245023   5.287   4.945   1.616
14528SOL     OW45024   4.090   5.465   1.567
14528SOL    HW145025   4.006   5.508   1.551
14528SOL    HW245026   4.066   5.379   1.602
14529SOL     OW45027   5.397   4.604   1.245
14529SOL    HW145028   5.390   4.521   1.198
14529SOL    HW245029   5.385   4.671   1.179
14530SOL     OW45030   4.952   4.038   0.477
14530SOL    HW145031   5.016   3.968   0.460
14530SOL    HW245032   4.989   4.085   0.552
14531SOL     OW45033   4.293   4.463   0.664
14531SOL    HW145034   4.368   4.487   0.610
14531SOL    HW245035   4.223   4.444   0.601
14532SOL     OW45036   5.476   4.080   1.643
14532SOL    HW145037   5.464   4.109   1.552
14532SOL    HW245038   5.399   4.026   1.661
14533SOL     OW45039   5.483   4.652   1.503
14533SOL    HW145040   5.476   4.747   1.517
14533SOL    HW245041   5.464   4.640   1.410
14534SOL     OW45042   4.633   5.060   0.076
14534SOL    HW145043   4.567   5.086   0.139
14534SOL    HW245044   4.614   5.113  -0.002
14535SOL     OW45045   4.392   5.492   0.940
14535SOL    HW145046   4.366   5.581   0.916
14535SOL    HW245047   4.487   5.491   0.928
14536SOL     OW45048   4.596   4.694   0.856
14536SOL    HW145049   4.643   4.617   0.888
14536SOL    HW245050   4.558   4.733   0.934
14537SOL     OW45051   4.817   4.730   0.118
14537SOL    HW145052   4.749   4.724   0.051
14537SOL    HW245053   4.886   4.671   0.087
14538SOL     OW45054   5.551   5.248   0.833
14538SOL    HW145055   5.469   5.255   0.784
14538SOL    HW245056   5.524   5.228   0.922
14539SOL     OW45057   3.944   5.017   1.862
14539SOL    HW145058   3.906   4.934   1.832
14539SOL    HW245059   3.950   5.007   1.957
14540SOL     OW45060   3.811   4.918   0.659
14540SOL    HW145061   3.767   4.862   0.723
14540SOL    HW245062   3.787   4.880   0.574
14541SOL     OW45063   4.405   5.143   1.623
14541SOL    HW145064   4.332   5.094   1.661
14541SOL    HW245065   4.405   5.226   1.670
14542SOL     OW45066   5.516   3.891   1.246
14542SOL    HW145067   5.571   3.814   1.263
14542SOL    HW245068   5.519   3.903   1.151
14543SOL     OW45069   4.098   4.071   0.604
14543SOL    HW145070   4.108   4.050   0.511
14543SOL    HW245071   4.182   4.108   0.630
14544SOL     OW45072   5.429   5.190   1.074
14544SOL    HW145073   5.344   5.183   1.030
14544SOL    HW245074   5.421   5.134   1.151
14545SOL     OW45075   4.100   4.291   1.270
14545SOL    HW145076   4.025   4.282   1.330
14545SOL    HW245077   4.076   4.237   1.194
14546SOL     OW45078   4.552   5.318   0.661
14546SOL    HW145079   4.560   5.405   0.622
14546SOL    HW245080   4.479   5.277   0.615
14547SOL     OW45081   5.147   3.948   1.106
14547SOL    HW145082   5.148   3.855   1.127
14547SOL    HW245083   5.099   3.988   1.179
14548SOL     OW45084   4.746   3.728   1.125
14548SOL    HW145085   4.704   3.671   1.061
14548SOL    HW245086   4.830   3.686   1.143
14549SOL     OW45087   4.497   5.053   0.337
14549SOL    HW145088   4.464   4.963   0.336
14549SOL    HW245089   4.588   5.044   0.368
14550SOL     OW45090   4.341   5.280   1.291
14550SOL    HW145091   4.340   5.361   1.342
14550SOL    HW245092   4.429   5.277   1.254
14551SOL     OW45093   5.085   3.767   0.174
14551SOL    HW145094   5.060   3.691   0.120
14551SOL    HW245095   5.010   3.826   0.169
14552SOL     OW45096   5.040   4.196   0.687
14552SOL    HW145097   4.985   4.274   0.681
14552SOL    HW245098   5.019   4.159   0.773
14553SOL     OW45099   5.321   3.947   0.879
14553SOL    HW145100   5.255   3.959   0.947
14553SOL    HW245101   5.311   4.024   0.823
14554SOL     OW45102   3.766   4.812   0.397
14554SOL    HW145103   3.842   4.831   0.342
14554SOL    HW245104   3.763   4.716   0.401
14555SOL     OW45105   4.601   5.384   0.348
14555SOL    HW145106   4.535   5.353   0.286
14555SOL    HW245107   4.556   5.455   0.396
14556SOL     OW45108   3.968   4.341   1.981
14556SOL    HW145109   3.886   4.327   2.028
14556SOL    HW245110   3.946   4.321   1.889
14557SOL     OW45111   3.944   3.996   2.860
14557SOL    HW145112   4.005   3.938   2.905
14557SOL    HW245113   3.857   3.963   2.883
14558SOL     OW45114   3.718   4.131   2.492
14558SOL    HW145115   3.637   4.157   2.537
14558SOL    HW245116   3.698   4.046   2.454
14559SOL     OW45117   4.261   5.030   3.036
14559SOL    HW145118   4.214   5.002   3.114
14559SOL    HW245119   4.294   5.117   3.057
14560SOL     OW45120   5.299   5.232   2.593
14560SOL    HW145121   5.262   5.204   2.676
14560SOL    HW245122   5.224   5.245   2.535
14561SOL     OW45123   4.874   4.395   2.552
14561SOL    HW145124   4.900   4.486   2.562
14561SOL    HW245125   4.813   4.379   2.624
14562SOL     OW45126   5.527   4.335   2.073
14562SOL    HW145127   5.496   4.333   1.983
14562SOL    HW245128   5.483   4.260   2.115
14563SOL     OW45129   4.487   4.871   2.897
14563SOL    HW145130   4.454   4.870   2.987
14563SOL    HW245131   4.491   4.963   2.874
14564SOL     OW45132   4.407   4.718   2.512
14564SOL    HW145133   4.475   4.708   2.579
14564SOL    HW245134   4.339   4.770   2.555
14565SOL     OW45135   4.001   5.209   2.898
14565SOL    HW145136   3.992   5.114   2.893
14565SOL    HW245137   4.083   5.227   2.852
14566SOL     OW45138   5.184   5.216   3.229
14566SOL    HW145139   5.212   5.284   3.290
14566SOL    HW245140   5.108   5.176   3.271
14567SOL     OW45141   5.312   4.173   2.609
14567SOL    HW145142   5.222   4.201   2.596
14567SOL    HW245143   5.340   4.219   2.689
14568SOL     OW45144   3.940   5.449   2.335
14568SOL    HW145145   3.962   5.520   2.394
14568SOL    HW245146   4.016   5.441   2.278
14569SOL     OW45147   4.859   5.054   3.552
14569SOL    HW145148   4.871   5.049   3.647
14569SOL    HW245149   4.813   4.973   3.529
14570SOL     OW45150   3.962   5.163   2.387
14570SOL    HW145151   3.937   5.253   2.406
14570SOL    HW245152   3.918   5.111   2.454
14571SOL     OW45153   3.956   4.791   2.747
14571SOL    HW145154   3.992   4.715   2.793
14571SOL    HW245155   3.906   4.838   2.813
14572SOL     OW45156   4.307   5.498   3.265
14572SOL    HW145157   4.232   5.458   3.310
14572SOL    HW245158   4.331   5.572   3.321
14573SOL     OW45159   4.301   4.711   2.011
14573SOL    HW145160   4.349   4.754   1.940
14573SOL    HW245161   4.343   4.743   2.091
14574SOL     OW45162   5.321   3.863   3.314
14574SOL    HW145163   5.291   3.943   3.270
14574SOL    HW245164   5.296   3.875   3.406
14575SOL     OW45165   3.835   4.387   2.426
14575SOL    HW145166   3.808   4.296   2.434
14575SOL    HW245167   3.831   4.422   2.515
14576SOL     OW45168   5.564   5.503   2.193
14576SOL    HW145169   5.625   5.470   2.259
14576SOL    HW245170   5.595   5.592   2.175
14577SOL     OW45171   3.761   5.286   1.995
14577SOL    HW145172   3.679   5.247   1.966
14577SOL    HW245173   3.734   5.347   2.065
14578SOL     OW45174   5.410   4.638   2.494
14578SOL    HW145175   5.486   4.600   2.451
14578SOL    HW245176   5.376   4.701   2.430
14579SOL     OW45177   5.371   4.827   2.289
14579SOL    HW145178   5.456   4.825   2.245
14579SOL    HW245179   5.381   4.895   2.356
14580SOL     OW45180   3.842   4.501   3.398
14580SOL    HW145181   3.928   4.460   3.412
14580SOL    HW245182   3.830   4.558   3.474
14581SOL     OW45183   4.348   5.108   2.593
14581SOL    HW145184   4.302   5.026   2.610
14581SOL    HW245185   4.322   5.133   2.504
14582SOL     OW45186   5.031   4.973   3.270
14582SOL    HW145187   5.044   4.892   3.220
14582SOL    HW245188   5.070   4.955   3.355
14583SOL     OW45189   4.550   3.732   2.361
14583SOL    HW145190   4.581   3.822   2.363
14583SOL    HW245191   4.456   3.738   2.377
14584SOL     OW45192   3.899   4.669   3.091
14584SOL    HW145193   3.990   4.640   3.092
14584SOL    HW245194   3.848   4.594   3.122
14585SOL     OW45195   5.274   4.710   2.053
14585SOL    HW145196   5.205   4.647   2.070
14585SOL    HW245197   5.296   4.746   2.140
14586SOL     OW45198   5.010   5.545   3.446
14586SOL    HW145199   4.937   5.598   3.413
14586SOL    HW245200   4.977   5.455   3.446
14587SOL     OW45201   5.195   5.126   2.819
14587SOL    HW145202   5.125   5.146   2.882
14587SOL    HW245203   5.174   5.038   2.788
14588SOL     OW45204   5.360   5.469   2.421
14588SOL    HW145205   5.282   5.423   2.391
14588SOL    HW245206   5.387   5.422   2.500
14589SOL     OW45207   4.307   4.455   2.147
14589SOL    HW145208   4.305   4.541   2.107
14589SOL    HW245209   4.239   4.458   2.215
14590SOL     OW45210   5.005   4.067   2.781
14590SOL    HW145211   4.912   4.044   2.785
14590SOL    HW245212   5.041   4.034   2.863
14591SOL     OW45213   4.507   4.363   3.270
14591SOL    HW145214   4.537   4.380   3.359
14591SOL    HW245215   4.533   4.272   3.253
14592SOL     OW45216   5.204   4.200   3.529
14592SOL    HW145217   5.168   4.242   3.607
14592SOL    HW245218   5.189   4.106   3.543
14593SOL     OW45219   4.780   4.428   2.285
14593SOL    HW145220   4.800   4.414   2.378
14593SOL    HW245221   4.695   4.386   2.272
14594SOL     OW45222   3.807   4.553   2.667
14594SOL    HW145223   3.833   4.485   2.729
14594SOL    HW245224   3.881   4.613   2.664
14595SOL     OW45225   3.830   5.566   3.437
14595SOL    HW145226   3.847   5.573   3.531
14595SOL    HW245227   3.765   5.497   3.430
14596SOL     OW45228   4.605   4.044   2.057
14596SOL    HW145229   4.681   4.061   2.001
14596SOL    HW245230   4.566   3.966   2.020
14597SOL     OW45231   5.446   4.301   3.676
14597SOL    HW145232   5.408   4.384   3.646
14597SOL    HW245233   5.408   4.235   3.618
14598SOL     OW45234   5.109   4.864   2.408
14598SOL    HW145235   5.188   4.855   2.355
14598SOL    HW245236   5.051   4.918   2.355
14599SOL     OW45237   4.256   3.935   2.754
14599SOL    HW145238   4.320   3.927   2.825
14599SOL    HW245239   4.258   4.028   2.730
14600SOL     OW45240   4.733   5.177   2.330
14600SOL    HW145241   4.693   5.255   2.291
14600SOL    HW245242   4.716   5.186   2.424
14601SOL     OW45243   4.088   5.532   2.715
14601SOL    HW145244   4.118   5.443   2.727
14601SOL    HW245245   4.151   5.586   2.763
14602SOL     OW45246   5.526   4.749   2.729
14602SOL    HW145247   5.466   4.738   2.655
14602SOL    HW245248   5.469   4.772   2.803
14603SOL     OW45249   4.953   5.253   3.379
14603SOL    HW145250   4.934   5.189   3.447
14603SOL    HW245251   4.875   5.254   3.323
14604SOL     OW45252   4.034   4.688   2.111
14604SOL    HW145253   4.118   4.702   2.068
14604SOL    HW245254   4.007   4.600   2.084
14605SOL     OW45255   5.212   4.458   2.570
14605SOL    HW145256   5.199   4.437   2.662
14605SOL    HW245257   5.282   4.523   2.569
14606SOL     OW45258   4.858   5.476   2.111
14606SOL    HW145259   4.771   5.451   2.142
14606SOL    HW245260   4.873   5.420   2.034
14607SOL     OW45261   3.908   4.105   3.353
14607SOL    HW145262   3.828   4.056   3.374
14607SOL    HW245263   3.979   4.049   3.382
14608SOL     OW45264   5.331   5.103   1.962
14608SOL    HW145265   5.291   5.182   1.925
14608SOL    HW245266   5.267   5.034   1.945
14609SOL     OW45267   4.232   5.472   2.212
14609SOL    HW145268   4.253   5.390   2.257
14609SOL    HW245269   4.280   5.467   2.130
14610SOL     OW45270   5.155   3.881   2.298
14610SOL    HW145271   5.139   3.844   2.211
14610SOL    HW245272   5.140   3.807   2.358
14611SOL     OW45273   3.990   5.539   3.073
14611SOL    HW145274   4.016   5.493   3.153
14611SOL    HW245275   3.990   5.471   3.005
14612SOL     OW45276   4.655   5.427   2.748
14612SOL    HW145277   4.676   5.365   2.818
14612SOL    HW245278   4.620   5.372   2.678
14613SOL     OW45279   4.109   4.418   2.337
14613SOL    HW145280   4.129   4.326   2.352
14613SOL    HW245281   4.016   4.426   2.357
14614SOL     OW45282   5.249   3.923   3.579
14614SOL    HW145283   5.264   3.945   3.671
14614SOL    HW245284   5.171   3.868   3.581
14615SOL     OW45285   4.380   3.835   1.968
14615SOL    HW145286   4.395   3.754   2.016
14615SOL    HW245287   4.325   3.810   1.894
14616SOL     OW45288   4.635   5.271   3.034
14616SOL    HW145289   4.587   5.216   2.972
14616SOL    HW245290   4.685   5.208   3.087
14617SOL     OW45291   5.174   4.325   3.266
14617SOL    HW145292   5.156   4.276   3.346
14617SOL    HW245293   5.131   4.409   3.279
14618SOL     OW45294   4.543   5.133   2.796
14618SOL    HW145295   4.626   5.113   2.751
14618SOL    HW245296   4.476   5.114   2.732
14619SOL     OW45297   4.696   4.253   2.757
14619SOL    HW145298   4.655   4.232   2.673
14619SOL    HW245299   4.706   4.168   2.801
14620SOL     OW45300   4.283   3.795   2.364
14620SOL    HW145301   4.210   3.788   2.425
14620SOL    HW245302   4.264   3.872   2.311
14621SOL     OW45303   5.152   4.903   1.899
14621SOL    HW145304   5.200   4.836   1.948
14621SOL    HW245305   5.060   4.880   1.910
14622SOL     OW45306   4.003   3.773   2.044
14622SOL    HW145307   4.058   3.833   1.994
14622SOL    HW245308   4.065   3.714   2.088
14623SOL     OW45309   4.655   3.992   2.322
14623SOL    HW145310   4.629   4.006   2.231
14623SOL    HW245311   4.749   4.007   2.322
14624SOL     OW45312   4.983   5.277   2.628
14624SOL    HW145313   4.978   5.363   2.586
14624SOL    HW245314   5.005   5.297   2.719
14625SOL     OW45315   4.188   4.879   2.595
14625SOL    HW145316   4.132   4.852   2.668
14625SOL    HW245317   4.137   4.859   2.517
14626SOL     OW45318   4.993   5.524   2.485
14626SOL    HW145319   5.039   5.590   2.435
14626SOL    HW245320   4.930   5.573   2.539
14627SOL     OW45321   4.747   4.254   1.887
14627SOL    HW145322   4.716   4.343   1.870
14627SOL    HW245323   4.802   4.262   1.965
14628SOL     OW45324   3.764   4.309   3.210
14628SOL    HW145325   3.818   4.235   3.239
14628SOL    HW245326   3.772   4.374   3.279
14629SOL     OW45327   4.598   4.208   2.496
14629SOL    HW145328   4.505   4.227   2.506
14629SOL    HW245329   4.600   4.121   2.456
14630SOL     OW45330   4.772   3.698   2.608
14630SOL    HW145331   4.685   3.687   2.570
14630SOL    HW245332   4.765   3.658   2.695
14631SOL     OW45333   5.152   4.875   2.713
14631SOL    HW145334   5.085   4.810   2.736
14631SOL    HW245335   5.149   4.881   2.618
14632SOL     OW45336   5.195   4.311   2.830
14632SOL    HW145337   5.122   4.252   2.852
14632SOL    HW245338   5.245   4.317   2.912
14633SOL     OW45339   5.576   4.538   2.252
14633SOL    HW145340   5.633   4.485   2.307
14633SOL    HW245341   5.553   4.481   2.179
14634SOL     OW45342   4.209   5.150   2.016
14634SOL    HW145343   4.126   5.118   2.051
14634SOL    HW245344   4.219   5.104   1.932
14635SOL     OW45345   5.411   4.999   2.486
14635SOL    HW145346   5.503   4.994   2.511
14635SOL    HW245347   5.379   5.079   2.528
14636SOL     OW45348   5.137   4.242   1.966
14636SOL    HW145349   5.056   4.245   2.018
14636SOL    HW245350   5.160   4.334   1.953
14637SOL     OW45351   4.259   3.998   2.170
14637SOL    HW145352   4.298   3.938   2.106
14637SOL    HW245353   4.233   4.074   2.119
14638SOL     OW45354   5.471   4.968   3.410
14638SOL    HW145355   5.559   4.934   3.397
14638SOL    HW245356   5.484   5.055   3.448
14639SOL     OW45357   4.791   5.090   3.186
14639SOL    HW145358   4.709   5.069   3.231
14639SOL    HW245359   4.858   5.044   3.236
14640SOL     OW45360   5.347   5.374   3.510
14640SOL    HW145361   5.360   5.417   3.425
14640SOL    HW245362   5.420   5.312   3.516
14641SOL     OW45363   4.849   4.928   2.962
14641SOL    HW145364   4.801   4.950   3.042
14641SOL    HW245365   4.783   4.927   2.893
14642SOL     OW45366   5.359   4.825   2.937
14642SOL    HW145367   5.356   4.883   3.013
14642SOL    HW245368   5.273   4.836   2.895
14643SOL     OW45369   4.437   4.786   2.239
14643SOL    HW145370   4.426   4.763   2.331
14643SOL    HW245371   4.512   4.734   2.210
14644SOL     OW45372   4.137   4.538   3.110
14644SOL    HW145373   4.197   4.557   3.182
14644SOL    HW245374   4.110   4.448   3.124
14645SOL     OW45375   3.780   5.343   3.184
14645SOL    HW145376   3.760   5.325   3.276
14645SOL    HW245377   3.874   5.325   3.176
14646SOL     OW45378   4.041   4.833   2.363
14646SOL    HW145379   4.062   4.896   2.294
14646SOL    HW245380   4.040   4.748   2.318
14647SOL     OW45381   4.286   4.233   2.707
14647SOL    HW145382   4.298   4.299   2.640
14647SOL    HW245383   4.338   4.264   2.781
14648SOL     OW45384   4.979   5.079   2.259
14648SOL    HW145385   5.033   5.136   2.313
14648SOL    HW245386   4.889   5.100   2.284
14649SOL     OW45387   5.009   5.190   3.006
14649SOL    HW145388   5.063   5.192   3.086
14649SOL    HW245389   4.938   5.130   3.027
14650SOL     OW45390   5.287   4.304   2.341
14650SOL    HW145391   5.254   4.353   2.416
14650SOL    HW245392   5.304   4.370   2.274
14651SOL     OW45393   4.042   5.277   3.164
14651SOL    HW145394   4.044   5.237   3.077
14651SOL    HW245395   4.093   5.218   3.219
14652SOL     OW45396   4.115   4.409   3.423
14652SOL    HW145397   4.161   4.491   3.444
14652SOL    HW245398   4.120   4.358   3.504
14653SOL     OW45399   5.339   4.524   3.553
14653SOL    HW145400   5.249   4.558   3.552
14653SOL    HW245401   5.364   4.520   3.460
14654SOL     OW45402   4.308   4.604   2.910
14654SOL    HW145403   4.348   4.688   2.930
14654SOL    HW245404   4.254   4.584   2.987
14655SOL     OW45405   5.042   4.576   2.870
14655SOL    HW145406   4.948   4.558   2.861
14655SOL    HW245407   5.080   4.491   2.891
14656SOL     OW45408   4.907   4.251   2.114
14656SOL    HW145409   4.911   4.179   2.177
14656SOL    HW245410   4.876   4.326   2.165
14657SOL     OW45411   3.803   5.039   3.122
14657SOL    HW145412   3.830   4.978   3.190
14657SOL    HW245413   3.805   5.125   3.164
14658SOL     OW45414   4.437   4.342   2.904
14658SOL    HW145415   4.533   4.338   2.903
14658SOL    HW245416   4.417   4.434   2.921
14659SOL     OW45417   5.472   4.690   3.725
14659SOL    HW145418   5.427   4.628   3.669
14659SOL    HW245419   5.410   4.709   3.795
14660SOL     OW45420   4.024   3.796   2.474
14660SOL    HW145421   4.002   3.881   2.514
14660SOL    HW245422   4.055   3.742   2.547
14661SOL     OW45423   4.770   4.498   2.859
14661SOL    HW145424   4.749   4.506   2.952
14661SOL    HW245425   4.747   4.407   2.837
14662SOL     OW45426   4.738   5.335   3.567
14662SOL    HW145427   4.712   5.356   3.478
14662SOL    HW245428   4.723   5.241   3.575
14663SOL     OW45429   5.580   5.220   3.466
14663SOL    HW145430   5.600   5.247   3.377
14663SOL    HW245431   5.660   5.237   3.516
14664SOL     OW45432   4.063   4.663   3.627
14664SOL    HW145433   4.106   4.745   3.651
14664SOL    HW245434   4.054   4.616   3.709
14665SOL     OW45435   5.250   3.986   1.974
14665SOL    HW145436   5.185   3.926   2.010
14665SOL    HW245437   5.210   4.073   1.983
14666SOL     OW45438   5.094   4.505   1.887
14666SOL    HW145439   5.016   4.463   1.852
14666SOL    HW245440   5.077   4.599   1.881
14667SOL     OW45441   4.771   5.087   2.662
14667SOL    HW145442   4.788   4.998   2.630
14667SOL    HW245443   4.855   5.132   2.652
14668SOL     OW45444   4.056   4.537   2.802
14668SOL    HW145445   4.145   4.554   2.833
14668SOL    HW245446   4.040   4.445   2.825
14669SOL     OW45447   4.027   4.257   2.818
14669SOL    HW145448   4.000   4.170   2.848
14669SOL    HW245449   4.115   4.244   2.782
14670SOL     OW45450   3.813   5.551   2.740
14670SOL    HW145451   3.783   5.461   2.725
14670SOL    HW245452   3.908   5.546   2.738
14671SOL     OW45453   4.221   5.297   2.757
14671SOL    HW145454   4.289   5.356   2.791
14671SOL    HW245455   4.270   5.224   2.719
14672SOL     OW45456   4.701   4.523   3.125
14672SOL    HW145457   4.744   4.558   3.203
14672SOL    HW245458   4.646   4.451   3.159
14673SOL     OW45459   3.785   4.361   2.936
14673SOL    HW145460   3.863   4.313   2.909
14673SOL    HW245461   3.774   4.339   3.029
14674SOL     OW45462   3.909   4.250   3.593
14674SOL    HW145463   3.920   4.196   3.514
14674SOL    HW245464   3.818   4.278   3.590
14675SOL     OW45465   5.097   4.651   3.517
14675SOL    HW145466   5.103   4.747   3.519
14675SOL    HW245467   5.041   4.632   3.441
14676SOL     OW45468   4.540   4.311   2.155
14676SOL    HW145469   4.528   4.234   2.211
14676SOL    HW245470   4.467   4.368   2.178
14677SOL     OW45471   5.340   4.333   3.061
14677SOL    HW145472   5.270   4.340   3.126
14677SOL    HW245473   5.394   4.260   3.092
14678SOL     OW45474   3.962   5.272   3.598
14678SOL    HW145475   3.954   5.325   3.678
14678SOL    HW245476   3.959   5.181   3.629
14679SOL     OW45477   4.362   4.138   3.080
14679SOL    HW145478   4.450   4.107   3.101
14679SOL    HW245479   4.376   4.219   3.031
14680SOL     OW45480   4.670   5.404   3.314
14680SOL    HW145481   4.628   5.359   3.240
14680SOL    HW245482   4.650   5.497   3.300
14681SOL     OW45483   4.238   4.236   2.006
14681SOL    HW145484   4.258   4.309   2.065
14681SOL    HW245485   4.145   4.245   1.987
14682SOL     OW45486   3.887   4.860   3.313
14682SOL    HW145487   3.874   4.821   3.399
14682SOL    HW245488   3.899   4.785   3.254
14683SOL     OW45489   5.059   4.780   3.052
14683SOL    HW145490   5.056   4.707   2.990
14683SOL    HW245491   4.987   4.837   3.026
14684SOL     OW45492   5.036   4.583   2.178
14684SOL    HW145493   4.967   4.554   2.238
14684SOL    HW245494   4.989   4.628   2.108
14685SOL     OW45495   5.478   5.445   3.007
14685SOL    HW145496   5.548   5.476   2.950
14685SOL    HW245497   5.462   5.355   2.979
14686SOL     OW45498   4.976   5.463   2.959
14686SOL    HW145499   5.063   5.481   2.923
14686SOL    HW245500   4.979   5.371   2.984
14687SOL     OW45501   3.764   4.941   2.874
14687SOL    HW145502   3.792   4.974   2.959
14687SOL    HW245503   3.669   4.946   2.876
14688SOL     OW45504   4.402   5.421   3.603
14688SOL    HW145505   4.377   5.496   3.656
14688SOL    HW245506   4.489   5.443   3.570
14689SOL     OW45507   5.453   3.907   2.375
14689SOL    HW145508   5.513   3.891   2.303
14689SOL    HW245509   5.427   3.820   2.404
14690SOL     OW45510   5.125   5.339   2.331
14690SOL    HW145511   5.074   5.336   2.250
14690SOL    HW245512   5.074   5.395   2.390
14691SOL     OW45513   3.870   5.549   3.701
14691SOL    HW145514   3.821   5.478   3.743
14691SOL    HW245515   3.929   5.582   3.770
14692SOL     OW45516   4.999   4.644   2.526
14692SOL    HW145517   5.071   4.582   2.534
14692SOL    HW245518   5.036   4.717   2.477
14693SOL     OW45519   4.541   5.055   3.273
14693SOL    HW145520   4.478   5.084   3.339
14693SOL    HW245521   4.523   4.961   3.263
14694SOL     OW45522   4.397   5.348   2.019
14694SOL    HW145523   4.408   5.366   1.926
14694SOL    HW245524   4.339   5.272   2.022
14695SOL     OW45525   5.348   5.533   3.259
14695SOL    HW145526   5.404   5.520   3.182
14695SOL    HW245527   5.261   5.507   3.230
14696SOL     OW45528   5.574   3.904   2.810
14696SOL    HW145529   5.595   3.812   2.793
14696SOL    HW245530   5.480   3.911   2.792
14697SOL     OW45531   3.976   4.046   2.581
14697SOL    HW145532   3.889   4.082   2.565
14697SOL    HW245533   3.979   4.029   2.675
14698SOL     OW45534   4.940   5.318   1.898
14698SOL    HW145535   4.923   5.228   1.924
14698SOL    HW245536   4.874   5.337   1.831
14699SOL     OW45537   4.567   4.780   3.190
14699SOL    HW145538   4.602   4.705   3.142
14699SOL    HW245539   4.556   4.749   3.280
14700SOL     OW45540   4.642   4.638   2.133
14700SOL    HW145541   4.708   4.680   2.077
14700SOL    HW245542   4.692   4.575   2.185
14701SOL     OW45543   5.223   5.361   1.902
14701SOL    HW145544   5.129   5.350   1.895
14701SOL    HW245545   5.254   5.360   1.811
14702SOL     OW45546   4.118   5.027   3.285
14702SOL    HW145547   4.166   5.035   3.368
14702SOL    HW245548   4.045   4.968   3.306
14703SOL     OW45549   5.350   5.008   3.150
14703SOL    HW145550   5.389   4.983   3.234
14703SOL    HW245551   5.280   5.068   3.173
14704SOL     OW45552   4.795   4.829   2.578
14704SOL    HW145553   4.721   4.783   2.618
14704SOL    HW245554   4.858   4.760   2.556
14705SOL     OW45555   4.748   3.967   2.791
14705SOL    HW145556   4.740   3.899   2.725
14705SOL    HW245557   4.711   3.928   2.870
14706SOL     OW45558   4.316   5.220   2.312
14706SOL    HW145559   4.384   5.172   2.264
14706SOL    HW245560   4.234   5.180   2.285
14707SOL     OW45561   5.468   4.132   3.202
14707SOL    HW145562   5.545   4.187   3.218
14707SOL    HW245563   5.503   4.049   3.171
14708SOL     OW45564   3.962   5.081   2.131
14708SOL    HW145565   3.898   5.145   2.097
14708SOL    HW245566   3.965   5.098   2.225
14709SOL     OW45567   3.810   4.742   3.548
14709SOL    HW145568   3.744   4.737   3.617
14709SOL    HW245569   3.893   4.723   3.592
14710SOL     OW45570   3.808   4.052   1.901
14710SOL    HW145571   3.726   4.019   1.864
14710SOL    HW245572   3.830   4.128   1.846
14711SOL     OW45573   5.151   4.600   3.239
14711SOL    HW145574   5.099   4.663   3.189
14711SOL    HW245575   5.240   4.612   3.207
14712SOL     OW45576   3.778   3.878   2.162
14712SOL    HW145577   3.769   3.956   2.107
14712SOL    HW245578   3.863   3.841   2.136
14713SOL     OW45579   4.892   5.059   1.983
14713SOL    HW145580   4.863   4.969   1.972
14713SOL    HW245581   4.927   5.063   2.072
14714SOL     OW45582   4.342   4.579   3.279
14714SOL    HW145583   4.395   4.625   3.343
14714SOL    HW245584   4.386   4.495   3.267
14715SOL     OW45585   5.226   5.523   2.859
14715SOL    HW145586   5.247   5.594   2.799
14715SOL    HW245587   5.310   5.499   2.898
14716SOL     OW45588   5.189   4.923   3.493
14716SOL    HW145589   5.169   4.935   3.586
14716SOL    HW245590   5.283   4.941   3.486
14717SOL     OW45591   4.083   5.456   3.423
14717SOL    HW145592   3.996   5.495   3.419
14717SOL    HW245593   4.072   5.379   3.478
14718SOL     OW45594   5.409   4.607   3.117
14718SOL    HW145595   5.389   4.520   3.082
14718SOL    HW245596   5.390   4.666   3.045
14719SOL     OW45597   4.932   4.055   2.309
14719SOL    HW145598   4.992   3.980   2.308
14719SOL    HW245599   4.948   4.097   2.394
14720SOL     OW45600   4.335   4.436   2.510
14720SOL    HW145601   4.362   4.528   2.518
14720SOL    HW245602   4.253   4.439   2.461
14721SOL     OW45603   5.497   4.061   3.476
14721SOL    HW145604   5.454   4.099   3.400
14721SOL    HW245605   5.427   4.015   3.523
14722SOL     OW45606   5.517   4.667   3.361
14722SOL    HW145607   5.463   4.737   3.398
14722SOL    HW245608   5.478   4.649   3.276
14723SOL     OW45609   4.546   5.099   1.898
14723SOL    HW145610   4.551   5.114   1.993
14723SOL    HW245611   4.593   5.173   1.860
14724SOL     OW45612   4.386   5.527   2.773
14724SOL    HW145613   4.377   5.622   2.778
14724SOL    HW245614   4.479   5.511   2.792
14725SOL     OW45615   4.601   4.695   2.717
14725SOL    HW145616   4.645   4.625   2.766
14725SOL    HW245617   4.558   4.747   2.785
14726SOL     OW45618   5.560   5.266   2.699
14726SOL    HW145619   5.474   5.255   2.658
14726SOL    HW245620   5.554   5.216   2.781
14727SOL     OW45621   3.921   5.031   3.713
14727SOL    HW145622   4.001   4.978   3.712
14727SOL    HW245623   3.878   5.010   3.796
14728SOL     OW45624   3.843   4.952   2.533
14728SOL    HW145625   3.863   4.918   2.620
14728SOL    HW245626   3.899   4.901   2.474
14729SOL     OW45627   4.369   5.167   3.458
14729SOL    HW145628   4.360   5.113   3.537
14729SOL    HW245629   4.366   5.257   3.490
14730SOL     OW45630   5.570   3.910   3.089
14730SOL    HW145631   5.524   3.835   3.126
14730SOL    HW245632   5.559   3.900   2.994
14731SOL     OW45633   4.149   4.158   2.386
14731SOL    HW145634   4.179   4.083   2.335
14731SOL    HW245635   4.101   4.120   2.460
14732SOL     OW45636   5.429   5.185   2.945
14732SOL    HW145637   5.346   5.169   2.902
14732SOL    HW245638   5.429   5.125   3.020
14733SOL     OW45639   4.082   4.273   3.145
14733SOL    HW145640   4.063   4.264   3.239
14733SOL    HW245641   4.154   4.211   3.130
14734SOL     OW45642   4.525   5.321   2.512
14734SOL    HW145643   4.490   5.308   2.424
14734SOL    HW245644   4.477   5.260   2.567
14735SOL     OW45645   5.139   3.946   2.997
14735SOL    HW145646   5.113   3.857   3.020
14735SOL    HW245647   5.077   4.002   3.044
14736SOL     OW45648   4.505   5.059   2.197
14736SOL    HW145649   4.481   4.966   2.202
14736SOL    HW245650   4.593   5.062   2.235
14737SOL     OW45651   4.354   5.282   3.101
14737SOL    HW145652   4.331   5.355   3.158
14737SOL    HW245653   4.446   5.264   3.121
14738SOL     OW45654   5.089   3.770   2.047
14738SOL    HW145655   5.118   3.708   1.980
14738SOL    HW245656   5.001   3.740   2.070
14739SOL     OW45657   5.046   4.173   2.535
14739SOL    HW145658   4.995   4.254   2.534
14739SOL    HW245659   5.024   4.132   2.619
14740SOL     OW45660   5.307   3.942   2.781
14740SOL    HW145661   5.254   3.939   2.860
14740SOL    HW245662   5.271   4.015   2.730
14741SOL     OW45663   3.766   4.783   2.131
14741SOL    HW145664   3.861   4.779   2.129
14741SOL    HW245665   3.739   4.698   2.164
14742SOL     OW45666   4.599   5.394   2.204
14742SOL    HW145667   4.537   5.367   2.136
14742SOL    HW245668   4.560   5.472   2.243
14743SOL     OW45669   3.911   4.402   3.822
14743SOL    HW145670   3.843   4.366   3.878
14743SOL    HW245671   3.930   4.333   3.758
14744SOL     OW45672   3.941   4.006   4.711
14744SOL    HW145673   3.984   3.992   4.795
14744SOL    HW245674   3.849   3.986   4.727
14745SOL     OW45675   3.712   4.100   4.352
14745SOL    HW145676   3.632   4.131   4.396
14745SOL    HW245677   3.689   4.014   4.318
14746SOL     OW45678   4.288   5.038   4.845
14746SOL    HW145679   4.215   4.985   4.878
14746SOL    HW245680   4.295   5.110   4.907
14747SOL     OW45681   5.290   5.245   4.440
14747SOL    HW145682   5.254   5.220   4.525
14747SOL    HW245683   5.214   5.251   4.382
14748SOL     OW45684   4.875   4.392   4.425
14748SOL    HW145685   4.896   4.486   4.427
14748SOL    HW245686   4.825   4.377   4.505
14749SOL     OW45687   5.533   4.308   3.934
14749SOL    HW145688   5.496   4.307   3.846
14749SOL    HW245689   5.473   4.256   3.987
14750SOL     OW45690   4.639   4.504   5.546
14750SOL    HW145691   4.589   4.585   5.556
14750SOL    HW245692   4.620   4.475   5.457
14751SOL     OW45693   4.021   5.188   4.778
14751SOL    HW145694   3.987   5.117   4.723
14751SOL    HW245695   4.093   5.224   4.728
14752SOL     OW45696   5.187   5.230   5.082
14752SOL    HW145697   5.248   5.301   5.100
14752SOL    HW245698   5.121   5.237   5.150
14753SOL     OW45699   4.184   4.120   5.211
14753SOL    HW145700   4.238   4.045   5.235
14753SOL    HW245701   4.096   4.084   5.201
14754SOL     OW45702   5.324   4.173   4.467
14754SOL    HW145703   5.243   4.184   4.419
14754SOL    HW245704   5.314   4.230   4.544
14755SOL     OW45705   3.943   5.459   4.166
14755SOL    HW145706   3.965   5.521   4.236
14755SOL    HW245707   4.028   5.428   4.134
14756SOL     OW45708   4.843   5.061   5.414
14756SOL    HW145709   4.887   5.037   5.496
14756SOL    HW245710   4.752   5.037   5.427
14757SOL     OW45711   4.325   5.514   5.160
14757SOL    HW145712   4.241   5.493   5.203
14757SOL    HW245713   4.326   5.610   5.156
14758SOL     OW45714   5.297   3.860   5.172
14758SOL    HW145715   5.217   3.895   5.134
14758SOL    HW245716   5.286   3.874   5.266
14759SOL     OW45717   3.791   4.349   4.259
14759SOL    HW145718   3.771   4.261   4.290
14759SOL    HW245719   3.864   4.379   4.314
14760SOL     OW45720   5.564   5.477   4.036
14760SOL    HW145721   5.586   5.451   4.125
14760SOL    HW245722   5.589   5.569   4.032
14761SOL     OW45723   3.752   5.346   3.833
14761SOL    HW145724   3.744   5.255   3.861
14761SOL    HW245725   3.724   5.397   3.909
14762SOL     OW45726   5.402   4.638   4.367
14762SOL    HW145727   5.490   4.606   4.350
14762SOL    HW245728   5.381   4.693   4.292
14763SOL     OW45729   5.379   4.824   4.157
14763SOL    HW145730   5.470   4.818   4.129
14763SOL    HW245731   5.379   4.896   4.221
14764SOL     OW45732   4.352   5.111   4.476
14764SOL    HW145733   4.290   5.040   4.491
14764SOL    HW245734   4.339   5.135   4.384
14765SOL     OW45735   5.013   4.967   5.135
14765SOL    HW145736   5.047   4.895   5.082
14765SOL    HW245737   5.060   4.958   5.219
14766SOL     OW45738   5.274   4.730   3.916
14766SOL    HW145739   5.204   4.665   3.919
14766SOL    HW245740   5.291   4.750   4.008
14767SOL     OW45741   4.946   5.546   5.348
14767SOL    HW145742   4.924   5.583   5.262
14767SOL    HW245743   4.945   5.451   5.334
14768SOL     OW45744   4.042   4.000   5.526
14768SOL    HW145745   4.114   4.059   5.548
14768SOL    HW245746   3.964   4.044   5.559
14769SOL     OW45747   5.197   5.136   4.672
14769SOL    HW145748   5.130   5.157   4.737
14769SOL    HW245749   5.176   5.047   4.644
14770SOL     OW45750   5.397   5.463   4.287
14770SOL    HW145751   5.342   5.434   4.215
14770SOL    HW245752   5.373   5.406   4.360
14771SOL     OW45753   5.293   5.412   4.024
14771SOL    HW145754   5.385   5.436   4.018
14771SOL    HW245755   5.267   5.394   3.934
14772SOL     OW45756   4.547   4.321   5.215
14772SOL    HW145757   4.507   4.307   5.302
14772SOL    HW245758   4.505   4.255   5.160
14773SOL     OW45759   5.171   4.200   5.392
14773SOL    HW145760   5.158   4.254   5.470
14773SOL    HW245761   5.086   4.158   5.377
14774SOL     OW45762   4.794   4.371   4.160
14774SOL    HW145763   4.804   4.366   4.255
14774SOL    HW245764   4.709   4.332   4.142
14775SOL     OW45765   3.849   5.611   5.316
14775SOL    HW145766   3.842   5.594   5.410
14775SOL    HW245767   3.788   5.550   5.275
14776SOL     OW45768   5.460   4.305   5.531
14776SOL    HW145769   5.417   4.385   5.500
14776SOL    HW245770   5.413   4.234   5.487
14777SOL     OW45771   5.100   4.867   4.284
14777SOL    HW145772   5.166   4.857   4.215
14777SOL    HW245773   5.036   4.927   4.247
14778SOL     OW45774   4.738   5.189   4.194
14778SOL    HW145775   4.697   5.255   4.138
14778SOL    HW245776   4.702   5.206   4.281
14779SOL     OW45777   4.081   5.535   4.591
14779SOL    HW145778   4.121   5.449   4.601
14779SOL    HW245779   4.150   5.597   4.614
14780SOL     OW45780   5.522   4.777   4.577
14780SOL    HW145781   5.450   4.748   4.521
14780SOL    HW245782   5.481   4.795   4.662
14781SOL     OW45783   4.956   5.264   5.249
14781SOL    HW145784   4.937   5.195   5.313
14781SOL    HW245785   4.888   5.255   5.183
14782SOL     OW45786   4.044   4.635   3.907
14782SOL    HW145787   4.098   4.560   3.931
14782SOL    HW245788   3.954   4.608   3.925
14783SOL     OW45789   5.208   4.463   4.441
14783SOL    HW145790   5.207   4.435   4.533
14783SOL    HW245791   5.278   4.528   4.437
14784SOL     OW45792   4.852   5.518   3.925
14784SOL    HW145793   4.780   5.496   3.984
14784SOL    HW245794   4.874   5.436   3.881
14785SOL     OW45795   3.929   4.026   5.198
14785SOL    HW145796   3.854   4.083   5.178
14785SOL    HW245797   3.918   4.004   5.290
14786SOL     OW45798   5.339   5.118   3.786
14786SOL    HW145799   5.293   5.202   3.786
14786SOL    HW245800   5.270   5.052   3.781
14787SOL     OW45801   4.201   5.437   4.055
14787SOL    HW145802   4.247   5.504   4.106
14787SOL    HW245803   4.264   5.410   3.989
14788SOL     OW45804   5.179   3.798   4.142
14788SOL    HW145805   5.139   3.818   4.058
14788SOL    HW245806   5.227   3.878   4.165
14789SOL     OW45807   3.928   5.493   4.946
14789SOL    HW145808   3.994   5.433   4.980
14789SOL    HW245809   3.948   5.500   4.852
14790SOL     OW45810   4.648   5.436   4.645
14790SOL    HW145811   4.715   5.376   4.678
14790SOL    HW245812   4.629   5.405   4.556
14791SOL     OW45813   5.262   3.899   5.451
14791SOL    HW145814   5.261   3.939   5.538
14791SOL    HW245815   5.174   3.863   5.440
14792SOL     OW45816   4.478   4.005   5.485
14792SOL    HW145817   4.564   3.964   5.478
14792SOL    HW245818   4.436   3.961   5.559
14793SOL     OW45819   4.604   5.249   4.940
14793SOL    HW145820   4.587   5.215   4.852
14793SOL    HW245821   4.668   5.189   4.977
14794SOL     OW45822   5.167   4.318   5.137
14794SOL    HW145823   5.180   4.270   5.218
14794SOL    HW245824   5.079   4.354   5.143
14795SOL     OW45825   4.564   5.136   4.693
14795SOL    HW145826   4.637   5.106   4.639
14795SOL    HW245827   4.486   5.103   4.648
14796SOL     OW45828   5.143   4.930   3.764
14796SOL    HW145829   5.171   4.854   3.815
14796SOL    HW245830   5.057   4.951   3.800
14797SOL     OW45831   4.962   5.282   4.506
14797SOL    HW145832   4.955   5.359   4.449
14797SOL    HW245833   5.003   5.315   4.586
14798SOL     OW45834   4.993   5.513   4.322
14798SOL    HW145835   5.042   5.579   4.273
14798SOL    HW245836   4.920   5.561   4.361
14799SOL     OW45837   5.154   4.880   4.571
14799SOL    HW145838   5.100   4.808   4.601
14799SOL    HW245839   5.138   4.885   4.477
14800SOL     OW45840   5.227   4.307   4.689
14800SOL    HW145841   5.165   4.244   4.723
14800SOL    HW245842   5.278   4.334   4.765
14801SOL     OW45843   5.591   4.525   4.090
14801SOL    HW145844   5.631   4.477   4.163
14801SOL    HW245845   5.554   4.457   4.034
14802SOL     OW45846   5.417   5.022   4.329
14802SOL    HW145847   5.499   5.018   4.379
14802SOL    HW245848   5.367   5.091   4.372
14803SOL     OW45849   5.117   4.288   3.772
14803SOL    HW145850   5.038   4.274   3.825
14803SOL    HW245851   5.189   4.263   3.830
14804SOL     OW45852   5.461   4.968   5.284
14804SOL    HW145853   5.535   4.910   5.301
14804SOL    HW245854   5.495   5.056   5.300
14805SOL     OW45855   4.778   5.091   5.090
14805SOL    HW145856   4.725   5.069   5.167
14805SOL    HW245857   4.862   5.048   5.106
14806SOL     OW45858   5.334   5.351   5.419
14806SOL    HW145859   5.346   5.399   5.336
14806SOL    HW245860   5.397   5.279   5.414
14807SOL     OW45861   4.862   4.944   4.827
14807SOL    HW145862   4.785   4.950   4.882
14807SOL    HW245863   4.834   4.977   4.742
14808SOL     OW45864   5.369   4.828   4.804
14808SOL    HW145865   5.370   4.889   4.878
14808SOL    HW245866   5.281   4.836   4.768
14809SOL     OW45867   4.636   3.810   5.155
14809SOL    HW145868   4.672   3.826   5.068
14809SOL    HW245869   4.698   3.853   5.215
14810SOL     OW45870   3.809   5.289   5.103
14810SOL    HW145871   3.790   5.361   5.044
14810SOL    HW245872   3.903   5.274   5.095
14811SOL     OW45873   4.971   5.076   4.114
14811SOL    HW145874   5.029   5.144   4.148
14811SOL    HW245875   4.884   5.099   4.147
14812SOL     OW45876   5.014   5.185   4.869
14812SOL    HW145877   5.067   5.188   4.948
14812SOL    HW245878   4.958   5.108   4.880
14813SOL     OW45879   5.292   4.361   4.188
14813SOL    HW145880   5.268   4.379   4.279
14813SOL    HW245881   5.246   4.428   4.137
14814SOL     OW45882   4.067   5.264   5.032
14814SOL    HW145883   4.050   5.226   4.946
14814SOL    HW245884   4.162   5.258   5.042
14815SOL     OW45885   5.333   4.520   5.406
14815SOL    HW145886   5.248   4.560   5.422
14815SOL    HW245887   5.337   4.509   5.311
14816SOL     OW45888   4.715   3.874   5.480
14816SOL    HW145889   4.796   3.909   5.443
14816SOL    HW245890   4.740   3.789   5.516
14817SOL     OW45891   4.200   3.763   5.496
14817SOL    HW145892   4.168   3.709   5.424
14817SOL    HW245893   4.144   3.841   5.495
14818SOL     OW45894   5.083   4.604   4.733
14818SOL    HW145895   4.989   4.587   4.733
14818SOL    HW245896   5.119   4.539   4.794
14819SOL     OW45897   4.952   4.240   3.977
14819SOL    HW145898   4.964   4.169   4.039
14819SOL    HW245899   4.889   4.299   4.019
14820SOL     OW45900   4.028   3.925   4.961
14820SOL    HW145901   3.992   3.963   5.041
14820SOL    HW245902   4.008   3.831   4.968
14821SOL     OW45903   3.715   5.047   4.987
14821SOL    HW145904   3.755   4.963   5.010
14821SOL    HW245905   3.760   5.111   5.042
14822SOL     OW45906   5.471   4.683   5.583
14822SOL    HW145907   5.427   4.625   5.521
14822SOL    HW245908   5.406   4.698   5.652
14823SOL     OW45909   5.358   4.115   4.080
14823SOL    HW145910   5.385   4.057   4.151
14823SOL    HW245911   5.323   4.192   4.124
14824SOL     OW45912   4.702   5.321   5.445
14824SOL    HW145913   4.696   5.335   5.350
14824SOL    HW245914   4.678   5.229   5.457
14825SOL     OW45915   5.571   5.217   5.316
14825SOL    HW145916   5.543   5.291   5.262
14825SOL    HW245917   5.657   5.243   5.349
14826SOL     OW45918   5.276   3.989   3.844
14826SOL    HW145919   5.201   3.936   3.869
14826SOL    HW245920   5.299   4.036   3.924
14827SOL     OW45921   5.089   4.563   3.771
14827SOL    HW145922   5.091   4.467   3.766
14827SOL    HW245923   5.082   4.592   3.680
14828SOL     OW45924   4.800   5.058   4.576
14828SOL    HW145925   4.803   4.991   4.508
14828SOL    HW245926   4.855   5.129   4.542
14829SOL     OW45927   4.885   4.149   5.383
14829SOL    HW145928   4.831   4.170   5.459
14829SOL    HW245929   4.871   4.222   5.322
14830SOL     OW45930   4.906   3.914   5.242
14830SOL    HW145931   4.891   4.002   5.275
14830SOL    HW245932   4.927   3.927   5.149
14831SOL     OW45933   3.813   5.526   4.659
14831SOL    HW145934   3.777   5.445   4.622
14831SOL    HW245935   3.905   5.526   4.631
14832SOL     OW45936   4.223   5.304   4.634
14832SOL    HW145937   4.289   5.364   4.666
14832SOL    HW245938   4.273   5.234   4.591
14833SOL     OW45939   5.104   4.667   5.416
14833SOL    HW145940   5.118   4.758   5.390
14833SOL    HW245941   5.055   4.629   5.343
14834SOL     OW45942   5.340   4.346   4.932
14834SOL    HW145943   5.273   4.356   4.999
14834SOL    HW245944   5.392   4.271   4.961
14835SOL     OW45945   3.946   5.303   5.475
14835SOL    HW145946   3.907   5.353   5.547
14835SOL    HW245947   3.981   5.224   5.517
14836SOL     OW45948   4.402   4.169   5.044
14836SOL    HW145949   4.333   4.121   5.089
14836SOL    HW245950   4.363   4.253   5.022
14837SOL     OW45951   4.655   5.396   5.178
14837SOL    HW145952   4.635   5.350   5.097
14837SOL    HW245953   4.624   5.486   5.163
14838SOL     OW45954   5.082   4.804   4.920
14838SOL    HW145955   5.084   4.729   4.860
14838SOL    HW245956   5.004   4.854   4.895
14839SOL     OW45957   5.046   4.574   4.050
14839SOL    HW145958   4.972   4.544   4.103
14839SOL    HW245959   5.015   4.568   3.960
14840SOL     OW45960   5.435   5.496   4.825
14840SOL    HW145961   5.521   5.474   4.790
14840SOL    HW245962   5.439   5.471   4.918
14841SOL     OW45963   4.962   5.457   4.832
14841SOL    HW145964   5.043   5.481   4.786
14841SOL    HW245965   4.972   5.364   4.853
14842SOL     OW45966   4.410   5.411   5.482
14842SOL    HW145967   4.360   5.446   5.408
14842SOL    HW245968   4.486   5.369   5.441
14843SOL     OW45969   5.458   3.886   4.233
14843SOL    HW145970   5.521   3.857   4.168
14843SOL    HW245971   5.429   3.806   4.277
14844SOL     OW45972   5.119   5.292   4.209
14844SOL    HW145973   5.167   5.338   4.140
14844SOL    HW245974   5.063   5.359   4.247
14845SOL     OW45975   3.841   5.576   5.583
14845SOL    HW145976   3.803   5.497   5.621
14845SOL    HW245977   3.907   5.603   5.646
14846SOL     OW45978   4.995   4.641   4.399
14846SOL    HW145979   5.069   4.580   4.408
14846SOL    HW245980   5.032   4.716   4.352
14847SOL     OW45981   4.371   5.297   3.875
14847SOL    HW145982   4.370   5.320   3.782
14847SOL    HW245983   4.340   5.207   3.878
14848SOL     OW45984   5.558   3.887   4.679
14848SOL    HW145985   5.586   3.798   4.656
14848SOL    HW245986   5.471   3.894   4.641
14849SOL     OW45987   3.949   3.963   4.444
14849SOL    HW145988   3.888   4.030   4.413
14849SOL    HW245989   3.955   3.978   4.538
14850SOL     OW45990   4.946   5.316   3.749
14850SOL    HW145991   4.928   5.229   3.784
14850SOL    HW245992   4.876   5.330   3.685
14851SOL     OW45993   5.212   5.368   3.761
14851SOL    HW145994   5.118   5.349   3.751
14851SOL    HW245995   5.244   5.376   3.671
14852SOL     OW45996   5.353   5.015   5.014
14852SOL    HW145997   5.387   4.986   5.099
14852SOL    HW245998   5.284   5.077   5.036
14853SOL     OW45999   4.794   4.835   4.418
14853SOL    HW146000   4.721   4.801   4.471
14853SOL    HW246001   4.853   4.760   4.407
14854SOL     OW46002   4.377   5.234   4.209
14854SOL    HW146003   4.390   5.151   4.165
14854SOL    HW246004   4.312   5.280   4.156
14855SOL     OW46005   5.465   4.141   5.083
14855SOL    HW146006   5.540   4.197   5.104
14855SOL    HW246007   5.501   4.073   5.026
14856SOL     OW46008   4.387   3.918   5.237
14856SOL    HW146009   4.471   3.897   5.196
14856SOL    HW246010   4.411   3.953   5.323
14857SOL     OW46011   3.770   4.030   3.726
14857SOL    HW146012   3.706   4.070   3.786
14857SOL    HW246013   3.841   4.094   3.722
14858SOL     OW46014   5.237   4.640   5.102
14858SOL    HW146015   5.161   4.600   5.144
14858SOL    HW246016   5.200   4.710   5.048
14859SOL     OW46017   4.890   5.061   3.843
14859SOL    HW146018   4.795   5.075   3.842
14859SOL    HW246019   4.913   5.058   3.936
14860SOL     OW46020   5.196   5.516   4.699
14860SOL    HW146021   5.218   5.582   4.634
14860SOL    HW246022   5.278   5.499   4.745
14861SOL     OW46023   4.445   4.279   5.461
14861SOL    HW146024   4.437   4.314   5.550
14861SOL    HW246025   4.448   4.185   5.472
14862SOL     OW46026   5.190   4.928   5.352
14862SOL    HW146027   5.182   4.940   5.446
14862SOL    HW246028   5.283   4.943   5.334
14863SOL     OW46029   4.097   5.477   5.309
14863SOL    HW146030   4.019   5.525   5.279
14863SOL    HW246031   4.062   5.401   5.356
14864SOL     OW46032   5.495   4.598   4.927
14864SOL    HW146033   5.430   4.529   4.938
14864SOL    HW246034   5.446   4.672   4.892
14865SOL     OW46035   5.014   4.048   4.167
14865SOL    HW146036   4.993   3.963   4.205
14865SOL    HW246037   5.023   4.106   4.243
14866SOL     OW46038   5.481   4.050   5.350
14866SOL    HW146039   5.443   4.090   5.272
14866SOL    HW246040   5.407   4.005   5.391
14867SOL     OW46041   5.514   4.667   5.211
14867SOL    HW146042   5.439   4.712   5.250
14867SOL    HW246043   5.485   4.645   5.122
14868SOL     OW46044   4.631   5.152   3.760
14868SOL    HW146045   4.544   5.114   3.748
14868SOL    HW246046   4.615   5.246   3.770
14869SOL     OW46047   4.388   5.512   4.685
14869SOL    HW146048   4.379   5.598   4.643
14869SOL    HW246049   4.481   5.491   4.675
14870SOL     OW46050   4.612   4.736   4.593
14870SOL    HW146051   4.550   4.663   4.600
14870SOL    HW246052   4.585   4.796   4.662
14871SOL     OW46053   5.559   5.262   4.557
14871SOL    HW146054   5.474   5.267   4.513
14871SOL    HW246055   5.539   5.226   4.643
14872SOL     OW46056   5.543   3.904   4.956
14872SOL    HW146057   5.452   3.888   4.980
14872SOL    HW246058   5.543   3.908   4.860
14873SOL     OW46059   5.448   5.155   4.781
14873SOL    HW146060   5.357   5.160   4.751
14873SOL    HW246061   5.442   5.124   4.871
14874SOL     OW46062   4.569   5.297   4.410
14874SOL    HW146063   4.517   5.327   4.335
14874SOL    HW246064   4.514   5.232   4.453
14875SOL     OW46065   5.238   3.917   4.847
14875SOL    HW146066   5.232   3.823   4.860
14875SOL    HW246067   5.162   3.953   4.893
14876SOL     OW46068   4.341   5.275   5.017
14876SOL    HW146069   4.343   5.357   5.066
14876SOL    HW246070   4.430   5.262   4.987
14877SOL     OW46071   5.090   3.780   3.880
14877SOL    HW146072   5.086   3.744   3.792
14877SOL    HW246073   5.010   3.750   3.922
14878SOL     OW46074   5.053   4.188   4.399
14878SOL    HW146075   5.006   4.270   4.386
14878SOL    HW246076   5.021   4.155   4.483
14879SOL     OW46077   5.304   3.918   4.584
14879SOL    HW146078   5.270   3.934   4.672
14879SOL    HW246079   5.305   4.005   4.543
14880SOL     OW46080   4.618   5.386   4.031
14880SOL    HW146081   4.535   5.355   3.996
14880SOL    HW246082   4.593   5.451   4.097
14881SOL     OW46083   3.960   4.305   5.696
14881SOL    HW146084   3.893   4.318   5.764
14881SOL    HW246085   3.923   4.345   5.618
14882SOL     OW46086   3.918   4.067   6.604
14882SOL    HW146087   3.955   4.025   6.682
14882SOL    HW246088   3.840   4.016   6.584
14883SOL     OW46089   3.766   4.122   6.253
14883SOL    HW146090   3.677   4.153   6.271
14883SOL    HW246091   3.755   4.059   6.183
14884SOL     OW46092   5.296   5.243   6.300
14884SOL    HW146093   5.250   5.210   6.377
14884SOL    HW246094   5.230   5.247   6.232
14885SOL     OW46095   5.518   4.304   5.806
14885SOL    HW146096   5.485   4.308   5.716
14885SOL    HW246097   5.458   4.245   5.851
14886SOL     OW46098   4.442   4.725   6.239
14886SOL    HW146099   4.512   4.715   6.303
14886SOL    HW246100   4.374   4.774   6.285
14887SOL     OW46101   4.008   5.253   6.653
14887SOL    HW146102   3.957   5.173   6.659
14887SOL    HW246103   4.081   5.231   6.594
14888SOL     OW46104   5.196   5.219   6.955
14888SOL    HW146105   5.240   5.303   6.964
14888SOL    HW246106   5.123   5.224   7.017
14889SOL     OW46107   5.340   4.168   6.304
14889SOL    HW146108   5.273   4.137   6.243
14889SOL    HW246109   5.311   4.256   6.330
14890SOL     OW46110   3.935   5.466   6.026
14890SOL    HW146111   3.976   5.517   6.096
14890SOL    HW246112   3.952   5.375   6.049
14891SOL     OW46113   4.858   5.058   7.293
14891SOL    HW146114   4.892   5.046   7.382
14891SOL    HW246115   4.816   4.974   7.272
14892SOL     OW46116   3.972   5.207   6.107
14892SOL    HW146117   3.962   5.173   6.018
14892SOL    HW246118   3.936   5.137   6.162
14893SOL     OW46119   3.995   4.797   6.473
14893SOL    HW146120   4.015   4.710   6.507
14893SOL    HW246121   3.940   4.838   6.539
14894SOL     OW46122   4.392   5.526   7.068
14894SOL    HW146123   4.344   5.457   7.023
14894SOL    HW246124   4.337   5.604   7.056
14895SOL     OW46125   4.356   4.688   5.707
14895SOL    HW146126   4.412   4.734   5.644
14895SOL    HW246127   4.361   4.741   5.787
14896SOL     OW46128   5.304   3.858   7.030
14896SOL    HW146129   5.260   3.892   6.952
14896SOL    HW246130   5.278   3.916   7.101
14897SOL     OW46131   3.847   4.391   6.147
14897SOL    HW146132   3.834   4.301   6.177
14897SOL    HW246133   3.837   4.444   6.226
14898SOL     OW46134   5.566   5.481   5.908
14898SOL    HW146135   5.631   5.457   5.973
14898SOL    HW246136   5.586   5.572   5.886
14899SOL     OW46137   3.795   5.353   5.719
14899SOL    HW146138   3.853   5.287   5.757
14899SOL    HW246139   3.741   5.382   5.792
14900SOL     OW46140   5.463   4.650   6.217
14900SOL    HW146141   5.427   4.566   6.188
14900SOL    HW246142   5.424   4.715   6.158
14901SOL     OW46143   5.377   4.817   6.014
14901SOL    HW146144   5.461   4.836   5.974
14901SOL    HW246145   5.362   4.888   6.076
14902SOL     OW46146   3.851   4.448   7.150
14902SOL    HW146147   3.937   4.486   7.170
14902SOL    HW246148   3.796   4.523   7.128
14903SOL     OW46149   4.324   5.119   6.309
14903SOL    HW146150   4.290   5.031   6.326
14903SOL    HW246151   4.306   5.134   6.216
14904SOL     OW46152   5.016   4.950   7.000
14904SOL    HW146153   5.043   4.887   6.932
14904SOL    HW246154   5.079   4.936   7.071
14905SOL     OW46155   3.972   4.654   6.845
14905SOL    HW146156   3.999   4.618   6.760
14905SOL    HW246157   3.880   4.628   6.854
14906SOL     OW46158   5.265   4.715   5.779
14906SOL    HW146159   5.189   4.657   5.791
14906SOL    HW246160   5.288   4.744   5.867
14907SOL     OW46161   4.954   5.511   7.164
14907SOL    HW146162   5.023   5.547   7.109
14907SOL    HW246163   4.964   5.416   7.156
14908SOL     OW46164   4.044   3.988   7.428
14908SOL    HW146165   4.072   4.069   7.386
14908SOL    HW246166   3.952   4.004   7.452
14909SOL     OW46167   5.201   5.125   6.536
14909SOL    HW146168   5.123   5.159   6.578
14909SOL    HW246169   5.174   5.041   6.499
14910SOL     OW46170   5.384   5.479   6.161
14910SOL    HW146171   5.355   5.452   6.074
14910SOL    HW246172   5.355   5.409   6.219
14911SOL     OW46173   4.312   4.447   5.857
14911SOL    HW146174   4.311   4.526   5.804
14911SOL    HW246175   4.241   4.458   5.920
14912SOL     OW46176   5.296   5.421   5.901
14912SOL    HW146177   5.389   5.434   5.884
14912SOL    HW246178   5.259   5.400   5.815
14913SOL     OW46179   5.122   4.220   7.263
14913SOL    HW146180   5.032   4.212   7.294
14913SOL    HW246181   5.161   4.135   7.281
14914SOL     OW46182   4.785   4.424   6.003
14914SOL    HW146183   4.821   4.359   6.064
14914SOL    HW246184   4.696   4.393   5.985
14915SOL     OW46185   3.826   4.541   6.374
14915SOL    HW146186   3.895   4.533   6.440
14915SOL    HW246187   3.807   4.635   6.371
14916SOL     OW46188   3.863   5.600   7.155
14916SOL    HW146189   3.841   5.572   7.244
14916SOL    HW246190   3.824   5.534   7.098
14917SOL     OW46191   4.620   4.068   5.788
14917SOL    HW146192   4.657   4.119   5.717
14917SOL    HW246193   4.593   3.986   5.747
14918SOL     OW46194   5.465   4.316   7.422
14918SOL    HW146195   5.416   4.380   7.370
14918SOL    HW246196   5.464   4.236   7.370
14919SOL     OW46197   5.119   4.919   6.158
14919SOL    HW146198   5.130   4.829   6.129
14919SOL    HW246199   5.059   4.958   6.094
14920SOL     OW46200   4.745   5.205   6.077
14920SOL    HW146201   4.706   5.266   6.014
14920SOL    HW246202   4.682   5.203   6.149
14921SOL     OW46203   4.081   5.526   6.461
14921SOL    HW146204   4.132   5.445   6.470
14921SOL    HW246205   4.145   5.596   6.473
14922SOL     OW46206   5.533   4.796   6.441
14922SOL    HW146207   5.487   4.761   6.365
14922SOL    HW246208   5.466   4.801   6.509
14923SOL     OW46209   4.967   5.247   7.110
14923SOL    HW146210   4.959   5.176   7.174
14923SOL    HW246211   4.906   5.222   7.040
14924SOL     OW46212   4.080   4.647   5.863
14924SOL    HW146213   4.086   4.726   5.810
14924SOL    HW246214   3.998   4.606   5.834
14925SOL     OW46215   5.235   4.413   6.342
14925SOL    HW146216   5.154   4.363   6.340
14925SOL    HW246217   5.210   4.501   6.313
14926SOL     OW46218   4.851   5.502   5.808
14926SOL    HW146219   4.772   5.472   5.854
14926SOL    HW246220   4.870   5.432   5.746
14927SOL     OW46221   3.908   4.023   7.102
14927SOL    HW146222   3.816   3.996   7.097
14927SOL    HW246223   3.953   3.948   7.141
14928SOL     OW46224   5.357   5.115   5.686
14928SOL    HW146225   5.307   5.195   5.672
14928SOL    HW246226   5.295   5.045   5.666
14929SOL     OW46227   4.243   5.500   5.880
14929SOL    HW146228   4.223   5.456   5.963
14929SOL    HW246229   4.289   5.433   5.828
14930SOL     OW46230   4.016   5.508   6.786
14930SOL    HW146231   3.962   5.461   6.849
14930SOL    HW246232   4.029   5.446   6.714
14931SOL     OW46233   4.646   5.428   6.467
14931SOL    HW146234   4.663   5.347   6.515
14931SOL    HW246235   4.605   5.400   6.386
14932SOL     OW46236   4.123   4.405   6.069
14932SOL    HW146237   4.137   4.311   6.075
14932SOL    HW246238   4.029   4.417   6.080
14933SOL     OW46239   5.229   3.963   7.316
14933SOL    HW146240   5.257   3.962   7.408
14933SOL    HW246241   5.181   3.881   7.305
14934SOL     OW46242   4.384   3.837   5.681
14934SOL    HW146243   4.431   3.757   5.704
14934SOL    HW246244   4.316   3.809   5.621
14935SOL     OW46245   4.624   5.263   6.807
14935SOL    HW146246   4.588   5.230   6.725
14935SOL    HW246247   4.685   5.195   6.835
14936SOL     OW46248   5.168   4.315   7.003
14936SOL    HW146249   5.160   4.279   7.091
14936SOL    HW246250   5.081   4.350   6.983
14937SOL     OW46251   4.609   5.168   6.536
14937SOL    HW146252   4.656   5.105   6.481
14937SOL    HW246253   4.533   5.121   6.568
14938SOL     OW46254   5.162   4.930   5.627
14938SOL    HW146255   5.184   4.848   5.671
14938SOL    HW246256   5.071   4.947   5.651
14939SOL     OW46257   4.654   3.999   6.059
14939SOL    HW146258   4.618   4.015   5.972
14939SOL    HW246259   4.749   3.993   6.045
14940SOL     OW46260   4.985   5.285   6.374
14940SOL    HW146261   4.967   5.348   6.303
14940SOL    HW246262   4.992   5.340   6.452
14941SOL     OW46263   4.205   4.874   6.310
14941SOL    HW146264   4.135   4.849   6.370
14941SOL    HW246265   4.168   4.861   6.223
14942SOL     OW46266   4.982   5.519   6.204
14942SOL    HW146267   5.020   5.583   6.143
14942SOL    HW246268   4.902   5.560   6.235
14943SOL     OW46269   4.751   4.249   5.612
14943SOL    HW146270   4.709   4.333   5.595
14943SOL    HW246271   4.805   4.265   5.690
14944SOL     OW46272   3.831   4.259   6.958
14944SOL    HW146273   3.886   4.190   6.994
14944SOL    HW246274   3.836   4.330   7.022
14945SOL     OW46275   4.605   4.216   6.225
14945SOL    HW146276   4.551   4.273   6.169
14945SOL    HW246277   4.621   4.139   6.171
14946SOL     OW46278   5.132   4.880   6.436
14946SOL    HW146279   5.058   4.820   6.441
14946SOL    HW246280   5.143   4.897   6.342
14947SOL     OW46281   5.631   4.526   5.937
14947SOL    HW146282   5.627   4.485   6.024
14947SOL    HW246283   5.579   4.469   5.881
14948SOL     OW46284   5.417   5.001   6.211
14948SOL    HW146285   5.504   5.033   6.235
14948SOL    HW246286   5.357   5.071   6.238
14949SOL     OW46287   5.131   4.278   5.661
14949SOL    HW146288   5.056   4.278   5.721
14949SOL    HW246289   5.170   4.191   5.671
14950SOL     OW46290   4.292   3.998   5.895
14950SOL    HW146291   4.319   3.941   5.823
14950SOL    HW246292   4.255   4.075   5.852
14951SOL     OW46293   5.477   4.981   7.147
14951SOL    HW146294   5.560   4.935   7.135
14951SOL    HW246295   5.501   5.067   7.179
14952SOL     OW46296   4.784   5.089   6.978
14952SOL    HW146297   4.722   5.033   7.025
14952SOL    HW246298   4.865   5.038   6.975
14953SOL     OW46299   5.341   5.370   7.253
14953SOL    HW146300   5.331   5.393   7.161
14953SOL    HW246301   5.428   5.330   7.258
14954SOL     OW46302   4.892   4.991   6.665
14954SOL    HW146303   4.816   4.939   6.692
14954SOL    HW246304   4.880   5.005   6.571
14955SOL     OW46305   5.348   4.824   6.645
14955SOL    HW146306   5.336   4.882   6.720
14955SOL    HW246307   5.266   4.830   6.596
14956SOL     OW46308   4.712   4.822   7.265
14956SOL    HW146309   4.624   4.852   7.244
14956SOL    HW246310   4.726   4.747   7.208
14957SOL     OW46311   4.442   4.804   5.962
14957SOL    HW146312   4.420   4.773   6.050
14957SOL    HW246313   4.522   4.755   5.940
14958SOL     OW46314   3.819   5.402   6.956
14958SOL    HW146315   3.761   5.419   6.882
14958SOL    HW246316   3.831   5.307   6.957
14959SOL     OW46317   4.100   4.845   6.060
14959SOL    HW146318   4.094   4.896   5.978
14959SOL    HW246319   4.091   4.754   6.032
14960SOL     OW46320   4.291   4.256   6.416
14960SOL    HW146321   4.280   4.326   6.352
14960SOL    HW246322   4.386   4.244   6.423
14961SOL     OW46323   4.969   5.084   5.977
14961SOL    HW146324   5.030   5.149   6.012
14961SOL    HW246325   4.884   5.111   6.011
14962SOL     OW46326   5.018   5.217   6.736
14962SOL    HW146327   5.075   5.192   6.808
14962SOL    HW246328   4.966   5.138   6.718
14963SOL     OW46329   5.373   4.422   6.089
14963SOL    HW146330   5.303   4.391   6.145
14963SOL    HW246331   5.333   4.431   6.002
14964SOL     OW46332   5.341   4.511   7.276
14964SOL    HW146333   5.247   4.516   7.261
14964SOL    HW246334   5.380   4.536   7.192
14965SOL     OW46335   4.198   3.761   7.399
14965SOL    HW146336   4.193   3.702   7.324
14965SOL    HW246337   4.133   3.828   7.381
14966SOL     OW46338   4.285   4.634   6.628
14966SOL    HW146339   4.349   4.647   6.557
14966SOL    HW246340   4.264   4.722   6.657
14967SOL     OW46341   4.927   4.262   5.838
14967SOL    HW146342   4.938   4.201   5.910
14967SOL    HW246343   4.875   4.334   5.875
14968SOL     OW46344   3.967   3.949   6.841
14968SOL    HW146345   3.968   3.969   6.935
14968SOL    HW246346   4.048   3.900   6.827
14969SOL     OW46347   5.476   4.688   7.440
14969SOL    HW146348   5.434   4.622   7.384
14969SOL    HW246349   5.411   4.704   7.509
14970SOL     OW46350   5.346   4.086   5.957
14970SOL    HW146351   5.392   4.018   6.008
14970SOL    HW246352   5.266   4.103   6.007
14971SOL     OW46353   4.716   5.291   7.286
14971SOL    HW146354   4.690   5.317   7.198
14971SOL    HW246355   4.761   5.207   7.274
14972SOL     OW46356   5.245   3.995   5.711
14972SOL    HW146357   5.176   3.931   5.729
14972SOL    HW246358   5.275   4.023   5.797
14973SOL     OW46359   5.035   4.551   5.653
14973SOL    HW146360   5.056   4.459   5.637
14973SOL    HW246361   5.049   4.593   5.568
14974SOL     OW46362   4.814   5.022   6.411
14974SOL    HW146363   4.804   4.941   6.362
14974SOL    HW246364   4.861   5.080   6.351
14975SOL     OW46365   4.034   4.543   6.580
14975SOL    HW146366   4.127   4.568   6.589
14975SOL    HW246367   4.034   4.448   6.589
14976SOL     OW46368   4.098   4.276   6.607
14976SOL    HW146369   4.034   4.205   6.599
14976SOL    HW246370   4.155   4.266   6.531
14977SOL     OW46371   3.805   5.502   6.518
14977SOL    HW146372   3.774   5.418   6.484
14977SOL    HW246373   3.900   5.501   6.501
14978SOL     OW46374   4.256   5.305   6.496
14978SOL    HW146375   4.307   5.258   6.562
14978SOL    HW246376   4.263   5.250   6.418
14979SOL     OW46377   3.760   4.278   6.696
14979SOL    HW146378   3.811   4.213   6.647
14979SOL    HW246379   3.798   4.277   6.783
14980SOL     OW46380   3.898   4.217   7.294
14980SOL    HW146381   3.912   4.154   7.223
14980SOL    HW246382   3.880   4.300   7.250
14981SOL     OW46383   5.090   4.664   7.254
14981SOL    HW146384   5.115   4.756   7.252
14981SOL    HW246385   5.095   4.635   7.163
14982SOL     OW46386   4.547   4.317   5.930
14982SOL    HW146387   4.539   4.231   5.890
14982SOL    HW246388   4.464   4.361   5.908
14983SOL     OW46389   5.357   4.342   6.805
14983SOL    HW146390   5.295   4.325   6.876
14983SOL    HW246391   5.340   4.272   6.742
14984SOL     OW46392   4.636   5.410   7.040
14984SOL    HW146393   4.643   5.357   6.960
14984SOL    HW246394   4.546   5.444   7.038
14985SOL     OW46395   4.209   4.214   5.747
14985SOL    HW146396   4.250   4.291   5.786
14985SOL    HW246397   4.118   4.241   5.732
14986SOL     OW46398   5.049   4.787   6.770
14986SOL    HW146399   4.999   4.713   6.738
14986SOL    HW246400   5.016   4.862   6.721
14987SOL     OW46401   5.020   4.575   5.926
14987SOL    HW146402   4.938   4.537   5.959
14987SOL    HW246403   5.013   4.568   5.831
14988SOL     OW46404   5.464   5.462   6.725
14988SOL    HW146405   5.537   5.486   6.669
14988SOL    HW246406   5.448   5.370   6.707
14989SOL     OW46407   4.967   5.482   6.716
14989SOL    HW146408   5.045   5.501   6.665
14989SOL    HW246409   4.968   5.387   6.728
14990SOL     OW46410   3.753   5.028   6.624
14990SOL    HW146411   3.777   4.975   6.700
14990SOL    HW246412   3.727   4.964   6.557
14991SOL     OW46413   4.423   5.426   7.341
14991SOL    HW146414   4.360   5.483   7.297
14991SOL    HW246415   4.461   5.374   7.269
14992SOL     OW46416   5.485   3.877   6.106
14992SOL    HW146417   5.537   3.855   6.029
14992SOL    HW246418   5.444   3.794   6.132
14993SOL     OW46419   5.128   5.296   6.084
14993SOL    HW146420   5.173   5.334   6.009
14993SOL    HW246421   5.062   5.361   6.108
14994SOL     OW46422   3.854   5.543   7.426
14994SOL    HW146423   3.815   5.457   7.443
14994SOL    HW246424   3.907   5.561   7.504
14995SOL     OW46425   5.103   4.622   6.221
14995SOL    HW146426   5.056   4.600   6.140
14995SOL    HW246427   5.035   4.655   6.280
14996SOL     OW46428   4.408   5.330   5.746
14996SOL    HW146429   4.410   5.346   5.651
14996SOL    HW246430   4.403   5.235   5.754
14997SOL     OW46431   5.344   5.459   6.977
14997SOL    HW146432   5.373   5.463   6.886
14997SOL    HW246433   5.326   5.550   7.000
14998SOL     OW46434   5.565   3.915   6.535
14998SOL    HW146435   5.587   3.824   6.513
14998SOL    HW246436   5.473   3.924   6.508
14999SOL     OW46437   4.020   4.096   6.349
14999SOL    HW146438   3.935   4.119   6.311
14999SOL    HW246439   4.000   4.067   6.438
15000SOL     OW46440   4.923   5.308   5.623
15000SOL    HW146441   4.913   5.217   5.649
15000SOL    HW246442   4.856   5.322   5.556
15001SOL     OW46443   4.675   4.679   5.899
15001SOL    HW146444   4.712   4.686   5.812
15001SOL    HW246445   4.696   4.590   5.927
15002SOL     OW46446   5.193   5.375   5.650
15002SOL    HW146447   5.103   5.346   5.633
15002SOL    HW246448   5.236   5.371   5.564
15003SOL     OW46449   5.353   5.013   6.871
15003SOL    HW146450   5.394   4.985   6.953
15003SOL    HW246451   5.286   5.075   6.898
15004SOL     OW46452   4.308   5.244   6.050
15004SOL    HW146453   4.365   5.186   5.998
15004SOL    HW246454   4.220   5.212   6.033
15005SOL     OW46455   5.507   4.104   7.009
15005SOL    HW146456   5.526   4.186   6.963
15005SOL    HW246457   5.499   4.038   6.940
15006SOL     OW46458   5.149   4.623   6.995
15006SOL    HW146459   5.081   4.638   6.929
15006SOL    HW246460   5.228   4.603   6.944
15007SOL     OW46461   4.904   5.035   5.701
15007SOL    HW146462   4.842   4.963   5.693
15007SOL    HW246463   4.920   5.043   5.795
15008SOL     OW46464   5.202   5.526   6.582
15008SOL    HW146465   5.219   5.564   6.496
15008SOL    HW246466   5.287   5.493   6.611
15009SOL     OW46467   5.201   4.923   7.217
15009SOL    HW146468   5.191   4.941   7.311
15009SOL    HW246469   5.292   4.945   7.198
15010SOL     OW46470   4.107   5.469   7.164
15010SOL    HW146471   4.021   5.511   7.152
15010SOL    HW246472   4.101   5.388   7.114
15011SOL     OW46473   5.405   4.610   6.840
15011SOL    HW146474   5.393   4.518   6.814
15011SOL    HW246475   5.381   4.660   6.762
15012SOL     OW46476   4.310   4.474   6.255
15012SOL    HW146477   4.356   4.554   6.229
15012SOL    HW246478   4.247   4.459   6.185
15013SOL     OW46479   5.470   4.087   7.275
15013SOL    HW146480   5.483   4.094   7.180
15013SOL    HW246481   5.388   4.038   7.284
15014SOL     OW46482   5.494   4.654   7.089
15014SOL    HW146483   5.453   4.737   7.112
15014SOL    HW246484   5.468   4.639   6.998
15015SOL     OW46485   4.441   5.585   6.599
15015SOL    HW146486   4.377   5.615   6.535
15015SOL    HW246487   4.488   5.514   6.555
15016SOL     OW46488   4.800   4.763   5.647
15016SOL    HW146489   4.716   4.769   5.602
15016SOL    HW246490   4.836   4.679   5.621
15017SOL     OW46491   5.564   5.285   6.432
15017SOL    HW146492   5.488   5.278   6.374
15017SOL    HW246493   5.545   5.225   6.503
15018SOL     OW46494   3.828   5.000   6.242
15018SOL    HW146495   3.803   4.943   6.315
15018SOL    HW246496   3.809   4.949   6.164
15019SOL     OW46497   5.546   3.925   6.809
15019SOL    HW146498   5.513   3.838   6.833
15019SOL    HW246499   5.544   3.925   6.713
15020SOL     OW46500   4.152   4.141   6.104
15020SOL    HW146501   4.191   4.066   6.058
15020SOL    HW246502   4.122   4.104   6.188
15021SOL     OW46503   5.421   5.200   6.673
15021SOL    HW146504   5.344   5.179   6.620
15021SOL    HW246505   5.420   5.134   6.743
15022SOL     OW46506   4.523   5.304   6.254
15022SOL    HW146507   4.466   5.319   6.179
15022SOL    HW246508   4.482   5.233   6.303
15023SOL     OW46509   5.172   3.922   6.784
15023SOL    HW146510   5.168   3.829   6.761
15023SOL    HW246511   5.110   3.964   6.724
15024SOL     OW46512   4.469   5.073   5.913
15024SOL    HW146513   4.430   4.986   5.925
15024SOL    HW246514   4.561   5.055   5.895
15025SOL     OW46515   4.342   5.295   6.920
15025SOL    HW146516   4.400   5.319   6.848
15025SOL    HW246517   4.318   5.204   6.902
15026SOL     OW46518   5.053   3.789   5.736
15026SOL    HW146519   5.047   3.699   5.704
15026SOL    HW246520   4.971   3.803   5.784
15027SOL     OW46521   5.302   3.951   6.471
15027SOL    HW146522   5.213   3.960   6.504
15027SOL    HW246523   5.310   4.019   6.405
15028SOL     OW46524   4.619   5.400   5.923
15028SOL    HW146525   4.545   5.370   5.870
15028SOL    HW246526   4.579   5.459   5.987
15029SOL     OW46527   5.294   5.230   8.163
15029SOL    HW146528   5.244   5.196   8.238
15029SOL    HW246529   5.229   5.238   8.093
15030SOL     OW46530   5.475   4.333   7.689
15030SOL    HW146531   5.467   4.331   7.593
15030SOL    HW246532   5.453   4.244   7.716
15031SOL     OW46533   4.606   4.540   9.288
15031SOL    HW146534   4.523   4.584   9.307
15031SOL    HW246535   4.618   4.550   9.194
15032SOL     OW46536   4.422   4.870   9.246
15032SOL    HW146537   4.443   4.961   9.224
15032SOL    HW246538   4.339   4.854   9.203
15033SOL     OW46539   5.211   5.291   8.845
15033SOL    HW146540   5.157   5.329   8.776
15033SOL    HW246541   5.178   5.202   8.855
15034SOL     OW46542   4.135   4.067   8.935
15034SOL    HW146543   4.224   4.050   8.903
15034SOL    HW246544   4.095   3.981   8.942
15035SOL     OW46545   5.325   4.167   8.166
15035SOL    HW146546   5.257   4.132   8.109
15035SOL    HW246547   5.290   4.250   8.197
15036SOL     OW46548   3.927   5.434   7.911
15036SOL    HW146549   3.966   5.509   7.957
15036SOL    HW246550   3.991   5.411   7.844
15037SOL     OW46551   4.879   5.039   9.155
15037SOL    HW146552   4.887   5.040   9.251
15037SOL    HW246553   4.813   4.972   9.138
15038SOL     OW46554   3.963   5.167   8.025
15038SOL    HW146555   3.918   5.248   8.002
15038SOL    HW246556   3.892   5.107   8.051
15039SOL     OW46557   4.352   5.534   8.907
15039SOL    HW146558   4.263   5.512   8.935
15039SOL    HW246559   4.341   5.608   8.847
15040SOL     OW46560   5.303   3.901   8.894
15040SOL    HW146561   5.281   3.904   8.801
15040SOL    HW246562   5.218   3.904   8.939
15041SOL     OW46563   5.539   5.512   7.780
15041SOL    HW146564   5.596   5.473   7.846
15041SOL    HW246565   5.583   5.593   7.754
15042SOL     OW46566   3.774   5.326   7.576
15042SOL    HW146567   3.769   5.232   7.590
15042SOL    HW246568   3.721   5.364   7.646
15043SOL     OW46569   5.472   4.643   8.098
15043SOL    HW146570   5.435   4.558   8.075
15043SOL    HW246571   5.435   4.704   8.035
15044SOL     OW46572   5.357   4.802   7.891
15044SOL    HW146573   5.429   4.813   7.828
15044SOL    HW246574   5.364   4.879   7.948
15045SOL     OW46575   3.845   4.519   9.076
15045SOL    HW146576   3.920   4.525   9.018
15045SOL    HW246577   3.796   4.600   9.062
15046SOL     OW46578   5.103   5.006   8.823
15046SOL    HW146579   5.075   4.926   8.780
15046SOL    HW246580   5.100   4.986   8.917
15047SOL     OW46581   4.547   3.738   8.006
15047SOL    HW146582   4.592   3.756   7.923
15047SOL    HW246583   4.456   3.761   7.990
15048SOL     OW46584   5.260   4.714   7.622
15048SOL    HW146585   5.191   4.654   7.597
15048SOL    HW246586   5.259   4.713   7.718
15049SOL     OW46587   4.945   5.525   9.036
15049SOL    HW146588   4.939   5.612   8.995
15049SOL    HW246589   4.870   5.477   9.000
15050SOL     OW46590   4.112   4.058   9.257
15050SOL    HW146591   4.103   4.080   9.350
15050SOL    HW246592   4.064   3.975   9.247
15051SOL     OW46593   5.193   5.116   8.403
15051SOL    HW146594   5.115   5.141   8.453
15051SOL    HW246595   5.173   5.029   8.369
15052SOL     OW46596   5.385   5.470   8.036
15052SOL    HW146597   5.355   5.455   7.946
15052SOL    HW246598   5.351   5.395   8.085
15053SOL     OW46599   5.041   4.044   8.377
15053SOL    HW146600   5.007   4.093   8.302
15053SOL    HW246601   4.964   4.002   8.415
15054SOL     OW46602   5.290   5.404   7.762
15054SOL    HW146603   5.375   5.444   7.751
15054SOL    HW246604   5.260   5.385   7.673
15055SOL     OW46605   4.537   4.342   8.905
15055SOL    HW146606   4.506   4.314   8.991
15055SOL    HW246607   4.497   4.279   8.844
15056SOL     OW46608   5.155   4.227   9.121
15056SOL    HW146609   5.132   4.272   9.203
15056SOL    HW246610   5.100   4.150   9.121
15057SOL     OW46611   4.691   4.612   9.012
15057SOL    HW146612   4.735   4.534   8.980
15057SOL    HW246613   4.643   4.646   8.936
15058SOL     OW46614   4.745   4.149   8.692
15058SOL    HW146615   4.653   4.143   8.720
15058SOL    HW246616   4.745   4.111   8.604
15059SOL     OW46617   3.847   5.586   9.026
15059SOL    HW146618   3.837   5.573   9.120
15059SOL    HW246619   3.803   5.510   8.986
15060SOL     OW46620   5.463   4.303   9.267
15060SOL    HW146621   5.411   4.372   9.226
15060SOL    HW246622   5.448   4.226   9.212
15061SOL     OW46623   5.113   4.915   8.037
15061SOL    HW146624   5.158   4.845   7.989
15061SOL    HW246625   5.060   4.959   7.971
15062SOL     OW46626   4.265   3.891   8.347
15062SOL    HW146627   4.270   3.955   8.418
15062SOL    HW246628   4.258   3.944   8.268
15063SOL     OW46629   4.744   5.195   7.951
15063SOL    HW146630   4.712   5.249   7.879
15063SOL    HW246631   4.677   5.204   8.019
15064SOL     OW46632   4.092   5.537   8.314
15064SOL    HW146633   4.157   5.468   8.326
15064SOL    HW246634   4.139   5.618   8.336
15065SOL     OW46635   5.543   4.810   8.311
15065SOL    HW146636   5.510   4.758   8.238
15065SOL    HW246637   5.474   4.803   8.378
15066SOL     OW46638   4.945   5.215   8.964
15066SOL    HW146639   4.920   5.144   9.024
15066SOL    HW246640   4.887   5.205   8.889
15067SOL     OW46641   4.187   4.977   9.129
15067SOL    HW146642   4.164   4.954   9.039
15067SOL    HW246643   4.105   4.969   9.178
15068SOL     OW46644   4.848   5.497   7.676
15068SOL    HW146645   4.770   5.460   7.717
15068SOL    HW246646   4.870   5.436   7.606
15069SOL     OW46647   5.358   5.116   7.558
15069SOL    HW146648   5.319   5.197   7.525
15069SOL    HW246649   5.293   5.048   7.539
15070SOL     OW46650   4.222   5.473   7.785
15070SOL    HW146651   4.242   5.402   7.846
15070SOL    HW246652   4.263   5.446   7.703
15071SOL     OW46653   4.007   5.495   8.674
15071SOL    HW146654   4.032   5.420   8.727
15071SOL    HW246655   4.020   5.467   8.583
15072SOL     OW46656   4.654   5.415   8.338
15072SOL    HW146657   4.683   5.348   8.399
15072SOL    HW246658   4.615   5.367   8.265
15073SOL     OW46659   4.647   5.244   8.602
15073SOL    HW146660   4.627   5.161   8.559
15073SOL    HW246661   4.682   5.218   8.688
15074SOL     OW46662   5.157   4.312   8.862
15074SOL    HW146663   5.151   4.278   8.952
15074SOL    HW246664   5.103   4.391   8.863
15075SOL     OW46665   4.680   4.242   8.366
15075SOL    HW146666   4.741   4.267   8.297
15075SOL    HW246667   4.692   4.148   8.376
15076SOL     OW46668   4.284   3.809   7.939
15076SOL    HW146669   4.200   3.796   7.982
15076SOL    HW246670   4.269   3.880   7.877
15077SOL     OW46671   5.158   4.933   7.493
15077SOL    HW146672   5.195   4.855   7.534
15077SOL    HW246673   5.064   4.925   7.506
15078SOL     OW46674   4.025   3.785   7.631
15078SOL    HW146675   4.054   3.847   7.563
15078SOL    HW246676   4.082   3.709   7.619
15079SOL     OW46677   4.803   4.328   8.921
15079SOL    HW146678   4.708   4.330   8.930
15079SOL    HW246679   4.819   4.277   8.842
15080SOL     OW46680   5.013   5.362   8.302
15080SOL    HW146681   4.998   5.407   8.219
15080SOL    HW246682   4.965   5.280   8.294
15081SOL     OW46683   4.993   5.527   8.072
15081SOL    HW146684   5.036   5.585   8.009
15081SOL    HW246685   4.910   5.570   8.092
15082SOL     OW46686   4.287   3.952   8.637
15082SOL    HW146687   4.329   3.867   8.622
15082SOL    HW246688   4.200   3.930   8.672
15083SOL     OW46689   4.731   3.764   8.223
15083SOL    HW146690   4.676   3.768   8.144
15083SOL    HW246691   4.701   3.686   8.269
15084SOL     OW46692   5.150   4.853   8.305
15084SOL    HW146693   5.121   4.761   8.304
15084SOL    HW246694   5.142   4.881   8.214
15085SOL     OW46695   5.196   4.287   8.463
15085SOL    HW146696   5.141   4.323   8.394
15085SOL    HW246697   5.147   4.211   8.495
15086SOL     OW46698   5.607   4.531   7.816
15086SOL    HW146699   5.641   4.476   7.886
15086SOL    HW246700   5.554   4.472   7.762
15087SOL     OW46701   4.219   5.131   7.586
15087SOL    HW146702   4.145   5.129   7.646
15087SOL    HW246703   4.191   5.078   7.512
15088SOL     OW46704   5.414   4.999   8.063
15088SOL    HW146705   5.506   5.021   8.076
15088SOL    HW246706   5.366   5.077   8.092
15089SOL     OW46707   5.475   4.964   9.004
15089SOL    HW146708   5.562   4.928   8.987
15089SOL    HW246709   5.492   5.052   9.039
15090SOL     OW46710   4.758   5.084   8.808
15090SOL    HW146711   4.669   5.059   8.830
15090SOL    HW246712   4.790   5.014   8.752
15091SOL     OW46713   5.294   5.319   9.102
15091SOL    HW146714   5.278   5.314   9.008
15091SOL    HW246715   5.387   5.298   9.111
15092SOL     OW46716   4.887   4.946   8.559
15092SOL    HW146717   4.792   4.957   8.555
15092SOL    HW246718   4.911   4.912   8.473
15093SOL     OW46719   5.354   4.819   8.515
15093SOL    HW146720   5.338   4.887   8.580
15093SOL    HW246721   5.275   4.819   8.461
15094SOL     OW46722   4.690   3.848   8.843
15094SOL    HW146723   4.655   3.833   8.755
15094SOL    HW246724   4.773   3.799   8.843
15095SOL     OW46725   4.694   4.834   9.166
15095SOL    HW146726   4.602   4.842   9.189
15095SOL    HW246727   4.698   4.761   9.105
15096SOL     OW46728   5.030   4.132   8.679
15096SOL    HW146729   5.054   4.192   8.749
15096SOL    HW246730   4.934   4.131   8.681
15097SOL     OW46731   3.813   5.331   8.829
15097SOL    HW146732   3.804   5.370   8.742
15097SOL    HW246733   3.886   5.271   8.820
15098SOL     OW46734   4.972   5.074   7.860
15098SOL    HW146735   5.030   5.147   7.879
15098SOL    HW246736   4.885   5.105   7.887
15099SOL     OW46737   5.007   5.189   8.623
15099SOL    HW146738   5.029   5.128   8.694
15099SOL    HW246739   4.935   5.146   8.576
15100SOL     OW46740   5.327   4.426   7.972
15100SOL    HW146741   5.234   4.439   7.987
15100SOL    HW246742   5.336   4.423   7.876
15101SOL     OW46743   4.135   4.463   9.030
15101SOL    HW146744   4.210   4.510   8.993
15101SOL    HW246745   4.115   4.395   8.966
15102SOL     OW46746   5.341   4.516   9.140
15102SOL    HW146747   5.249   4.543   9.138
15102SOL    HW246748   5.374   4.535   9.053
15103SOL     OW46749   5.109   4.578   8.510
15103SOL    HW146750   5.016   4.564   8.497
15103SOL    HW246751   5.151   4.533   8.437
15104SOL     OW46752   4.504   4.378   8.533
15104SOL    HW146753   4.561   4.331   8.472
15104SOL    HW246754   4.464   4.447   8.481
15105SOL     OW46755   5.470   4.696   9.302
15105SOL    HW146756   5.432   4.628   9.246
15105SOL    HW246757   5.408   4.707   9.373
15106SOL     OW46758   4.031   3.802   8.058
15106SOL    HW146759   3.951   3.855   8.055
15106SOL    HW246760   4.030   3.762   8.145
15107SOL     OW46761   5.393   4.108   7.826
15107SOL    HW146762   5.326   4.047   7.856
15107SOL    HW246763   5.399   4.173   7.896
15108SOL     OW46764   4.855   4.529   8.462
15108SOL    HW146765   4.780   4.536   8.522
15108SOL    HW246766   4.823   4.473   8.391
15109SOL     OW46767   4.740   5.323   9.149
15109SOL    HW146768   4.705   5.351   9.064
15109SOL    HW246769   4.708   5.234   9.161
15110SOL     OW46770   5.564   5.226   9.073
15110SOL    HW146771   5.584   5.246   8.982
15110SOL    HW246772   5.648   5.235   9.119
15111SOL     OW46773   4.109   4.626   9.269
15111SOL    HW146774   4.202   4.613   9.291
15111SOL    HW246775   4.094   4.570   9.192
15112SOL     OW46776   5.303   3.978   7.582
15112SOL    HW146777   5.226   3.943   7.627
15112SOL    HW246778   5.352   4.025   7.650
15113SOL     OW46779   5.054   4.568   7.507
15113SOL    HW146780   5.032   4.475   7.503
15113SOL    HW246781   5.066   4.594   7.415
15114SOL     OW46782   4.851   5.102   8.291
15114SOL    HW146783   4.785   5.042   8.326
15114SOL    HW246784   4.843   5.094   8.196
15115SOL     OW46785   4.851   4.162   9.143
15115SOL    HW146786   4.812   4.206   9.218
15115SOL    HW246787   4.834   4.219   9.069
15116SOL     OW46788   4.962   3.964   8.954
15116SOL    HW146789   4.876   4.006   8.952
15116SOL    HW246790   4.951   3.884   8.903
15117SOL     OW46791   3.715   5.078   7.706
15117SOL    HW146792   3.624   5.105   7.690
15117SOL    HW246793   3.721   4.990   7.668
15118SOL     OW46794   3.816   5.509   8.380
15118SOL    HW146795   3.781   5.429   8.340
15118SOL    HW246796   3.908   5.509   8.356
15119SOL     OW46797   4.697   4.500   8.694
15119SOL    HW146798   4.696   4.436   8.765
15119SOL    HW246799   4.620   4.479   8.642
15120SOL     OW46800   3.904   4.264   9.174
15120SOL    HW146801   3.990   4.239   9.141
15120SOL    HW246802   3.883   4.345   9.128
15121SOL     OW46803   5.101   4.664   9.114
15121SOL    HW146804   5.080   4.757   9.106
15121SOL    HW246805   5.106   4.632   9.024
15122SOL     OW46806   5.368   4.318   8.691
15122SOL    HW146807   5.293   4.315   8.750
15122SOL    HW246808   5.330   4.301   8.604
15123SOL     OW46809   4.015   5.295   9.203
15123SOL    HW146810   3.925   5.324   9.189
15123SOL    HW246811   4.008   5.202   9.223
15124SOL     OW46812   4.451   4.168   8.714
15124SOL    HW146813   4.392   4.098   8.685
15124SOL    HW246814   4.444   4.235   8.646
15125SOL     OW46815   4.671   5.419   8.907
15125SOL    HW146816   4.612   5.362   8.859
15125SOL    HW246817   4.639   5.508   8.889
15126SOL     OW46818   3.943   4.895   9.014
15126SOL    HW146819   3.864   4.842   9.024
15126SOL    HW246820   3.961   4.894   8.920
15127SOL     OW46821   5.056   4.778   8.680
15127SOL    HW146822   5.075   4.707   8.619
15127SOL    HW246823   4.981   4.823   8.642
15128SOL     OW46824   4.982   5.459   8.572
15128SOL    HW146825   4.986   5.450   8.477
15128SOL    HW246826   4.980   5.369   8.604
15129SOL     OW46827   4.412   5.436   9.191
15129SOL    HW146828   4.334   5.492   9.191
15129SOL    HW246829   4.445   5.440   9.101
15130SOL     OW46830   5.522   3.867   8.009
15130SOL    HW146831   5.532   3.885   7.915
15130SOL    HW246832   5.443   3.814   8.016
15131SOL     OW46833   5.125   5.296   7.953
15131SOL    HW146834   5.175   5.326   7.877
15131SOL    HW246835   5.065   5.368   7.973
15132SOL     OW46836   3.837   5.539   9.296
15132SOL    HW146837   3.813   5.455   9.335
15132SOL    HW246838   3.896   5.579   9.360
15133SOL     OW46839   4.498   5.010   8.859
15133SOL    HW146840   4.470   5.042   8.945
15133SOL    HW246841   4.420   5.018   8.804
15134SOL     OW46842   4.380   5.358   7.597
15134SOL    HW146843   4.400   5.375   7.505
15134SOL    HW246844   4.331   5.276   7.596
15135SOL     OW46845   5.442   5.483   8.795
15135SOL    HW146846   5.379   5.411   8.794
15135SOL    HW246847   5.396   5.555   8.838
15136SOL     OW46848   5.561   3.897   8.423
15136SOL    HW146849   5.577   3.815   8.375
15136SOL    HW246850   5.471   3.921   8.400
15137SOL     OW46851   4.933   5.333   7.473
15137SOL    HW146852   4.926   5.245   7.509
15137SOL    HW246853   4.867   5.336   7.403
15138SOL     OW46854   4.561   4.742   8.801
15138SOL    HW146855   4.582   4.724   8.709
15138SOL    HW246856   4.536   4.835   8.801
15139SOL     OW46857   5.209   5.374   7.495
15139SOL    HW146858   5.118   5.350   7.476
15139SOL    HW246859   5.251   5.375   7.409
15140SOL     OW46860   5.356   5.009   8.741
15140SOL    HW146861   5.399   4.982   8.823
15140SOL    HW246862   5.263   5.008   8.762
15141SOL     OW46863   4.759   3.970   8.418
15141SOL    HW146864   4.751   3.924   8.334
15141SOL    HW246865   4.740   3.904   8.484
15142SOL     OW46866   4.315   5.252   7.924
15142SOL    HW146867   4.374   5.194   7.876
15142SOL    HW246868   4.237   5.198   7.940
15143SOL     OW46869   5.522   4.114   8.837
15143SOL    HW146870   5.431   4.135   8.818
15143SOL    HW246871   5.538   4.032   8.790
15144SOL     OW46872   3.999   5.127   7.753
15144SOL    HW146873   3.910   5.109   7.723
15144SOL    HW246874   3.994   5.118   7.848
15145SOL     OW46875   3.872   4.777   9.321
15145SOL    HW146876   3.789   4.744   9.287
15145SOL    HW246877   3.938   4.718   9.284
15146SOL     OW46878   3.788   4.065   7.500
15146SOL    HW146879   3.717   4.050   7.437
15146SOL    HW246880   3.831   4.144   7.468
15147SOL     OW46881   5.163   4.605   8.859
15147SOL    HW146882   5.102   4.654   8.805
15147SOL    HW246883   5.238   4.588   8.802
15148SOL     OW46884   3.795   3.876   7.744
15148SOL    HW146885   3.768   3.947   7.686
15148SOL    HW246886   3.880   3.849   7.710
15149SOL     OW46887   4.898   5.088   7.575
15149SOL    HW146888   4.805   5.066   7.570
15149SOL    HW246889   4.927   5.050   7.659
15150SOL     OW46890   4.362   4.571   8.919
15150SOL    HW146891   4.402   4.643   8.870
15150SOL    HW246892   4.412   4.494   8.894
15151SOL     OW46893   5.251   5.484   8.380
15151SOL    HW146894   5.234   5.566   8.334
15151SOL    HW246895   5.175   5.430   8.361
15152SOL     OW46896   4.474   4.270   9.158
15152SOL    HW146897   4.426   4.324   9.221
15152SOL    HW246898   4.455   4.180   9.184
15153SOL     OW46899   5.197   4.954   9.086
15153SOL    HW146900   5.183   4.943   9.180
15153SOL    HW246901   5.291   4.938   9.074
15154SOL     OW46902   4.108   5.474   9.011
15154SOL    HW146903   4.021   5.504   8.986
15154SOL    HW246904   4.093   5.392   9.057
15155SOL     OW46905   5.399   4.606   8.692
15155SOL    HW146906   5.371   4.525   8.651
15155SOL    HW246907   5.381   4.674   8.626
15156SOL     OW46908   5.462   4.072   9.113
15156SOL    HW146909   5.473   4.080   9.018
15156SOL    HW246910   5.379   4.025   9.123
15157SOL     OW46911   5.499   4.647   8.942
15157SOL    HW146912   5.462   4.730   8.971
15157SOL    HW246913   5.471   4.638   8.851
15158SOL     OW46914   4.621   5.123   7.522
15158SOL    HW146915   4.531   5.093   7.509
15158SOL    HW246916   4.636   5.184   7.449
15159SOL     OW46917   4.377   5.526   8.392
15159SOL    HW146918   4.388   5.599   8.453
15159SOL    HW246919   4.465   5.491   8.379
15160SOL     OW46920   4.885   4.798   7.512
15160SOL    HW146921   4.811   4.787   7.452
15160SOL    HW246922   4.923   4.710   7.520
15161SOL     OW46923   5.551   5.256   8.291
15161SOL    HW146924   5.482   5.233   8.230
15161SOL    HW246925   5.586   5.172   8.321
15162SOL     OW46926   3.937   5.045   9.283
15162SOL    HW146927   3.917   4.985   9.211
15162SOL    HW246928   3.901   5.003   9.361
15163SOL     OW46929   3.784   4.943   8.077
15163SOL    HW146930   3.811   4.870   8.132
15163SOL    HW246931   3.781   4.907   7.988
15164SOL     OW46932   4.413   5.125   9.124
15164SOL    HW146933   4.330   5.077   9.118
15164SOL    HW246934   4.395   5.209   9.082
15165SOL     OW46935   5.582   3.892   8.698
15165SOL    HW146936   5.537   3.812   8.727
15165SOL    HW246937   5.567   3.895   8.603
15166SOL     OW46938   5.387   5.218   8.564
15166SOL    HW146939   5.321   5.183   8.505
15166SOL    HW246940   5.395   5.153   8.633
15167SOL     OW46941   4.084   4.290   8.791
15167SOL    HW146942   4.085   4.205   8.833
15167SOL    HW246943   4.045   4.274   8.705
15168SOL     OW46944   4.536   5.290   8.123
15168SOL    HW146945   4.516   5.353   8.054
15168SOL    HW246946   4.464   5.228   8.120
15169SOL     OW46947   5.185   3.909   8.657
15169SOL    HW146948   5.129   3.838   8.627
15169SOL    HW246949   5.129   3.987   8.655
15170SOL     OW46950   4.720   3.750   8.573
15170SOL    HW146951   4.641   3.713   8.535
15170SOL    HW246952   4.789   3.687   8.553
15171SOL     OW46953   4.467   5.062   7.797
15171SOL    HW146954   4.401   5.009   7.750
15171SOL    HW246955   4.549   5.042   7.752
15172SOL     OW46956   4.442   5.296   8.799
15172SOL    HW146957   4.383   5.371   8.805
15172SOL    HW246958   4.444   5.275   8.706
15173SOL     OW46959   5.305   3.951   8.349
15173SOL    HW146960   5.215   3.969   8.377
15173SOL    HW246961   5.319   4.008   8.274
15174SOL     OW46962   4.614   5.386   7.786
15174SOL    HW146963   4.543   5.360   7.728
15174SOL    HW246964   4.578   5.457   7.838
15175SOL     OW46965   3.944   4.355   9.439
15175SOL    HW146966   3.864   4.312   9.471
15175SOL    HW246967   3.940   4.343   9.344
15176SOL     OW46968   3.956   4.015  10.306
15176SOL    HW146969   3.982   3.986  10.393
15176SOL    HW246970   3.868   3.980  10.294
15177SOL     OW46971   3.731   4.110   9.947
15177SOL    HW146972   3.651   4.122   9.999
15177SOL    HW246973   3.700   4.064   9.868
15178SOL     OW46974   4.311   5.016  10.512
15178SOL    HW146975   4.222   4.992  10.486
15178SOL    HW246976   4.306   5.110  10.529
15179SOL     OW46977   5.288   5.244  10.029
15179SOL    HW146978   5.243   5.209  10.106
15179SOL    HW246979   5.220   5.248   9.961
15180SOL     OW46980   4.880   4.412  10.020
15180SOL    HW146981   4.916   4.498   9.998
15180SOL    HW246982   4.829   4.428  10.100
15181SOL     OW46983   5.546   4.288   9.523
15181SOL    HW146984   5.512   4.299   9.434
15181SOL    HW246985   5.477   4.240   9.569
15182SOL     OW46986   4.510   4.873  10.384
15182SOL    HW146987   4.434   4.899  10.438
15182SOL    HW246988   4.526   4.949  10.328
15183SOL     OW46989   4.588   4.494  11.143
15183SOL    HW146990   4.541   4.546  11.208
15183SOL    HW246991   4.608   4.556  11.073
15184SOL     OW46992   4.381   4.706  10.017
15184SOL    HW146993   4.471   4.719  10.048
15184SOL    HW246994   4.375   4.761   9.939
15185SOL     OW46995   4.443   4.877  11.115
15185SOL    HW146996   4.480   4.957  11.153
15185SOL    HW246997   4.356   4.902  11.085
15186SOL     OW46998   4.003   5.197  10.355
15186SOL    HW146999   3.982   5.113  10.315
15186SOL    HW247000   4.076   5.230  10.304
15187SOL     OW47001   5.187   5.234  10.663
15187SOL    HW147002   5.240   5.307  10.694
15187SOL    HW247003   5.122   5.220  10.732
15188SOL     OW47004   4.157   4.072  10.911
15188SOL    HW147005   4.195   4.135  10.850
15188SOL    HW247006   4.079   4.038  10.866
15189SOL     OW47007   5.316   4.167  10.046
15189SOL    HW147008   5.230   4.158  10.004
15189SOL    HW247009   5.326   4.261  10.060
15190SOL     OW47010   4.857   5.074  11.011
15190SOL    HW147011   4.908   5.067  11.092
15190SOL    HW247012   4.805   4.994  11.008
15191SOL     OW47013   3.918   5.244   9.862
15191SOL    HW147014   3.832   5.213   9.888
15191SOL    HW247015   3.977   5.171   9.884
15192SOL     OW47016   3.980   4.805  10.231
15192SOL    HW147017   4.006   4.714  10.243
15192SOL    HW247018   3.885   4.805  10.247
15193SOL     OW47019   4.309   5.526  10.723
15193SOL    HW147020   4.236   5.501  10.780
15193SOL    HW247021   4.334   5.614  10.753
15194SOL     OW47022   4.357   4.704   9.463
15194SOL    HW147023   4.383   4.765   9.394
15194SOL    HW247024   4.348   4.758   9.542
15195SOL     OW47025   5.319   3.859  10.771
15195SOL    HW147026   5.340   3.942  10.728
15195SOL    HW247027   5.297   3.884  10.861
15196SOL     OW47028   3.849   4.365   9.877
15196SOL    HW147029   3.814   4.276   9.884
15196SOL    HW247030   3.833   4.403   9.963
15197SOL     OW47031   5.567   5.477   9.639
15197SOL    HW147032   5.625   5.453   9.712
15197SOL    HW247033   5.584   5.571   9.626
15198SOL     OW47034   3.803   5.304   9.449
15198SOL    HW147035   3.818   5.222   9.403
15198SOL    HW247036   3.713   5.297   9.481
15199SOL     OW47037   5.459   4.670   9.979
15199SOL    HW147038   5.535   4.642   9.928
15199SOL    HW247039   5.399   4.707   9.914
15200SOL     OW47040   5.366   4.814   9.748
15200SOL    HW147041   5.441   4.819   9.688
15200SOL    HW247042   5.376   4.891   9.804
15201SOL     OW47043   3.864   4.478  10.899
15201SOL    HW147044   3.959   4.488  10.900
15201SOL    HW247045   3.831   4.559  10.938
15202SOL     OW47046   4.347   5.126  10.050
15202SOL    HW147047   4.292   5.049  10.063
15202SOL    HW247048   4.337   5.147   9.957
15203SOL     OW47049   5.006   4.966  10.708
15203SOL    HW147050   5.030   4.895  10.649
15203SOL    HW247051   5.069   4.960  10.780
15204SOL     OW47052   4.544   3.733   9.872
15204SOL    HW147053   4.583   3.805   9.822
15204SOL    HW247054   4.450   3.745   9.862
15205SOL     OW47055   3.906   4.665  10.576
15205SOL    HW147056   3.997   4.636  10.571
15205SOL    HW247057   3.858   4.602  10.523
15206SOL     OW47058   5.267   4.714   9.496
15206SOL    HW147059   5.196   4.652   9.487
15206SOL    HW247060   5.274   4.730   9.591
15207SOL     OW47061   4.914   5.540  10.899
15207SOL    HW147062   4.924   5.527  10.805
15207SOL    HW247063   4.925   5.453  10.937
15208SOL     OW47064   4.063   3.952  11.145
15208SOL    HW147065   4.097   4.016  11.083
15208SOL    HW247066   3.976   3.984  11.167
15209SOL     OW47067   5.198   5.125  10.263
15209SOL    HW147068   5.124   5.149  10.320
15209SOL    HW247069   5.172   5.040  10.227
15210SOL     OW47070   5.379   5.471   9.894
15210SOL    HW147071   5.352   5.446   9.806
15210SOL    HW247072   5.353   5.397   9.949
15211SOL     OW47073   4.320   4.454   9.591
15211SOL    HW147074   4.326   4.538   9.545
15211SOL    HW247075   4.249   4.466   9.654
15212SOL     OW47076   5.007   4.101  10.258
15212SOL    HW147077   4.918   4.065  10.256
15212SOL    HW247078   5.057   4.037  10.309
15213SOL     OW47079   5.306   5.399   9.633
15213SOL    HW147080   5.396   5.428   9.619
15213SOL    HW247081   5.281   5.358   9.550
15214SOL     OW47082   4.545   4.324  10.762
15214SOL    HW147083   4.516   4.308  10.852
15214SOL    HW247084   4.484   4.274  10.708
15215SOL     OW47085   5.122   4.192  10.993
15215SOL    HW147086   5.117   4.237  11.077
15215SOL    HW247087   5.175   4.115  11.009
15216SOL     OW47088   4.675   4.622  10.898
15216SOL    HW147089   4.730   4.553  10.861
15216SOL    HW247090   4.627   4.658  10.823
15217SOL     OW47091   4.695   4.110  10.565
15217SOL    HW147092   4.607   4.144  10.581
15217SOL    HW247093   4.696   4.087  10.472
15218SOL     OW47094   4.778   4.367   9.747
15218SOL    HW147095   4.777   4.375   9.842
15218SOL    HW247096   4.689   4.343   9.723
15219SOL     OW47097   3.802   4.505  10.107
15219SOL    HW147098   3.883   4.527  10.152
15219SOL    HW247099   3.760   4.589  10.090
15220SOL     OW47100   3.830   5.582  10.896
15220SOL    HW147101   3.845   5.571  10.989
15220SOL    HW247102   3.738   5.561  10.883
15221SOL     OW47103   5.478   4.320  11.124
15221SOL    HW147104   5.421   4.384  11.081
15221SOL    HW247105   5.479   4.245  11.064
15222SOL     OW47106   5.111   4.874   9.870
15222SOL    HW147107   5.175   4.846   9.805
15222SOL    HW247108   5.051   4.931   9.821
15223SOL     OW47109   4.296   3.946  10.194
15223SOL    HW147110   4.289   4.021  10.253
15223SOL    HW247111   4.292   3.983  10.106
15224SOL     OW47112   4.744   5.190   9.791
15224SOL    HW147113   4.703   5.251   9.731
15224SOL    HW247114   4.693   5.196   9.871
15225SOL     OW47115   4.077   5.540  10.188
15225SOL    HW147116   4.126   5.458  10.187
15225SOL    HW247117   4.144   5.608  10.195
15226SOL     OW47118   5.530   4.834  10.194
15226SOL    HW147119   5.516   4.785  10.113
15226SOL    HW247120   5.448   4.823  10.243
15227SOL     OW47121   4.946   5.257  10.819
15227SOL    HW147122   4.937   5.194  10.891
15227SOL    HW247123   4.877   5.233  10.758
15228SOL     OW47124   4.027   4.668   9.558
15228SOL    HW147125   4.074   4.696   9.480
15228SOL    HW247126   3.986   4.585   9.532
15229SOL     OW47127   5.246   4.451  10.031
15229SOL    HW147128   5.198   4.423  10.109
15229SOL    HW247129   5.292   4.530  10.058
15230SOL     OW47130   4.200   4.988  11.044
15230SOL    HW147131   4.168   4.995  10.954
15230SOL    HW247132   4.121   4.972  11.096
15231SOL     OW47133   4.862   5.470   9.559
15231SOL    HW147134   4.775   5.447   9.594
15231SOL    HW247135   4.871   5.415   9.481
15232SOL     OW47136   3.918   3.982  10.805
15232SOL    HW147137   3.842   4.039  10.796
15232SOL    HW247138   3.882   3.898  10.833
15233SOL     OW47139   5.355   5.115   9.398
15233SOL    HW147140   5.341   5.161   9.315
15233SOL    HW247141   5.286   5.049   9.401
15234SOL     OW47142   4.175   5.433   9.630
15234SOL    HW147143   4.216   5.494   9.692
15234SOL    HW247144   4.244   5.413   9.567
15235SOL     OW47145   5.112   3.819   9.730
15235SOL    HW147146   5.090   3.794   9.640
15235SOL    HW247147   5.198   3.860   9.723
15236SOL     OW47148   3.997   5.520  10.533
15236SOL    HW147149   4.041   5.448  10.578
15236SOL    HW247150   4.007   5.500  10.440
15237SOL     OW47151   4.656   5.423  10.200
15237SOL    HW147152   4.683   5.351  10.256
15237SOL    HW247153   4.622   5.380  10.121
15238SOL     OW47154   4.126   4.413   9.797
15238SOL    HW147155   4.144   4.320   9.813
15238SOL    HW247156   4.031   4.420   9.801
15239SOL     OW47157   5.257   3.944  11.037
15239SOL    HW147158   5.272   3.961  11.130
15239SOL    HW247159   5.187   3.879  11.036
15240SOL     OW47160   4.489   3.979  11.076
15240SOL    HW147161   4.540   4.001  11.155
15240SOL    HW247162   4.398   3.989  11.103
15241SOL     OW47163   4.600   5.259  10.496
15241SOL    HW147164   4.576   5.208  10.418
15241SOL    HW247165   4.661   5.202  10.543
15242SOL     OW47166   5.068   4.306  10.745
15242SOL    HW147167   5.099   4.285  10.833
15242SOL    HW247168   5.094   4.397  10.731
15243SOL     OW47169   4.547   5.121  10.255
15243SOL    HW147170   4.628   5.103  10.209
15243SOL    HW247171   4.480   5.119  10.187
15244SOL     OW47172   4.653   4.229  10.210
15244SOL    HW147173   4.626   4.225  10.119
15244SOL    HW247174   4.678   4.139  10.232
15245SOL     OW47175   4.280   3.795   9.838
15245SOL    HW147176   4.189   3.776   9.859
15245SOL    HW247177   4.276   3.864   9.771
15246SOL     OW47178   5.157   4.929   9.360
15246SOL    HW147179   5.184   4.847   9.401
15246SOL    HW247180   5.063   4.936   9.381
15247SOL     OW47181   4.664   3.963   9.769
15247SOL    HW147182   4.631   3.985   9.681
15247SOL    HW247183   4.756   3.988   9.767
15248SOL     OW47184   4.801   4.421  10.762
15248SOL    HW147185   4.721   4.369  10.773
15248SOL    HW247186   4.872   4.360  10.778
15249SOL     OW47187   4.970   5.291  10.102
15249SOL    HW147188   4.970   5.361  10.037
15249SOL    HW247189   4.958   5.336  10.186
15250SOL     OW47190   4.156   4.937  10.064
15250SOL    HW147191   4.098   4.883  10.118
15250SOL    HW247192   4.160   4.891   9.981
15251SOL     OW47193   4.992   5.535   9.949
15251SOL    HW147194   5.029   5.587   9.878
15251SOL    HW247195   4.906   5.575   9.965
15252SOL     OW47196   4.763   4.320   9.347
15252SOL    HW147197   4.703   4.392   9.326
15252SOL    HW247198   4.778   4.328   9.441
15253SOL     OW47199   3.824   4.270  10.715
15253SOL    HW147200   3.918   4.260  10.698
15253SOL    HW247201   3.819   4.347  10.773
15254SOL     OW47202   4.281   3.856  10.488
15254SOL    HW147203   4.331   3.880  10.566
15254SOL    HW247204   4.193   3.891  10.504
15255SOL     OW47205   4.589   4.182   9.949
15255SOL    HW147206   4.523   4.232   9.900
15255SOL    HW247207   4.608   4.107   9.893
15256SOL     OW47208   4.751   3.777  10.060
15256SOL    HW147209   4.686   3.783   9.990
15256SOL    HW247210   4.721   3.706  10.116
15257SOL     OW47211   5.150   4.873  10.153
15257SOL    HW147212   5.082   4.807  10.166
15257SOL    HW247213   5.152   4.888  10.058
15258SOL     OW47214   5.174   4.339  10.281
15258SOL    HW147215   5.120   4.260  10.277
15258SOL    HW247216   5.235   4.323  10.353
15259SOL     OW47217   4.210   5.160   9.461
15259SOL    HW147218   4.144   5.114   9.512
15259SOL    HW247219   4.199   5.126   9.372
15260SOL     OW47220   5.414   5.014   9.921
15260SOL    HW147221   5.506   5.026   9.944
15260SOL    HW247222   5.370   5.090   9.959
15261SOL     OW47223   5.125   4.306   9.389
15261SOL    HW147224   5.057   4.282   9.452
15261SOL    HW247225   5.193   4.240   9.401
15262SOL     OW47226   4.260   4.012   9.656
15262SOL    HW147227   4.286   3.951   9.588
15262SOL    HW247228   4.227   4.088   9.609
15263SOL     OW47229   5.563   5.011  10.864
15263SOL    HW147230   5.608   4.947  10.920
15263SOL    HW247231   5.472   4.983  10.864
15264SOL     OW47232   4.768   5.098  10.651
15264SOL    HW147233   4.692   5.057  10.691
15264SOL    HW247234   4.843   5.046  10.680
15265SOL     OW47235   5.328   5.398  10.947
15265SOL    HW147236   5.361   5.405  10.857
15265SOL    HW247237   5.393   5.344  10.992
15266SOL     OW47238   4.866   4.949  10.406
15266SOL    HW147239   4.786   4.947  10.459
15266SOL    HW247240   4.837   4.975  10.319
15267SOL     OW47241   5.316   4.826  10.375
15267SOL    HW147242   5.257   4.836  10.450
15267SOL    HW247243   5.258   4.830  10.299
15268SOL     OW47244   4.683   3.827  10.690
15268SOL    HW147245   4.687   3.793  10.601
15268SOL    HW247246   4.590   3.841  10.706
15269SOL     OW47247   4.709   4.845  11.041
15269SOL    HW147248   4.618   4.861  11.067
15269SOL    HW247249   4.705   4.767  10.987
15270SOL     OW47250   4.158   4.554  10.565
15270SOL    HW147251   4.222   4.568  10.635
15270SOL    HW247252   4.134   4.462  10.572
15271SOL     OW47253   4.987   4.090  10.608
15271SOL    HW147254   5.028   4.164  10.653
15271SOL    HW247255   4.931   4.130  10.541
15272SOL     OW47256   3.802   5.320  10.637
15272SOL    HW147257   3.809   5.411  10.664
15272SOL    HW247258   3.891   5.286  10.646
15273SOL     OW47259   4.031   4.864   9.779
15273SOL    HW147260   4.126   4.871   9.770
15273SOL    HW247261   4.008   4.787   9.726
15274SOL     OW47262   4.286   4.244  10.186
15274SOL    HW147263   4.297   4.284  10.100
15274SOL    HW247264   4.314   4.311  10.248
15275SOL     OW47265   4.977   5.068   9.721
15275SOL    HW147266   5.035   5.140   9.747
15275SOL    HW247267   4.889   5.097   9.746
15276SOL     OW47268   5.008   5.191  10.452
15276SOL    HW147269   5.057   5.189  10.534
15276SOL    HW247270   4.951   5.114  10.457
15277SOL     OW47271   5.332   4.341   9.785
15277SOL    HW147272   5.284   4.379   9.859
15277SOL    HW247273   5.331   4.410   9.719
15278SOL     OW47274   4.066   5.251  10.616
15278SOL    HW147275   4.051   5.218  10.528
15278SOL    HW247276   4.161   5.259  10.623
15279SOL     OW47277   4.138   4.466  10.903
15279SOL    HW147278   4.213   4.515  10.868
15279SOL    HW247279   4.137   4.385  10.853
15280SOL     OW47280   5.335   4.496  10.984
15280SOL    HW147281   5.250   4.539  10.984
15280SOL    HW247282   5.384   4.540  10.914
15281SOL     OW47283   4.835   3.816  11.137
15281SOL    HW147284   4.759   3.874  11.125
15281SOL    HW247285   4.846   3.775  11.051
15282SOL     OW47286   4.229   3.761  11.051
15282SOL    HW147287   4.181   3.715  10.982
15282SOL    HW247288   4.169   3.831  11.078
15283SOL     OW47289   4.322   4.570  10.342
15283SOL    HW147290   4.321   4.657  10.302
15283SOL    HW247291   4.259   4.576  10.413
15284SOL     OW47292   5.060   4.585  10.317
15284SOL    HW147293   4.975   4.573  10.275
15284SOL    HW247294   5.102   4.499  10.311
15285SOL     OW47295   4.959   4.241   9.592
15285SOL    HW147296   4.945   4.157   9.636
15285SOL    HW247297   4.904   4.302   9.641
15286SOL     OW47298   4.025   3.915  10.551
15286SOL    HW147299   3.992   3.955  10.631
15286SOL    HW247300   4.000   3.823  10.558
15287SOL     OW47301   3.799   5.038  10.574
15287SOL    HW147302   3.829   4.966  10.630
15287SOL    HW247303   3.735   5.085  10.628
15288SOL     OW47304   4.488   4.364  10.401
15288SOL    HW147305   4.526   4.332  10.319
15288SOL    HW247306   4.435   4.439  10.375
15289SOL     OW47307   5.477   4.654  11.181
15289SOL    HW147308   5.413   4.633  11.114
15289SOL    HW247309   5.425   4.681  11.257
15290SOL     OW47310   4.010   3.778   9.935
15290SOL    HW147311   4.003   3.870   9.960
15290SOL    HW247312   3.932   3.761   9.882
15291SOL     OW47313   5.314   4.080   9.699
15291SOL    HW147314   5.363   4.032   9.765
15291SOL    HW247315   5.310   4.170   9.733
15292SOL     OW47316   4.766   4.475  10.265
15292SOL    HW147317   4.752   4.495  10.358
15292SOL    HW247318   4.727   4.389  10.253
15293SOL     OW47319   4.697   5.304  11.019
15293SOL    HW147320   4.690   5.335  10.929
15293SOL    HW247321   4.732   5.215  11.011
15294SOL     OW47322   5.607   5.285  10.893
15294SOL    HW147323   5.585   5.192  10.887
15294SOL    HW247324   5.674   5.290  10.960
15295SOL     OW47325   4.053   4.674  11.096
15295SOL    HW147326   4.064   4.670  11.191
15295SOL    HW247327   4.108   4.603  11.062
15296SOL     OW47328   5.308   4.007   9.435
15296SOL    HW147329   5.219   3.996   9.401
15296SOL    HW247330   5.296   4.032   9.527
15297SOL     OW47331   5.044   4.565   9.362
15297SOL    HW147332   5.061   4.471   9.361
15297SOL    HW247333   5.056   4.593   9.272
15298SOL     OW47334   4.797   5.071  10.160
15298SOL    HW147335   4.796   4.997  10.099
15298SOL    HW247336   4.859   5.133  10.121
15299SOL     OW47337   4.040   4.541  10.247
15299SOL    HW147338   4.134   4.541  10.224
15299SOL    HW247339   4.020   4.449  10.265
15300SOL     OW47340   4.023   4.271  10.265
15300SOL    HW147341   3.995   4.182  10.286
15300SOL    HW247342   4.108   4.260  10.222
15301SOL     OW47343   4.856   4.126  10.950
15301SOL    HW147344   4.807   4.168  11.020
15301SOL    HW247345   4.947   4.147  10.968
15302SOL     OW47346   3.734   5.036   9.511
15302SOL    HW147347   3.650   5.055   9.470
15302SOL    HW247348   3.730   4.943   9.532
15303SOL     OW47349   3.818   5.477  10.257
15303SOL    HW147350   3.785   5.418  10.189
15303SOL    HW247351   3.904   5.505  10.225
15304SOL     OW47352   4.216   5.300  10.220
15304SOL    HW147353   4.288   5.359  10.245
15304SOL    HW247354   4.256   5.239  10.159
15305SOL     OW47355   4.703   4.516  10.523
15305SOL    HW147356   4.743   4.495  10.607
15305SOL    HW247357   4.620   4.468  10.523
15306SOL     OW47358   3.770   4.296  10.433
15306SOL    HW147359   3.830   4.286  10.359
15306SOL    HW247360   3.821   4.272  10.510
15307SOL     OW47361   3.917   4.246  11.044
15307SOL    HW147362   3.984   4.209  10.986
15307SOL    HW247363   3.883   4.321  10.996
15308SOL     OW47364   5.111   4.650  10.974
15308SOL    HW147365   5.153   4.736  10.966
15308SOL    HW247366   5.079   4.631  10.885
15309SOL     OW47367   4.532   4.290   9.654
15309SOL    HW147368   4.520   4.225   9.584
15309SOL    HW247369   4.460   4.352   9.641
15310SOL     OW47370   5.369   4.326  10.486
15310SOL    HW147371   5.358   4.265  10.559
15310SOL    HW247372   5.454   4.305  10.449
15311SOL     OW47373   3.955   5.267  11.038
15311SOL    HW147374   3.934   5.313  11.119
15311SOL    HW247375   3.973   5.177  11.064
15312SOL     OW47376   4.414   4.170  10.578
15312SOL    HW147377   4.321   4.180  10.596
15312SOL    HW247378   4.432   4.233  10.508
15313SOL     OW47379   4.647   5.407  10.768
15313SOL    HW147380   4.616   5.360  10.690
15313SOL    HW247381   4.621   5.498  10.753
15314SOL     OW47382   4.175   4.227   9.517
15314SOL    HW147383   4.231   4.304   9.530
15314SOL    HW247384   4.091   4.263   9.488
15315SOL     OW47385   3.880   4.856  10.764
15315SOL    HW147386   3.868   4.813  10.849
15315SOL    HW247387   3.893   4.783  10.703
15316SOL     OW47388   5.060   4.778  10.504
15316SOL    HW147389   5.060   4.704  10.443
15316SOL    HW247390   4.990   4.835  10.472
15317SOL     OW47391   5.030   4.597   9.637
15317SOL    HW147392   4.939   4.608   9.666
15317SOL    HW247393   5.023   4.574   9.545
15318SOL     OW47394   5.458   5.464  10.409
15318SOL    HW147395   5.542   5.484  10.368
15318SOL    HW247396   5.461   5.370  10.427
15319SOL     OW47397   4.963   5.459  10.412
15319SOL    HW147398   5.056   5.479  10.407
15319SOL    HW247399   4.959   5.366  10.436
15320SOL     OW47400   3.769   5.030  10.304
15320SOL    HW147401   3.777   5.003  10.395
15320SOL    HW247402   3.735   4.953  10.259
15321SOL     OW47403   4.431   5.393  11.051
15321SOL    HW147404   4.421   5.480  11.012
15321SOL    HW247405   4.522   5.370  11.037
15322SOL     OW47406   5.463   3.876   9.832
15322SOL    HW147407   5.520   3.867   9.755
15322SOL    HW247408   5.440   3.786   9.855
15323SOL     OW47409   5.123   5.294   9.811
15323SOL    HW147410   5.175   5.330   9.739
15323SOL    HW247411   5.051   5.356   9.821
15324SOL     OW47412   3.862   5.545  11.162
15324SOL    HW147413   3.818   5.470  11.202
15324SOL    HW247414   3.912   5.584  11.234
15325SOL     OW47415   5.027   4.642   9.994
15325SOL    HW147416   5.090   4.581   9.956
15325SOL    HW247417   5.036   4.721   9.941
15326SOL     OW47418   4.516   5.005  10.720
15326SOL    HW147419   4.486   5.047  10.800
15326SOL    HW247420   4.441   5.008  10.662
15327SOL     OW47421   4.390   5.366   9.461
15327SOL    HW147422   4.410   5.381   9.369
15327SOL    HW247423   4.341   5.284   9.462
15328SOL     OW47424   5.373   5.462  10.680
15328SOL    HW147425   5.409   5.475  10.593
15328SOL    HW247426   5.348   5.550  10.709
15329SOL     OW47427   5.587   3.890  10.266
15329SOL    HW147428   5.604   3.798  10.245
15329SOL    HW247429   5.498   3.906  10.233
15330SOL     OW47430   3.981   4.031  10.024
15330SOL    HW147431   3.894   4.063   9.997
15330SOL    HW247432   3.978   4.034  10.120
15331SOL     OW47433   4.936   5.321   9.328
15331SOL    HW147434   4.930   5.236   9.372
15331SOL    HW247435   4.855   5.329   9.278
15332SOL     OW47436   4.551   4.736  10.683
15332SOL    HW147437   4.572   4.731  10.589
15332SOL    HW247438   4.542   4.829  10.701
15333SOL     OW47439   4.756   4.665   9.638
15333SOL    HW147440   4.769   4.707   9.553
15333SOL    HW247441   4.681   4.606   9.624
15334SOL     OW47442   4.087   5.031  10.802
15334SOL    HW147443   4.067   5.104  10.744
15334SOL    HW247444   4.016   4.968  10.788
15335SOL     OW47445   5.351   5.030  10.592
15335SOL    HW147446   5.342   4.970  10.666
15335SOL    HW247447   5.289   5.101  10.611
15336SOL     OW47448   4.785   4.848  10.011
15336SOL    HW147449   4.727   4.795  10.066
15336SOL    HW247450   4.792   4.800   9.929
15337SOL     OW47451   4.761   3.963  10.277
15337SOL    HW147452   4.755   3.922  10.191
15337SOL    HW247453   4.747   3.891  10.339
15338SOL     OW47454   4.334   5.218   9.792
15338SOL    HW147455   4.342   5.126   9.767
15338SOL    HW247456   4.280   5.257   9.724
15339SOL     OW47457   5.460   4.110  10.688
15339SOL    HW147458   5.531   4.174  10.686
15339SOL    HW247459   5.489   4.039  10.631
15340SOL     OW47460   3.978   5.090   9.617
15340SOL    HW147461   3.893   5.067   9.580
15340SOL    HW247462   4.004   5.013   9.668
15341SOL     OW47463   3.812   4.748  11.006
15341SOL    HW147464   3.745   4.729  11.071
15341SOL    HW247465   3.894   4.726  11.049
15342SOL     OW47466   4.436   3.910  10.790
15342SOL    HW147467   4.412   3.999  10.762
15342SOL    HW247468   4.436   3.914  10.886
15343SOL     OW47469   3.821   4.078   9.385
15343SOL    HW147470   3.779   3.997   9.356
15343SOL    HW247471   3.836   4.127   9.305
15344SOL     OW47472   5.139   4.572  10.697
15344SOL    HW147473   5.088   4.634  10.644
15344SOL    HW247474   5.225   4.614  10.704
15345SOL     OW47475   4.900   5.074   9.435
15345SOL    HW147476   4.805   5.067   9.423
15345SOL    HW247477   4.914   5.044   9.525
15346SOL     OW47478   4.357   4.557  10.756
15346SOL    HW147479   4.418   4.629  10.738
15346SOL    HW247480   4.413   4.480  10.765
15347SOL     OW47481   5.272   5.586  10.238
15347SOL    HW147482   5.241   5.517  10.181
15347SOL    HW247483   5.325   5.541  10.304
15348SOL     OW47484   4.470   4.283  11.012
15348SOL    HW147485   4.496   4.358  11.065
15348SOL    HW247486   4.460   4.211  11.074
15349SOL     OW47487   4.090   5.473  10.883
15349SOL    HW147488   4.001   5.506  10.872
15349SOL    HW247489   4.078   5.388  10.926
15350SOL     OW47490   5.413   4.598  10.541
15350SOL    HW147491   5.390   4.506  10.527
15350SOL    HW247492   5.361   4.647  10.478
15351SOL     OW47493   4.934   4.030   9.777
15351SOL    HW147494   4.998   3.960   9.767
15351SOL    HW247495   4.969   4.085   9.847
15352SOL     OW47496   4.319   4.439   9.996
15352SOL    HW147497   4.341   4.532  10.000
15352SOL    HW247498   4.257   4.432   9.923
15353SOL     OW47499   5.480   4.095  10.963
15353SOL    HW147500   5.465   4.107  10.870
15353SOL    HW247501   5.411   4.035  10.992
15354SOL     OW47502   5.489   4.635  10.803
15354SOL    HW147503   5.440   4.713  10.828
15354SOL    HW247504   5.470   4.623  10.710
15355SOL     OW47505   4.636   5.130   9.349
15355SOL    HW147506   4.595   5.108   9.433
15355SOL    HW247507   4.562   5.142   9.289
15356SOL     OW47508   4.391   5.507  10.260
15356SOL    HW147509   4.369   5.596  10.233
15356SOL    HW247510   4.482   5.496  10.232
15357SOL     OW47511   4.623   4.711  10.181
15357SOL    HW147512   4.661   4.627  10.210
15357SOL    HW247513   4.580   4.745  10.259
15358SOL     OW47514   4.840   4.764   9.392
15358SOL    HW147515   4.784   4.781   9.316
15358SOL    HW247516   4.888   4.685   9.368
15359SOL     OW47517   5.559   5.275  10.154
15359SOL    HW147518   5.485   5.270  10.094
15359SOL    HW247519   5.527   5.234  10.235
15360SOL     OW47520   3.953   5.018  11.164
15360SOL    HW147521   3.891   4.946  11.166
15360SOL    HW247522   3.962   5.045  11.256
15361SOL     OW47523   3.823   4.969   9.954
15361SOL    HW147524   3.828   4.904  10.025
15361SOL    HW247525   3.879   4.933   9.885
15362SOL     OW47526   4.397   5.142  10.924
15362SOL    HW147527   4.334   5.087  10.970
15362SOL    HW247528   4.398   5.224  10.972
15363SOL     OW47529   5.546   3.902  10.538
15363SOL    HW147530   5.536   3.809  10.557
15363SOL    HW247531   5.555   3.907  10.443
15364SOL     OW47532   4.179   4.157   9.875
15364SOL    HW147533   4.204   4.100   9.802
15364SOL    HW247534   4.108   4.110   9.919
15365SOL     OW47535   5.437   5.176  10.379
15365SOL    HW147536   5.353   5.160  10.335
15365SOL    HW247537   5.420   5.154  10.471
15366SOL     OW47538   4.554   5.306   9.982
15366SOL    HW147539   4.527   5.354   9.903
15366SOL    HW247540   4.484   5.241   9.995
15367SOL     OW47541   5.152   3.942  10.426
15367SOL    HW147542   5.156   3.848  10.446
15367SOL    HW247543   5.109   3.980  10.503
15368SOL     OW47544   4.731   3.729  10.435
15368SOL    HW147545   4.682   3.672  10.376
15368SOL    HW247546   4.817   3.689  10.443
15369SOL     OW47547   4.544   5.066   9.593
15369SOL    HW147548   4.466   5.016   9.618
15369SOL    HW247549   4.608   5.047   9.661
15370SOL     OW47550   4.335   5.289  10.583
15370SOL    HW147551   4.335   5.370  10.632
15370SOL    HW247552   4.425   5.281  10.551
15371SOL     OW47553   5.037   4.182   9.993
15371SOL    HW147554   4.984   4.261   9.983
15371SOL    HW247555   5.019   4.152  10.082
15372SOL     OW47556   5.327   3.934  10.204
15372SOL    HW147557   5.264   3.948  10.274
15372SOL    HW247558   5.316   4.009  10.146
15373SOL     OW47559   3.766   4.788   9.623
15373SOL    HW147560   3.833   4.770   9.557
15373SOL    HW247561   3.744   4.702   9.658
15374SOL     OW47562   4.613   5.391   9.653
15374SOL    HW147563   4.544   5.362   9.593
15374SOL    HW247564   4.573   5.464   9.701
15375SOL     OW47565   3.949   4.336  11.305
15375SOL    HW147566   3.859   4.339  11.338
15375SOL    HW247567   3.940   4.317  11.212
15376SOL     OW47568   3.941   4.015  12.167
15376SOL    HW147569   3.972   3.982  12.251
15376SOL    HW247570   3.852   3.980  12.159
15377SOL     OW47571   3.720   4.111  11.813
15377SOL    HW147572   3.638   4.138  11.854
15377SOL    HW247573   3.697   4.032  11.763
15378SOL     OW47574   4.253   5.008  12.396
15378SOL    HW147575   4.197   5.043  12.328
15378SOL    HW247576   4.328   4.970  12.349
15379SOL     OW47577   5.295   5.237  11.879
15379SOL    HW147578   5.252   5.218  11.962
15379SOL    HW247579   5.224   5.245  11.816
15380SOL     OW47580   4.886   4.406  11.858
15380SOL    HW147581   4.914   4.497  11.858
15380SOL    HW247582   4.818   4.401  11.925
15381SOL     OW47583   5.505   4.286  11.391
15381SOL    HW147584   5.454   4.282  11.310
15381SOL    HW247585   5.457   4.230  11.452
15382SOL     OW47586   4.410   4.715  11.812
15382SOL    HW147587   4.475   4.712  11.882
15382SOL    HW247588   4.340   4.771  11.847
15383SOL     OW47589   4.061   5.140  12.232
15383SOL    HW147590   3.985   5.109  12.184
15383SOL    HW247591   4.108   5.196  12.171
15384SOL     OW47592   5.320   4.182  11.894
15384SOL    HW147593   5.232   4.184  11.856
15384SOL    HW247594   5.316   4.244  11.966
15385SOL     OW47595   3.925   5.494  11.605
15385SOL    HW147596   3.964   5.543  11.678
15385SOL    HW247597   3.966   5.408  11.610
15386SOL     OW47598   3.936   5.219  11.727
15386SOL    HW147599   3.898   5.234  11.814
15386SOL    HW247600   3.945   5.124  11.721
15387SOL     OW47601   3.980   4.816  12.046
15387SOL    HW147602   3.993   4.729  12.085
15387SOL    HW247603   3.937   4.867  12.115
15388SOL     OW47604   4.380   4.675  11.298
15388SOL    HW147605   4.394   4.742  11.231
15388SOL    HW247606   4.384   4.723  11.381
15389SOL     OW47607   3.833   4.390  11.733
15389SOL    HW147608   3.816   4.299  11.756
15389SOL    HW247609   3.831   4.437  11.816
15390SOL     OW47610   5.627   5.469  11.522
15390SOL    HW147611   5.546   5.441  11.565
15390SOL    HW247612   5.608   5.557  11.491
15391SOL     OW47613   3.763   5.325  11.287
15391SOL    HW147614   3.752   5.230  11.294
15391SOL    HW247615   3.726   5.360  11.368
15392SOL     OW47616   5.417   4.637  11.808
15392SOL    HW147617   5.512   4.631  11.812
15392SOL    HW247618   5.400   4.697  11.734
15393SOL     OW47619   5.382   4.827  11.602
15393SOL    HW147620   5.466   4.837  11.557
15393SOL    HW247621   5.384   4.892  11.672
15394SOL     OW47622   3.875   4.458   0.233
15394SOL    HW147623   3.946   4.513   0.267
15394SOL    HW247624   3.811   4.521   0.199
15395SOL     OW47625   4.310   5.114  11.900
15395SOL    HW147626   4.275   5.025  11.900
15395SOL    HW247627   4.317   5.136  11.807
15396SOL     OW47628   4.538   3.722  11.684
15396SOL    HW147629   4.583   3.798  11.646
15396SOL    HW247630   4.447   3.750  11.692
15397SOL     OW47631   3.931   4.672  12.481
15397SOL    HW147632   4.006   4.623  12.448
15397SOL    HW247633   3.861   4.656  12.418
15398SOL     OW47634   5.284   4.679  11.390
15398SOL    HW147635   5.204   4.636  11.420
15398SOL    HW247636   5.310   4.735  11.463
15399SOL     OW47637   5.209   5.129  12.131
15399SOL    HW147638   5.133   5.151  12.185
15399SOL    HW247639   5.187   5.044  12.093
15400SOL     OW47640   5.429   5.456  11.762
15400SOL    HW147641   5.383   5.467  11.679
15400SOL    HW247642   5.384   5.384  11.805
15401SOL     OW47643   4.328   4.437  11.439
15401SOL    HW147644   4.337   4.520  11.393
15401SOL    HW247645   4.265   4.456  11.509
15402SOL     OW47646   5.016   4.065  12.104
15402SOL    HW147647   4.922   4.049  12.108
15402SOL    HW247648   5.051   4.022  12.182
15403SOL     OW47649   4.695   4.140  12.401
15403SOL    HW147650   4.601   4.148  12.421
15403SOL    HW247651   4.697   4.086  12.321
15404SOL     OW47652   4.783   4.416  11.595
15404SOL    HW147653   4.810   4.408  11.686
15404SOL    HW247654   4.704   4.362  11.588
15405SOL     OW47655   3.807   4.554  11.955
15405SOL    HW147656   3.890   4.542  12.000
15405SOL    HW247657   3.770   4.634  11.993
15406SOL     OW47658   4.602   4.033  11.320
15406SOL    HW147659   4.582   4.121  11.352
15406SOL    HW247660   4.636   3.986  11.397
15407SOL     OW47661   5.109   4.872  11.717
15407SOL    HW147662   5.186   4.869  11.660
15407SOL    HW247663   5.050   4.934  11.674
15408SOL     OW47664   4.267   3.884  12.057
15408SOL    HW147665   4.276   3.905  12.150
15408SOL    HW247666   4.271   3.969  12.013
15409SOL     OW47667   4.722   5.177  11.636
15409SOL    HW147668   4.698   5.254  11.585
15409SOL    HW247669   4.687   5.195  11.724
15410SOL     OW47670   4.074   5.534  12.037
15410SOL    HW147671   4.118   5.449  12.046
15410SOL    HW247672   4.136   5.596  12.076
15411SOL     OW47673   5.517   4.781  12.043
15411SOL    HW147674   5.458   4.784  11.968
15411SOL    HW247675   5.460   4.786  12.120
15412SOL     OW47676   4.045   4.663  11.369
15412SOL    HW147677   4.048   4.723  11.443
15412SOL    HW247678   4.040   4.576  11.409
15413SOL     OW47679   5.211   4.469  11.874
15413SOL    HW147680   5.199   4.433  11.962
15413SOL    HW247681   5.285   4.528  11.882
15414SOL     OW47682   4.858   5.519  11.387
15414SOL    HW147683   4.784   5.489  11.439
15414SOL    HW247684   4.879   5.446  11.330
15415SOL     OW47685   5.360   5.091  11.251
15415SOL    HW147686   5.312   5.172  11.234
15415SOL    HW247687   5.294   5.022  11.243
15416SOL     OW47688   4.201   5.462  11.473
15416SOL    HW147689   4.240   5.497  11.554
15416SOL    HW247690   4.274   5.419  11.429
15417SOL     OW47691   5.143   3.827  11.602
15417SOL    HW147692   5.123   3.809  11.511
15417SOL    HW247693   5.224   3.779  11.619
15418SOL     OW47694   3.958   5.519  12.399
15418SOL    HW147695   3.993   5.439  12.438
15418SOL    HW247696   3.930   5.493  12.311
15419SOL     OW47697   4.654   5.433  12.061
15419SOL    HW147698   4.693   5.369  12.120
15419SOL    HW247699   4.615   5.381  11.991
15420SOL     OW47700   4.119   4.424  11.634
15420SOL    HW147701   4.129   4.329  11.647
15420SOL    HW247702   4.028   4.442  11.658
15421SOL     OW47703   4.340   3.818  11.299
15421SOL    HW147704   4.435   3.822  11.286
15421SOL    HW247705   4.306   3.792  11.213
15422SOL     OW47706   4.551   5.158  12.075
15422SOL    HW147707   4.633   5.110  12.079
15422SOL    HW247708   4.484   5.093  12.096
15423SOL     OW47709   4.663   4.249  12.047
15423SOL    HW147710   4.642   4.233  11.955
15423SOL    HW247711   4.679   4.161  12.083
15424SOL     OW47712   4.273   3.786  11.669
15424SOL    HW147713   4.195   3.787  11.724
15424SOL    HW247714   4.266   3.866  11.616
15425SOL     OW47715   5.156   4.910  11.244
15425SOL    HW147716   5.160   4.825  11.287
15425SOL    HW247717   5.069   4.944  11.265
15426SOL     OW47718   4.017   3.761  11.350
15426SOL    HW147719   4.058   3.833  11.303
15426SOL    HW247720   4.088   3.721  11.400
15427SOL     OW47721   4.693   3.929  11.570
15427SOL    HW147722   4.652   3.996  11.624
15427SOL    HW247723   4.786   3.952  11.571
15428SOL     OW47724   4.967   5.284  11.958
15428SOL    HW147725   4.966   5.355  11.894
15428SOL    HW247726   4.994   5.325  12.040
15429SOL     OW47727   4.189   4.870  11.875
15429SOL    HW147728   4.122   4.849  11.941
15429SOL    HW247729   4.143   4.863  11.791
15430SOL     OW47730   4.980   5.514  11.788
15430SOL    HW147731   5.022   5.582  11.734
15430SOL    HW247732   4.903   5.557  11.825
15431SOL     OW47733   4.771   4.280  11.162
15431SOL    HW147734   4.710   4.354  11.161
15431SOL    HW247735   4.790   4.265  11.254
15432SOL     OW47736   4.289   3.935  12.318
15432SOL    HW147737   4.340   3.999  12.368
15432SOL    HW247738   4.200   3.945  12.352
15433SOL     OW47739   4.763   3.756  11.897
15433SOL    HW147740   4.685   3.776  11.845
15433SOL    HW247741   4.731   3.697  11.966
15434SOL     OW47742   5.157   4.876  12.021
15434SOL    HW147743   5.082   4.818  12.034
15434SOL    HW247744   5.161   4.890  11.926
15435SOL     OW47745   5.186   4.326  12.112
15435SOL    HW147746   5.126   4.256  12.138
15435SOL    HW247747   5.247   4.334  12.186
15436SOL     OW47748   5.625   4.515  11.488
15436SOL    HW147749   5.665   4.493  11.572
15436SOL    HW247750   5.543   4.466  11.487
15437SOL     OW47751   4.225   5.149  11.309
15437SOL    HW147752   4.143   5.138  11.357
15437SOL    HW247753   4.228   5.074  11.250
15438SOL     OW47754   5.409   4.989  11.811
15438SOL    HW147755   5.503   4.995  11.830
15438SOL    HW247756   5.374   5.075  11.836
15439SOL     OW47757   5.112   4.291  11.245
15439SOL    HW147758   5.033   4.274  11.297
15439SOL    HW247759   5.184   4.285  11.309
15440SOL     OW47760   4.242   3.987  11.490
15440SOL    HW147761   4.281   3.932  11.422
15440SOL    HW247762   4.224   4.070  11.447
15441SOL     OW47763   4.830   4.944  12.283
15441SOL    HW147764   4.742   4.913  12.302
15441SOL    HW247765   4.824   4.979  12.194
15442SOL     OW47766   5.332   4.826  12.238
15442SOL    HW147767   5.289   4.855  12.319
15442SOL    HW247768   5.266   4.841  12.170
15443SOL     OW47769   4.448   4.797  11.545
15443SOL    HW147770   4.421   4.772  11.633
15443SOL    HW247771   4.521   4.738  11.525
15444SOL     OW47772   4.162   4.511  12.455
15444SOL    HW147773   4.218   4.558  12.516
15444SOL    HW247774   4.217   4.440  12.421
15445SOL     OW47775   4.990   4.104  12.427
15445SOL    HW147776   5.041   4.172  12.471
15445SOL    HW247777   4.903   4.141  12.416
15446SOL     OW47778   4.269   4.265  12.053
15446SOL    HW147779   4.282   4.322  11.977
15446SOL    HW247780   4.341   4.286  12.111
15447SOL     OW47781   4.972   5.077  11.570
15447SOL    HW147782   5.027   5.150  11.599
15447SOL    HW247783   4.884   5.099  11.602
15448SOL     OW47784   5.001   5.170  12.307
15448SOL    HW147785   5.038   5.168  12.395
15448SOL    HW247786   4.937   5.099  12.305
15449SOL     OW47787   5.296   4.374  11.627
15449SOL    HW147788   5.272   4.391  11.718
15449SOL    HW247789   5.250   4.440  11.577
15450SOL     OW47790   4.062   5.276  12.471
15450SOL    HW147791   4.063   5.223  12.392
15450SOL    HW247792   4.132   5.241  12.526
15451SOL     OW47793   4.292   4.623  12.193
15451SOL    HW147794   4.349   4.700  12.188
15451SOL    HW247795   4.255   4.626  12.281
15452SOL     OW47796   5.045   4.574  12.176
15452SOL    HW147797   4.955   4.551  12.154
15452SOL    HW247798   5.095   4.493  12.165
15453SOL     OW47799   4.916   4.246  11.425
15453SOL    HW147800   4.923   4.169  11.481
15453SOL    HW247801   4.871   4.311  11.478
15454SOL     OW47802   4.008   3.915  12.416
15454SOL    HW147803   4.014   3.937  12.509
15454SOL    HW247804   3.993   3.821  12.414
15455SOL     OW47805   3.773   5.048  12.432
15455SOL    HW147806   3.827   4.980  12.472
15455SOL    HW247807   3.781   5.124  12.491
15456SOL     OW47808   4.477   4.401  12.209
15456SOL    HW147809   4.531   4.367  12.137
15456SOL    HW247810   4.430   4.475  12.170
15457SOL     OW47811   4.026   3.781  11.795
15457SOL    HW147812   4.005   3.872  11.816
15457SOL    HW247813   4.038   3.739  11.880
15458SOL     OW47814   5.343   4.119  11.539
15458SOL    HW147815   5.337   4.053  11.608
15458SOL    HW247816   5.315   4.200  11.580
15459SOL     OW47817   4.784   4.481  12.135
15459SOL    HW147818   4.760   4.499  12.226
15459SOL    HW247819   4.743   4.396  12.117
15460SOL     OW47820   5.276   3.988  11.302
15460SOL    HW147821   5.203   3.931  11.326
15460SOL    HW247822   5.297   4.034  11.383
15461SOL     OW47823   5.012   4.553  11.207
15461SOL    HW147824   5.040   4.461  11.204
15461SOL    HW247825   5.045   4.590  11.125
15462SOL     OW47826   4.812   5.059  12.037
15462SOL    HW147827   4.807   4.989  11.972
15462SOL    HW247828   4.864   5.128  11.994
15463SOL     OW47829   4.029   4.546  12.122
15463SOL    HW147830   4.123   4.565  12.119
15463SOL    HW247831   4.024   4.453  12.143
15464SOL     OW47832   4.026   4.272  12.169
15464SOL    HW147833   3.999   4.180  12.170
15464SOL    HW247834   4.113   4.271  12.128
15465SOL     OW47835   4.894   3.954   0.139
15465SOL    HW147836   4.854   4.024   0.191
15465SOL    HW247837   4.928   3.998   0.061
15466SOL     OW47838   3.717   5.056  11.364
15466SOL    HW147839   3.629   5.066  11.328
15466SOL    HW247840   3.718   4.967  11.400
15467SOL     OW47841   3.809   5.503  12.115
15467SOL    HW147842   3.790   5.422  12.068
15467SOL    HW247843   3.897   5.528  12.086
15468SOL     OW47844   4.216   5.301  12.073
15468SOL    HW147845   4.289   5.359  12.098
15468SOL    HW247846   4.256   5.237  12.015
15469SOL     OW47847   4.700   4.523  12.390
15469SOL    HW147848   4.718   4.477  12.472
15469SOL    HW247849   4.608   4.501  12.371
15470SOL     OW47850   3.774   4.268  12.320
15470SOL    HW147851   3.831   4.273  12.244
15470SOL    HW247852   3.833   4.264  12.395
15471SOL     OW47853   4.548   4.265  11.461
15471SOL    HW147854   4.548   4.235  11.552
15471SOL    HW247855   4.476   4.328  11.457
15472SOL     OW47856   5.366   4.353  12.307
15472SOL    HW147857   5.325   4.327  12.389
15472SOL    HW247858   5.451   4.308  12.307
15473SOL     OW47859   4.651   5.389   0.025
15473SOL    HW147860   4.568   5.351   0.053
15473SOL    HW247861   4.647   5.480   0.054
15474SOL     OW47862   4.194   4.215  11.352
15474SOL    HW147863   4.250   4.288  11.379
15474SOL    HW247864   4.107   4.254  11.341
15475SOL     OW47865   5.055   4.777  12.361
15475SOL    HW147866   5.053   4.710  12.293
15475SOL    HW247867   4.978   4.831  12.345
15476SOL     OW47868   5.056   4.559  11.483
15476SOL    HW147869   4.981   4.547  11.541
15476SOL    HW247870   5.018   4.561  11.395
15477SOL     OW47871   5.501   5.473  12.330
15477SOL    HW147872   5.589   5.457  12.364
15477SOL    HW247873   5.469   5.386  12.306
15478SOL     OW47874   4.965   5.452  12.264
15478SOL    HW147875   5.051   5.475  12.230
15478SOL    HW247876   4.972   5.359  12.287
15479SOL     OW47877   3.805   5.010  12.162
15479SOL    HW147878   3.787   5.023  12.255
15479SOL    HW247879   3.745   4.941  12.135
15480SOL     OW47880   5.470   3.878  11.716
15480SOL    HW147881   5.531   3.874  11.642
15480SOL    HW247882   5.440   3.787  11.727
15481SOL     OW47883   5.119   5.298  11.660
15481SOL    HW147884   5.173   5.343  11.595
15481SOL    HW247885   5.063   5.367  11.696
15482SOL     OW47886   5.004   4.651  11.833
15482SOL    HW147887   5.078   4.591  11.842
15482SOL    HW247888   5.040   4.727  11.787
15483SOL     OW47889   4.405   5.345  11.326
15483SOL    HW147890   4.410   5.367  11.233
15483SOL    HW247891   4.349   5.268  11.330
15484SOL     OW47892   5.342   5.518   0.058
15484SOL    HW147893   5.396   5.515  -0.021
15484SOL    HW247894   5.339   5.611   0.080
15485SOL     OW47895   5.564   3.876  12.086
15485SOL    HW147896   5.610   3.792  12.090
15485SOL    HW247897   5.509   3.877  12.165
15486SOL     OW47898   3.978   4.031  11.888
15486SOL    HW147899   3.893   4.071  11.867
15486SOL    HW247900   3.981   4.032  11.984
15487SOL     OW47901   4.911   5.322  11.206
15487SOL    HW147902   4.915   5.233  11.241
15487SOL    HW247903   4.835   5.322  11.148
15488SOL     OW47904   4.545   4.790   0.025
15488SOL    HW147905   4.531   4.799  -0.069
15488SOL    HW247906   4.581   4.874   0.052
15489SOL     OW47907   4.653   4.638  11.473
15489SOL    HW147908   4.712   4.669  11.405
15489SOL    HW247909   4.697   4.562  11.511
15490SOL     OW47910   5.195   5.292  11.168
15490SOL    HW147911   5.109   5.325  11.196
15490SOL    HW247912   5.220   5.348  11.094
15491SOL     OW47913   4.795   4.836  11.882
15491SOL    HW147914   4.718   4.791  11.915
15491SOL    HW247915   4.855   4.766  11.855
15492SOL     OW47916   4.753   3.975  12.135
15492SOL    HW147917   4.739   3.933  12.050
15492SOL    HW247918   4.748   3.904  12.198
15493SOL     OW47919   4.339   5.215  11.642
15493SOL    HW147920   4.386   5.162  11.577
15493SOL    HW247921   4.249   5.218  11.609
15494SOL     OW47922   5.526   4.129   0.017
15494SOL    HW147923   5.520   4.202   0.079
15494SOL    HW247924   5.447   4.078   0.033
15495SOL     OW47925   3.983   5.101  11.423
15495SOL    HW147926   3.888   5.107  11.427
15495SOL    HW247927   4.007   5.037  11.490
15496SOL     OW47928   3.800   4.044  11.189
15496SOL    HW147929   3.722   4.035  11.133
15496SOL    HW247930   3.841   4.125  11.160
15497SOL     OW47931   3.772   3.854  11.454
15497SOL    HW147932   3.763   3.937  11.406
15497SOL    HW247933   3.864   3.831  11.442
15498SOL     OW47934   4.905   5.055  11.299
15498SOL    HW147935   4.826   5.002  11.305
15498SOL    HW247936   4.935   5.064  11.389
15499SOL     OW47937   5.213   5.507  12.156
15499SOL    HW147938   5.228   5.578  12.094
15499SOL    HW247939   5.299   5.490  12.195
15500SOL     OW47940   5.447   4.607  12.376
15500SOL    HW147941   5.410   4.523  12.348
15500SOL    HW247942   5.401   4.671  12.322
15501SOL     OW47943   4.956   4.036  11.605
15501SOL    HW147944   5.025   3.972  11.620
15501SOL    HW247945   4.950   4.085  11.687
15502SOL     OW47946   4.293   4.462  11.857
15502SOL    HW147947   4.340   4.543  11.840
15502SOL    HW247948   4.238   4.449  11.780
15503SOL     OW47949   5.454   4.668   0.138
15503SOL    HW147950   5.532   4.723   0.135
15503SOL    HW247951   5.445   4.635   0.048
15504SOL     OW47952   4.564   5.096  11.218
15504SOL    HW147953   4.542   5.089  11.311
15504SOL    HW247954   4.588   5.188  11.206
15505SOL     OW47955   4.387   5.517  12.115
15505SOL    HW147956   4.371   5.608  12.089
15505SOL    HW247957   4.481   5.504  12.100
15506SOL     OW47958   4.605   4.687  12.014
15506SOL    HW147959   4.658   4.621  12.060
15506SOL    HW247960   4.571   4.743  12.083
15507SOL     OW47961   4.816   4.732  11.272
15507SOL    HW147962   4.782   4.772  11.192
15507SOL    HW247963   4.879   4.667  11.242
15508SOL     OW47964   5.580   5.318  12.050
15508SOL    HW147965   5.524   5.307  11.973
15508SOL    HW247966   5.544   5.258  12.115
15509SOL     OW47967   3.814   4.947  11.840
15509SOL    HW147968   3.857   4.911  11.918
15509SOL    HW247969   3.868   4.918  11.767
15510SOL     OW47970   5.576   3.878  12.382
15510SOL    HW147971   5.570   3.833  12.467
15510SOL    HW247972   5.551   3.968  12.401
15511SOL     OW47973   4.130   4.161  11.690
15511SOL    HW147974   4.179   4.095  11.640
15511SOL    HW247975   4.093   4.113  11.764
15512SOL     OW47976   5.434   5.216  12.267
15512SOL    HW147977   5.353   5.185  12.226
15512SOL    HW247978   5.448   5.156  12.340
15513SOL     OW47979   4.547   5.293  11.833
15513SOL    HW147980   4.473   5.289  11.773
15513SOL    HW247981   4.522   5.234  11.905
15514SOL     OW47982   5.177   3.938  12.315
15514SOL    HW147983   5.223   3.892  12.385
15514SOL    HW247984   5.115   3.995  12.361
15515SOL     OW47985   4.739   3.763  12.313
15515SOL    HW147986   4.678   3.694  12.287
15515SOL    HW247987   4.809   3.717  12.360
15516SOL     OW47988   4.512   5.056  11.484
15516SOL    HW147989   4.484   4.967  11.503
15516SOL    HW247990   4.586   5.071  11.543
15517SOL     OW47991   5.076   3.786  11.326
15517SOL    HW147992   5.099   3.700  11.289
15517SOL    HW247993   4.992   3.808  11.286
15518SOL     OW47994   5.045   4.177  11.848
15518SOL    HW147995   4.993   4.256  11.841
15518SOL    HW247996   5.021   4.140  11.933
15519SOL     OW47997   5.274   3.941  12.064
15519SOL    HW147998   5.256   3.936  12.158
15519SOL    HW247999   5.200   3.989  12.027
15520SOL     OW48000   3.741   4.801  11.483
15520SOL    HW148001   3.826   4.821  11.521
15520SOL    HW248002   3.735   4.706  11.487
15521SOL     OW48003   4.625   5.399  11.501
15521SOL    HW148004   4.546   5.379  11.451
15521SOL    HW248005   4.597   5.459  11.569
15522SOL     OW48006   4.003   6.201   0.009
15522SOL    HW148007   3.964   6.229   0.091
15522SOL    HW248008   3.984   6.107   0.004
15523SOL     OW48009   3.925   5.885   0.999
15523SOL    HW148010   3.954   5.839   1.078
15523SOL    HW248011   3.842   5.842   0.976
15524SOL     OW48012   3.714   5.975   0.642
15524SOL    HW148013   3.629   6.001   0.677
15524SOL    HW248014   3.698   5.889   0.602
15525SOL     OW48015   4.287   6.876   1.189
15525SOL    HW148016   4.204   6.885   1.141
15525SOL    HW248017   4.307   6.965   1.219
15526SOL     OW48018   5.292   7.094   0.711
15526SOL    HW148019   5.252   7.064   0.792
15526SOL    HW248020   5.227   7.075   0.643
15527SOL     OW48021   4.850   6.276   0.698
15527SOL    HW148022   4.903   6.354   0.683
15527SOL    HW248023   4.805   6.292   0.781
15528SOL     OW48024   5.446   6.224   0.239
15528SOL    HW148025   5.432   6.229   0.144
15528SOL    HW248026   5.447   6.130   0.258
15529SOL     OW48027   4.463   6.713   1.054
15529SOL    HW148028   4.398   6.755   1.111
15529SOL    HW248029   4.503   6.786   1.006
15530SOL     OW48030   4.525   6.405   1.808
15530SOL    HW148031   4.575   6.337   1.853
15530SOL    HW248032   4.580   6.430   1.734
15531SOL     OW48033   4.388   6.548   0.687
15531SOL    HW148034   4.467   6.552   0.741
15531SOL    HW248035   4.343   6.631   0.704
15532SOL     OW48036   4.432   6.747   1.808
15532SOL    HW148037   4.468   6.828   1.845
15532SOL    HW248038   4.343   6.771   1.780
15533SOL     OW48039   4.059   6.996   1.061
15533SOL    HW148040   3.982   6.959   1.018
15533SOL    HW248041   4.101   7.049   0.994
15534SOL     OW48042   5.185   7.085   1.369
15534SOL    HW148043   5.238   7.165   1.372
15534SOL    HW248044   5.127   7.092   1.445
15535SOL     OW48045   4.155   5.967   1.466
15535SOL    HW148046   4.235   5.923   1.497
15535SOL    HW248047   4.084   5.915   1.503
15536SOL     OW48048   5.333   6.036   0.749
15536SOL    HW148049   5.288   6.069   0.671
15536SOL    HW248050   5.316   6.101   0.817
15537SOL     OW48051   3.922   7.313   0.479
15537SOL    HW148052   3.943   7.386   0.538
15537SOL    HW248053   4.006   7.287   0.441
15538SOL     OW48054   4.836   6.934   1.692
15538SOL    HW148055   4.880   6.927   1.777
15538SOL    HW248056   4.790   6.851   1.681
15539SOL     OW48057   3.951   7.032   0.525
15539SOL    HW148058   3.918   7.118   0.550
15539SOL    HW248059   3.911   6.971   0.587
15540SOL     OW48060   3.986   6.676   0.886
15540SOL    HW148061   3.991   6.588   0.923
15540SOL    HW248062   3.929   6.724   0.947
15541SOL     OW48063   4.303   6.534   0.120
15541SOL    HW148064   4.379   6.561   0.067
15541SOL    HW248065   4.295   6.602   0.186
15542SOL     OW48066   5.291   5.696   1.459
15542SOL    HW148067   5.275   5.742   1.376
15542SOL    HW248068   5.300   5.766   1.523
15543SOL     OW48069   3.826   6.237   0.575
15543SOL    HW148070   3.800   6.147   0.597
15543SOL    HW248071   3.821   6.284   0.658
15544SOL     OW48072   5.575   7.318   0.310
15544SOL    HW148073   5.638   7.298   0.379
15544SOL    HW248074   5.581   7.413   0.298
15545SOL     OW48075   3.729   7.161   0.089
15545SOL    HW148076   3.673   7.090   0.119
15545SOL    HW248077   3.741   7.217   0.166
15546SOL     OW48078   5.402   6.521   0.651
15546SOL    HW148079   5.485   6.482   0.622
15546SOL    HW248080   5.373   6.573   0.576
15547SOL     OW48081   5.369   6.681   0.414
15547SOL    HW148082   5.457   6.707   0.386
15547SOL    HW248083   5.343   6.749   0.475
15548SOL     OW48084   3.843   6.343   1.569
15548SOL    HW148085   3.920   6.397   1.587
15548SOL    HW248086   3.771   6.405   1.564
15549SOL     OW48087   4.337   6.987   0.732
15549SOL    HW148088   4.295   6.902   0.746
15549SOL    HW248089   4.327   7.003   0.638
15550SOL     OW48090   5.007   6.819   1.423
15550SOL    HW148091   5.034   6.752   1.361
15550SOL    HW248092   5.071   6.814   1.494
15551SOL     OW48093   4.544   5.593   0.546
15551SOL    HW148094   4.586   5.669   0.505
15551SOL    HW248095   4.452   5.617   0.551
15552SOL     OW48096   3.905   6.545   1.279
15552SOL    HW148097   3.990   6.514   1.248
15552SOL    HW248098   3.842   6.506   1.219
15553SOL     OW48099   5.224   6.576   0.209
15553SOL    HW148100   5.153   6.525   0.249
15553SOL    HW248101   5.272   6.613   0.283
15554SOL     OW48102   4.858   7.379   1.605
15554SOL    HW148103   4.887   7.453   1.552
15554SOL    HW248104   4.906   7.304   1.568
15555SOL     OW48105   4.065   5.842   1.849
15555SOL    HW148106   4.115   5.919   1.877
15555SOL    HW248107   3.974   5.869   1.858
15556SOL     OW48108   5.185   7.007   0.944
15556SOL    HW148109   5.121   7.023   1.014
15556SOL    HW248110   5.175   6.915   0.923
15557SOL     OW48111   5.391   7.323   0.587
15557SOL    HW148112   5.366   7.308   0.495
15557SOL    HW248113   5.360   7.245   0.633
15558SOL     OW48114   4.328   6.306   0.283
15558SOL    HW148115   4.346   6.383   0.230
15558SOL    HW248116   4.270   6.337   0.352
15559SOL     OW48117   5.012   5.960   0.967
15559SOL    HW148118   4.923   5.927   0.957
15559SOL    HW248119   5.060   5.887   1.007
15560SOL     OW48120   5.304   7.267   0.314
15560SOL    HW148121   5.398   7.279   0.300
15560SOL    HW248122   5.271   7.236   0.230
15561SOL     OW48123   4.508   6.203   1.449
15561SOL    HW148124   4.480   6.180   1.538
15561SOL    HW248125   4.469   6.135   1.393
15562SOL     OW48126   5.113   6.072   1.681
15562SOL    HW148127   5.117   6.116   1.766
15562SOL    HW248128   5.175   5.999   1.689
15563SOL     OW48129   4.677   6.471   1.586
15563SOL    HW148130   4.732   6.401   1.551
15563SOL    HW248131   4.630   6.505   1.510
15564SOL     OW48132   4.654   5.977   1.213
15564SOL    HW148133   4.728   5.987   1.274
15564SOL    HW248134   4.694   5.946   1.132
15565SOL     OW48135   4.776   6.286   0.430
15565SOL    HW148136   4.793   6.283   0.524
15565SOL    HW248137   4.690   6.245   0.421
15566SOL     OW48138   3.812   6.414   0.783
15566SOL    HW148139   3.894   6.404   0.833
15566SOL    HW248140   3.770   6.491   0.821
15567SOL     OW48141   3.858   7.449   1.572
15567SOL    HW148142   3.862   7.438   1.667
15567SOL    HW248143   3.780   7.400   1.545
15568SOL     OW48144   4.602   5.952   0.221
15568SOL    HW148145   4.632   6.019   0.160
15568SOL    HW248146   4.571   5.880   0.166
15569SOL     OW48147   5.407   6.153   1.832
15569SOL    HW148148   5.385   6.229   1.779
15569SOL    HW248149   5.448   6.092   1.770
15570SOL     OW48150   4.276   5.738   0.884
15570SOL    HW148151   4.281   5.796   0.960
15570SOL    HW248152   4.281   5.797   0.809
15571SOL     OW48153   4.676   7.028   0.524
15571SOL    HW148154   4.676   7.091   0.452
15571SOL    HW248155   4.764   6.990   0.522
15572SOL     OW48156   4.078   7.401   0.881
15572SOL    HW148157   4.126   7.318   0.886
15572SOL    HW248158   4.146   7.468   0.892
15573SOL     OW48159   5.503   6.685   0.856
15573SOL    HW148160   5.453   6.641   0.788
15573SOL    HW248161   5.450   6.675   0.935
15574SOL     OW48162   4.931   7.125   1.513
15574SOL    HW148163   4.919   7.052   1.573
15574SOL    HW248164   4.897   7.093   1.429
15575SOL     OW48165   4.015   6.576   0.229
15575SOL    HW148166   4.095   6.628   0.239
15575SOL    HW248167   4.047   6.489   0.205
15576SOL     OW48168   5.217   6.330   0.722
15576SOL    HW148169   5.211   6.299   0.813
15576SOL    HW248170   5.287   6.396   0.724
15577SOL     OW48171   4.186   6.862   1.742
15577SOL    HW148172   4.161   6.867   1.650
15577SOL    HW248173   4.104   6.860   1.790
15578SOL     OW48174   4.855   7.364   0.248
15578SOL    HW148175   4.885   7.332   0.333
15578SOL    HW248176   4.862   7.288   0.190
15579SOL     OW48177   3.900   5.856   1.517
15579SOL    HW148178   3.811   5.889   1.527
15579SOL    HW248179   3.895   5.764   1.544
15580SOL     OW48180   5.367   6.990   0.071
15580SOL    HW148181   5.303   7.061   0.062
15580SOL    HW248182   5.314   6.910   0.077
15581SOL     OW48183   5.133   5.685   0.451
15581SOL    HW148184   5.131   5.653   0.361
15581SOL    HW248185   5.226   5.701   0.468
15582SOL     OW48186   3.987   7.373   1.218
15582SOL    HW148187   4.028   7.296   1.256
15582SOL    HW248188   3.986   7.356   1.124
15583SOL     OW48189   4.654   7.281   0.916
15583SOL    HW148190   4.745   7.250   0.914
15583SOL    HW248191   4.632   7.299   0.825
15584SOL     OW48192   4.084   6.277   0.465
15584SOL    HW148193   4.117   6.187   0.472
15584SOL    HW248194   4.003   6.278   0.516
15585SOL     OW48195   5.245   5.827   1.720
15585SOL    HW148196   5.255   5.832   1.815
15585SOL    HW248197   5.178   5.760   1.707
15586SOL     OW48198   4.364   5.696   0.107
15586SOL    HW148199   4.457   5.672   0.110
15586SOL    HW248200   4.319   5.618   0.140
15587SOL     OW48201   4.488   5.824   1.760
15587SOL    HW148202   4.569   5.773   1.759
15587SOL    HW248203   4.515   5.910   1.791
15588SOL     OW48204   4.600   7.117   1.205
15588SOL    HW148205   4.597   7.099   1.111
15588SOL    HW248206   4.672   7.063   1.238
15589SOL     OW48207   5.070   6.187   1.437
15589SOL    HW148208   5.100   6.155   1.522
15589SOL    HW248209   5.112   6.272   1.427
15590SOL     OW48210   4.535   6.959   0.944
15590SOL    HW148211   4.625   6.956   0.911
15590SOL    HW248212   4.481   6.966   0.865
15591SOL     OW48213   4.649   6.098   0.896
15591SOL    HW148214   4.626   6.087   0.804
15591SOL    HW248215   4.678   6.011   0.924
15592SOL     OW48216   4.285   5.687   0.541
15592SOL    HW148217   4.246   5.610   0.500
15592SOL    HW248218   4.280   5.756   0.474
15593SOL     OW48219   5.167   6.799   0.059
15593SOL    HW148220   5.187   6.721   0.111
15593SOL    HW248221   5.084   6.831   0.096
15594SOL     OW48222   4.009   5.655   0.219
15594SOL    HW148223   4.044   5.690   0.136
15594SOL    HW248224   4.076   5.594   0.249
15595SOL     OW48225   4.671   5.827   0.462
15595SOL    HW148226   4.643   5.868   0.380
15595SOL    HW248227   4.766   5.842   0.464
15596SOL     OW48228   4.811   6.273   1.455
15596SOL    HW148229   4.760   6.196   1.482
15596SOL    HW248230   4.901   6.240   1.449
15597SOL     OW48231   4.922   7.176   0.803
15597SOL    HW148232   4.938   7.238   0.731
15597SOL    HW248233   5.008   7.160   0.841
15598SOL     OW48234   4.196   6.757   0.735
15598SOL    HW148235   4.131   6.729   0.800
15598SOL    HW248236   4.155   6.738   0.651
15599SOL     OW48237   4.986   7.390   0.596
15599SOL    HW148238   5.038   7.460   0.557
15599SOL    HW248239   4.908   7.434   0.631
15600SOL     OW48240   4.743   6.174   0.091
15600SOL    HW148241   4.769   6.128   0.011
15600SOL    HW248242   4.811   6.153   0.155
15601SOL     OW48243   3.836   6.147   1.375
15601SOL    HW148244   3.909   6.104   1.419
15601SOL    HW248245   3.816   6.223   1.431
15602SOL     OW48246   4.276   5.787   1.167
15602SOL    HW148247   4.352   5.733   1.188
15602SOL    HW248248   4.200   5.734   1.193
15603SOL     OW48249   4.585   6.035   0.639
15603SOL    HW148250   4.551   6.093   0.571
15603SOL    HW248251   4.609   5.955   0.593
15604SOL     OW48252   4.741   5.650   0.749
15604SOL    HW148253   4.680   5.649   0.675
15604SOL    HW248254   4.715   5.576   0.804
15605SOL     OW48255   5.154   6.742   0.879
15605SOL    HW148256   5.099   6.665   0.896
15605SOL    HW248257   5.139   6.762   0.787
15606SOL     OW48258   5.189   6.194   0.970
15606SOL    HW148259   5.133   6.116   0.975
15606SOL    HW248260   5.248   6.186   1.045
15607SOL     OW48261   5.561   6.412   0.404
15607SOL    HW148262   5.606   6.353   0.464
15607SOL    HW248263   5.505   6.355   0.351
15608SOL     OW48264   4.176   7.003   0.151
15608SOL    HW148265   4.088   6.985   0.184
15608SOL    HW248266   4.229   6.929   0.183
15609SOL     OW48267   5.433   6.871   0.602
15609SOL    HW148268   5.515   6.854   0.648
15609SOL    HW248269   5.390   6.938   0.654
15610SOL     OW48270   5.081   6.178   0.051
15610SOL    HW148271   5.073   6.150   0.142
15610SOL    HW248272   5.174   6.166   0.031
15611SOL     OW48273   4.264   5.859   0.324
15611SOL    HW148274   4.296   5.801   0.255
15611SOL    HW248275   4.234   5.937   0.278
15612SOL     OW48276   5.468   6.830   1.566
15612SOL    HW148277   5.548   6.784   1.591
15612SOL    HW248278   5.486   6.922   1.585
15613SOL     OW48279   4.779   6.945   1.338
15613SOL    HW148280   4.702   6.908   1.381
15613SOL    HW248281   4.853   6.895   1.374
15614SOL     OW48282   5.313   7.205   1.655
15614SOL    HW148283   5.317   7.248   1.569
15614SOL    HW248284   5.397   7.158   1.662
15615SOL     OW48285   4.866   6.808   1.103
15615SOL    HW148286   4.798   6.843   1.161
15615SOL    HW248287   4.843   6.840   1.016
15616SOL     OW48288   5.338   6.671   1.079
15616SOL    HW148289   5.332   6.737   1.149
15616SOL    HW248290   5.268   6.696   1.017
15617SOL     OW48291   4.639   5.676   1.391
15617SOL    HW148292   4.658   5.662   1.298
15617SOL    HW248293   4.719   5.715   1.426
15618SOL     OW48294   4.693   6.700   1.726
15618SOL    HW148295   4.601   6.708   1.750
15618SOL    HW248296   4.697   6.621   1.672
15619SOL     OW48297   4.143   6.399   1.266
15619SOL    HW148298   4.222   6.410   1.318
15619SOL    HW248299   4.082   6.354   1.324
15620SOL     OW48300   4.922   5.997   1.307
15620SOL    HW148301   4.984   6.052   1.355
15620SOL    HW248302   4.949   6.004   1.216
15621SOL     OW48303   3.806   7.172   1.345
15621SOL    HW148304   3.783   7.241   1.283
15621SOL    HW248305   3.900   7.159   1.333
15622SOL     OW48306   4.038   6.695   0.514
15622SOL    HW148307   4.104   6.729   0.454
15622SOL    HW248308   4.034   6.601   0.495
15623SOL     OW48309   4.269   6.117   0.872
15623SOL    HW148310   4.272   6.169   0.791
15623SOL    HW248311   4.346   6.145   0.921
15624SOL     OW48312   4.947   6.978   0.383
15624SOL    HW148313   5.005   7.049   0.412
15624SOL    HW248314   4.972   6.903   0.438
15625SOL     OW48315   5.018   7.049   1.154
15625SOL    HW148316   5.074   7.050   1.231
15625SOL    HW248317   4.970   6.966   1.160
15626SOL     OW48318   5.282   6.183   0.495
15626SOL    HW148319   5.247   6.242   0.562
15626SOL    HW248320   5.310   6.242   0.425
15627SOL     OW48321   4.071   7.120   1.298
15627SOL    HW148322   4.061   7.068   1.218
15627SOL    HW248323   4.166   7.128   1.310
15628SOL     OW48324   4.158   6.331   1.609
15628SOL    HW148325   4.217   6.380   1.552
15628SOL    HW248326   4.211   6.258   1.642
15629SOL     OW48327   5.339   6.372   1.686
15629SOL    HW148328   5.253   6.413   1.679
15629SOL    HW248329   5.391   6.413   1.617
15630SOL     OW48330   4.734   5.709   1.763
15630SOL    HW148331   4.782   5.790   1.742
15630SOL    HW248332   4.789   5.639   1.727
15631SOL     OW48333   4.213   5.616   1.757
15631SOL    HW148334   4.165   5.566   1.690
15631SOL    HW248335   4.165   5.698   1.765
15632SOL     OW48336   4.304   6.468   1.027
15632SOL    HW148337   4.352   6.551   1.030
15632SOL    HW248338   4.260   6.462   1.111
15633SOL     OW48339   5.063   6.446   1.014
15633SOL    HW148340   4.979   6.424   0.973
15633SOL    HW248341   5.113   6.365   1.010
15634SOL     OW48342   4.930   6.111   0.288
15634SOL    HW148343   4.947   6.037   0.346
15634SOL    HW248344   4.882   6.173   0.343
15635SOL     OW48345   4.008   5.800   1.256
15635SOL    HW148346   3.952   5.818   1.331
15635SOL    HW248347   4.001   5.705   1.243
15636SOL     OW48348   3.792   6.899   1.268
15636SOL    HW148349   3.810   6.841   1.342
15636SOL    HW248350   3.776   6.984   1.308
15637SOL     OW48351   4.457   6.228   1.050
15637SOL    HW148352   4.530   6.201   0.993
15637SOL    HW248353   4.432   6.314   1.017
15638SOL     OW48354   5.459   6.566   1.845
15638SOL    HW148355   5.420   6.489   1.804
15638SOL    HW248356   5.410   6.578   1.927
15639SOL     OW48357   3.970   5.634   0.631
15639SOL    HW148358   3.987   5.728   0.635
15639SOL    HW248359   4.012   5.598   0.709
15640SOL     OW48360   5.330   5.953   0.348
15640SOL    HW148361   5.362   5.886   0.409
15640SOL    HW248362   5.304   6.026   0.404
15641SOL     OW48363   4.764   6.339   0.965
15641SOL    HW148364   4.751   6.355   1.059
15641SOL    HW248365   4.733   6.249   0.952
15642SOL     OW48366   4.682   7.161   1.711
15642SOL    HW148367   4.717   7.222   1.646
15642SOL    HW248368   4.724   7.077   1.691
15643SOL     OW48369   5.562   7.085   1.617
15643SOL    HW148370   5.604   7.115   1.536
15643SOL    HW248371   5.607   7.133   1.686
15644SOL     OW48372   4.070   6.471   1.834
15644SOL    HW148373   4.152   6.504   1.873
15644SOL    HW248374   4.099   6.420   1.758
15645SOL     OW48375   5.277   5.790   0.116
15645SOL    HW148376   5.198   5.749   0.153
15645SOL    HW248377   5.301   5.858   0.179
15646SOL     OW48378   5.061   6.450  -0.010
15646SOL    HW148379   5.062   6.355  -0.000
15646SOL    HW248380   5.143   6.478   0.032
15647SOL     OW48381   4.793   6.932   0.869
15647SOL    HW148382   4.787   6.865   0.802
15647SOL    HW248383   4.842   7.003   0.828
15648SOL     OW48384   4.035   6.401   0.951
15648SOL    HW148385   4.128   6.421   0.942
15648SOL    HW248386   4.033   6.316   0.995
15649SOL     OW48387   4.074   6.101   1.049
15649SOL    HW148388   4.016   6.034   1.012
15649SOL    HW248389   4.141   6.115   0.982
15650SOL     OW48390   4.864   5.945   1.689
15650SOL    HW148391   4.802   5.997   1.740
15650SOL    HW248392   4.944   5.998   1.688
15651SOL     OW48393   4.882   5.773   1.476
15651SOL    HW148394   4.876   5.835   1.548
15651SOL    HW248395   4.917   5.824   1.403
15652SOL     OW48396   3.809   7.371   0.930
15652SOL    HW148397   3.784   7.290   0.886
15652SOL    HW248398   3.901   7.383   0.906
15653SOL     OW48399   4.217   7.165   0.906
15653SOL    HW148400   4.287   7.223   0.934
15653SOL    HW248401   4.261   7.102   0.848
15654SOL     OW48402   4.693   6.369   1.227
15654SOL    HW148403   4.750   6.351   1.301
15654SOL    HW248404   4.615   6.315   1.242
15655SOL     OW48405   3.748   6.133   1.115
15655SOL    HW148406   3.806   6.076   1.065
15655SOL    HW248407   3.792   6.142   1.200
15656SOL     OW48408   3.920   6.133   1.730
15656SOL    HW148409   3.979   6.080   1.676
15656SOL    HW248410   3.890   6.203   1.672
15657SOL     OW48411   5.106   6.523   1.660
15657SOL    HW148412   5.132   6.615   1.652
15657SOL    HW248413   5.102   6.492   1.569
15658SOL     OW48414   4.538   6.160   0.390
15658SOL    HW148415   4.548   6.084   0.333
15658SOL    HW248416   4.466   6.209   0.352
15659SOL     OW48417   5.366   6.183   1.179
15659SOL    HW148418   5.360   6.124   1.254
15659SOL    HW248419   5.455   6.170   1.146
15660SOL     OW48420   3.973   7.143   1.728
15660SOL    HW148421   3.935   7.193   1.800
15660SOL    HW248422   3.973   7.052   1.759
15661SOL     OW48423   4.391   6.057   1.244
15661SOL    HW148424   4.466   5.998   1.240
15661SOL    HW248425   4.412   6.126   1.181
15662SOL     OW48426   4.544   7.299   1.438
15662SOL    HW148427   4.579   7.239   1.372
15662SOL    HW248428   4.594   7.380   1.427
15663SOL     OW48429   4.191   6.087   0.196
15663SOL    HW148430   4.249   6.155   0.229
15663SOL    HW248431   4.154   6.122   0.115
15664SOL     OW48432   3.864   6.728   1.477
15664SOL    HW148433   3.862   6.683   1.562
15664SOL    HW248434   3.878   6.659   1.413
15665SOL     OW48435   5.035   6.627   1.219
15665SOL    HW148436   5.056   6.564   1.150
15665SOL    HW248437   4.975   6.688   1.177
15666SOL     OW48438   5.018   6.423   0.303
15666SOL    HW148439   4.971   6.425   0.386
15666SOL    HW248440   4.972   6.357   0.251
15667SOL     OW48441   5.493   7.339   1.164
15667SOL    HW148442   5.507   7.375   1.077
15667SOL    HW248443   5.469   7.247   1.149
15668SOL     OW48444   4.961   7.320   1.125
15668SOL    HW148445   5.041   7.347   1.080
15668SOL    HW248446   4.971   7.226   1.135
15669SOL     OW48447   3.810   6.864   1.001
15669SOL    HW148448   3.798   6.874   1.095
15669SOL    HW248449   3.742   6.802   0.974
15670SOL     OW48450   4.434   7.272   1.731
15670SOL    HW148451   4.443   7.349   1.788
15670SOL    HW248452   4.522   7.236   1.726
15671SOL     OW48453   4.640   5.656   0.099
15671SOL    HW148454   4.681   5.684   0.017
15671SOL    HW248455   4.708   5.669   0.165
15672SOL     OW48456   5.430   5.738   0.495
15672SOL    HW148457   5.505   5.720   0.438
15672SOL    HW248458   5.421   5.659   0.548
15673SOL     OW48459   5.109   7.174   0.482
15673SOL    HW148460   5.178   7.208   0.425
15673SOL    HW248461   5.073   7.252   0.525
15674SOL     OW48462   3.868   7.412   1.835
15674SOL    HW148463   3.826   7.338   1.879
15674SOL    HW248464   3.906   7.463   1.906
15675SOL     OW48465   4.999   6.491   0.664
15675SOL    HW148466   5.084   6.449   0.675
15675SOL    HW248467   5.020   6.580   0.635
15676SOL     OW48468   4.526   6.862   1.414
15676SOL    HW148469   4.491   6.906   1.492
15676SOL    HW248470   4.454   6.864   1.352
15677SOL     OW48471   4.341   7.244   0.196
15677SOL    HW148472   4.422   7.231   0.146
15677SOL    HW248473   4.289   7.166   0.179
15678SOL     OW48474   5.331   7.319   1.397
15678SOL    HW148475   5.391   7.322   1.322
15678SOL    HW248476   5.319   7.411   1.421
15679SOL     OW48477   5.565   5.753   0.967
15679SOL    HW148478   5.591   5.664   0.944
15679SOL    HW248479   5.479   5.764   0.925
15680SOL     OW48480   3.979   5.903   0.718
15680SOL    HW148481   3.892   5.934   0.694
15680SOL    HW248482   3.975   5.893   0.814
15681SOL     OW48483   4.842   7.168   0.039
15681SOL    HW148484   4.862   7.078   0.066
15681SOL    HW248485   4.924   7.201   0.002
15682SOL     OW48486   4.554   6.591   1.374
15682SOL    HW148487   4.602   6.573   1.293
15682SOL    HW248488   4.556   6.686   1.383
15683SOL     OW48489   4.638   6.496   0.234
15683SOL    HW148490   4.723   6.520   0.198
15683SOL    HW248491   4.658   6.436   0.306
15684SOL     OW48492   4.085   6.897   1.495
15684SOL    HW148493   4.072   6.968   1.433
15684SOL    HW248494   4.009   6.840   1.483
15685SOL     OW48495   5.325   6.864   1.276
15685SOL    HW148496   5.400   6.856   1.336
15685SOL    HW248497   5.272   6.934   1.314
15686SOL     OW48498   4.750   6.724   0.706
15686SOL    HW148499   4.715   6.640   0.734
15686SOL    HW248500   4.832   6.703   0.662
15687SOL     OW48501   4.750   5.837   0.968
15687SOL    HW148502   4.751   5.794   0.883
15687SOL    HW248503   4.747   5.766   1.032
15688SOL     OW48504   4.304   7.054   0.456
15688SOL    HW148505   4.372   7.000   0.414
15688SOL    HW248506   4.222   7.007   0.439
15689SOL     OW48507   5.455   5.985   1.388
15689SOL    HW148508   5.534   6.039   1.383
15689SOL    HW248509   5.475   5.908   1.334
15690SOL     OW48510   3.931   6.936   0.269
15690SOL    HW148511   3.895   6.849   0.287
15690SOL    HW248512   3.945   6.975   0.356
15691SOL     OW48513   3.849   6.617   1.730
15691SOL    HW148514   3.768   6.593   1.776
15691SOL    HW248515   3.918   6.571   1.778
15692SOL     OW48516   4.396   5.780   1.502
15692SOL    HW148517   4.479   5.759   1.461
15692SOL    HW248518   4.418   5.797   1.594
15693SOL     OW48519   5.151   6.453   1.400
15693SOL    HW148520   5.099   6.511   1.344
15693SOL    HW248521   5.238   6.451   1.360
15694SOL     OW48522   3.782   5.741   0.319
15694SOL    HW148523   3.797   5.836   0.318
15694SOL    HW248524   3.864   5.704   0.287
15695SOL     OW48525   4.894   6.910   0.128
15695SOL    HW148526   4.820   6.850   0.143
15695SOL    HW248527   4.921   6.936   0.215
15696SOL     OW48528   4.351   6.422   1.434
15696SOL    HW148529   4.410   6.496   1.419
15696SOL    HW248530   4.409   6.346   1.441
15697SOL     OW48531   5.202   7.376   1.003
15697SOL    HW148532   5.225   7.407   0.915
15697SOL    HW248533   5.266   7.308   1.022
15698SOL     OW48534   4.392   6.189   1.701
15698SOL    HW148535   4.413   6.277   1.734
15698SOL    HW248536   4.455   6.132   1.744
15699SOL     OW48537   5.197   6.783   1.629
15699SOL    HW148538   5.190   6.799   1.723
15699SOL    HW248539   5.289   6.802   1.609
15700SOL     OW48540   4.109   7.315   1.552
15700SOL    HW148541   4.029   7.362   1.529
15700SOL    HW248542   4.078   7.238   1.600
15701SOL     OW48543   5.385   6.460   1.257
15701SOL    HW148544   5.387   6.374   1.215
15701SOL    HW248545   5.377   6.522   1.185
15702SOL     OW48546   4.948   5.893   0.456
15702SOL    HW148547   5.010   5.821   0.456
15702SOL    HW248548   4.965   5.940   0.538
15703SOL     OW48549   4.284   6.301   0.674
15703SOL    HW148550   4.326   6.386   0.675
15703SOL    HW248551   4.230   6.303   0.595
15704SOL     OW48552   5.480   5.945   1.663
15704SOL    HW148553   5.477   5.963   1.569
15704SOL    HW248554   5.399   5.898   1.681
15705SOL     OW48555   5.478   6.528   1.507
15705SOL    HW148556   5.451   6.620   1.511
15705SOL    HW248557   5.461   6.502   1.416
15706SOL     OW48558   4.552   6.961   0.010
15706SOL    HW148559   4.540   6.935   0.101
15706SOL    HW248560   4.616   7.033   0.014
15707SOL     OW48561   4.390   7.369   0.957
15707SOL    HW148562   4.385   7.456   0.917
15707SOL    HW248563   4.483   7.346   0.951
15708SOL     OW48564   4.600   6.541   0.866
15708SOL    HW148565   4.659   6.476   0.902
15708SOL    HW248566   4.569   6.590   0.942
15709SOL     OW48567   4.833   6.577   0.055
15709SOL    HW148568   4.843   6.659   0.007
15709SOL    HW248569   4.919   6.535   0.047
15710SOL     OW48570   5.581   7.138   0.856
15710SOL    HW148571   5.501   7.125   0.805
15710SOL    HW248572   5.593   7.056   0.904
15711SOL     OW48573   3.933   6.888   1.839
15711SOL    HW148574   3.884   6.821   1.792
15711SOL    HW248575   3.881   6.906   1.917
15712SOL     OW48576   3.832   6.813   0.660
15712SOL    HW148577   3.849   6.773   0.746
15712SOL    HW248578   3.895   6.771   0.601
15713SOL     OW48579   4.384   7.019   1.595
15713SOL    HW148580   4.323   6.963   1.644
15713SOL    HW248581   4.404   7.091   1.656
15714SOL     OW48582   5.528   5.769   1.240
15714SOL    HW148583   5.520   5.674   1.251
15714SOL    HW248584   5.541   5.781   1.146
15715SOL     OW48585   4.140   6.022   0.520
15715SOL    HW148586   4.186   5.957   0.467
15715SOL    HW248587   4.102   5.972   0.592
15716SOL     OW48588   5.400   7.093   1.101
15716SOL    HW148589   5.330   7.059   1.045
15716SOL    HW248590   5.430   7.018   1.152
15717SOL     OW48591   4.498   7.198   0.649
15717SOL    HW148592   4.573   7.148   0.616
15717SOL    HW248593   4.450   7.135   0.703
15718SOL     OW48594   4.722   5.604   1.132
15718SOL    HW148595   4.677   5.538   1.080
15718SOL    HW248596   4.812   5.573   1.138
15719SOL     OW48597   4.534   6.914   0.285
15719SOL    HW148598   4.466   6.847   0.294
15719SOL    HW248599   4.584   6.907   0.367
15720SOL     OW48600   4.344   7.122   1.305
15720SOL    HW148601   4.377   7.106   1.394
15720SOL    HW248602   4.422   7.138   1.252
15721SOL     OW48603   5.081   5.607   0.190
15721SOL    HW148604   5.073   5.584   0.098
15721SOL    HW248605   4.994   5.592   0.227
15722SOL     OW48606   4.994   6.033   0.685
15722SOL    HW148607   4.948   6.117   0.689
15722SOL    HW248608   5.013   6.012   0.776
15723SOL     OW48609   5.318   5.769   0.857
15723SOL    HW148610   5.254   5.761   0.928
15723SOL    HW248611   5.304   5.856   0.821
15724SOL     OW48612   3.770   6.655   0.302
15724SOL    HW148613   3.859   6.638   0.273
15724SOL    HW248614   3.748   6.580   0.357
15725SOL     OW48615   4.604   7.236   0.356
15725SOL    HW148616   4.609   7.237   0.261
15725SOL    HW248617   4.637   7.322   0.383
15726SOL     OW48618   3.956   5.856   2.857
15726SOL    HW148619   4.003   5.833   2.937
15726SOL    HW248620   3.866   5.831   2.875
15727SOL     OW48621   3.712   5.964   2.514
15727SOL    HW148622   3.631   6.000   2.551
15727SOL    HW248623   3.684   5.884   2.470
15728SOL     OW48624   4.290   6.881   3.044
15728SOL    HW148625   4.199   6.884   3.014
15728SOL    HW248626   4.307   6.970   3.077
15729SOL     OW48627   5.273   7.102   2.570
15729SOL    HW148628   5.258   7.098   2.665
15729SOL    HW248629   5.225   7.179   2.542
15730SOL     OW48630   4.854   6.293   2.551
15730SOL    HW148631   4.905   6.373   2.541
15730SOL    HW248632   4.810   6.302   2.635
15731SOL     OW48633   5.488   6.174   2.087
15731SOL    HW148634   5.466   6.171   1.994
15731SOL    HW248635   5.451   6.094   2.123
15732SOL     OW48636   4.460   6.717   2.906
15732SOL    HW148637   4.395   6.756   2.965
15732SOL    HW248638   4.510   6.792   2.873
15733SOL     OW48639   4.597   6.358   3.704
15733SOL    HW148640   4.587   6.413   3.782
15733SOL    HW248641   4.622   6.420   3.635
15734SOL     OW48642   4.407   6.578   2.506
15734SOL    HW148643   4.477   6.573   2.572
15734SOL    HW248644   4.341   6.634   2.545
15735SOL     OW48645   4.443   6.734   3.679
15735SOL    HW148646   4.489   6.810   3.714
15735SOL    HW248647   4.360   6.769   3.646
15736SOL     OW48648   4.046   7.010   2.936
15736SOL    HW148649   3.977   6.967   2.886
15736SOL    HW248650   4.096   7.059   2.871
15737SOL     OW48651   5.186   7.093   3.225
15737SOL    HW148652   5.241   7.171   3.233
15737SOL    HW248653   5.120   7.104   3.294
15738SOL     OW48654   4.184   5.952   3.347
15738SOL    HW148655   4.209   5.860   3.353
15738SOL    HW248656   4.101   5.957   3.394
15739SOL     OW48657   5.330   6.027   2.607
15739SOL    HW148658   5.269   6.056   2.539
15739SOL    HW248659   5.331   6.098   2.671
15740SOL     OW48660   4.025   7.320   2.284
15740SOL    HW148661   4.014   7.386   2.352
15740SOL    HW248662   3.936   7.302   2.254
15741SOL     OW48663   4.853   6.926   3.549
15741SOL    HW148664   4.895   6.926   3.635
15741SOL    HW248665   4.807   6.842   3.545
15742SOL     OW48666   3.961   7.034   2.424
15742SOL    HW148667   3.932   7.116   2.463
15742SOL    HW248668   3.912   6.966   2.471
15743SOL     OW48669   3.999   6.678   2.762
15743SOL    HW148670   3.999   6.589   2.797
15743SOL    HW248671   3.941   6.727   2.820
15744SOL     OW48672   4.293   7.372   3.260
15744SOL    HW148673   4.230   7.352   3.329
15744SOL    HW248674   4.337   7.452   3.290
15745SOL     OW48675   4.304   6.569   2.003
15745SOL    HW148676   4.362   6.591   1.930
15745SOL    HW248677   4.349   6.603   2.081
15746SOL     OW48678   3.842   6.234   2.431
15746SOL    HW148679   3.806   6.150   2.459
15746SOL    HW248680   3.835   6.291   2.508
15747SOL     OW48681   5.568   7.340   2.179
15747SOL    HW148682   5.640   7.313   2.236
15747SOL    HW248683   5.588   7.430   2.154
15748SOL     OW48684   3.795   7.196   1.971
15748SOL    HW148685   3.721   7.145   1.939
15748SOL    HW248686   3.778   7.209   2.064
15749SOL     OW48687   5.401   6.477   2.491
15749SOL    HW148688   5.490   6.468   2.524
15749SOL    HW248689   5.408   6.537   2.417
15750SOL     OW48690   5.391   6.689   2.289
15750SOL    HW148691   5.478   6.679   2.250
15750SOL    HW248692   5.405   6.752   2.360
15751SOL     OW48693   3.855   6.340   3.437
15751SOL    HW148694   3.951   6.344   3.433
15751SOL    HW248695   3.829   6.423   3.475
15752SOL     OW48696   4.346   6.982   2.591
15752SOL    HW148697   4.306   6.897   2.607
15752SOL    HW248698   4.316   7.008   2.505
15753SOL     OW48699   5.010   6.819   3.285
15753SOL    HW148700   5.050   6.756   3.225
15753SOL    HW248701   5.068   6.821   3.361
15754SOL     OW48702   4.490   5.607   2.374
15754SOL    HW148703   4.555   5.677   2.362
15754SOL    HW248704   4.526   5.552   2.444
15755SOL     OW48705   3.907   6.543   3.089
15755SOL    HW148706   3.985   6.488   3.095
15755SOL    HW248707   3.834   6.481   3.091
15756SOL     OW48708   5.267   6.594   2.063
15756SOL    HW148709   5.203   6.532   2.099
15756SOL    HW248710   5.315   6.626   2.138
15757SOL     OW48711   4.896   7.397   3.483
15757SOL    HW148712   4.919   7.463   3.418
15757SOL    HW248713   4.936   7.317   3.451
15758SOL     OW48714   4.046   5.882   3.632
15758SOL    HW148715   4.126   5.857   3.678
15758SOL    HW248716   3.976   5.867   3.695
15759SOL     OW48717   5.151   7.016   2.806
15759SOL    HW148718   5.103   7.026   2.888
15759SOL    HW248719   5.154   6.921   2.791
15760SOL     OW48720   5.376   7.346   2.438
15760SOL    HW148721   5.372   7.304   2.352
15760SOL    HW248722   5.404   7.277   2.498
15761SOL     OW48723   4.315   6.300   2.125
15761SOL    HW148724   4.330   6.381   2.077
15761SOL    HW248725   4.254   6.323   2.194
15762SOL     OW48726   4.998   5.962   2.797
15762SOL    HW148727   4.909   5.929   2.812
15762SOL    HW248728   5.054   5.907   2.853
15763SOL     OW48729   5.308   7.248   2.168
15763SOL    HW148730   5.399   7.275   2.162
15763SOL    HW248731   5.281   7.234   2.077
15764SOL     OW48732   5.126   6.052   3.548
15764SOL    HW148733   5.125   6.096   3.633
15764SOL    HW248734   5.164   5.966   3.566
15765SOL     OW48735   4.668   6.469   3.441
15765SOL    HW148736   4.722   6.396   3.410
15765SOL    HW248737   4.637   6.511   3.361
15766SOL     OW48738   4.726   5.991   3.080
15766SOL    HW148739   4.639   6.011   3.116
15766SOL    HW248740   4.709   5.941   3.001
15767SOL     OW48741   4.780   6.285   2.281
15767SOL    HW148742   4.799   6.281   2.375
15767SOL    HW248743   4.696   6.239   2.271
15768SOL     OW48744   3.821   6.413   2.637
15768SOL    HW148745   3.901   6.405   2.689
15768SOL    HW248746   3.773   6.484   2.678
15769SOL     OW48747   3.827   7.397   3.424
15769SOL    HW148748   3.829   7.393   3.520
15769SOL    HW248749   3.817   7.490   3.403
15770SOL     OW48750   4.620   5.867   2.070
15770SOL    HW148751   4.621   5.944   2.013
15770SOL    HW248752   4.678   5.805   2.026
15771SOL     OW48753   5.447   6.164   3.671
15771SOL    HW148754   5.484   6.252   3.679
15771SOL    HW248755   5.368   6.176   3.618
15772SOL     OW48756   5.085   6.760   2.346
15772SOL    HW148757   5.179   6.759   2.363
15772SOL    HW248758   5.071   6.691   2.281
15773SOL     OW48759   4.294   5.800   2.763
15773SOL    HW148760   4.292   5.808   2.858
15773SOL    HW248761   4.287   5.889   2.731
15774SOL     OW48762   4.772   7.041   2.361
15774SOL    HW148763   4.746   7.102   2.292
15774SOL    HW248764   4.716   7.062   2.435
15775SOL     OW48765   4.077   7.401   2.731
15775SOL    HW148766   4.125   7.319   2.743
15775SOL    HW248767   4.140   7.469   2.754
15776SOL     OW48768   5.544   6.612   2.746
15776SOL    HW148769   5.559   6.679   2.679
15776SOL    HW248770   5.474   6.647   2.801
15777SOL     OW48771   4.949   7.128   3.374
15777SOL    HW148772   4.939   7.055   3.434
15777SOL    HW248773   4.863   7.140   3.334
15778SOL     OW48774   4.043   6.566   2.110
15778SOL    HW148775   4.135   6.581   2.085
15778SOL    HW248776   4.007   6.513   2.040
15779SOL     OW48777   5.193   6.336   2.583
15779SOL    HW148778   5.201   6.298   2.670
15779SOL    HW248779   5.275   6.385   2.571
15780SOL     OW48780   4.195   6.851   3.612
15780SOL    HW148781   4.176   6.851   3.518
15780SOL    HW248782   4.109   6.842   3.654
15781SOL     OW48783   4.850   7.368   2.076
15781SOL    HW148784   4.781   7.326   2.127
15781SOL    HW248785   4.877   7.302   2.012
15782SOL     OW48786   3.908   5.868   3.367
15782SOL    HW148787   3.829   5.907   3.405
15782SOL    HW248788   3.941   5.810   3.436
15783SOL     OW48789   5.337   6.946   1.966
15783SOL    HW148790   5.323   7.038   1.942
15783SOL    HW248791   5.256   6.902   1.939
15784SOL     OW48792   5.130   5.697   2.313
15784SOL    HW148793   5.126   5.671   2.221
15784SOL    HW248794   5.222   5.718   2.328
15785SOL     OW48795   3.948   7.353   3.117
15785SOL    HW148796   4.040   7.354   3.143
15785SOL    HW248797   3.948   7.372   3.024
15786SOL     OW48798   4.662   7.289   2.758
15786SOL    HW148799   4.734   7.250   2.809
15786SOL    HW248800   4.639   7.222   2.694
15787SOL     OW48801   4.113   6.284   2.328
15787SOL    HW148802   4.123   6.191   2.349
15787SOL    HW248803   4.022   6.304   2.353
15788SOL     OW48804   5.221   5.771   3.583
15788SOL    HW148805   5.243   5.799   3.672
15788SOL    HW248806   5.145   5.713   3.594
15789SOL     OW48807   4.343   5.678   1.991
15789SOL    HW148808   4.428   5.714   1.968
15789SOL    HW248809   4.304   5.652   1.908
15790SOL     OW48810   4.498   5.885   3.584
15790SOL    HW148811   4.575   5.828   3.583
15790SOL    HW248812   4.440   5.845   3.649
15791SOL     OW48813   4.596   7.107   3.054
15791SOL    HW148814   4.577   7.062   2.971
15791SOL    HW248815   4.665   7.054   3.095
15792SOL     OW48816   5.067   6.185   3.303
15792SOL    HW148817   5.104   6.152   3.384
15792SOL    HW248818   5.106   6.272   3.292
15793SOL     OW48819   4.544   6.972   2.812
15793SOL    HW148820   4.630   6.959   2.773
15793SOL    HW248821   4.484   6.975   2.738
15794SOL     OW48822   4.646   6.096   2.757
15794SOL    HW148823   4.621   6.083   2.666
15794SOL    HW248824   4.677   6.010   2.786
15795SOL     OW48825   5.128   6.768   1.905
15795SOL    HW148826   5.188   6.712   1.954
15795SOL    HW248827   5.046   6.718   1.901
15796SOL     OW48828   4.022   5.641   2.044
15796SOL    HW148829   4.060   5.703   1.981
15796SOL    HW248830   4.097   5.591   2.077
15797SOL     OW48831   4.666   5.815   2.334
15797SOL    HW148832   4.640   5.841   2.246
15797SOL    HW248833   4.759   5.837   2.339
15798SOL     OW48834   4.800   6.246   3.330
15798SOL    HW148835   4.776   6.174   3.389
15798SOL    HW248836   4.893   6.234   3.315
15799SOL     OW48837   4.969   7.114   2.609
15799SOL    HW148838   4.969   7.205   2.581
15799SOL    HW248839   5.029   7.112   2.684
15800SOL     OW48840   4.199   6.747   2.587
15800SOL    HW148841   4.136   6.723   2.656
15800SOL    HW248842   4.150   6.732   2.505
15801SOL     OW48843   4.985   7.373   2.481
15801SOL    HW148844   5.034   7.436   2.428
15801SOL    HW248845   4.920   7.426   2.528
15802SOL     OW48846   3.800   6.155   3.244
15802SOL    HW148847   3.894   6.143   3.231
15802SOL    HW248848   3.794   6.221   3.313
15803SOL     OW48849   4.292   5.813   3.041
15803SOL    HW148850   4.337   5.751   3.098
15803SOL    HW248851   4.202   5.812   3.072
15804SOL     OW48852   4.583   6.037   2.494
15804SOL    HW148853   4.550   6.095   2.426
15804SOL    HW248854   4.613   5.959   2.447
15805SOL     OW48855   4.778   5.640   2.626
15805SOL    HW148856   4.715   5.655   2.556
15805SOL    HW248857   4.741   5.567   2.676
15806SOL     OW48858   5.158   6.749   2.735
15806SOL    HW148859   5.121   6.662   2.722
15806SOL    HW248860   5.213   6.763   2.658
15807SOL     OW48861   5.187   6.199   2.825
15807SOL    HW148862   5.128   6.124   2.834
15807SOL    HW248863   5.246   6.193   2.900
15808SOL     OW48864   5.557   6.387   2.236
15808SOL    HW148865   5.616   6.346   2.299
15808SOL    HW248866   5.537   6.318   2.173
15809SOL     OW48867   4.208   7.005   2.012
15809SOL    HW148868   4.134   6.971   2.062
15809SOL    HW248869   4.209   6.953   1.932
15810SOL     OW48870   5.310   6.840   2.524
15810SOL    HW148871   5.405   6.824   2.531
15810SOL    HW248872   5.301   6.935   2.535
15811SOL     OW48873   5.116   6.172   1.934
15811SOL    HW148874   5.064   6.144   2.010
15811SOL    HW248875   5.207   6.157   1.960
15812SOL     OW48876   4.252   5.834   2.189
15812SOL    HW148877   4.291   5.784   2.118
15812SOL    HW248878   4.227   5.918   2.149
15813SOL     OW48879   5.471   6.817   3.418
15813SOL    HW148880   5.560   6.786   3.399
15813SOL    HW248881   5.483   6.909   3.444
15814SOL     OW48882   4.781   6.928   3.183
15814SOL    HW148883   4.703   6.906   3.235
15814SOL    HW248884   4.854   6.894   3.234
15815SOL     OW48885   5.317   7.216   3.517
15815SOL    HW148886   5.318   7.260   3.432
15815SOL    HW248887   5.397   7.164   3.517
15816SOL     OW48888   4.827   6.769   2.962
15816SOL    HW148889   4.803   6.826   3.035
15816SOL    HW248890   4.822   6.825   2.885
15817SOL     OW48891   5.349   6.691   2.934
15817SOL    HW148892   5.342   6.748   3.011
15817SOL    HW248893   5.270   6.708   2.884
15818SOL     OW48894   4.655   5.673   3.248
15818SOL    HW148895   4.686   5.659   3.158
15818SOL    HW248896   4.728   5.715   3.292
15819SOL     OW48897   4.711   6.689   3.598
15819SOL    HW148898   4.620   6.707   3.622
15819SOL    HW248899   4.705   6.613   3.539
15820SOL     OW48900   4.439   6.649   2.234
15820SOL    HW148901   4.423   6.624   2.325
15820SOL    HW248902   4.517   6.599   2.209
15821SOL     OW48903   4.149   6.395   3.118
15821SOL    HW148904   4.213   6.411   3.187
15821SOL    HW248905   4.113   6.309   3.138
15822SOL     OW48906   4.994   5.971   3.141
15822SOL    HW148907   5.023   6.048   3.191
15822SOL    HW248908   4.903   5.990   3.118
15823SOL     OW48909   4.057   6.712   2.353
15823SOL    HW148910   4.047   6.784   2.291
15823SOL    HW248911   4.059   6.634   2.298
15824SOL     OW48912   4.272   6.100   2.718
15824SOL    HW148913   4.284   6.164   2.648
15824SOL    HW248914   4.333   6.128   2.786
15825SOL     OW48915   5.004   7.049   3.032
15825SOL    HW148916   5.073   7.062   3.097
15825SOL    HW248917   4.936   7.000   3.079
15826SOL     OW48918   5.309   6.202   2.350
15826SOL    HW148919   5.261   6.258   2.412
15826SOL    HW248920   5.374   6.261   2.311
15827SOL     OW48921   4.066   7.096   3.191
15827SOL    HW148922   4.057   7.070   3.099
15827SOL    HW248923   4.159   7.119   3.200
15828SOL     OW48924   4.129   6.310   3.436
15828SOL    HW148925   4.202   6.349   3.388
15828SOL    HW248926   4.136   6.345   3.525
15829SOL     OW48927   5.306   6.340   3.515
15829SOL    HW148928   5.229   6.396   3.524
15829SOL    HW248929   5.368   6.392   3.463
15830SOL     OW48930   4.715   5.714   3.588
15830SOL    HW148931   4.796   5.763   3.598
15830SOL    HW248932   4.731   5.631   3.633
15831SOL     OW48933   4.243   5.677   3.479
15831SOL    HW148934   4.185   5.601   3.477
15831SOL    HW248935   4.258   5.693   3.572
15832SOL     OW48936   4.308   6.456   2.898
15832SOL    HW148937   4.346   6.544   2.904
15832SOL    HW248938   4.254   6.448   2.977
15833SOL     OW48939   5.065   6.451   2.863
15833SOL    HW148940   4.975   6.426   2.843
15833SOL    HW248941   5.114   6.368   2.860
15834SOL     OW48942   4.965   6.111   2.153
15834SOL    HW148943   4.955   6.033   2.208
15834SOL    HW248944   4.898   6.171   2.186
15835SOL     OW48945   4.027   5.801   3.118
15835SOL    HW148946   3.991   5.825   3.203
15835SOL    HW248947   4.012   5.707   3.111
15836SOL     OW48948   3.800   6.982   3.160
15836SOL    HW148949   3.764   6.911   3.213
15836SOL    HW248950   3.887   6.953   3.135
15837SOL     OW48951   4.434   6.203   2.918
15837SOL    HW148952   4.515   6.193   2.868
15837SOL    HW248953   4.408   6.294   2.904
15838SOL     OW48954   5.468   6.514   3.717
15838SOL    HW148955   5.387   6.506   3.667
15838SOL    HW248956   5.440   6.553   3.800
15839SOL     OW48957   4.074   5.658   2.478
15839SOL    HW148958   4.031   5.740   2.501
15839SOL    HW248959   4.077   5.608   2.560
15840SOL     OW48960   5.336   5.966   2.216
15840SOL    HW148961   5.368   5.903   2.280
15840SOL    HW248962   5.315   6.044   2.267
15841SOL     OW48963   4.752   6.343   2.815
15841SOL    HW148964   4.747   6.357   2.909
15841SOL    HW248965   4.722   6.253   2.802
15842SOL     OW48966   4.696   7.150   3.583
15842SOL    HW148967   4.687   7.192   3.498
15842SOL    HW248968   4.738   7.067   3.565
15843SOL     OW48969   5.548   7.074   3.460
15843SOL    HW148970   5.572   7.113   3.376
15843SOL    HW248971   5.624   7.089   3.516
15844SOL     OW48972   4.140   6.462   3.658
15844SOL    HW148973   4.196   6.490   3.731
15844SOL    HW248974   4.060   6.514   3.668
15845SOL     OW48975   5.255   5.832   1.989
15845SOL    HW148976   5.182   5.785   2.029
15845SOL    HW248977   5.289   5.888   2.060
15846SOL     OW48978   5.012   6.427   1.901
15846SOL    HW148979   5.039   6.335   1.907
15846SOL    HW248980   5.044   6.456   1.815
15847SOL     OW48981   4.792   6.926   2.721
15847SOL    HW148982   4.799   6.849   2.665
15847SOL    HW248983   4.857   6.988   2.686
15848SOL     OW48984   4.042   6.393   2.800
15848SOL    HW148985   4.135   6.413   2.809
15848SOL    HW248986   4.033   6.305   2.837
15849SOL     OW48987   4.042   6.113   2.867
15849SOL    HW148988   4.008   6.024   2.859
15849SOL    HW248989   4.121   6.114   2.813
15850SOL     OW48990   4.857   5.998   3.514
15850SOL    HW148991   4.814   6.036   3.591
15850SOL    HW248992   4.949   6.021   3.524
15851SOL     OW48993   4.882   5.797   3.330
15851SOL    HW148994   4.864   5.861   3.398
15851SOL    HW248995   4.928   5.847   3.261
15852SOL     OW48996   3.764   6.892   2.055
15852SOL    HW148997   3.687   6.928   2.012
15852SOL    HW248998   3.735   6.809   2.093
15853SOL     OW48999   3.812   7.364   2.797
15853SOL    HW149000   3.786   7.285   2.751
15853SOL    HW249001   3.903   7.379   2.770
15854SOL     OW49002   4.213   7.159   2.767
15854SOL    HW149003   4.281   7.223   2.788
15854SOL    HW249004   4.258   7.092   2.714
15855SOL     OW49005   4.705   6.356   3.084
15855SOL    HW149006   4.755   6.318   3.157
15855SOL    HW249007   4.616   6.367   3.119
15856SOL     OW49008   3.764   6.121   2.977
15856SOL    HW149009   3.847   6.135   2.933
15856SOL    HW249010   3.782   6.138   3.069
15857SOL     OW49011   3.886   6.129   3.622
15857SOL    HW149012   3.961   6.078   3.592
15857SOL    HW249013   3.874   6.196   3.554
15858SOL     OW49014   5.112   6.531   3.518
15858SOL    HW149015   5.136   6.624   3.523
15858SOL    HW249016   5.109   6.512   3.424
15859SOL     OW49017   4.538   6.155   2.229
15859SOL    HW149018   4.563   6.104   2.152
15859SOL    HW249019   4.465   6.209   2.199
15860SOL     OW49020   5.363   6.187   3.030
15860SOL    HW149021   5.352   6.130   3.107
15860SOL    HW249022   5.453   6.170   3.001
15861SOL     OW49023   3.975   7.121   3.596
15861SOL    HW149024   3.957   7.179   3.670
15861SOL    HW249025   3.980   7.034   3.634
15862SOL     OW49026   4.440   6.044   3.149
15862SOL    HW149027   4.393   5.966   3.119
15862SOL    HW249028   4.432   6.106   3.076
15863SOL     OW49029   4.663   7.251   3.325
15863SOL    HW149030   4.615   7.226   3.246
15863SOL    HW249031   4.664   7.346   3.323
15864SOL     OW49032   4.158   6.072   2.071
15864SOL    HW149033   4.224   6.139   2.056
15864SOL    HW249034   4.120   6.095   2.156
15865SOL     OW49035   3.895   6.745   3.271
15865SOL    HW149036   3.864   6.706   3.352
15865SOL    HW249037   3.900   6.671   3.210
15866SOL     OW49038   5.038   6.625   3.073
15866SOL    HW149039   5.063   6.568   3.000
15866SOL    HW249040   4.964   6.676   3.039
15867SOL     OW49041   5.028   6.480   2.177
15867SOL    HW149042   4.976   6.415   2.225
15867SOL    HW249043   5.014   6.457   2.085
15868SOL     OW49044   5.457   7.326   2.977
15868SOL    HW149045   5.537   7.355   2.934
15868SOL    HW249046   5.461   7.231   2.975
15869SOL     OW49047   4.954   7.305   2.931
15869SOL    HW149048   5.040   7.337   2.904
15869SOL    HW249049   4.971   7.222   2.974
15870SOL     OW49050   3.808   6.861   2.872
15870SOL    HW149051   3.770   6.887   2.955
15870SOL    HW249052   3.747   6.795   2.837
15871SOL     OW49053   4.401   7.261   3.605
15871SOL    HW149054   4.349   7.341   3.604
15871SOL    HW249055   4.489   7.288   3.579
15872SOL     OW49056   5.430   5.738   2.352
15872SOL    HW149057   5.509   5.733   2.298
15872SOL    HW249058   5.421   5.651   2.390
15873SOL     OW49059   5.096   7.161   2.327
15873SOL    HW149060   5.172   7.186   2.274
15873SOL    HW249061   5.064   7.244   2.362
15874SOL     OW49062   3.867   7.383   3.692
15874SOL    HW149063   3.815   7.321   3.743
15874SOL    HW249064   3.917   7.432   3.758
15875SOL     OW49065   5.006   6.524   2.530
15875SOL    HW149066   5.074   6.459   2.552
15875SOL    HW249067   5.049   6.583   2.468
15876SOL     OW49068   4.526   6.865   3.285
15876SOL    HW149069   4.502   6.907   3.368
15876SOL    HW249070   4.450   6.879   3.229
15877SOL     OW49071   4.376   7.207   2.060
15877SOL    HW149072   4.401   7.238   1.973
15877SOL    HW249073   4.328   7.126   2.044
15878SOL     OW49074   5.332   7.323   3.245
15878SOL    HW149075   5.392   7.326   3.170
15878SOL    HW249076   5.320   7.414   3.271
15879SOL     OW49077   5.556   5.752   2.847
15879SOL    HW149078   5.588   5.667   2.816
15879SOL    HW249079   5.473   5.765   2.801
15880SOL     OW49080   3.976   5.894   2.572
15880SOL    HW149081   3.886   5.925   2.557
15880SOL    HW249082   3.982   5.885   2.667
15881SOL     OW49083   4.925   7.183   1.889
15881SOL    HW149084   4.900   7.095   1.916
15881SOL    HW249085   4.868   7.202   1.814
15882SOL     OW49086   4.560   6.598   3.221
15882SOL    HW149087   4.608   6.607   3.139
15882SOL    HW249088   4.548   6.687   3.253
15883SOL     OW49089   4.657   6.512   2.155
15883SOL    HW149090   4.717   6.544   2.088
15883SOL    HW249091   4.702   6.436   2.192
15884SOL     OW49092   5.204   7.220   1.908
15884SOL    HW149093   5.111   7.205   1.890
15884SOL    HW249094   5.245   7.221   1.822
15885SOL     OW49095   4.115   6.877   3.358
15885SOL    HW149096   4.102   6.958   3.308
15885SOL    HW249097   4.043   6.820   3.331
15886SOL     OW49098   5.320   6.866   3.144
15886SOL    HW149099   5.397   6.859   3.201
15886SOL    HW249100   5.269   6.938   3.180
15887SOL     OW49101   4.797   6.703   2.569
15887SOL    HW149102   4.723   6.655   2.607
15887SOL    HW249103   4.865   6.637   2.555
15888SOL     OW49104   4.748   5.827   2.836
15888SOL    HW149105   4.761   5.780   2.754
15888SOL    HW249106   4.743   5.758   2.903
15889SOL     OW49107   4.292   7.066   2.322
15889SOL    HW149108   4.361   7.018   2.276
15889SOL    HW249109   4.213   7.013   2.309
15890SOL     OW49110   5.436   5.982   3.220
15890SOL    HW149111   5.513   6.039   3.228
15890SOL    HW249112   5.468   5.905   3.173
15891SOL     OW49113   4.007   6.928   2.182
15891SOL    HW149114   3.923   6.918   2.136
15891SOL    HW249115   3.985   6.974   2.263
15892SOL     OW49116   4.425   5.791   3.316
15892SOL    HW149117   4.507   5.744   3.301
15892SOL    HW249118   4.385   5.747   3.391
15893SOL     OW49119   3.786   5.925   1.890
15893SOL    HW149120   3.709   5.878   1.921
15893SOL    HW249121   3.768   5.942   1.798
15894SOL     OW49122   5.147   6.451   3.255
15894SOL    HW149123   5.099   6.511   3.197
15894SOL    HW249124   5.237   6.454   3.222
15895SOL     OW49125   3.789   5.733   2.167
15895SOL    HW149126   3.779   5.825   2.143
15895SOL    HW249127   3.874   5.708   2.131
15896SOL     OW49128   4.868   6.922   1.972
15896SOL    HW149129   4.821   6.839   1.978
15896SOL    HW249130   4.949   6.906   2.022
15897SOL     OW49131   4.357   6.420   3.305
15897SOL    HW149132   4.410   6.493   3.273
15897SOL    HW249133   4.403   6.389   3.383
15898SOL     OW49134   5.213   7.371   2.844
15898SOL    HW149135   5.242   7.440   2.784
15898SOL    HW249136   5.291   7.351   2.897
15899SOL     OW49137   4.465   6.163   3.566
15899SOL    HW149138   4.499   6.237   3.616
15899SOL    HW249139   4.475   6.088   3.625
15900SOL     OW49140   5.206   6.794   3.510
15900SOL    HW149141   5.210   6.843   3.592
15900SOL    HW249142   5.295   6.799   3.474
15901SOL     OW49143   4.085   7.312   3.426
15901SOL    HW149144   3.999   7.355   3.429
15901SOL    HW249145   4.075   7.236   3.484
15902SOL     OW49146   5.385   6.469   3.109
15902SOL    HW149147   5.385   6.385   3.063
15902SOL    HW249148   5.382   6.535   3.040
15903SOL     OW49149   4.931   5.890   2.333
15903SOL    HW149150   5.001   5.825   2.327
15903SOL    HW249151   4.958   5.947   2.405
15904SOL     OW49152   4.304   6.312   2.534
15904SOL    HW149153   4.349   6.396   2.527
15904SOL    HW249154   4.239   6.313   2.463
15905SOL     OW49155   5.487   5.912   3.490
15905SOL    HW149156   5.461   5.984   3.433
15905SOL    HW249157   5.501   5.953   3.575
15906SOL     OW49158   5.454   6.515   3.373
15906SOL    HW149159   5.468   6.608   3.389
15906SOL    HW249160   5.447   6.508   3.277
15907SOL     OW49161   4.534   6.979   1.903
15907SOL    HW149162   4.545   6.980   1.998
15907SOL    HW249163   4.605   7.034   1.870
15908SOL     OW49164   4.386   7.368   2.776
15908SOL    HW149165   4.369   7.462   2.775
15908SOL    HW249166   4.481   7.361   2.788
15909SOL     OW49167   4.599   6.564   2.710
15909SOL    HW149168   4.649   6.490   2.746
15909SOL    HW249169   4.557   6.604   2.786
15910SOL     OW49170   4.830   6.626   1.952
15910SOL    HW149171   4.779   6.640   1.872
15910SOL    HW249172   4.883   6.549   1.934
15911SOL     OW49173   5.580   7.131   2.699
15911SOL    HW149174   5.580   7.058   2.637
15911SOL    HW249175   5.551   7.092   2.782
15912SOL     OW49176   3.933   6.864   3.696
15912SOL    HW149177   3.889   6.792   3.649
15912SOL    HW249178   3.880   6.876   3.775
15913SOL     OW49179   3.824   6.816   2.530
15913SOL    HW149180   3.818   6.773   2.615
15913SOL    HW249181   3.880   6.758   2.478
15914SOL     OW49182   4.403   7.003   3.489
15914SOL    HW149183   4.331   6.960   3.534
15914SOL    HW249184   4.407   7.091   3.527
15915SOL     OW49185   5.540   5.747   3.122
15915SOL    HW149186   5.612   5.686   3.137
15915SOL    HW249187   5.537   5.758   3.027
15916SOL     OW49188   4.121   6.019   2.366
15916SOL    HW149189   4.178   5.948   2.337
15916SOL    HW249190   4.079   5.985   2.444
15917SOL     OW49191   5.442   7.053   2.941
15917SOL    HW149192   5.350   7.032   2.929
15917SOL    HW249193   5.469   7.001   3.017
15918SOL     OW49194   4.062   6.135   3.157
15918SOL    HW149195   4.111   6.075   3.214
15918SOL    HW249196   4.076   6.102   3.069
15919SOL     OW49197   4.572   7.147   2.531
15919SOL    HW149198   4.540   7.225   2.486
15919SOL    HW249199   4.493   7.096   2.549
15920SOL     OW49200   5.146   5.817   2.972
15920SOL    HW149201   5.137   5.727   3.004
15920SOL    HW249202   5.106   5.871   3.040
15921SOL     OW49203   4.741   5.598   2.997
15921SOL    HW149204   4.683   5.523   2.995
15921SOL    HW249205   4.829   5.561   2.990
15922SOL     OW49206   4.497   6.920   2.203
15922SOL    HW149207   4.468   6.829   2.201
15922SOL    HW249208   4.582   6.917   2.247
15923SOL     OW49209   4.337   7.137   3.137
15923SOL    HW149210   4.330   7.222   3.180
15923SOL    HW249211   4.428   7.132   3.109
15924SOL     OW49212   5.085   5.614   2.051
15924SOL    HW149213   5.082   5.600   1.957
15924SOL    HW249214   5.002   5.579   2.083
15925SOL     OW49215   5.006   6.049   2.537
15925SOL    HW149216   4.964   6.135   2.541
15925SOL    HW249217   5.009   6.019   2.628
15926SOL     OW49218   5.304   5.779   2.744
15926SOL    HW149219   5.251   5.807   2.819
15926SOL    HW249220   5.306   5.856   2.687
15927SOL     OW49221   3.767   6.644   2.184
15927SOL    HW149222   3.861   6.643   2.164
15927SOL    HW249223   3.744   6.552   2.198
15928SOL     OW49224   4.631   7.230   2.198
15928SOL    HW149225   4.551   7.207   2.152
15928SOL    HW249226   4.606   7.301   2.257
15929SOL     OW49227   3.934   6.233   3.873
15929SOL    HW149228   3.850   6.213   3.916
15929SOL    HW249229   3.921   6.206   3.782
15930SOL     OW49230   3.928   5.892   4.723
15930SOL    HW149231   3.962   5.862   4.808
15930SOL    HW249232   3.847   5.843   4.711
15931SOL     OW49233   3.725   5.987   4.351
15931SOL    HW149234   3.646   6.025   4.391
15931SOL    HW249235   3.696   5.902   4.318
15932SOL     OW49236   4.304   6.876   4.920
15932SOL    HW149237   4.211   6.855   4.912
15932SOL    HW249238   4.306   6.970   4.940
15933SOL     OW49239   5.303   7.095   4.430
15933SOL    HW149240   5.256   7.068   4.509
15933SOL    HW249241   5.235   7.098   4.362
15934SOL     OW49242   4.852   6.285   4.410
15934SOL    HW149243   4.903   6.365   4.404
15934SOL    HW249244   4.804   6.293   4.493
15935SOL     OW49245   5.541   6.137   3.929
15935SOL    HW149246   5.482   6.149   3.855
15935SOL    HW249247   5.488   6.095   3.996
15936SOL     OW49248   4.483   6.725   4.771
15936SOL    HW149249   4.414   6.753   4.830
15936SOL    HW249250   4.515   6.806   4.731
15937SOL     OW49251   4.566   6.323   5.519
15937SOL    HW149252   4.530   6.388   5.580
15937SOL    HW249253   4.599   6.375   5.446
15938SOL     OW49254   4.411   6.590   4.360
15938SOL    HW149255   4.478   6.582   4.428
15938SOL    HW249256   4.345   6.647   4.398
15939SOL     OW49257   4.451   6.742   5.537
15939SOL    HW149258   4.492   6.824   5.565
15939SOL    HW249259   4.368   6.769   5.497
15940SOL     OW49260   4.002   7.062   4.775
15940SOL    HW149261   3.977   6.979   4.736
15940SOL    HW249262   4.077   7.091   4.724
15941SOL     OW49263   5.178   7.082   5.089
15941SOL    HW149264   5.237   7.157   5.089
15941SOL    HW249265   5.115   7.102   5.159
15942SOL     OW49266   4.231   6.006   5.263
15942SOL    HW149267   4.292   5.933   5.255
15942SOL    HW249268   4.151   5.976   5.218
15943SOL     OW49269   5.313   6.036   4.464
15943SOL    HW149270   5.226   6.041   4.425
15943SOL    HW249271   5.310   6.095   4.539
15944SOL     OW49272   3.961   7.301   4.212
15944SOL    HW149273   3.981   7.379   4.263
15944SOL    HW249274   4.035   7.290   4.153
15945SOL     OW49275   4.847   6.934   5.418
15945SOL    HW149276   4.903   6.914   5.493
15945SOL    HW249277   4.801   6.852   5.400
15946SOL     OW49278   3.957   7.026   4.261
15946SOL    HW149279   3.942   7.120   4.266
15946SOL    HW249280   3.899   6.989   4.328
15947SOL     OW49281   4.000   6.686   4.640
15947SOL    HW149282   3.997   6.594   4.666
15947SOL    HW249283   3.919   6.724   4.674
15948SOL     OW49284   4.320   7.363   5.179
15948SOL    HW149285   4.235   7.365   5.223
15948SOL    HW249286   4.350   7.454   5.181
15949SOL     OW49287   4.299   6.576   3.868
15949SOL    HW149288   4.350   6.617   3.798
15949SOL    HW249289   4.340   6.607   3.949
15950SOL     OW49290   5.327   5.758   5.200
15950SOL    HW149291   5.343   5.666   5.178
15950SOL    HW249292   5.280   5.754   5.283
15951SOL     OW49293   3.844   6.244   4.284
15951SOL    HW149294   3.814   6.155   4.301
15951SOL    HW249295   3.832   6.290   4.367
15952SOL     OW49296   5.566   7.334   4.063
15952SOL    HW149297   5.640   7.308   4.119
15952SOL    HW249298   5.584   7.425   4.040
15953SOL     OW49299   3.753   7.180   3.828
15953SOL    HW149300   3.737   7.089   3.854
15953SOL    HW249301   3.732   7.231   3.906
15954SOL     OW49302   5.419   6.456   4.327
15954SOL    HW149303   5.507   6.463   4.366
15954SOL    HW249304   5.413   6.534   4.271
15955SOL     OW49305   5.387   6.670   4.146
15955SOL    HW149306   5.471   6.670   4.101
15955SOL    HW249307   5.393   6.743   4.208
15956SOL     OW49308   3.842   6.326   5.308
15956SOL    HW149309   3.927   6.368   5.322
15956SOL    HW249310   3.779   6.398   5.312
15957SOL     OW49311   4.335   6.978   4.460
15957SOL    HW149312   4.293   6.892   4.467
15957SOL    HW249313   4.323   7.002   4.368
15958SOL     OW49314   5.001   6.818   5.154
15958SOL    HW149315   5.024   6.752   5.088
15958SOL    HW249316   5.074   6.816   5.216
15959SOL     OW49317   4.549   5.574   4.214
15959SOL    HW149318   4.604   5.610   4.283
15959SOL    HW249319   4.461   5.607   4.234
15960SOL     OW49320   3.912   6.565   4.983
15960SOL    HW149321   3.949   6.480   4.959
15960SOL    HW249322   3.818   6.554   4.969
15961SOL     OW49323   5.241   6.591   3.933
15961SOL    HW149324   5.204   6.508   3.964
15961SOL    HW249325   5.298   6.620   4.005
15962SOL     OW49326   4.903   7.395   5.360
15962SOL    HW149327   4.906   7.462   5.291
15962SOL    HW249328   4.921   7.313   5.315
15963SOL     OW49329   4.065   5.855   5.560
15963SOL    HW149330   4.049   5.898   5.476
15963SOL    HW249331   3.978   5.843   5.598
15964SOL     OW49332   5.166   7.008   4.647
15964SOL    HW149333   5.115   7.018   4.727
15964SOL    HW249334   5.160   6.915   4.625
15965SOL     OW49335   5.369   7.346   4.303
15965SOL    HW149336   5.374   7.302   4.218
15965SOL    HW249337   5.363   7.274   4.366
15966SOL     OW49338   4.310   6.307   3.995
15966SOL    HW149339   4.313   6.395   3.957
15966SOL    HW249340   4.247   6.313   4.066
15967SOL     OW49341   5.004   5.955   4.657
15967SOL    HW149342   4.918   5.913   4.653
15967SOL    HW249343   5.056   5.899   4.715
15968SOL     OW49344   5.304   7.248   4.028
15968SOL    HW149345   5.396   7.276   4.026
15968SOL    HW249346   5.275   7.254   3.937
15969SOL     OW49347   4.458   6.151   5.222
15969SOL    HW149348   4.372   6.114   5.240
15969SOL    HW249349   4.481   6.118   5.135
15970SOL     OW49350   5.121   6.061   5.399
15970SOL    HW149351   5.135   6.102   5.485
15970SOL    HW249352   5.170   5.978   5.405
15971SOL     OW49353   4.672   6.457   5.309
15971SOL    HW149354   4.726   6.389   5.268
15971SOL    HW249355   4.629   6.501   5.236
15972SOL     OW49356   4.724   6.002   4.938
15972SOL    HW149357   4.630   6.004   4.957
15972SOL    HW249358   4.732   5.943   4.864
15973SOL     OW49359   4.772   6.292   4.144
15973SOL    HW149360   4.793   6.281   4.237
15973SOL    HW249361   4.690   6.243   4.133
15974SOL     OW49362   3.807   6.404   4.504
15974SOL    HW149363   3.839   6.368   4.586
15974SOL    HW249364   3.762   6.485   4.528
15975SOL     OW49365   3.828   7.435   5.287
15975SOL    HW149366   3.828   7.413   5.380
15975SOL    HW249367   3.747   7.486   5.275
15976SOL     OW49368   4.562   5.946   3.905
15976SOL    HW149369   4.635   5.929   3.845
15976SOL    HW249370   4.501   5.873   3.891
15977SOL     OW49371   5.416   6.158   5.555
15977SOL    HW149372   5.388   6.233   5.504
15977SOL    HW249373   5.436   6.091   5.490
15978SOL     OW49374   5.104   6.738   4.204
15978SOL    HW149375   5.187   6.705   4.239
15978SOL    HW249376   5.062   6.782   4.277
15979SOL     OW49377   4.266   5.756   4.616
15979SOL    HW149378   4.280   5.782   4.707
15979SOL    HW249379   4.267   5.838   4.566
15980SOL     OW49380   4.714   7.027   4.190
15980SOL    HW149381   4.688   7.107   4.143
15980SOL    HW249382   4.698   7.048   4.282
15981SOL     OW49383   4.083   7.405   4.607
15981SOL    HW149384   4.133   7.323   4.606
15981SOL    HW249385   4.149   7.473   4.619
15982SOL     OW49386   5.502   6.628   4.594
15982SOL    HW149387   5.438   6.655   4.529
15982SOL    HW249388   5.453   6.626   4.677
15983SOL     OW49389   4.943   7.133   5.243
15983SOL    HW149390   4.928   7.056   5.298
15983SOL    HW249391   4.895   7.114   5.162
15984SOL     OW49392   4.030   6.543   3.973
15984SOL    HW149393   4.117   6.558   3.936
15984SOL    HW249394   4.010   6.452   3.952
15985SOL     OW49395   5.195   6.332   4.437
15985SOL    HW149396   5.201   6.289   4.522
15985SOL    HW249397   5.278   6.378   4.427
15986SOL     OW49398   4.203   6.833   5.448
15986SOL    HW149399   4.167   6.842   5.360
15986SOL    HW249400   4.126   6.831   5.505
15987SOL     OW49401   4.850   7.368   3.944
15987SOL    HW149402   4.774   7.330   3.989
15987SOL    HW249403   4.874   7.303   3.878
15988SOL     OW49404   3.921   5.878   5.298
15988SOL    HW149405   3.950   5.879   5.206
15988SOL    HW249406   3.888   5.789   5.311
15989SOL     OW49407   5.275   6.942   3.756
15989SOL    HW149408   5.365   6.972   3.748
15989SOL    HW249409   5.236   7.002   3.820
15990SOL     OW49410   4.190   7.313   4.050
15990SOL    HW149411   4.234   7.375   4.108
15990SOL    HW249412   4.258   7.285   3.989
15991SOL     OW49413   5.142   5.684   4.154
15991SOL    HW149414   5.143   5.652   4.064
15991SOL    HW249415   5.235   5.698   4.175
15992SOL     OW49416   4.013   7.380   4.941
15992SOL    HW149417   4.032   7.296   4.983
15992SOL    HW249418   4.020   7.362   4.847
15993SOL     OW49419   4.671   7.281   4.619
15993SOL    HW149420   4.757   7.241   4.628
15993SOL    HW249421   4.628   7.231   4.550
15994SOL     OW49422   4.116   6.282   4.197
15994SOL    HW149423   4.139   6.190   4.213
15994SOL    HW249424   4.021   6.286   4.209
15995SOL     OW49425   5.225   5.802   5.461
15995SOL    HW149426   5.237   5.827   5.553
15995SOL    HW249427   5.166   5.726   5.465
15996SOL     OW49428   4.518   5.872   5.523
15996SOL    HW149429   4.588   5.812   5.497
15996SOL    HW249430   4.453   5.817   5.565
15997SOL     OW49431   4.594   7.111   4.924
15997SOL    HW149432   4.582   7.075   4.836
15997SOL    HW249433   4.667   7.060   4.961
15998SOL     OW49434   5.059   6.184   5.159
15998SOL    HW149435   5.100   6.143   5.236
15998SOL    HW249436   5.108   6.265   5.146
15999SOL     OW49437   4.544   6.978   4.672
15999SOL    HW149438   4.629   6.962   4.632
15999SOL    HW249439   4.484   6.985   4.598
16000SOL     OW49440   4.622   6.083   4.638
16000SOL    HW149441   4.610   6.080   4.543
16000SOL    HW249442   4.661   5.998   4.660
16001SOL     OW49443   4.277   5.650   4.216
16001SOL    HW149444   4.198   5.647   4.271
16001SOL    HW249445   4.268   5.732   4.167
16002SOL     OW49446   4.041   5.627   3.902
16002SOL    HW149447   4.122   5.663   3.865
16002SOL    HW249448   4.070   5.558   3.961
16003SOL     OW49449   4.666   5.897   4.197
16003SOL    HW149450   4.649   5.838   4.124
16003SOL    HW249451   4.709   5.841   4.262
16004SOL     OW49452   4.798   6.249   5.183
16004SOL    HW149453   4.761   6.161   5.186
16004SOL    HW249454   4.893   6.236   5.177
16005SOL     OW49455   4.932   7.163   4.527
16005SOL    HW149456   4.957   7.228   4.461
16005SOL    HW249457   5.014   7.143   4.572
16006SOL     OW49458   4.195   6.738   4.453
16006SOL    HW149459   4.132   6.721   4.523
16006SOL    HW249460   4.146   6.725   4.372
16007SOL     OW49461   4.991   7.377   4.338
16007SOL    HW149462   5.044   7.435   4.283
16007SOL    HW249463   4.928   7.435   4.381
16008SOL     OW49464   4.766   6.128   3.732
16008SOL    HW149465   4.708   6.204   3.735
16008SOL    HW249466   4.806   6.125   3.819
16009SOL     OW49467   3.801   6.152   5.101
16009SOL    HW149468   3.893   6.135   5.084
16009SOL    HW249469   3.801   6.217   5.172
16010SOL     OW49470   4.310   5.803   4.884
16010SOL    HW149471   4.330   5.711   4.906
16010SOL    HW249472   4.227   5.821   4.928
16011SOL     OW49473   4.561   6.079   4.372
16011SOL    HW149474   4.532   6.129   4.296
16011SOL    HW249475   4.604   6.002   4.335
16012SOL     OW49476   5.193   6.191   4.680
16012SOL    HW149477   5.130   6.120   4.691
16012SOL    HW249478   5.249   6.187   4.757
16013SOL     OW49479   5.608   6.381   4.069
16013SOL    HW149480   5.646   6.347   4.150
16013SOL    HW249481   5.566   6.306   4.029
16014SOL     OW49482   4.211   7.004   3.866
16014SOL    HW149483   4.139   6.975   3.921
16014SOL    HW249484   4.211   6.942   3.792
16015SOL     OW49485   5.418   6.859   4.328
16015SOL    HW149486   5.509   6.854   4.355
16015SOL    HW249487   5.384   6.937   4.371
16016SOL     OW49488   5.118   6.157   3.801
16016SOL    HW149489   5.041   6.143   3.856
16016SOL    HW249490   5.191   6.125   3.853
16017SOL     OW49491   4.244   5.866   4.046
16017SOL    HW149492   4.276   5.809   3.976
16017SOL    HW249493   4.215   5.945   4.001
16018SOL     OW49494   5.483   6.818   5.298
16018SOL    HW149495   5.551   6.809   5.231
16018SOL    HW249496   5.475   6.912   5.313
16019SOL     OW49497   4.775   6.953   5.068
16019SOL    HW149498   4.699   6.912   5.110
16019SOL    HW249499   4.850   6.902   5.100
16020SOL     OW49500   5.327   7.223   5.391
16020SOL    HW149501   5.313   7.254   5.302
16020SOL    HW249502   5.412   7.178   5.387
16021SOL     OW49503   4.861   6.810   4.835
16021SOL    HW149504   4.791   6.851   4.885
16021SOL    HW249505   4.840   6.830   4.743
16022SOL     OW49506   5.339   6.662   4.811
16022SOL    HW149507   5.320   6.724   4.881
16022SOL    HW249508   5.271   6.678   4.746
16023SOL     OW49509   4.632   5.687   5.107
16023SOL    HW149510   4.656   5.657   5.019
16023SOL    HW249511   4.714   5.721   5.143
16024SOL     OW49512   4.710   6.689   5.450
16024SOL    HW149513   4.618   6.706   5.469
16024SOL    HW249514   4.709   6.612   5.392
16025SOL     OW49515   4.446   6.647   4.089
16025SOL    HW149516   4.433   6.627   4.182
16025SOL    HW249517   4.519   6.591   4.062
16026SOL     OW49518   4.197   6.399   4.944
16026SOL    HW149519   4.239   6.430   5.024
16026SOL    HW249520   4.143   6.325   4.972
16027SOL     OW49521   4.991   5.960   5.005
16027SOL    HW149522   5.024   6.039   5.049
16027SOL    HW249523   4.903   5.983   4.977
16028SOL     OW49524   3.791   7.210   5.049
16028SOL    HW149525   3.808   7.283   5.108
16028SOL    HW249526   3.861   7.147   5.067
16029SOL     OW49527   4.055   6.705   4.216
16029SOL    HW149528   4.055   6.779   4.156
16029SOL    HW249529   4.050   6.628   4.159
16030SOL     OW49530   4.302   6.151   4.591
16030SOL    HW149531   4.287   6.198   4.510
16030SOL    HW249532   4.380   6.098   4.575
16031SOL     OW49533   4.955   6.959   4.077
16031SOL    HW149534   5.020   7.014   4.121
16031SOL    HW249535   4.874   6.975   4.126
16032SOL     OW49536   5.017   7.045   4.871
16032SOL    HW149537   5.074   7.049   4.948
16032SOL    HW249538   4.972   6.961   4.878
16033SOL     OW49539   5.307   6.235   4.187
16033SOL    HW149540   5.240   6.232   4.255
16033SOL    HW249541   5.363   6.308   4.212
16034SOL     OW49542   4.065   7.120   5.035
16034SOL    HW149543   4.047   7.086   4.948
16034SOL    HW249544   4.160   7.126   5.039
16035SOL     OW49545   4.138   6.333   5.338
16035SOL    HW149546   4.204   6.369   5.279
16035SOL    HW249547   4.136   6.240   5.318
16036SOL     OW49548   5.338   6.379   5.414
16036SOL    HW149549   5.251   6.415   5.397
16036SOL    HW249550   5.393   6.413   5.343
16037SOL     OW49551   4.724   5.710   5.464
16037SOL    HW149552   4.799   5.716   5.404
16037SOL    HW249553   4.722   5.618   5.490
16038SOL     OW49554   4.237   5.670   5.445
16038SOL    HW149555   4.188   5.600   5.404
16038SOL    HW249556   4.171   5.730   5.480
16039SOL     OW49557   5.072   6.443   4.757
16039SOL    HW149558   5.093   6.506   4.688
16039SOL    HW249559   5.112   6.361   4.727
16040SOL     OW49560   4.912   6.125   3.975
16040SOL    HW149561   4.939   6.051   4.028
16040SOL    HW249562   4.861   6.180   4.035
16041SOL     OW49563   3.792   6.918   5.008
16041SOL    HW149564   3.826   6.849   5.064
16041SOL    HW249565   3.698   6.918   5.023
16042SOL     OW49566   4.486   6.281   4.779
16042SOL    HW149567   4.518   6.200   4.738
16042SOL    HW249568   4.563   6.337   4.784
16043SOL     OW49569   5.468   6.545   5.592
16043SOL    HW149570   5.430   6.481   5.532
16043SOL    HW249571   5.402   6.557   5.660
16044SOL     OW49572   4.033   5.650   4.349
16044SOL    HW149573   4.008   5.738   4.376
16044SOL    HW249574   4.043   5.602   4.431
16045SOL     OW49575   5.357   5.982   4.077
16045SOL    HW149576   5.364   5.913   4.144
16045SOL    HW249577   5.325   6.058   4.125
16046SOL     OW49578   4.739   6.340   4.666
16046SOL    HW149579   4.784   6.358   4.749
16046SOL    HW249580   4.722   6.246   4.669
16047SOL     OW49581   4.682   7.153   5.437
16047SOL    HW149582   4.678   7.197   5.352
16047SOL    HW249583   4.733   7.074   5.421
16048SOL     OW49584   5.571   7.107   5.343
16048SOL    HW149585   5.581   7.122   5.249
16048SOL    HW249586   5.658   7.078   5.371
16049SOL     OW49587   4.086   6.488   5.561
16049SOL    HW149588   4.172   6.525   5.578
16049SOL    HW249589   4.098   6.431   5.485
16050SOL     OW49590   5.261   5.857   3.842
16050SOL    HW149591   5.197   5.792   3.870
16050SOL    HW249592   5.291   5.897   3.923
16051SOL     OW49593   4.999   6.407   3.737
16051SOL    HW149594   5.043   6.322   3.746
16051SOL    HW249595   5.038   6.446   3.659
16052SOL     OW49596   4.789   6.916   4.580
16052SOL    HW149597   4.801   6.844   4.518
16052SOL    HW249598   4.850   6.983   4.550
16053SOL     OW49599   4.061   6.383   4.642
16053SOL    HW149600   4.069   6.373   4.547
16053SOL    HW249601   4.035   6.296   4.673
16054SOL     OW49602   4.064   6.128   4.725
16054SOL    HW149603   4.013   6.046   4.727
16054SOL    HW249604   4.144   6.106   4.678
16055SOL     OW49605   4.852   6.010   5.376
16055SOL    HW149606   4.829   6.025   5.468
16055SOL    HW249607   4.946   6.025   5.372
16056SOL     OW49608   4.867   5.797   5.197
16056SOL    HW149609   4.859   5.870   5.259
16056SOL    HW249610   4.923   5.832   5.127
16057SOL     OW49611   3.743   6.897   3.902
16057SOL    HW149612   3.655   6.912   3.868
16057SOL    HW249613   3.736   6.812   3.947
16058SOL     OW49614   3.822   7.339   4.673
16058SOL    HW149615   3.793   7.279   4.604
16058SOL    HW249616   3.908   7.370   4.643
16059SOL     OW49617   4.217   7.160   4.633
16059SOL    HW149618   4.289   7.219   4.655
16059SOL    HW249619   4.257   7.096   4.574
16060SOL     OW49620   4.696   6.375   4.951
16060SOL    HW149621   4.767   6.363   5.014
16060SOL    HW249622   4.635   6.303   4.968
16061SOL     OW49623   3.757   6.146   4.829
16061SOL    HW149624   3.792   6.060   4.806
16061SOL    HW249625   3.772   6.154   4.923
16062SOL     OW49626   3.903   6.101   5.460
16062SOL    HW149627   3.902   6.029   5.398
16062SOL    HW249628   3.873   6.177   5.410
16063SOL     OW49629   5.099   6.526   5.386
16063SOL    HW149630   5.128   6.616   5.376
16063SOL    HW249631   5.095   6.491   5.297
16064SOL     OW49632   4.540   6.168   4.086
16064SOL    HW149633   4.550   6.082   4.044
16064SOL    HW249634   4.460   6.204   4.046
16065SOL     OW49635   5.373   6.192   4.888
16065SOL    HW149636   5.370   6.133   4.964
16065SOL    HW249637   5.461   6.179   4.852
16066SOL     OW49638   3.974   7.143   5.451
16066SOL    HW149639   3.927   7.189   5.521
16066SOL    HW249640   3.983   7.053   5.482
16067SOL     OW49641   4.447   6.034   4.966
16067SOL    HW149642   4.410   5.946   4.960
16067SOL    HW249643   4.395   6.087   4.906
16068SOL     OW49644   4.634   7.266   5.193
16068SOL    HW149645   4.624   7.223   5.108
16068SOL    HW249646   4.632   7.360   5.172
16069SOL     OW49647   4.171   6.088   3.904
16069SOL    HW149648   4.234   6.157   3.925
16069SOL    HW249649   4.087   6.132   3.898
16070SOL     OW49650   3.881   6.728   5.196
16070SOL    HW149651   3.872   6.676   5.277
16070SOL    HW249652   3.890   6.663   5.127
16071SOL     OW49653   5.019   6.620   4.955
16071SOL    HW149654   5.043   6.555   4.888
16071SOL    HW249655   4.967   6.685   4.908
16072SOL     OW49656   5.008   6.463   4.037
16072SOL    HW149657   4.981   6.430   4.122
16072SOL    HW249658   4.984   6.394   3.975
16073SOL     OW49659   5.517   7.333   4.894
16073SOL    HW149660   5.570   7.351   4.816
16073SOL    HW249661   5.471   7.251   4.874
16074SOL     OW49662   4.966   7.318   4.835
16074SOL    HW149663   5.047   7.347   4.794
16074SOL    HW249664   4.978   7.224   4.848
16075SOL     OW49665   3.782   6.877   4.739
16075SOL    HW149666   3.794   6.868   4.834
16075SOL    HW249667   3.701   6.829   4.721
16076SOL     OW49668   4.421   7.258   5.450
16076SOL    HW149669   4.401   7.295   5.364
16076SOL    HW249670   4.514   7.237   5.446
16077SOL     OW49671   5.427   5.735   4.223
16077SOL    HW149672   5.500   5.713   4.165
16077SOL    HW249673   5.415   5.656   4.276
16078SOL     OW49674   5.116   7.151   4.210
16078SOL    HW149675   5.179   7.186   4.147
16078SOL    HW249676   5.071   7.228   4.245
16079SOL     OW49677   3.883   7.406   5.569
16079SOL    HW149678   3.831   7.331   5.599
16079SOL    HW249679   3.888   7.464   5.645
16080SOL     OW49680   5.000   6.511   4.387
16080SOL    HW149681   5.068   6.443   4.391
16080SOL    HW249682   5.036   6.584   4.437
16081SOL     OW49683   4.525   6.860   5.144
16081SOL    HW149684   4.495   6.902   5.225
16081SOL    HW249685   4.454   6.875   5.082
16082SOL     OW49686   4.391   7.204   3.884
16082SOL    HW149687   4.401   7.228   3.792
16082SOL    HW249688   4.334   7.127   3.883
16083SOL     OW49689   5.332   7.310   5.121
16083SOL    HW149690   5.394   7.310   5.048
16083SOL    HW249691   5.316   7.402   5.139
16084SOL     OW49692   5.572   5.749   4.698
16084SOL    HW149693   5.590   5.656   4.682
16084SOL    HW249694   5.483   5.762   4.665
16085SOL     OW49695   3.977   5.907   4.444
16085SOL    HW149696   3.890   5.937   4.415
16085SOL    HW249697   3.968   5.897   4.539
16086SOL     OW49698   4.925   7.189   3.749
16086SOL    HW149699   4.916   7.097   3.773
16086SOL    HW249700   4.855   7.204   3.686
16087SOL     OW49701   4.553   6.588   5.106
16087SOL    HW149702   4.598   6.572   5.022
16087SOL    HW249703   4.548   6.683   5.113
16088SOL     OW49704   4.651   6.495   3.983
16088SOL    HW149705   4.728   6.538   3.946
16088SOL    HW249706   4.687   6.427   4.040
16089SOL     OW49707   5.195   7.257   3.769
16089SOL    HW149708   5.105   7.230   3.750
16089SOL    HW249709   5.241   7.245   3.686
16090SOL     OW49710   4.096   6.892   5.206
16090SOL    HW149711   4.069   6.969   5.156
16090SOL    HW249712   4.021   6.833   5.202
16091SOL     OW49713   5.301   6.845   5.011
16091SOL    HW149714   5.393   6.865   5.026
16091SOL    HW249715   5.255   6.923   5.042
16092SOL     OW49716   4.779   6.689   4.421
16092SOL    HW149717   4.711   6.639   4.465
16092SOL    HW249718   4.849   6.626   4.404
16093SOL     OW49719   4.742   5.834   4.701
16093SOL    HW149720   4.747   5.799   4.612
16093SOL    HW249721   4.737   5.757   4.757
16094SOL     OW49722   4.332   7.069   4.202
16094SOL    HW149723   4.381   7.021   4.136
16094SOL    HW249724   4.261   7.112   4.154
16095SOL     OW49725   5.445   6.019   5.095
16095SOL    HW149726   5.534   6.053   5.091
16095SOL    HW249727   5.453   5.928   5.067
16096SOL     OW49728   3.997   6.924   4.018
16096SOL    HW149729   3.908   6.922   3.984
16096SOL    HW249730   3.989   6.965   4.104
16097SOL     OW49731   3.840   6.599   5.435
16097SOL    HW149732   3.762   6.588   5.489
16097SOL    HW249733   3.913   6.593   5.496
16098SOL     OW49734   4.415   5.805   5.233
16098SOL    HW149735   4.490   5.765   5.189
16098SOL    HW249736   4.400   5.749   5.309
16099SOL     OW49737   3.791   5.911   3.767
16099SOL    HW149738   3.730   5.881   3.699
16099SOL    HW249739   3.818   5.999   3.738
16100SOL     OW49740   5.150   6.449   5.129
16100SOL    HW149741   5.098   6.507   5.073
16100SOL    HW249742   5.236   6.448   5.088
16101SOL     OW49743   3.798   5.737   4.004
16101SOL    HW149744   3.792   5.810   3.942
16101SOL    HW249745   3.887   5.703   3.992
16102SOL     OW49746   4.886   6.928   3.823
16102SOL    HW149747   4.794   6.902   3.829
16102SOL    HW249748   4.912   6.945   3.913
16103SOL     OW49749   4.348   6.415   5.175
16103SOL    HW149750   4.413   6.483   5.156
16103SOL    HW249751   4.401   6.336   5.188
16104SOL     OW49752   5.208   7.382   4.718
16104SOL    HW149753   5.242   7.444   4.653
16104SOL    HW249754   5.278   7.317   4.728
16105SOL     OW49755   5.206   6.780   5.356
16105SOL    HW149756   5.212   6.799   5.450
16105SOL    HW249757   5.296   6.788   5.324
16106SOL     OW49758   4.092   7.361   5.333
16106SOL    HW149759   4.012   7.390   5.289
16106SOL    HW249760   4.073   7.271   5.361
16107SOL     OW49761   5.387   6.456   4.989
16107SOL    HW149762   5.386   6.372   4.944
16107SOL    HW249763   5.375   6.521   4.920
16108SOL     OW49764   5.005   5.935   4.147
16108SOL    HW149765   5.025   5.842   4.157
16108SOL    HW249766   4.997   5.967   4.237
16109SOL     OW49767   4.262   6.361   4.418
16109SOL    HW149768   4.323   6.429   4.390
16109SOL    HW249769   4.216   6.335   4.338
16110SOL     OW49770   5.464   5.963   5.370
16110SOL    HW149771   5.453   5.990   5.278
16110SOL    HW249772   5.413   5.883   5.378
16111SOL     OW49773   5.493   6.518   5.237
16111SOL    HW149774   5.483   6.612   5.249
16111SOL    HW249775   5.468   6.502   5.146
16112SOL     OW49776   4.589   6.947   3.775
16112SOL    HW149777   4.552   6.963   3.861
16112SOL    HW249778   4.598   7.034   3.736
16113SOL     OW49779   4.394   7.365   4.663
16113SOL    HW149780   4.380   7.457   4.641
16113SOL    HW249781   4.489   7.353   4.657
16114SOL     OW49782   4.583   6.554   4.573
16114SOL    HW149783   4.639   6.484   4.608
16114SOL    HW249784   4.558   6.605   4.651
16115SOL     OW49785   4.859   6.619   3.829
16115SOL    HW149786   4.812   6.654   3.753
16115SOL    HW249787   4.903   6.541   3.797
16116SOL     OW49788   5.566   7.128   4.563
16116SOL    HW149789   5.483   7.107   4.519
16116SOL    HW249790   5.594   7.045   4.601
16117SOL     OW49791   3.812   6.827   4.409
16117SOL    HW149792   3.781   6.762   4.473
16117SOL    HW249793   3.878   6.781   4.358
16118SOL     OW49794   4.412   6.987   5.360
16118SOL    HW149795   4.333   6.940   5.387
16118SOL    HW249796   4.397   7.077   5.388
16119SOL     OW49797   5.562   5.779   4.982
16119SOL    HW149798   5.519   5.699   5.013
16119SOL    HW249799   5.561   5.772   4.887
16120SOL     OW49800   4.160   6.027   4.267
16120SOL    HW149801   4.193   5.962   4.204
16120SOL    HW249802   4.102   5.978   4.324
16121SOL     OW49803   5.392   7.104   4.838
16121SOL    HW149804   5.337   7.043   4.788
16121SOL    HW249805   5.448   7.048   4.891
16122SOL     OW49806   4.064   6.176   4.996
16122SOL    HW149807   4.076   6.086   5.026
16122SOL    HW249808   4.047   6.168   4.902
16123SOL     OW49809   4.554   7.176   4.395
16123SOL    HW149810   4.538   7.251   4.338
16123SOL    HW249811   4.477   7.120   4.383
16124SOL     OW49812   5.153   5.810   4.832
16124SOL    HW149813   5.163   5.720   4.862
16124SOL    HW249814   5.112   5.856   4.904
16125SOL     OW49815   4.730   5.603   4.858
16125SOL    HW149816   4.680   5.550   4.796
16125SOL    HW249817   4.815   5.560   4.863
16126SOL     OW49818   4.504   6.917   4.041
16126SOL    HW149819   4.481   6.825   4.056
16126SOL    HW249820   4.580   6.933   4.097
16127SOL     OW49821   4.337   7.143   5.011
16127SOL    HW149822   4.340   7.219   5.069
16127SOL    HW249823   4.425   7.134   4.977
16128SOL     OW49824   5.095   5.635   3.871
16128SOL    HW149825   5.125   5.550   3.840
16128SOL    HW249826   5.004   5.619   3.898
16129SOL     OW49827   5.039   6.058   4.403
16129SOL    HW149828   4.977   6.132   4.404
16129SOL    HW249829   5.019   6.010   4.483
16130SOL     OW49830   5.315   5.784   4.604
16130SOL    HW149831   5.259   5.799   4.680
16130SOL    HW249832   5.303   5.862   4.550
16131SOL     OW49833   3.767   6.646   4.028
16131SOL    HW149834   3.859   6.635   4.005
16131SOL    HW249835   3.738   6.559   4.054
16132SOL     OW49836   4.616   7.245   4.053
16132SOL    HW149837   4.540   7.231   3.997
16132SOL    HW249838   4.588   7.311   4.116
16133SOL     OW49839   3.905   6.191   5.738
16133SOL    HW149840   3.810   6.196   5.750
16133SOL    HW249841   3.916   6.177   5.644
16134SOL     OW49842   3.934   5.894   6.595
16134SOL    HW149843   3.976   5.843   6.665
16134SOL    HW249844   3.855   5.845   6.573
16135SOL     OW49845   3.718   5.974   6.221
16135SOL    HW149846   3.640   6.001   6.269
16135SOL    HW249847   3.693   5.893   6.178
16136SOL     OW49848   4.305   6.881   6.779
16136SOL    HW149849   4.221   6.869   6.735
16136SOL    HW249850   4.311   6.975   6.794
16137SOL     OW49851   5.274   7.108   6.288
16137SOL    HW149852   5.212   7.108   6.361
16137SOL    HW249853   5.219   7.113   6.210
16138SOL     OW49854   4.858   6.293   6.279
16138SOL    HW149855   4.914   6.371   6.281
16138SOL    HW249856   4.808   6.298   6.361
16139SOL     OW49857   5.531   6.192   5.797
16139SOL    HW149858   5.490   6.179   5.711
16139SOL    HW249859   5.475   6.142   5.857
16140SOL     OW49860   4.510   6.745   6.645
16140SOL    HW149861   4.435   6.774   6.697
16140SOL    HW249862   4.527   6.818   6.585
16141SOL     OW49863   4.618   6.344   7.412
16141SOL    HW149864   4.584   6.417   7.463
16141SOL    HW249865   4.636   6.381   7.326
16142SOL     OW49866   4.416   6.587   6.227
16142SOL    HW149867   4.481   6.582   6.298
16142SOL    HW249868   4.346   6.641   6.263
16143SOL     OW49869   4.421   6.730   7.379
16143SOL    HW149870   4.447   6.804   7.324
16143SOL    HW249871   4.326   6.724   7.368
16144SOL     OW49872   4.053   7.001   6.651
16144SOL    HW149873   3.983   6.958   6.603
16144SOL    HW249874   4.101   7.051   6.585
16145SOL     OW49875   5.191   7.076   6.955
16145SOL    HW149876   5.238   7.160   6.959
16145SOL    HW249877   5.119   7.087   7.016
16146SOL     OW49878   4.165   5.991   7.084
16146SOL    HW149879   4.241   5.934   7.078
16146SOL    HW249880   4.091   5.931   7.090
16147SOL     OW49881   5.332   6.027   6.340
16147SOL    HW149882   5.264   6.033   6.273
16147SOL    HW249883   5.369   6.116   6.345
16148SOL     OW49884   3.937   7.312   6.050
16148SOL    HW149885   3.965   7.384   6.107
16148SOL    HW249886   4.014   7.293   5.996
16149SOL     OW49887   4.868   6.922   7.292
16149SOL    HW149888   4.897   6.899   7.380
16149SOL    HW249889   4.826   6.842   7.259
16150SOL     OW49890   3.958   7.045   6.135
16150SOL    HW149891   3.922   7.132   6.121
16150SOL    HW249892   3.889   6.998   6.182
16151SOL     OW49893   4.007   6.674   6.496
16151SOL    HW149894   4.003   6.580   6.511
16151SOL    HW249895   3.927   6.708   6.536
16152SOL     OW49896   4.329   7.372   7.033
16152SOL    HW149897   4.241   7.360   7.070
16152SOL    HW249898   4.348   7.465   7.047
16153SOL     OW49899   4.335   6.568   5.711
16153SOL    HW149900   4.376   6.625   5.646
16153SOL    HW249901   4.362   6.604   5.795
16154SOL     OW49902   5.297   5.717   7.042
16154SOL    HW149903   5.250   5.786   6.995
16154SOL    HW249904   5.299   5.746   7.133
16155SOL     OW49905   3.851   6.200   6.129
16155SOL    HW149906   3.802   6.125   6.163
16155SOL    HW249907   3.856   6.261   6.202
16156SOL     OW49908   5.567   7.345   5.909
16156SOL    HW149909   5.641   7.321   5.965
16156SOL    HW249910   5.585   7.436   5.884
16157SOL     OW49911   3.777   7.188   5.681
16157SOL    HW149912   3.783   7.093   5.684
16157SOL    HW249913   3.738   7.213   5.765
16158SOL     OW49914   5.460   6.533   6.247
16158SOL    HW149915   5.456   6.439   6.233
16158SOL    HW249916   5.416   6.571   6.170
16159SOL     OW49917   5.361   6.703   6.021
16159SOL    HW149918   5.448   6.699   5.980
16159SOL    HW249919   5.374   6.756   6.099
16160SOL     OW49920   3.840   6.323   7.169
16160SOL    HW149921   3.928   6.360   7.164
16160SOL    HW249922   3.781   6.397   7.150
16161SOL     OW49923   4.323   6.981   6.319
16161SOL    HW149924   4.283   6.894   6.323
16161SOL    HW249925   4.306   7.011   6.229
16162SOL     OW49926   5.010   6.814   7.007
16162SOL    HW149927   5.037   6.750   6.941
16162SOL    HW249928   5.072   6.802   7.079
16163SOL     OW49929   4.554   5.614   6.110
16163SOL    HW149930   4.586   5.700   6.082
16163SOL    HW249931   4.460   5.627   6.124
16164SOL     OW49932   3.908   6.547   6.864
16164SOL    HW149933   3.993   6.507   6.846
16164SOL    HW249934   3.846   6.493   6.817
16165SOL     OW49935   5.265   6.575   5.785
16165SOL    HW149936   5.229   6.487   5.796
16165SOL    HW249937   5.297   6.599   5.872
16166SOL     OW49938   4.905   7.391   7.221
16166SOL    HW149939   4.906   7.460   7.153
16166SOL    HW249940   4.923   7.310   7.173
16167SOL     OW49941   4.054   5.844   7.437
16167SOL    HW149942   4.067   5.919   7.379
16167SOL    HW249943   3.961   5.846   7.459
16168SOL     OW49944   5.199   6.968   6.562
16168SOL    HW149945   5.124   7.007   6.606
16168SOL    HW249946   5.161   6.910   6.496
16169SOL     OW49947   5.381   7.344   6.166
16169SOL    HW149948   5.358   7.322   6.075
16169SOL    HW249949   5.352   7.268   6.217
16170SOL     OW49950   4.310   6.322   5.842
16170SOL    HW149951   4.344   6.390   5.783
16170SOL    HW249952   4.236   6.363   5.886
16171SOL     OW49953   4.996   5.962   6.526
16171SOL    HW149954   4.910   5.919   6.527
16171SOL    HW249955   5.052   5.903   6.577
16172SOL     OW49956   5.302   7.258   5.902
16172SOL    HW149957   5.395   7.281   5.890
16172SOL    HW249958   5.269   7.247   5.813
16173SOL     OW49959   4.468   6.205   7.050
16173SOL    HW149960   4.461   6.162   7.135
16173SOL    HW249961   4.453   6.135   6.986
16174SOL     OW49962   5.104   6.075   7.287
16174SOL    HW149963   5.130   6.090   7.378
16174SOL    HW249964   5.154   5.997   7.260
16175SOL     OW49965   4.684   6.457   7.169
16175SOL    HW149966   4.727   6.382   7.130
16175SOL    HW249967   4.630   6.494   7.099
16176SOL     OW49968   4.696   6.049   6.871
16176SOL    HW149969   4.602   6.034   6.861
16176SOL    HW249970   4.735   5.996   6.801
16177SOL     OW49971   4.781   6.290   6.009
16177SOL    HW149972   4.800   6.278   6.102
16177SOL    HW249973   4.698   6.245   5.996
16178SOL     OW49974   3.834   6.393   6.334
16178SOL    HW149975   3.905   6.387   6.398
16178SOL    HW249976   3.772   6.454   6.373
16179SOL     OW49977   3.846   7.460   7.170
16179SOL    HW149978   3.847   7.437   7.263
16179SOL    HW249979   3.769   7.414   7.135
16180SOL     OW49980   4.602   5.933   5.799
16180SOL    HW149981   4.674   5.941   5.737
16180SOL    HW249982   4.547   5.863   5.763
16181SOL     OW49983   5.516   6.184   7.359
16181SOL    HW149984   5.444   6.243   7.339
16181SOL    HW249985   5.491   6.101   7.318
16182SOL     OW49986   5.080   6.754   6.021
16182SOL    HW149987   5.175   6.738   6.019
16182SOL    HW249988   5.041   6.671   5.993
16183SOL     OW49989   4.247   5.751   6.475
16183SOL    HW149990   4.265   5.805   6.552
16183SOL    HW249991   4.260   5.811   6.401
16184SOL     OW49992   4.758   7.053   6.050
16184SOL    HW149993   4.722   7.113   5.985
16184SOL    HW249994   4.702   7.064   6.127
16185SOL     OW49995   4.080   7.405   6.462
16185SOL    HW149996   4.126   7.321   6.467
16185SOL    HW249997   4.149   7.471   6.475
16186SOL     OW49998   5.464   6.646   6.510
16186SOL    HW149999   5.451   6.641   6.415
16186SOL    HW250000   5.482   6.556   6.536
16187SOL     OW50001   4.955   7.124   7.110
16187SOL    HW150002   4.953   7.051   7.171
16187SOL    HW250003   4.892   7.100   7.041
16188SOL     OW50004   4.078   6.497   5.856
16188SOL    HW150005   4.133   6.549   5.797
16188SOL    HW250006   4.018   6.451   5.798
16189SOL     OW50007   5.183   6.357   6.362
16189SOL    HW150008   5.185   6.287   6.428
16189SOL    HW250009   5.234   6.322   6.289
16190SOL     OW50010   4.172   6.865   7.334
16190SOL    HW150011   4.151   6.874   7.241
16190SOL    HW250012   4.087   6.846   7.375
16191SOL     OW50013   4.861   7.349   5.825
16191SOL    HW150014   4.774   7.322   5.855
16191SOL    HW250015   4.879   7.290   5.752
16192SOL     OW50016   3.913   5.865   7.117
16192SOL    HW150017   3.831   5.890   7.076
16192SOL    HW250018   3.903   5.772   7.136
16193SOL     OW50019   5.356   6.983   5.697
16193SOL    HW150020   5.314   7.063   5.667
16193SOL    HW250021   5.295   6.913   5.673
16194SOL     OW50022   4.184   7.321   5.906
16194SOL    HW150023   4.233   7.366   5.975
16194SOL    HW250024   4.251   7.274   5.857
16195SOL     OW50025   5.115   5.691   6.020
16195SOL    HW150026   5.100   5.661   5.930
16195SOL    HW250027   5.206   5.668   6.038
16196SOL     OW50028   3.981   7.372   6.805
16196SOL    HW150029   4.028   7.293   6.834
16196SOL    HW250030   3.965   7.357   6.712
16197SOL     OW50031   5.250   5.802   7.312
16197SOL    HW150032   5.252   5.822   7.406
16197SOL    HW250033   5.181   5.737   7.303
16198SOL     OW50034   4.369   5.695   5.685
16198SOL    HW150035   4.377   5.614   5.736
16198SOL    HW250036   4.329   5.667   5.603
16199SOL     OW50037   4.484   5.846   7.365
16199SOL    HW150038   4.475   5.760   7.406
16199SOL    HW250039   4.395   5.881   7.361
16200SOL     OW50040   4.610   7.137   6.816
16200SOL    HW150041   4.630   7.164   6.726
16200SOL    HW250042   4.677   7.072   6.836
16201SOL     OW50043   5.099   6.243   7.069
16201SOL    HW150044   5.094   6.190   7.148
16201SOL    HW250045   5.113   6.180   6.998
16202SOL     OW50046   4.543   6.972   6.498
16202SOL    HW150047   4.585   7.058   6.496
16202SOL    HW250048   4.475   6.976   6.430
16203SOL     OW50049   4.647   6.096   6.486
16203SOL    HW150050   4.627   6.087   6.392
16203SOL    HW250051   4.679   6.009   6.511
16204SOL     OW50052   4.292   5.698   6.130
16204SOL    HW150053   4.207   5.662   6.156
16204SOL    HW250054   4.278   5.728   6.040
16205SOL     OW50055   5.171   6.785   5.637
16205SOL    HW150056   5.210   6.710   5.683
16205SOL    HW250057   5.077   6.763   5.631
16206SOL     OW50058   4.023   5.650   5.775
16206SOL    HW150059   4.096   5.691   5.729
16206SOL    HW250060   4.062   5.580   5.827
16207SOL     OW50061   4.673   5.859   6.053
16207SOL    HW150062   4.645   5.880   5.963
16207SOL    HW250063   4.769   5.862   6.050
16208SOL     OW50064   4.803   6.250   7.030
16208SOL    HW150065   4.761   6.173   6.993
16208SOL    HW250066   4.895   6.226   7.039
16209SOL     OW50067   5.012   7.189   6.395
16209SOL    HW150068   4.994   7.250   6.323
16209SOL    HW250069   4.928   7.180   6.440
16210SOL     OW50070   4.198   6.737   6.311
16210SOL    HW150071   4.133   6.716   6.378
16210SOL    HW250072   4.154   6.719   6.228
16211SOL     OW50073   4.992   7.381   6.197
16211SOL    HW150074   5.034   7.443   6.137
16211SOL    HW250075   4.912   7.426   6.226
16212SOL     OW50076   4.753   6.123   5.610
16212SOL    HW150077   4.743   6.218   5.604
16212SOL    HW250078   4.810   6.110   5.686
16213SOL     OW50079   3.819   6.137   6.970
16213SOL    HW150080   3.911   6.141   6.945
16213SOL    HW250081   3.809   6.201   7.040
16214SOL     OW50082   4.300   5.810   6.746
16214SOL    HW150083   4.339   5.724   6.727
16214SOL    HW250084   4.212   5.789   6.778
16215SOL     OW50085   4.589   6.060   6.224
16215SOL    HW150086   4.547   6.109   6.153
16215SOL    HW250087   4.617   5.978   6.183
16216SOL     OW50088   4.740   5.637   6.320
16216SOL    HW150089   4.680   5.629   6.246
16216SOL    HW250090   4.717   5.564   6.378
16217SOL     OW50091   5.173   6.723   6.427
16217SOL    HW150092   5.104   6.669   6.388
16217SOL    HW250093   5.234   6.740   6.354
16218SOL     OW50094   5.166   6.189   6.586
16218SOL    HW150095   5.114   6.111   6.570
16218SOL    HW250096   5.223   6.166   6.659
16219SOL     OW50097   5.620   6.406   5.946
16219SOL    HW150098   5.644   6.352   6.021
16219SOL    HW250099   5.573   6.346   5.888
16220SOL     OW50100   4.223   7.007   5.738
16220SOL    HW150101   4.183   6.965   5.814
16220SOL    HW250102   4.166   6.984   5.664
16221SOL     OW50103   5.382   6.848   6.256
16221SOL    HW150104   5.478   6.849   6.253
16221SOL    HW250105   5.357   6.940   6.264
16222SOL     OW50106   5.119   6.165   5.664
16222SOL    HW150107   5.057   6.130   5.728
16222SOL    HW250108   5.201   6.119   5.682
16223SOL     OW50109   4.266   5.847   5.897
16223SOL    HW150110   4.298   5.790   5.826
16223SOL    HW250111   4.234   5.925   5.852
16224SOL     OW50112   5.466   6.831   7.157
16224SOL    HW150113   5.533   6.771   7.189
16224SOL    HW250114   5.502   6.918   7.174
16225SOL     OW50115   4.786   6.968   6.958
16225SOL    HW150116   4.704   6.918   6.970
16225SOL    HW250117   4.855   6.903   6.967
16226SOL     OW50118   5.346   7.216   7.247
16226SOL    HW150119   5.329   7.252   7.160
16226SOL    HW250120   5.423   7.160   7.235
16227SOL     OW50121   4.827   6.811   6.692
16227SOL    HW150122   4.735   6.787   6.696
16227SOL    HW250123   4.840   6.840   6.602
16228SOL     OW50124   4.629   5.727   6.957
16228SOL    HW150125   4.637   5.684   6.872
16228SOL    HW250126   4.702   5.789   6.960
16229SOL     OW50127   4.695   6.690   7.311
16229SOL    HW150128   4.601   6.687   7.332
16229SOL    HW250129   4.708   6.617   7.250
16230SOL     OW50130   4.440   6.650   5.954
16230SOL    HW150131   4.423   6.627   6.046
16230SOL    HW250132   4.516   6.597   5.930
16231SOL     OW50133   4.148   6.413   6.837
16231SOL    HW150134   4.212   6.423   6.907
16231SOL    HW250135   4.117   6.323   6.845
16232SOL     OW50136   3.804   7.159   6.948
16232SOL    HW150137   3.772   7.224   6.884
16232SOL    HW250138   3.899   7.156   6.933
16233SOL     OW50139   4.073   6.683   6.075
16233SOL    HW150140   4.068   6.760   6.019
16233SOL    HW250141   4.068   6.609   6.014
16234SOL     OW50142   4.280   6.125   6.442
16234SOL    HW150143   4.294   6.185   6.368
16234SOL    HW250144   4.368   6.112   6.479
16235SOL     OW50145   5.001   7.049   6.733
16235SOL    HW150146   5.043   7.036   6.818
16235SOL    HW250147   4.930   6.985   6.731
16236SOL     OW50148   4.073   7.117   6.890
16236SOL    HW150149   4.060   7.070   6.807
16236SOL    HW250150   4.167   7.128   6.896
16237SOL     OW50151   4.127   6.335   7.188
16237SOL    HW150152   4.197   6.371   7.134
16237SOL    HW250153   4.137   6.240   7.180
16238SOL     OW50154   5.338   6.381   7.254
16238SOL    HW150155   5.246   6.361   7.236
16238SOL    HW250156   5.383   6.365   7.171
16239SOL     OW50157   4.217   5.642   7.343
16239SOL    HW150158   4.180   5.579   7.280
16239SOL    HW250159   4.148   5.707   7.355
16240SOL     OW50160   4.303   6.454   6.613
16240SOL    HW150161   4.326   6.547   6.614
16240SOL    HW250162   4.249   6.442   6.691
16241SOL     OW50163   5.067   6.441   6.637
16241SOL    HW150164   4.992   6.430   6.579
16241SOL    HW250165   5.115   6.359   6.629
16242SOL     OW50166   4.907   6.104   5.839
16242SOL    HW150167   4.927   6.029   5.894
16242SOL    HW250168   4.871   6.169   5.900
16243SOL     OW50169   4.036   5.771   6.827
16243SOL    HW150170   3.974   5.785   6.898
16243SOL    HW250171   4.030   5.677   6.808
16244SOL     OW50172   3.777   6.898   6.851
16244SOL    HW150173   3.806   6.837   6.919
16244SOL    HW250174   3.778   6.983   6.894
16245SOL     OW50175   4.471   6.229   6.657
16245SOL    HW150176   4.527   6.197   6.587
16245SOL    HW250177   4.420   6.299   6.617
16246SOL     OW50178   5.437   6.562   7.444
16246SOL    HW150179   5.419   6.513   7.363
16246SOL    HW250180   5.388   6.516   7.511
16247SOL     OW50181   4.037   5.643   6.217
16247SOL    HW150182   4.006   5.728   6.247
16247SOL    HW250183   4.039   5.589   6.297
16248SOL     OW50184   5.341   5.981   5.960
16248SOL    HW150185   5.369   5.915   6.024
16248SOL    HW250186   5.333   6.061   6.012
16249SOL     OW50187   4.750   6.346   6.543
16249SOL    HW150188   4.740   6.362   6.637
16249SOL    HW250189   4.724   6.255   6.531
16250SOL     OW50190   4.689   7.124   7.318
16250SOL    HW150191   4.671   7.180   7.242
16250SOL    HW250192   4.753   7.061   7.286
16251SOL     OW50193   5.583   7.080   7.187
16251SOL    HW150194   5.601   7.110   7.098
16251SOL    HW250195   5.663   7.097   7.235
16252SOL     OW50196   4.086   6.510   7.394
16252SOL    HW150197   4.168   6.501   7.442
16252SOL    HW250198   4.093   6.446   7.323
16253SOL     OW50199   5.230   5.873   5.726
16253SOL    HW150200   5.179   5.796   5.750
16253SOL    HW250201   5.268   5.904   5.808
16254SOL     OW50202   5.022   6.424   5.634
16254SOL    HW150203   5.056   6.334   5.640
16254SOL    HW250204   5.050   6.454   5.548
16255SOL     OW50205   4.856   6.901   6.440
16255SOL    HW150206   4.830   6.832   6.379
16255SOL    HW250207   4.795   6.973   6.423
16256SOL     OW50208   4.033   6.393   6.528
16256SOL    HW150209   4.128   6.406   6.526
16256SOL    HW250210   4.022   6.304   6.562
16257SOL     OW50211   4.069   6.126   6.607
16257SOL    HW150212   4.022   6.044   6.593
16257SOL    HW250213   4.142   6.123   6.545
16258SOL     OW50214   4.853   5.960   7.286
16258SOL    HW150215   4.806   6.008   7.355
16258SOL    HW250216   4.937   6.005   7.279
16259SOL     OW50217   4.871   5.797   7.075
16259SOL    HW150218   4.861   5.857   7.148
16259SOL    HW250219   4.943   5.834   7.023
16260SOL     OW50220   3.695   6.956   5.851
16260SOL    HW150221   3.616   6.964   5.798
16260SOL    HW250222   3.744   6.885   5.809
16261SOL     OW50223   3.817   7.362   6.535
16261SOL    HW150224   3.787   7.283   6.492
16261SOL    HW250225   3.903   7.379   6.497
16262SOL     OW50226   4.214   7.163   6.495
16262SOL    HW150227   4.286   7.222   6.517
16262SOL    HW250228   4.252   7.101   6.432
16263SOL     OW50229   4.679   6.378   6.812
16263SOL    HW150230   4.729   6.339   6.883
16263SOL    HW250231   4.607   6.316   6.797
16264SOL     OW50232   3.753   6.120   6.701
16264SOL    HW150233   3.809   6.059   6.652
16264SOL    HW250234   3.790   6.121   6.789
16265SOL     OW50235   3.918   6.090   7.307
16265SOL    HW150236   3.919   6.023   7.239
16265SOL    HW250237   3.879   6.167   7.266
16266SOL     OW50238   5.067   6.540   7.256
16266SOL    HW150239   5.110   6.623   7.234
16266SOL    HW250240   5.061   6.493   7.173
16267SOL     OW50241   4.543   6.166   5.952
16267SOL    HW150242   4.550   6.084   5.902
16267SOL    HW250243   4.461   6.206   5.922
16268SOL     OW50244   5.345   6.192   6.807
16268SOL    HW150245   5.332   6.112   6.859
16268SOL    HW250246   5.437   6.190   6.783
16269SOL     OW50247   3.966   7.128   7.315
16269SOL    HW150248   3.938   7.194   7.378
16269SOL    HW250249   3.958   7.045   7.363
16270SOL     OW50250   4.423   6.033   6.842
16270SOL    HW150251   4.377   5.955   6.810
16270SOL    HW250252   4.419   6.095   6.770
16271SOL     OW50253   4.624   7.258   7.079
16271SOL    HW150254   4.620   7.213   6.994
16271SOL    HW250255   4.623   7.351   7.056
16272SOL     OW50256   4.168   6.091   5.803
16272SOL    HW150257   4.228   6.165   5.809
16272SOL    HW250258   4.132   6.097   5.714
16273SOL     OW50259   3.875   6.733   7.059
16273SOL    HW150260   3.869   6.685   7.141
16273SOL    HW250261   3.885   6.665   6.992
16274SOL     OW50262   5.057   6.680   6.761
16274SOL    HW150263   5.047   6.589   6.735
16274SOL    HW250264   4.973   6.720   6.741
16275SOL     OW50265   4.992   6.492   5.937
16275SOL    HW150266   4.941   6.416   5.965
16275SOL    HW250267   5.003   6.480   5.842
16276SOL     OW50268   5.507   7.321   6.750
16276SOL    HW150269   5.568   7.343   6.679
16276SOL    HW250270   5.472   7.235   6.726
16277SOL     OW50271   4.991   7.371   6.732
16277SOL    HW150272   5.068   7.357   6.676
16277SOL    HW250273   4.944   7.288   6.730
16278SOL     OW50274   3.788   6.877   6.579
16278SOL    HW150275   3.782   6.873   6.675
16278SOL    HW250276   3.739   6.800   6.549
16279SOL     OW50277   4.405   7.278   7.313
16279SOL    HW150278   4.337   7.346   7.311
16279SOL    HW250279   4.456   7.292   7.233
16280SOL     OW50280   5.467   5.742   6.102
16280SOL    HW150281   5.521   5.726   6.024
16280SOL    HW250282   5.440   5.655   6.130
16281SOL     OW50283   5.104   7.151   6.066
16281SOL    HW150284   5.166   7.184   6.002
16281SOL    HW250285   5.058   7.228   6.098
16282SOL     OW50286   3.867   7.376   7.430
16282SOL    HW150287   3.821   7.309   7.480
16282SOL    HW250288   3.908   7.432   7.497
16283SOL     OW50289   5.015   6.531   6.258
16283SOL    HW150290   5.079   6.472   6.299
16283SOL    HW250291   5.030   6.522   6.164
16284SOL     OW50292   4.526   6.868   6.992
16284SOL    HW150293   4.489   6.909   7.070
16284SOL    HW250294   4.458   6.879   6.925
16285SOL     OW50295   4.390   7.216   5.732
16285SOL    HW150296   4.399   7.231   5.638
16285SOL    HW250297   4.337   7.137   5.738
16286SOL     OW50298   5.343   7.318   6.984
16286SOL    HW150299   5.394   7.322   6.902
16286SOL    HW250300   5.324   7.409   7.004
16287SOL     OW50301   5.576   5.758   6.553
16287SOL    HW150302   5.597   5.667   6.535
16287SOL    HW250303   5.489   5.771   6.515
16288SOL     OW50304   3.974   5.902   6.313
16288SOL    HW150305   3.885   5.925   6.287
16288SOL    HW250306   3.971   5.894   6.408
16289SOL     OW50307   4.932   7.182   5.620
16289SOL    HW150308   4.907   7.091   5.637
16289SOL    HW250309   4.882   7.207   5.542
16290SOL     OW50310   4.551   6.587   6.969
16290SOL    HW150311   4.590   6.551   6.889
16290SOL    HW250312   4.552   6.682   6.955
16291SOL     OW50313   4.655   6.508   5.873
16291SOL    HW150314   4.722   6.544   5.814
16291SOL    HW250315   4.699   6.436   5.918
16292SOL     OW50316   5.208   7.228   5.637
16292SOL    HW150317   5.116   7.208   5.620
16292SOL    HW250318   5.249   7.232   5.551
16293SOL     OW50319   4.095   6.903   7.082
16293SOL    HW150320   4.084   6.971   7.017
16293SOL    HW250321   4.025   6.840   7.064
16294SOL     OW50322   5.327   6.853   6.851
16294SOL    HW150323   5.353   6.810   6.932
16294SOL    HW250324   5.266   6.921   6.879
16295SOL     OW50325   4.789   6.697   6.279
16295SOL    HW150326   4.715   6.650   6.317
16295SOL    HW250327   4.856   6.631   6.267
16296SOL     OW50328   4.748   5.828   6.535
16296SOL    HW150329   4.743   5.778   6.454
16296SOL    HW250330   4.735   5.764   6.604
16297SOL     OW50331   4.313   7.074   6.064
16297SOL    HW150332   4.369   7.026   6.002
16297SOL    HW250333   4.227   7.072   6.023
16298SOL     OW50334   5.482   5.978   6.972
16298SOL    HW150335   5.560   6.030   6.955
16298SOL    HW250336   5.493   5.900   6.917
16299SOL     OW50337   4.045   6.901   5.917
16299SOL    HW150338   3.996   6.899   5.835
16299SOL    HW250339   3.991   6.955   5.975
16300SOL     OW50340   3.845   6.645   7.328
16300SOL    HW150341   3.763   6.608   7.361
16300SOL    HW250342   3.912   6.583   7.356
16301SOL     OW50343   4.390   5.826   7.088
16301SOL    HW150344   4.452   5.801   7.020
16301SOL    HW250345   4.439   5.820   7.170
16302SOL     OW50346   3.792   5.914   5.638
16302SOL    HW150347   3.718   5.877   5.591
16302SOL    HW250348   3.822   5.986   5.582
16303SOL     OW50349   5.191   6.508   6.998
16303SOL    HW150350   5.143   6.426   6.993
16303SOL    HW250351   5.250   6.506   6.922
16304SOL     OW50352   3.797   5.766   5.879
16304SOL    HW150353   3.783   5.817   5.799
16304SOL    HW250354   3.878   5.719   5.864
16305SOL     OW50355   4.859   6.905   5.713
16305SOL    HW150356   4.769   6.927   5.688
16305SOL    HW250357   4.859   6.810   5.721
16306SOL     OW50358   4.334   6.432   7.033
16306SOL    HW150359   4.401   6.497   7.012
16306SOL    HW250360   4.382   6.349   7.037
16307SOL     OW50361   5.213   7.412   6.585
16307SOL    HW150362   5.197   7.390   6.494
16307SOL    HW250363   5.292   7.363   6.608
16308SOL     OW50364   4.461   6.127   7.316
16308SOL    HW150365   4.515   6.196   7.356
16308SOL    HW250366   4.511   6.047   7.331
16309SOL     OW50367   5.197   6.786   7.215
16309SOL    HW150368   5.190   6.797   7.310
16309SOL    HW250369   5.289   6.806   7.195
16310SOL     OW50370   4.091   7.327   7.159
16310SOL    HW150371   4.011   7.376   7.136
16310SOL    HW250372   4.059   7.244   7.193
16311SOL     OW50373   5.377   6.468   6.801
16311SOL    HW150374   5.334   6.383   6.799
16311SOL    HW250375   5.469   6.450   6.780
16312SOL     OW50376   4.948   5.913   6.034
16312SOL    HW150377   5.005   5.836   6.028
16312SOL    HW250378   4.976   5.957   6.114
16313SOL     OW50379   4.315   6.327   6.259
16313SOL    HW150380   4.363   6.408   6.239
16313SOL    HW250381   4.233   6.336   6.211
16314SOL     OW50382   5.469   5.945   7.240
16314SOL    HW150383   5.465   5.956   7.145
16314SOL    HW250384   5.393   5.890   7.260
16315SOL     OW50385   5.518   6.543   7.063
16315SOL    HW150386   5.431   6.576   7.088
16315SOL    HW250387   5.503   6.498   6.980
16316SOL     OW50388   4.601   6.964   5.640
16316SOL    HW150389   4.539   6.990   5.708
16316SOL    HW250390   4.600   7.036   5.577
16317SOL     OW50391   4.392   7.365   6.534
16317SOL    HW150392   4.384   7.456   6.503
16317SOL    HW250393   4.485   7.345   6.526
16318SOL     OW50394   4.600   6.566   6.439
16318SOL    HW150395   4.642   6.487   6.473
16318SOL    HW250396   4.567   6.611   6.517
16319SOL     OW50397   4.837   6.621   5.682
16319SOL    HW150398   4.790   6.640   5.600
16319SOL    HW250399   4.895   6.548   5.660
16320SOL     OW50400   5.573   7.140   6.432
16320SOL    HW150401   5.501   7.132   6.370
16320SOL    HW250402   5.577   7.055   6.475
16321SOL     OW50403   3.921   6.878   7.443
16321SOL    HW150404   3.893   6.801   7.393
16321SOL    HW250405   3.855   6.888   7.511
16322SOL     OW50406   3.804   6.832   6.250
16322SOL    HW150407   3.805   6.769   6.322
16322SOL    HW250408   3.852   6.788   6.180
16323SOL     OW50409   4.415   6.991   7.285
16323SOL    HW150410   4.325   6.959   7.283
16323SOL    HW250411   4.410   7.078   7.247
16324SOL     OW50412   5.560   5.761   6.826
16324SOL    HW150413   5.508   5.681   6.840
16324SOL    HW250414   5.565   5.770   6.731
16325SOL     OW50415   4.121   6.001   6.099
16325SOL    HW150416   4.189   5.941   6.069
16325SOL    HW250417   4.091   5.965   6.182
16326SOL     OW50418   5.411   7.076   6.696
16326SOL    HW150419   5.342   7.052   6.635
16326SOL    HW250420   5.408   7.007   6.763
16327SOL     OW50421   4.073   6.156   6.881
16327SOL    HW150422   4.121   6.091   6.932
16327SOL    HW250423   4.082   6.126   6.790
16328SOL     OW50424   4.564   7.134   6.220
16328SOL    HW150425   4.547   7.227   6.205
16328SOL    HW250426   4.478   7.094   6.221
16329SOL     OW50427   5.154   5.805   6.681
16329SOL    HW150428   5.141   5.712   6.700
16329SOL    HW250429   5.143   5.849   6.765
16330SOL     OW50430   4.726   5.614   6.724
16330SOL    HW150431   4.665   5.559   6.674
16330SOL    HW250432   4.808   5.566   6.722
16331SOL     OW50433   4.486   6.921   5.914
16331SOL    HW150434   4.453   6.831   5.915
16331SOL    HW250435   4.575   6.913   5.949
16332SOL     OW50436   4.347   7.141   6.888
16332SOL    HW150437   4.346   7.225   6.935
16332SOL    HW250438   4.435   7.137   6.850
16333SOL     OW50439   5.085   5.629   5.753
16333SOL    HW150440   5.126   5.556   5.707
16333SOL    HW250441   4.995   5.601   5.768
16334SOL     OW50442   5.012   6.049   6.264
16334SOL    HW150443   4.959   6.129   6.269
16334SOL    HW250444   5.010   6.014   6.353
16335SOL     OW50445   5.324   5.784   6.466
16335SOL    HW150446   5.260   5.796   6.536
16335SOL    HW250447   5.318   5.864   6.415
16336SOL     OW50448   3.760   6.652   5.916
16336SOL    HW150449   3.822   6.657   5.843
16336SOL    HW250450   3.752   6.559   5.934
16337SOL     OW50451   4.617   7.245   5.907
16337SOL    HW150452   4.539   7.228   5.854
16337SOL    HW250453   4.587   7.303   5.976
16338SOL     OW50454   3.941   6.209   7.562
16338SOL    HW150455   3.849   6.203   7.588
16338SOL    HW250456   3.942   6.178   7.472
16339SOL     OW50457   3.923   5.901   8.439
16339SOL    HW150458   3.957   5.853   8.514
16339SOL    HW250459   3.844   5.853   8.413
16340SOL     OW50460   3.721   5.972   8.091
16340SOL    HW150461   3.638   5.996   8.133
16340SOL    HW250462   3.698   5.897   8.036
16341SOL     OW50463   4.291   6.890   8.634
16341SOL    HW150464   4.209   6.901   8.586
16341SOL    HW250465   4.310   6.977   8.668
16342SOL     OW50466   5.301   7.101   8.162
16342SOL    HW150467   5.254   7.079   8.242
16342SOL    HW250468   5.232   7.109   8.095
16343SOL     OW50469   4.862   6.296   8.142
16343SOL    HW150470   4.910   6.379   8.139
16343SOL    HW250471   4.825   6.292   8.230
16344SOL     OW50472   4.496   6.742   8.522
16344SOL    HW150473   4.421   6.780   8.568
16344SOL    HW250474   4.525   6.810   8.462
16345SOL     OW50475   4.616   6.351   9.279
16345SOL    HW150476   4.578   6.420   9.333
16345SOL    HW250477   4.630   6.393   9.194
16346SOL     OW50478   4.405   6.589   8.078
16346SOL    HW150479   4.492   6.624   8.099
16346SOL    HW250480   4.344   6.644   8.127
16347SOL     OW50481   4.447   6.740   9.277
16347SOL    HW150482   4.492   6.817   9.310
16347SOL    HW250483   4.367   6.774   9.237
16348SOL     OW50484   4.059   7.002   8.514
16348SOL    HW150485   3.985   6.962   8.468
16348SOL    HW250486   4.104   7.054   8.447
16349SOL     OW50487   5.195   7.095   8.837
16349SOL    HW150488   5.196   7.173   8.782
16349SOL    HW250489   5.111   7.099   8.884
16350SOL     OW50490   4.163   5.990   8.939
16350SOL    HW150491   4.247   5.945   8.943
16350SOL    HW250492   4.098   5.921   8.955
16351SOL     OW50493   5.323   6.037   8.184
16351SOL    HW150494   5.276   6.034   8.101
16351SOL    HW250495   5.315   6.128   8.213
16352SOL     OW50496   3.973   7.257   7.943
16352SOL    HW150497   3.977   7.340   7.991
16352SOL    HW250498   4.036   7.268   7.872
16353SOL     OW50499   4.867   6.921   9.141
16353SOL    HW150500   4.899   6.917   9.232
16353SOL    HW250501   4.814   6.842   9.131
16354SOL     OW50502   3.996   6.660   8.350
16354SOL    HW150503   4.009   6.568   8.372
16354SOL    HW250504   3.902   6.674   8.362
16355SOL     OW50505   4.342   7.375   8.891
16355SOL    HW150506   4.254   7.376   8.928
16355SOL    HW250507   4.369   7.467   8.893
16356SOL     OW50508   4.308   6.573   7.590
16356SOL    HW150509   4.361   6.611   7.520
16356SOL    HW250510   4.347   6.604   7.671
16357SOL     OW50511   5.326   5.701   8.911
16357SOL    HW150512   5.294   5.769   8.852
16357SOL    HW250513   5.301   5.731   8.999
16358SOL     OW50514   3.858   6.222   8.007
16358SOL    HW150515   3.808   6.141   8.018
16358SOL    HW250516   3.843   6.271   8.088
16359SOL     OW50517   5.568   7.375   7.762
16359SOL    HW150518   5.600   7.336   7.843
16359SOL    HW250519   5.629   7.447   7.744
16360SOL     OW50520   3.785   7.166   7.580
16360SOL    HW150521   3.730   7.089   7.578
16360SOL    HW250522   3.749   7.220   7.651
16361SOL     OW50523   5.417   6.528   8.105
16361SOL    HW150524   5.479   6.485   8.045
16361SOL    HW250525   5.354   6.570   8.048
16362SOL     OW50526   5.401   6.705   7.858
16362SOL    HW150527   5.476   6.652   7.885
16362SOL    HW250528   5.392   6.770   7.928
16363SOL     OW50529   3.838   6.312   9.036
16363SOL    HW150530   3.926   6.342   9.059
16363SOL    HW250531   3.783   6.390   9.046
16364SOL     OW50532   4.331   6.990   8.169
16364SOL    HW150533   4.304   6.900   8.184
16364SOL    HW250534   4.320   7.003   8.075
16365SOL     OW50535   5.013   6.824   8.865
16365SOL    HW150536   5.035   6.752   8.805
16365SOL    HW250537   5.071   6.812   8.940
16366SOL     OW50538   4.558   5.604   7.974
16366SOL    HW150539   4.599   5.684   7.940
16366SOL    HW250540   4.466   5.628   7.987
16367SOL     OW50541   3.907   6.547   8.703
16367SOL    HW150542   3.993   6.506   8.713
16367SOL    HW250543   3.847   6.475   8.684
16368SOL     OW50544   5.259   6.574   7.661
16368SOL    HW150545   5.185   6.513   7.667
16368SOL    HW250546   5.283   6.590   7.752
16369SOL     OW50547   4.933   7.388   9.087
16369SOL    HW150548   4.925   7.457   9.021
16369SOL    HW250549   4.932   7.307   9.036
16370SOL     OW50550   4.048   5.832   9.303
16370SOL    HW150551   4.086   5.919   9.290
16370SOL    HW250552   3.954   5.848   9.308
16371SOL     OW50553   5.189   6.997   8.390
16371SOL    HW150554   5.124   7.014   8.459
16371SOL    HW250555   5.172   6.907   8.363
16372SOL     OW50556   5.409   7.318   8.015
16372SOL    HW150557   5.355   7.303   7.938
16372SOL    HW250558   5.371   7.262   8.083
16373SOL     OW50559   4.334   6.319   7.719
16373SOL    HW150560   4.335   6.396   7.662
16373SOL    HW250561   4.274   6.342   7.790
16374SOL     OW50562   5.008   5.961   8.394
16374SOL    HW150563   4.918   5.927   8.390
16374SOL    HW250564   5.054   5.899   8.451
16375SOL     OW50565   5.312   7.255   7.753
16375SOL    HW150566   5.392   7.306   7.742
16375SOL    HW250567   5.278   7.244   7.664
16376SOL     OW50568   4.473   6.235   8.907
16376SOL    HW150569   4.469   6.205   8.997
16376SOL    HW250570   4.454   6.157   8.854
16377SOL     OW50571   5.126   6.068   9.125
16377SOL    HW150572   5.152   6.113   9.205
16377SOL    HW250573   5.177   5.987   9.126
16378SOL     OW50574   4.676   6.472   9.028
16378SOL    HW150575   4.724   6.400   8.989
16378SOL    HW250576   4.625   6.509   8.955
16379SOL     OW50577   4.708   5.989   8.674
16379SOL    HW150578   4.620   5.996   8.712
16379SOL    HW250579   4.696   5.931   8.598
16380SOL     OW50580   4.782   6.297   7.872
16380SOL    HW150581   4.801   6.293   7.966
16380SOL    HW250582   4.699   6.250   7.862
16381SOL     OW50583   3.822   6.379   8.224
16381SOL    HW150584   3.891   6.386   8.289
16381SOL    HW250585   3.763   6.451   8.243
16382SOL     OW50586   3.827   7.412   9.024
16382SOL    HW150587   3.841   7.406   9.118
16382SOL    HW250588   3.735   7.436   9.015
16383SOL     OW50589   4.599   5.947   7.651
16383SOL    HW150590   4.655   5.997   7.591
16383SOL    HW250591   4.558   5.881   7.596
16384SOL     OW50592   5.515   6.199   9.183
16384SOL    HW150593   5.439   6.247   9.216
16384SOL    HW250594   5.485   6.109   9.176
16385SOL     OW50595   5.099   6.725   8.003
16385SOL    HW150596   5.149   6.721   7.922
16385SOL    HW250597   5.025   6.782   7.983
16386SOL     OW50598   4.219   5.800   8.343
16386SOL    HW150599   4.265   5.784   8.425
16386SOL    HW250600   4.270   5.869   8.300
16387SOL     OW50601   4.717   7.016   7.895
16387SOL    HW150602   4.692   7.105   7.872
16387SOL    HW250603   4.698   7.009   7.988
16388SOL     OW50604   4.080   7.405   8.328
16388SOL    HW150605   4.134   7.326   8.333
16388SOL    HW250606   4.141   7.477   8.343
16389SOL     OW50607   5.525   6.648   8.328
16389SOL    HW150608   5.481   6.623   8.246
16389SOL    HW250609   5.454   6.652   8.392
16390SOL     OW50610   4.950   7.123   8.959
16390SOL    HW150611   4.936   7.048   9.017
16390SOL    HW250612   4.874   7.124   8.901
16391SOL     OW50613   4.033   6.548   7.696
16391SOL    HW150614   4.113   6.561   7.644
16391SOL    HW250615   3.995   6.468   7.661
16392SOL     OW50616   5.234   6.323   8.179
16392SOL    HW150617   5.206   6.292   8.265
16392SOL    HW250618   5.305   6.385   8.198
16393SOL     OW50619   4.202   6.860   9.195
16393SOL    HW150620   4.178   6.863   9.102
16393SOL    HW250621   4.119   6.847   9.241
16394SOL     OW50622   4.841   7.374   7.658
16394SOL    HW150623   4.778   7.336   7.719
16394SOL    HW250624   4.873   7.299   7.608
16395SOL     OW50625   3.925   5.841   8.958
16395SOL    HW150626   3.839   5.883   8.965
16395SOL    HW250627   3.910   5.751   8.987
16396SOL     OW50628   5.364   6.952   7.546
16396SOL    HW150629   5.338   7.044   7.543
16396SOL    HW250630   5.286   6.903   7.518
16397SOL     OW50631   4.208   7.296   7.781
16397SOL    HW150632   4.235   7.367   7.839
16397SOL    HW250633   4.272   7.296   7.710
16398SOL     OW50634   5.110   5.697   7.883
16398SOL    HW150635   5.102   5.657   7.796
16398SOL    HW250636   5.182   5.759   7.874
16399SOL     OW50637   3.977   7.373   8.680
16399SOL    HW150638   4.030   7.320   8.739
16399SOL    HW250639   4.008   7.348   8.592
16400SOL     OW50640   4.677   7.283   8.345
16400SOL    HW150641   4.766   7.247   8.346
16400SOL    HW250642   4.632   7.235   8.276
16401SOL     OW50643   4.119   6.276   7.919
16401SOL    HW150644   4.127   6.209   7.851
16401SOL    HW250645   4.029   6.267   7.951
16402SOL     OW50646   5.244   5.807   9.157
16402SOL    HW150647   5.260   5.816   9.251
16402SOL    HW250648   5.157   5.769   9.151
16403SOL     OW50649   4.360   5.677   7.567
16403SOL    HW150650   4.398   5.591   7.586
16403SOL    HW250651   4.307   5.663   7.488
16404SOL     OW50652   4.497   5.874   9.254
16404SOL    HW150653   4.574   5.819   9.238
16404SOL    HW250654   4.433   5.815   9.293
16405SOL     OW50655   4.589   7.098   8.649
16405SOL    HW150656   4.580   7.073   8.557
16405SOL    HW250657   4.667   7.052   8.679
16406SOL     OW50658   5.059   6.177   8.880
16406SOL    HW150659   5.089   6.148   8.966
16406SOL    HW250660   5.098   6.264   8.870
16407SOL     OW50661   4.544   6.984   8.391
16407SOL    HW150662   4.633   6.967   8.361
16407SOL    HW250663   4.490   6.979   8.312
16408SOL     OW50664   4.645   6.084   8.345
16408SOL    HW150665   4.626   6.078   8.251
16408SOL    HW250666   4.676   5.996   8.369
16409SOL     OW50667   4.288   5.660   7.977
16409SOL    HW150668   4.238   5.605   8.036
16409SOL    HW250669   4.280   5.618   7.891
16410SOL     OW50670   5.160   6.786   7.495
16410SOL    HW150671   5.162   6.696   7.527
16410SOL    HW250672   5.073   6.818   7.519
16411SOL     OW50673   4.022   5.645   7.649
16411SOL    HW150674   4.059   5.697   7.578
16411SOL    HW250675   4.093   5.586   7.675
16412SOL     OW50676   4.669   5.846   7.901
16412SOL    HW150677   4.642   5.875   7.814
16412SOL    HW250678   4.763   5.861   7.903
16413SOL     OW50679   4.796   6.259   8.899
16413SOL    HW150680   4.744   6.183   8.924
16413SOL    HW250681   4.886   6.226   8.892
16414SOL     OW50682   4.932   7.174   8.264
16414SOL    HW150683   4.947   7.236   8.193
16414SOL    HW250684   5.008   7.184   8.322
16415SOL     OW50685   4.191   6.749   8.176
16415SOL    HW150686   4.129   6.722   8.245
16415SOL    HW250687   4.147   6.726   8.094
16416SOL     OW50688   4.746   6.115   7.491
16416SOL    HW150689   4.712   6.200   7.466
16416SOL    HW250690   4.816   6.135   7.553
16417SOL     OW50691   3.811   6.133   8.837
16417SOL    HW150692   3.904   6.130   8.812
16417SOL    HW250693   3.808   6.196   8.908
16418SOL     OW50694   4.585   6.047   8.081
16418SOL    HW150695   4.558   6.103   8.007
16418SOL    HW250696   4.613   5.965   8.040
16419SOL     OW50697   4.739   5.635   8.193
16419SOL    HW150698   4.680   5.629   8.118
16419SOL    HW250699   4.715   5.561   8.249
16420SOL     OW50700   5.160   6.737   8.301
16420SOL    HW150701   5.093   6.668   8.302
16420SOL    HW250702   5.176   6.754   8.208
16421SOL     OW50703   5.176   6.198   8.421
16421SOL    HW150704   5.120   6.121   8.414
16421SOL    HW250705   5.235   6.178   8.494
16422SOL     OW50706   5.584   6.472   7.879
16422SOL    HW150707   5.664   6.446   7.924
16422SOL    HW250708   5.556   6.394   7.830
16423SOL     OW50709   4.209   7.002   7.577
16423SOL    HW150710   4.181   6.934   7.639
16423SOL    HW250711   4.188   6.966   7.491
16424SOL     OW50712   5.412   6.861   8.075
16424SOL    HW150713   5.505   6.859   8.098
16424SOL    HW250714   5.381   6.945   8.107
16425SOL     OW50715   5.141   6.169   7.545
16425SOL    HW150716   5.071   6.142   7.605
16425SOL    HW250717   5.220   6.129   7.581
16426SOL     OW50718   4.231   5.853   7.756
16426SOL    HW150719   4.278   5.803   7.689
16426SOL    HW250720   4.209   5.936   7.713
16427SOL     OW50721   5.477   6.826   9.016
16427SOL    HW150722   5.562   6.795   8.986
16427SOL    HW250723   5.493   6.916   9.044
16428SOL     OW50724   4.775   6.945   8.789
16428SOL    HW150725   4.702   6.909   8.838
16428SOL    HW250726   4.852   6.900   8.825
16429SOL     OW50727   5.337   7.226   9.122
16429SOL    HW150728   5.286   7.229   9.041
16429SOL    HW250729   5.391   7.148   9.112
16430SOL     OW50730   4.864   6.796   8.559
16430SOL    HW150731   4.789   6.824   8.612
16430SOL    HW250732   4.844   6.827   8.471
16431SOL     OW50733   5.333   6.677   8.522
16431SOL    HW150734   5.320   6.744   8.589
16431SOL    HW250735   5.262   6.692   8.459
16432SOL     OW50736   4.642   5.693   8.854
16432SOL    HW150737   4.622   5.692   8.761
16432SOL    HW250738   4.733   5.721   8.859
16433SOL     OW50739   4.711   6.695   9.177
16433SOL    HW150740   4.620   6.712   9.202
16433SOL    HW250741   4.706   6.619   9.119
16434SOL     OW50742   4.443   6.660   7.810
16434SOL    HW150743   4.429   6.639   7.902
16434SOL    HW250744   4.519   6.606   7.785
16435SOL     OW50745   4.184   6.375   8.756
16435SOL    HW150746   4.199   6.401   8.665
16435SOL    HW250747   4.138   6.291   8.750
16436SOL     OW50748   4.977   5.954   8.736
16436SOL    HW150749   5.007   6.037   8.775
16436SOL    HW250750   4.888   5.973   8.706
16437SOL     OW50751   3.799   7.136   8.778
16437SOL    HW150752   3.772   7.216   8.734
16437SOL    HW250753   3.895   7.138   8.776
16438SOL     OW50754   4.049   6.704   7.941
16438SOL    HW150755   4.068   6.754   7.861
16438SOL    HW250756   4.042   6.614   7.911
16439SOL     OW50757   4.281   6.128   8.305
16439SOL    HW150758   4.286   6.197   8.239
16439SOL    HW250759   4.370   6.122   8.340
16440SOL     OW50760   4.972   6.934   7.830
16440SOL    HW150761   5.029   7.002   7.866
16440SOL    HW250762   4.884   6.957   7.861
16441SOL     OW50763   5.018   7.029   8.601
16441SOL    HW150764   5.048   7.010   8.689
16441SOL    HW250765   4.954   6.960   8.582
16442SOL     OW50766   5.290   6.151   7.924
16442SOL    HW150767   5.267   6.233   7.969
16442SOL    HW250768   5.369   6.171   7.875
16443SOL     OW50769   4.072   7.102   8.762
16443SOL    HW150770   4.064   7.063   8.674
16443SOL    HW250771   4.164   7.124   8.770
16444SOL     OW50772   4.121   6.319   9.055
16444SOL    HW150773   4.158   6.325   8.968
16444SOL    HW250774   4.148   6.233   9.088
16445SOL     OW50775   5.334   6.406   9.131
16445SOL    HW150776   5.241   6.423   9.140
16445SOL    HW250777   5.354   6.428   9.040
16446SOL     OW50778   4.717   5.721   9.215
16446SOL    HW150779   4.776   5.784   9.173
16446SOL    HW250780   4.729   5.640   9.165
16447SOL     OW50781   4.208   5.630   9.210
16447SOL    HW150782   4.169   5.580   9.138
16447SOL    HW250783   4.146   5.702   9.226
16448SOL     OW50784   4.312   6.489   8.544
16448SOL    HW150785   4.387   6.493   8.486
16448SOL    HW250786   4.248   6.549   8.506
16449SOL     OW50787   5.070   6.446   8.471
16449SOL    HW150788   4.994   6.447   8.412
16449SOL    HW250789   5.106   6.358   8.461
16450SOL     OW50790   4.926   6.120   7.711
16450SOL    HW150791   4.933   6.040   7.762
16450SOL    HW250792   4.881   6.182   7.770
16451SOL     OW50793   3.962   5.772   8.680
16451SOL    HW150794   3.971   5.797   8.772
16451SOL    HW250795   3.986   5.680   8.678
16452SOL     OW50796   4.490   6.239   8.497
16452SOL    HW150797   4.543   6.179   8.445
16452SOL    HW250798   4.496   6.323   8.451
16453SOL     OW50799   5.471   6.546   9.318
16453SOL    HW150800   5.420   6.494   9.255
16453SOL    HW250801   5.409   6.565   9.388
16454SOL     OW50802   4.020   5.645   8.074
16454SOL    HW150803   3.961   5.713   8.106
16454SOL    HW250804   4.041   5.592   8.151
16455SOL     OW50805   5.299   5.891   7.844
16455SOL    HW150806   5.371   5.859   7.898
16455SOL    HW250807   5.294   5.985   7.864
16456SOL     OW50808   4.796   6.315   8.410
16456SOL    HW150809   4.753   6.363   8.481
16456SOL    HW250810   4.747   6.233   8.404
16457SOL     OW50811   4.715   7.145   9.174
16457SOL    HW150812   4.683   7.185   9.094
16457SOL    HW250813   4.760   7.065   9.145
16458SOL     OW50814   5.585   7.109   9.055
16458SOL    HW150815   5.607   7.115   8.962
16458SOL    HW250816   5.669   7.107   9.100
16459SOL     OW50817   4.070   6.532   9.224
16459SOL    HW150818   4.122   6.523   9.304
16459SOL    HW250819   4.095   6.456   9.171
16460SOL     OW50820   5.234   5.850   7.578
16460SOL    HW150821   5.175   5.777   7.593
16460SOL    HW250822   5.267   5.872   7.665
16461SOL     OW50823   5.024   6.418   7.494
16461SOL    HW150824   5.064   6.331   7.493
16461SOL    HW250825   5.040   6.453   7.406
16462SOL     OW50826   4.810   6.933   8.335
16462SOL    HW150827   4.777   6.875   8.266
16462SOL    HW250828   4.851   7.005   8.287
16463SOL     OW50829   4.047   6.391   8.389
16463SOL    HW150830   4.120   6.381   8.328
16463SOL    HW250831   4.036   6.305   8.429
16464SOL     OW50832   4.064   6.126   8.460
16464SOL    HW150833   4.018   6.043   8.445
16464SOL    HW250834   4.143   6.120   8.406
16465SOL     OW50835   4.867   5.959   9.133
16465SOL    HW150836   4.811   6.005   9.196
16465SOL    HW250837   4.949   6.008   9.133
16466SOL     OW50838   4.909   5.777   8.935
16466SOL    HW150839   4.885   5.844   8.999
16466SOL    HW250840   4.935   5.827   8.857
16467SOL     OW50841   3.734   6.886   7.644
16467SOL    HW150842   3.646   6.906   7.613
16467SOL    HW250843   3.728   6.796   7.677
16468SOL     OW50844   3.813   7.357   8.382
16468SOL    HW150845   3.790   7.279   8.332
16468SOL    HW250846   3.905   7.373   8.361
16469SOL     OW50847   4.215   7.160   8.349
16469SOL    HW150848   4.284   7.222   8.373
16469SOL    HW250849   4.259   7.098   8.290
16470SOL     OW50850   4.662   6.358   8.682
16470SOL    HW150851   4.721   6.334   8.754
16470SOL    HW250852   4.640   6.275   8.640
16471SOL     OW50853   3.755   6.137   8.563
16471SOL    HW150854   3.818   6.091   8.507
16471SOL    HW250855   3.792   6.131   8.651
16472SOL     OW50856   3.930   6.069   9.167
16472SOL    HW150857   3.952   6.027   9.083
16472SOL    HW250858   3.890   6.152   9.143
16473SOL     OW50859   5.085   6.516   9.108
16473SOL    HW150860   5.108   6.608   9.102
16473SOL    HW250861   5.081   6.486   9.017
16474SOL     OW50862   4.545   6.163   7.824
16474SOL    HW150863   4.555   6.087   7.766
16474SOL    HW250864   4.474   6.214   7.784
16475SOL     OW50865   5.365   6.181   8.631
16475SOL    HW150866   5.343   6.120   8.701
16475SOL    HW250867   5.456   6.160   8.609
16476SOL     OW50868   3.960   7.128   9.173
16476SOL    HW150869   3.951   7.194   9.242
16476SOL    HW250870   3.972   7.046   9.220
16477SOL     OW50871   4.424   6.065   8.705
16477SOL    HW150872   4.405   5.974   8.685
16477SOL    HW250873   4.427   6.108   8.620
16478SOL     OW50874   4.650   7.232   8.921
16478SOL    HW150875   4.617   7.193   8.840
16478SOL    HW250876   4.656   7.325   8.903
16479SOL     OW50877   4.152   6.108   7.700
16479SOL    HW150878   4.223   6.165   7.672
16479SOL    HW250879   4.077   6.134   7.647
16480SOL     OW50880   3.870   6.742   8.892
16480SOL    HW150881   3.866   6.700   8.977
16480SOL    HW250882   3.885   6.670   8.830
16481SOL     OW50883   5.038   6.622   8.672
16481SOL    HW150884   5.058   6.560   8.603
16481SOL    HW250885   4.976   6.683   8.633
16482SOL     OW50886   5.029   6.446   7.767
16482SOL    HW150887   4.960   6.403   7.817
16482SOL    HW250888   5.012   6.423   7.676
16483SOL     OW50889   5.526   7.286   8.619
16483SOL    HW150890   5.564   7.335   8.546
16483SOL    HW250891   5.479   7.214   8.577
16484SOL     OW50892   4.968   7.301   8.572
16484SOL    HW150893   5.047   7.330   8.527
16484SOL    HW250894   4.977   7.206   8.579
16485SOL     OW50895   3.794   6.838   8.510
16485SOL    HW150896   3.825   6.763   8.561
16485SOL    HW250897   3.737   6.800   8.443
16486SOL     OW50898   4.404   7.263   9.175
16486SOL    HW150899   4.340   7.332   9.192
16486SOL    HW250900   4.446   7.289   9.093
16487SOL     OW50901   5.481   5.730   7.986
16487SOL    HW150902   5.528   5.711   7.905
16487SOL    HW250903   5.442   5.646   8.011
16488SOL     OW50904   5.133   7.135   7.930
16488SOL    HW150905   5.191   7.171   7.863
16488SOL    HW250906   5.091   7.211   7.969
16489SOL     OW50907   3.860   7.384   9.290
16489SOL    HW150908   3.814   7.314   9.336
16489SOL    HW250909   3.917   7.423   9.356
16490SOL     OW50910   5.027   6.512   8.166
16490SOL    HW150911   5.099   6.453   8.145
16490SOL    HW250912   5.034   6.582   8.101
16491SOL     OW50913   4.526   6.860   8.878
16491SOL    HW150914   4.497   6.903   8.959
16491SOL    HW250915   4.467   6.893   8.811
16492SOL     OW50916   4.398   7.194   7.575
16492SOL    HW150917   4.390   7.234   7.488
16492SOL    HW250918   4.323   7.134   7.580
16493SOL     OW50919   5.427   7.341   8.866
16493SOL    HW150920   5.451   7.326   8.775
16493SOL    HW250921   5.372   7.419   8.864
16494SOL     OW50922   5.567   5.740   8.431
16494SOL    HW150923   5.596   5.666   8.377
16494SOL    HW250924   5.484   5.768   8.392
16495SOL     OW50925   3.986   5.914   8.139
16495SOL    HW150926   3.897   5.946   8.129
16495SOL    HW250927   4.000   5.912   8.234
16496SOL     OW50928   4.948   7.179   7.484
16496SOL    HW150929   4.925   7.087   7.498
16496SOL    HW250930   4.898   7.205   7.407
16497SOL     OW50931   4.543   6.595   8.811
16497SOL    HW150932   4.595   6.605   8.731
16497SOL    HW250933   4.530   6.685   8.842
16498SOL     OW50934   4.649   6.508   7.718
16498SOL    HW150935   4.720   6.546   7.666
16498SOL    HW250936   4.691   6.441   7.771
16499SOL     OW50937   5.229   7.201   7.495
16499SOL    HW150938   5.134   7.194   7.485
16499SOL    HW250939   5.262   7.212   7.406
16500SOL     OW50940   4.102   6.890   8.947
16500SOL    HW150941   4.097   6.965   8.887
16500SOL    HW250942   4.031   6.832   8.918
16501SOL     OW50943   5.324   6.875   8.722
16501SOL    HW150944   5.399   6.861   8.779
16501SOL    HW250945   5.271   6.941   8.767
16502SOL     OW50946   4.758   5.828   8.404
16502SOL    HW150947   4.750   5.779   8.322
16502SOL    HW250948   4.741   5.763   8.473
16503SOL     OW50949   4.292   7.052   7.905
16503SOL    HW150950   4.358   7.015   7.846
16503SOL    HW250951   4.263   7.132   7.861
16504SOL     OW50952   5.479   5.987   8.844
16504SOL    HW150953   5.538   6.055   8.812
16504SOL    HW250954   5.497   5.912   8.787
16505SOL     OW50955   3.954   6.982   7.775
16505SOL    HW150956   3.877   6.940   7.736
16505SOL    HW250957   3.986   7.041   7.707
16506SOL     OW50958   3.835   6.655   9.165
16506SOL    HW150959   3.765   6.612   9.214
16506SOL    HW250960   3.914   6.608   9.190
16507SOL     OW50961   4.390   5.841   8.946
16507SOL    HW150962   4.436   5.805   8.870
16507SOL    HW250963   4.438   5.806   9.021
16508SOL     OW50964   3.790   5.910   7.494
16508SOL    HW150965   3.714   5.870   7.451
16508SOL    HW250966   3.810   5.986   7.441
16509SOL     OW50967   5.154   6.442   8.846
16509SOL    HW150968   5.098   6.500   8.796
16509SOL    HW250969   5.238   6.444   8.800
16510SOL     OW50970   3.799   5.760   7.750
16510SOL    HW150971   3.775   5.823   7.682
16510SOL    HW250972   3.878   5.718   7.718
16511SOL     OW50973   4.906   6.887   7.568
16511SOL    HW150974   4.867   6.800   7.574
16511SOL    HW250975   4.929   6.910   7.658
16512SOL     OW50976   5.197   7.366   8.437
16512SOL    HW150977   5.196   7.396   8.346
16512SOL    HW250978   5.221   7.444   8.488
16513SOL     OW50979   4.464   6.137   9.157
16513SOL    HW150980   4.505   6.189   9.226
16513SOL    HW250981   4.469   6.047   9.189
16514SOL     OW50982   5.198   6.770   9.075
16514SOL    HW150983   5.186   6.791   9.168
16514SOL    HW250984   5.290   6.789   9.058
16515SOL     OW50985   4.088   7.326   9.002
16515SOL    HW150986   4.001   7.366   8.994
16515SOL    HW250987   4.071   7.242   9.045
16516SOL     OW50988   5.386   6.461   8.691
16516SOL    HW150989   5.373   6.378   8.644
16516SOL    HW250990   5.368   6.528   8.624
16517SOL     OW50991   4.936   5.913   7.901
16517SOL    HW150992   4.992   5.836   7.894
16517SOL    HW250993   4.967   5.958   7.979
16518SOL     OW50994   4.280   6.343   8.137
16518SOL    HW150995   4.336   6.417   8.111
16518SOL    HW250996   4.232   6.321   8.058
16519SOL     OW50997   5.488   5.934   9.112
16519SOL    HW150998   5.479   5.955   9.019
16519SOL    HW250999   5.409   5.885   9.133
16520SOL     OW51000   5.499   6.504   8.931
16520SOL    HW151001   5.482   6.596   8.951
16520SOL    HW251002   5.470   6.493   8.841
16521SOL     OW51003   4.389   7.365   8.373
16521SOL    HW151004   4.374   7.459   8.364
16521SOL    HW251005   4.485   7.357   8.377
16522SOL     OW51006   4.537   6.499   8.390
16522SOL    HW151007   4.587   6.502   8.308
16522SOL    HW251008   4.540   6.588   8.423
16523SOL     OW51009   4.835   6.619   7.537
16523SOL    HW151010   4.792   6.634   7.452
16523SOL    HW251011   4.896   6.547   7.520
16524SOL     OW51012   5.560   7.145   8.298
16524SOL    HW151013   5.488   7.141   8.235
16524SOL    HW251014   5.529   7.096   8.373
16525SOL     OW51015   3.951   6.879   9.301
16525SOL    HW151016   3.901   6.805   9.267
16525SOL    HW251017   3.927   6.884   9.393
16526SOL     OW51018   3.852   6.837   8.093
16526SOL    HW151019   3.814   6.786   8.164
16526SOL    HW251020   3.895   6.772   8.037
16527SOL     OW51021   4.419   6.996   9.089
16527SOL    HW151022   4.339   6.958   9.126
16527SOL    HW251023   4.418   7.088   9.117
16528SOL     OW51024   5.555   5.770   8.703
16528SOL    HW151025   5.528   5.682   8.728
16528SOL    HW251026   5.561   5.768   8.607
16529SOL     OW51027   5.421   7.051   8.523
16529SOL    HW151028   5.340   7.046   8.472
16529SOL    HW251029   5.410   6.987   8.593
16530SOL     OW51030   4.062   6.139   8.739
16530SOL    HW151031   4.109   6.079   8.796
16530SOL    HW251032   4.078   6.105   8.651
16531SOL     OW51033   4.558   7.176   8.122
16531SOL    HW151034   4.535   7.251   8.066
16531SOL    HW251035   4.478   7.123   8.125
16532SOL     OW51036   5.137   5.798   8.576
16532SOL    HW151037   5.110   5.707   8.590
16532SOL    HW251038   5.085   5.848   8.638
16533SOL     OW51039   4.749   5.615   8.585
16533SOL    HW151040   4.678   5.557   8.556
16533SOL    HW251041   4.825   5.557   8.593
16534SOL     OW51042   4.522   6.918   7.718
16534SOL    HW151043   4.492   6.832   7.746
16534SOL    HW251044   4.591   6.942   7.780
16535SOL     OW51045   4.340   7.146   8.741
16535SOL    HW151046   4.346   7.226   8.793
16535SOL    HW251047   4.427   7.137   8.702
16536SOL     OW51048   5.084   5.622   7.616
16536SOL    HW151049   5.123   5.549   7.568
16536SOL    HW251050   4.994   5.595   7.633
16537SOL     OW51051   5.007   6.049   8.127
16537SOL    HW151052   4.962   6.133   8.130
16537SOL    HW251053   5.011   6.020   8.218
16538SOL     OW51054   5.322   5.805   8.343
16538SOL    HW151055   5.251   5.819   8.405
16538SOL    HW251056   5.314   5.877   8.281
16539SOL     OW51057   3.776   6.646   7.769
16539SOL    HW151058   3.864   6.629   7.734
16539SOL    HW251059   3.743   6.559   7.794
16540SOL     OW51060   4.608   7.239   7.770
16540SOL    HW151061   4.532   7.233   7.711
16540SOL    HW251062   4.584   7.307   7.833
16541SOL     OW51063   3.945   5.870  10.303
16541SOL    HW151064   3.975   5.836  10.387
16541SOL    HW251065   3.858   5.833  10.292
16542SOL     OW51066   3.741   5.964   9.958
16542SOL    HW151067   3.677   5.955  10.029
16542SOL    HW251068   3.711   5.902   9.891
16543SOL     OW51069   4.299   6.898  10.503
16543SOL    HW151070   4.232   6.880  10.437
16543SOL    HW251071   4.262   6.968  10.557
16544SOL     OW51072   5.293   7.096  10.017
16544SOL    HW151073   5.248   7.073  10.098
16544SOL    HW251074   5.224   7.103   9.952
16545SOL     OW51075   4.874   6.280  10.010
16545SOL    HW151076   4.916   6.364   9.992
16545SOL    HW251077   4.820   6.296  10.088
16546SOL     OW51078   5.528   6.172   9.524
16546SOL    HW151079   5.449   6.186   9.471
16546SOL    HW251080   5.504   6.103   9.585
16547SOL     OW51081   4.520   6.748  10.410
16547SOL    HW151082   4.429   6.760  10.435
16547SOL    HW251083   4.529   6.795  10.327
16548SOL     OW51084   4.579   6.364  11.158
16548SOL    HW151085   4.576   6.404  11.245
16548SOL    HW251086   4.615   6.432  11.102
16549SOL     OW51087   4.418   6.582   9.955
16549SOL    HW151088   4.479   6.581  10.028
16549SOL    HW251089   4.346   6.638   9.984
16550SOL     OW51090   4.441   6.730  11.123
16550SOL    HW151091   4.485   6.806  11.159
16550SOL    HW251092   4.357   6.763  11.091
16551SOL     OW51093   4.058   6.991  10.370
16551SOL    HW151094   3.979   6.955  10.330
16551SOL    HW251095   4.092   7.052  10.304
16552SOL     OW51096   5.181   7.089  10.672
16552SOL    HW151097   5.238   7.166  10.684
16552SOL    HW251098   5.112   7.100  10.737
16553SOL     OW51099   4.169   5.968  10.792
16553SOL    HW151100   4.245   5.911  10.798
16553SOL    HW251101   4.094   5.910  10.807
16554SOL     OW51102   5.307   6.006  10.069
16554SOL    HW151103   5.249   6.037  10.000
16554SOL    HW251104   5.338   6.086  10.112
16555SOL     OW51105   3.935   7.305   9.782
16555SOL    HW151106   3.962   7.379   9.837
16555SOL    HW251107   3.988   7.313   9.703
16556SOL     OW51108   4.862   6.929  11.005
16556SOL    HW151109   4.905   6.923  11.091
16556SOL    HW251110   4.811   6.848  10.999
16557SOL     OW51111   3.964   7.033   9.847
16557SOL    HW151112   3.950   7.128   9.841
16557SOL    HW251113   3.898   7.003   9.909
16558SOL     OW51114   4.014   6.681  10.226
16558SOL    HW151115   3.995   6.589  10.247
16558SOL    HW251116   3.940   6.730  10.263
16559SOL     OW51117   4.363   7.358  10.756
16559SOL    HW151118   4.278   7.331  10.790
16559SOL    HW251119   4.366   7.452  10.769
16560SOL     OW51120   4.297   6.568   9.452
16560SOL    HW151121   4.343   6.613   9.382
16560SOL    HW251122   4.338   6.599   9.533
16561SOL     OW51123   5.303   5.718  10.761
16561SOL    HW151124   5.338   5.804  10.740
16561SOL    HW251125   5.291   5.719  10.856
16562SOL     OW51126   3.837   6.229   9.884
16562SOL    HW151127   3.811   6.139   9.903
16562SOL    HW251128   3.825   6.276   9.966
16563SOL     OW51129   5.579   7.341   9.636
16563SOL    HW151130   5.643   7.304   9.696
16563SOL    HW251131   5.593   7.436   9.641
16564SOL     OW51132   3.758   7.175   9.427
16564SOL    HW151133   3.746   7.082   9.448
16564SOL    HW251134   3.737   7.221   9.507
16565SOL     OW51135   5.418   6.505   9.952
16565SOL    HW151136   5.482   6.449   9.907
16565SOL    HW251137   5.383   6.562   9.884
16566SOL     OW51138   5.367   6.685   9.744
16566SOL    HW151139   5.452   6.687   9.699
16566SOL    HW251140   5.373   6.752   9.812
16567SOL     OW51141   3.842   6.331  10.893
16567SOL    HW151142   3.929   6.371  10.897
16567SOL    HW251143   3.782   6.405  10.883
16568SOL     OW51144   4.332   6.972  10.066
16568SOL    HW151145   4.287   6.887  10.060
16568SOL    HW251146   4.331   7.006   9.977
16569SOL     OW51147   4.993   6.829  10.719
16569SOL    HW151148   5.027   6.757  10.666
16569SOL    HW251149   5.045   6.827  10.799
16570SOL     OW51150   4.547   5.607   9.840
16570SOL    HW151151   4.581   5.689   9.804
16570SOL    HW251152   4.452   5.615   9.833
16571SOL     OW51153   3.909   6.545  10.597
16571SOL    HW151154   3.994   6.504  10.579
16571SOL    HW251155   3.851   6.509  10.530
16572SOL     OW51156   5.261   6.587   9.504
16572SOL    HW151157   5.197   6.517   9.517
16572SOL    HW251158   5.287   6.612   9.592
16573SOL     OW51159   4.873   7.389  10.914
16573SOL    HW151160   4.909   7.458  10.858
16573SOL    HW251161   4.923   7.311  10.891
16574SOL     OW51162   5.188   7.004  10.253
16574SOL    HW151163   5.121   7.021  10.319
16574SOL    HW251164   5.173   6.914  10.226
16575SOL     OW51165   5.377   7.327   9.893
16575SOL    HW151166   5.361   7.301   9.802
16575SOL    HW251167   5.353   7.250   9.945
16576SOL     OW51168   4.326   6.307   9.587
16576SOL    HW151169   4.312   6.385   9.533
16576SOL    HW251170   4.256   6.309   9.651
16577SOL     OW51171   4.994   5.915  10.238
16577SOL    HW151172   4.902   5.889  10.235
16577SOL    HW251173   5.018   5.908  10.331
16578SOL     OW51174   5.310   7.260   9.627
16578SOL    HW151175   5.400   7.289   9.613
16578SOL    HW251176   5.275   7.248   9.539
16579SOL     OW51177   4.572   6.189  10.775
16579SOL    HW151178   4.531   6.173  10.861
16579SOL    HW251179   4.518   6.140  10.713
16580SOL     OW51180   5.136   6.052  10.986
16580SOL    HW151181   5.135   6.097  11.071
16580SOL    HW251182   5.180   5.969  11.004
16581SOL     OW51183   4.666   6.471  10.882
16581SOL    HW151184   4.646   6.378  10.875
16581SOL    HW251185   4.624   6.510  10.805
16582SOL     OW51186   4.720   6.000  10.555
16582SOL    HW151187   4.626   6.018  10.565
16582SOL    HW251188   4.726   5.946  10.477
16583SOL     OW51189   4.776   6.290   9.744
16583SOL    HW151190   4.793   6.276   9.837
16583SOL    HW251191   4.691   6.248   9.728
16584SOL     OW51192   3.802   6.375  10.112
16584SOL    HW151193   3.885   6.387  10.158
16584SOL    HW251194   3.755   6.457  10.126
16585SOL     OW51195   3.843   7.494  10.906
16585SOL    HW151196   3.848   7.440  10.985
16585SOL    HW251197   3.859   7.433  10.834
16586SOL     OW51198   4.608   5.948   9.513
16586SOL    HW151199   4.669   5.997   9.458
16586SOL    HW251200   4.553   5.900   9.451
16587SOL     OW51201   5.454   6.163  11.128
16587SOL    HW151202   5.408   6.232  11.080
16587SOL    HW251203   5.458   6.090  11.066
16588SOL     OW51204   5.102   6.731   9.853
16588SOL    HW151205   5.175   6.712   9.793
16588SOL    HW251206   5.047   6.792   9.804
16589SOL     OW51207   4.275   5.756  10.210
16589SOL    HW151208   4.278   5.802  10.294
16589SOL    HW251209   4.264   5.826  10.146
16590SOL     OW51210   4.732   7.046   9.784
16590SOL    HW151211   4.698   7.113   9.724
16590SOL    HW251212   4.685   7.060   9.866
16591SOL     OW51213   4.072   7.408  10.183
16591SOL    HW151214   4.111   7.321  10.193
16591SOL    HW251215   4.144   7.468  10.200
16592SOL     OW51216   5.531   6.630  10.176
16592SOL    HW151217   5.480   6.606  10.099
16592SOL    HW251218   5.466   6.643  10.245
16593SOL     OW51219   4.948   7.127  10.821
16593SOL    HW151220   4.938   7.057  10.885
16593SOL    HW251221   4.872   7.120  10.764
16594SOL     OW51222   4.039   6.556   9.574
16594SOL    HW151223   4.122   6.560   9.526
16594SOL    HW251224   4.006   6.468   9.556
16595SOL     OW51225   5.212   6.337  10.035
16595SOL    HW151226   5.212   6.300  10.123
16595SOL    HW251227   5.291   6.392  10.032
16596SOL     OW51228   4.198   6.855  11.054
16596SOL    HW151229   4.174   6.854  10.962
16596SOL    HW251230   4.115   6.850  11.101
16597SOL     OW51231   4.861   7.354   9.554
16597SOL    HW151232   4.775   7.326   9.587
16597SOL    HW251233   4.878   7.294   9.481
16598SOL     OW51234   3.921   5.838  10.811
16598SOL    HW151235   3.843   5.893  10.821
16598SOL    HW251236   3.895   5.753  10.847
16599SOL     OW51237   5.356   6.974   9.399
16599SOL    HW151238   5.309   7.058   9.395
16599SOL    HW251239   5.289   6.908   9.380
16600SOL     OW51240   4.232   7.283   9.674
16600SOL    HW151241   4.248   7.368   9.717
16600SOL    HW251242   4.192   7.306   9.591
16601SOL     OW51243   5.126   5.695   9.752
16601SOL    HW151244   5.101   5.673   9.662
16601SOL    HW251245   5.222   5.688   9.753
16602SOL     OW51246   4.677   7.276  10.203
16602SOL    HW151247   4.765   7.238  10.198
16602SOL    HW251248   4.627   7.230  10.135
16603SOL     OW51249   4.139   6.273   9.794
16603SOL    HW151250   4.148   6.179   9.810
16603SOL    HW251251   4.054   6.281   9.750
16604SOL     OW51252   5.257   5.795  11.041
16604SOL    HW151253   5.263   5.829  11.130
16604SOL    HW251254   5.213   5.710  11.050
16605SOL     OW51255   4.367   5.683   9.419
16605SOL    HW151256   4.420   5.603   9.430
16605SOL    HW251257   4.308   5.663   9.347
16606SOL     OW51258   4.498   5.842  11.050
16606SOL    HW151259   4.581   5.795  11.038
16606SOL    HW251260   4.505   5.880  11.138
16607SOL     OW51261   5.007   6.168  10.763
16607SOL    HW151262   5.055   6.137  10.840
16607SOL    HW251263   5.042   6.255  10.746
16608SOL     OW51264   4.535   6.980  10.262
16608SOL    HW151265   4.619   6.976  10.216
16608SOL    HW251266   4.470   6.988  10.192
16609SOL     OW51267   4.651   6.091  10.203
16609SOL    HW151268   4.629   6.086  10.111
16609SOL    HW251269   4.668   6.001  10.229
16610SOL     OW51270   4.277   5.636   9.794
16610SOL    HW151271   4.194   5.634   9.843
16610SOL    HW251272   4.270   5.714   9.739
16611SOL     OW51273   5.155   6.794   9.349
16611SOL    HW151274   5.181   6.716   9.398
16611SOL    HW251275   5.065   6.812   9.378
16612SOL     OW51276   4.009   5.638   9.497
16612SOL    HW151277   4.041   5.707   9.439
16612SOL    HW251278   4.087   5.589   9.522
16613SOL     OW51279   4.669   5.844   9.762
16613SOL    HW151280   4.640   5.874   9.676
16613SOL    HW251281   4.763   5.859   9.762
16614SOL     OW51282   4.930   7.179  10.117
16614SOL    HW151283   4.945   7.235  10.041
16614SOL    HW251284   5.007   7.191  10.172
16615SOL     OW51285   4.203   6.731  10.040
16615SOL    HW151286   4.135   6.715  10.106
16615SOL    HW251287   4.156   6.725   9.956
16616SOL     OW51288   4.983   7.380   9.926
16616SOL    HW151289   5.034   7.437   9.869
16616SOL    HW251290   4.907   7.434   9.951
16617SOL     OW51291   4.754   6.115   9.330
16617SOL    HW151292   4.714   6.201   9.318
16617SOL    HW251293   4.811   6.126   9.406
16618SOL     OW51294   3.815   6.138  10.703
16618SOL    HW151295   3.907   6.140  10.676
16618SOL    HW251296   3.808   6.206  10.769
16619SOL     OW51297   4.290   5.828  10.490
16619SOL    HW151298   4.328   5.746  10.521
16619SOL    HW251299   4.197   5.823  10.513
16620SOL     OW51300   4.596   6.049   9.942
16620SOL    HW151301   4.550   6.103   9.877
16620SOL    HW251302   4.617   5.968   9.894
16621SOL     OW51303   4.738   5.638  10.050
16621SOL    HW151304   4.678   5.635   9.976
16621SOL    HW251305   4.715   5.562  10.103
16622SOL     OW51306   5.165   6.745  10.162
16622SOL    HW151307   5.089   6.687  10.154
16622SOL    HW251308   5.195   6.757  10.071
16623SOL     OW51309   5.190   6.205  10.286
16623SOL    HW151310   5.127   6.136  10.302
16623SOL    HW251311   5.252   6.198  10.358
16624SOL     OW51312   5.573   6.395   9.695
16624SOL    HW151313   5.628   6.341   9.752
16624SOL    HW251314   5.542   6.334   9.628
16625SOL     OW51315   4.215   7.017   9.448
16625SOL    HW151316   4.143   6.989   9.504
16625SOL    HW251317   4.208   6.960   9.371
16626SOL     OW51318   5.397   6.849   9.953
16626SOL    HW151319   5.491   6.853   9.970
16626SOL    HW251320   5.366   6.938   9.971
16627SOL     OW51321   4.257   5.844   9.620
16627SOL    HW151322   4.299   5.794   9.550
16627SOL    HW251323   4.228   5.925   9.578
16628SOL     OW51324   5.472   6.797  10.888
16628SOL    HW151325   5.493   6.763  10.975
16628SOL    HW251326   5.505   6.887  10.889
16629SOL     OW51327   4.749   6.934  10.631
16629SOL    HW151328   4.689   6.907  10.701
16629SOL    HW251329   4.836   6.904  10.661
16630SOL     OW51330   5.303   7.208  10.971
16630SOL    HW151331   5.322   7.233  10.880
16630SOL    HW251332   5.387   7.214  11.016
16631SOL     OW51333   4.874   6.800  10.403
16631SOL    HW151334   4.793   6.798  10.454
16631SOL    HW251335   4.849   6.836  10.318
16632SOL     OW51336   5.349   6.686  10.380
16632SOL    HW151337   5.337   6.749  10.451
16632SOL    HW251338   5.275   6.703  10.321
16633SOL     OW51339   4.629   5.690  10.691
16633SOL    HW151340   4.657   5.662  10.604
16633SOL    HW251341   4.706   5.731  10.729
16634SOL     OW51342   4.708   6.702  11.021
16634SOL    HW151343   4.619   6.715  11.053
16634SOL    HW251344   4.704   6.622  10.969
16635SOL     OW51345   4.433   6.643   9.679
16635SOL    HW151346   4.419   6.620   9.771
16635SOL    HW251347   4.513   6.596   9.655
16636SOL     OW51348   4.146   6.404  10.565
16636SOL    HW151349   4.214   6.412  10.632
16636SOL    HW251350   4.111   6.316  10.576
16637SOL     OW51351   5.015   5.986  10.547
16637SOL    HW151352   5.036   6.051  10.615
16637SOL    HW251353   4.920   5.979  10.550
16638SOL     OW51354   3.780   7.160  10.655
16638SOL    HW151355   3.717   7.199  10.594
16638SOL    HW251356   3.856   7.217  10.650
16639SOL     OW51357   4.065   6.714   9.804
16639SOL    HW151358   4.065   6.790   9.746
16639SOL    HW251359   4.057   6.638   9.746
16640SOL     OW51360   4.270   6.122  10.185
16640SOL    HW151361   4.278   6.174  10.105
16640SOL    HW251362   4.347   6.144  10.236
16641SOL     OW51363   4.970   6.935   9.709
16641SOL    HW151364   5.027   7.007   9.735
16641SOL    HW251365   4.883   6.963   9.737
16642SOL     OW51366   5.014   7.045  10.457
16642SOL    HW151367   5.064   7.048  10.538
16642SOL    HW251368   4.962   6.964  10.464
16643SOL     OW51369   5.285   6.198   9.797
16643SOL    HW151370   5.244   6.253   9.863
16643SOL    HW251371   5.261   6.238   9.713
16644SOL     OW51372   4.111   7.084  10.617
16644SOL    HW151373   4.080   7.053  10.532
16644SOL    HW251374   4.085   7.176  10.621
16645SOL     OW51375   4.140   6.336  10.916
16645SOL    HW151376   4.207   6.370  10.857
16645SOL    HW251377   4.167   6.245  10.932
16646SOL     OW51378   5.350   6.368  10.982
16646SOL    HW151379   5.263   6.406  10.983
16646SOL    HW251380   5.397   6.418  10.915
16647SOL     OW51381   4.734   5.707  11.027
16647SOL    HW151382   4.765   5.716  11.117
16647SOL    HW251383   4.786   5.635  10.991
16648SOL     OW51384   4.150   5.670  11.075
16648SOL    HW151385   4.134   5.614  10.999
16648SOL    HW251386   4.173   5.609  11.146
16649SOL     OW51387   4.331   6.471  10.365
16649SOL    HW151388   4.288   6.520  10.294
16649SOL    HW251389   4.260   6.449  10.425
16650SOL     OW51390   5.065   6.448  10.329
16650SOL    HW151391   4.988   6.442  10.273
16650SOL    HW251392   5.111   6.365  10.315
16651SOL     OW51393   4.882   6.105   9.570
16651SOL    HW151394   4.907   6.032   9.626
16651SOL    HW251395   4.854   6.174   9.631
16652SOL     OW51396   4.026   5.787  10.556
16652SOL    HW151397   3.985   5.813  10.638
16652SOL    HW251398   4.015   5.692  10.553
16653SOL     OW51399   3.760   6.894  10.584
16653SOL    HW151400   3.800   6.841  10.653
16653SOL    HW251401   3.777   6.985  10.611
16654SOL     OW51402   4.461   6.226  10.374
16654SOL    HW151403   4.525   6.212  10.304
16654SOL    HW251404   4.426   6.313  10.357
16655SOL     OW51405   5.454   6.560  11.163
16655SOL    HW151406   5.416   6.480  11.126
16655SOL    HW251407   5.399   6.579  11.239
16656SOL     OW51408   4.041   5.637   9.925
16656SOL    HW151409   4.017   5.726   9.951
16656SOL    HW251410   4.035   5.586  10.006
16657SOL     OW51411   5.423   5.981   9.698
16657SOL    HW151412   5.386   5.901   9.735
16657SOL    HW251413   5.364   6.050   9.729
16658SOL     OW51414   4.751   6.339  10.257
16658SOL    HW151415   4.748   6.351  10.352
16658SOL    HW251416   4.722   6.248  10.244
16659SOL     OW51417   4.697   7.145  11.035
16659SOL    HW151418   4.683   7.186  10.950
16659SOL    HW251419   4.743   7.063  11.015
16660SOL     OW51420   5.583   7.035  10.878
16660SOL    HW151421   5.610   7.096  10.810
16660SOL    HW251422   5.582   7.088  10.958
16661SOL     OW51423   4.075   6.512  11.116
16661SOL    HW151424   4.152   6.521  11.173
16661SOL    HW251425   4.101   6.446  11.052
16662SOL     OW51426   5.265   5.842   9.422
16662SOL    HW151427   5.192   5.807   9.474
16662SOL    HW251428   5.261   5.937   9.437
16663SOL     OW51429   5.038   6.407   9.360
16663SOL    HW151430   5.092   6.329   9.365
16663SOL    HW251431   5.050   6.438   9.270
16664SOL     OW51432   4.791   6.934  10.175
16664SOL    HW151433   4.794   6.862  10.112
16664SOL    HW251434   4.843   7.003  10.134
16665SOL     OW51435   4.042   6.393  10.246
16665SOL    HW151436   4.108   6.380  10.178
16665SOL    HW251437   4.036   6.307  10.289
16666SOL     OW51438   4.046   6.117  10.330
16666SOL    HW151439   4.007   6.031  10.312
16666SOL    HW251440   4.124   6.119  10.275
16667SOL     OW51441   4.866   6.002  10.987
16667SOL    HW151442   4.825   6.046  11.062
16667SOL    HW251443   4.960   6.006  11.005
16668SOL     OW51444   4.864   5.828  10.767
16668SOL    HW151445   4.855   5.810  10.861
16668SOL    HW251446   4.953   5.802  10.746
16669SOL     OW51447   3.729   6.906   9.510
16669SOL    HW151448   3.643   6.915   9.471
16669SOL    HW251449   3.731   6.817   9.545
16670SOL     OW51450   3.800   7.373  10.243
16670SOL    HW151451   3.773   7.291  10.201
16670SOL    HW251452   3.894   7.379  10.226
16671SOL     OW51453   4.216   7.170  10.219
16671SOL    HW151454   4.288   7.231  10.233
16671SOL    HW251455   4.252   7.104  10.159
16672SOL     OW51456   4.708   6.358  10.525
16672SOL    HW151457   4.730   6.401  10.607
16672SOL    HW251458   4.623   6.317  10.541
16673SOL     OW51459   3.760   6.138  10.427
16673SOL    HW151460   3.840   6.135  10.374
16673SOL    HW251461   3.791   6.131  10.518
16674SOL     OW51462   3.924   6.109  11.034
16674SOL    HW151463   3.976   6.070  10.965
16674SOL    HW251464   3.880   6.183  10.993
16675SOL     OW51465   5.117   6.511  10.964
16675SOL    HW151466   5.128   6.606  10.961
16675SOL    HW251467   5.103   6.486  10.872
16676SOL     OW51468   4.541   6.164   9.686
16676SOL    HW151469   4.549   6.090   9.626
16676SOL    HW251470   4.467   6.215   9.653
16677SOL     OW51471   5.369   6.188  10.488
16677SOL    HW151472   5.364   6.130  10.564
16677SOL    HW251473   5.457   6.174  10.453
16678SOL     OW51474   3.957   7.129  11.031
16678SOL    HW151475   3.947   7.188  11.106
16678SOL    HW251476   3.965   7.042  11.071
16679SOL     OW51477   4.451   6.045  10.576
16679SOL    HW151478   4.391   5.973  10.559
16679SOL    HW251479   4.438   6.105  10.502
16680SOL     OW51480   4.636   7.260  10.792
16680SOL    HW151481   4.553   7.292  10.756
16680SOL    HW251482   4.692   7.338  10.796
16681SOL     OW51483   4.189   6.077   9.501
16681SOL    HW151484   4.250   6.149   9.515
16681SOL    HW251485   4.103   6.119   9.499
16682SOL     OW51486   3.864   6.733  10.788
16682SOL    HW151487   3.867   6.689  10.873
16682SOL    HW251488   3.879   6.663  10.724
16683SOL     OW51489   5.046   6.630  10.527
16683SOL    HW151490   5.064   6.564  10.459
16683SOL    HW251491   4.988   6.693  10.484
16684SOL     OW51492   5.037   6.430   9.636
16684SOL    HW151493   4.955   6.401   9.675
16684SOL    HW251494   5.024   6.417   9.542
16685SOL     OW51495   5.502   7.318  10.468
16685SOL    HW151496   5.561   7.345  10.398
16685SOL    HW251497   5.474   7.230  10.444
16686SOL     OW51498   4.967   7.318  10.423
16686SOL    HW151499   5.049   7.343  10.380
16686SOL    HW251500   4.976   7.224  10.439
16687SOL     OW51501   3.808   6.856  10.314
16687SOL    HW151502   3.784   6.867  10.406
16687SOL    HW251503   3.741   6.799  10.277
16688SOL     OW51504   4.407   7.255  11.062
16688SOL    HW151505   4.338   7.310  11.024
16688SOL    HW251506   4.484   7.272  11.008
16689SOL     OW51507   5.437   5.730   9.827
16689SOL    HW151508   5.509   5.725   9.765
16689SOL    HW251509   5.427   5.641   9.861
16690SOL     OW51510   5.120   7.154   9.806
16690SOL    HW151511   5.177   7.188   9.736
16690SOL    HW251512   5.062   7.227   9.827
16691SOL     OW51513   3.859   7.385  11.163
16691SOL    HW151514   3.818   7.308  11.203
16691SOL    HW251515   3.827   7.459  11.216
16692SOL     OW51516   5.008   6.517   9.991
16692SOL    HW151517   5.083   6.457   9.994
16692SOL    HW251518   5.036   6.588   9.932
16693SOL     OW51519   4.488   6.870  10.712
16693SOL    HW151520   4.471   6.915  10.794
16693SOL    HW251521   4.402   6.856  10.674
16694SOL     OW51522   4.438   7.177   9.442
16694SOL    HW151523   4.429   7.206   9.351
16694SOL    HW251524   4.358   7.128   9.460
16695SOL     OW51525   5.345   7.310  10.703
16695SOL    HW151526   5.400   7.316  10.626
16695SOL    HW251527   5.327   7.401  10.728
16696SOL     OW51528   5.556   5.734  10.282
16696SOL    HW151529   5.611   5.658  10.260
16696SOL    HW251530   5.467   5.706  10.263
16697SOL     OW51531   3.995   5.885  10.027
16697SOL    HW151532   3.913   5.925   9.996
16697SOL    HW251533   3.987   5.884  10.122
16698SOL     OW51534   4.938   7.185   9.347
16698SOL    HW151535   4.920   7.095   9.372
16698SOL    HW251536   4.875   7.204   9.278
16699SOL     OW51537   4.545   6.595  10.667
16699SOL    HW151538   4.548   6.603  10.572
16699SOL    HW251539   4.535   6.686  10.698
16700SOL     OW51540   4.658   6.514   9.614
16700SOL    HW151541   4.716   6.542   9.542
16700SOL    HW251542   4.701   6.436   9.650
16701SOL     OW51543   5.211   7.219   9.369
16701SOL    HW151544   5.117   7.207   9.356
16701SOL    HW251545   5.246   7.230   9.281
16702SOL     OW51546   4.109   6.875  10.801
16702SOL    HW151547   4.106   6.951  10.743
16702SOL    HW251548   4.025   6.831  10.786
16703SOL     OW51549   5.338   6.879  10.594
16703SOL    HW151550   5.374   6.848  10.678
16703SOL    HW251551   5.275   6.946  10.619
16704SOL     OW51552   4.785   6.704  10.037
16704SOL    HW151553   4.710   6.652  10.066
16704SOL    HW251554   4.841   6.640   9.991
16705SOL     OW51555   4.740   5.819  10.269
16705SOL    HW151556   4.730   5.775  10.185
16705SOL    HW251557   4.729   5.750  10.334
16706SOL     OW51558   4.354   7.082   9.817
16706SOL    HW151559   4.391   7.023   9.751
16706SOL    HW251560   4.301   7.143   9.767
16707SOL     OW51561   5.445   5.992  10.686
16707SOL    HW151562   5.521   6.050  10.693
16707SOL    HW251563   5.476   5.919  10.632
16708SOL     OW51564   3.992   6.933   9.599
16708SOL    HW151565   3.899   6.924   9.581
16708SOL    HW251566   3.996   6.976   9.685
16709SOL     OW51567   3.842   6.640  11.048
16709SOL    HW151568   3.764   6.606  11.093
16709SOL    HW251569   3.914   6.587  11.082
16710SOL     OW51570   4.392   5.783  10.805
16710SOL    HW151571   4.474   5.757  10.763
16710SOL    HW251572   4.418   5.808  10.894
16711SOL     OW51573   3.784   5.918   9.369
16711SOL    HW151574   3.727   5.914   9.292
16711SOL    HW251575   3.830   6.002   9.361
16712SOL     OW51576   5.128   6.431  10.701
16712SOL    HW151577   5.085   6.499  10.648
16712SOL    HW251578   5.217   6.427  10.666
16713SOL     OW51579   3.779   5.743   9.604
16713SOL    HW151580   3.759   5.807   9.536
16713SOL    HW251581   3.868   5.712   9.583
16714SOL     OW51582   4.895   6.920   9.425
16714SOL    HW151583   4.800   6.906   9.419
16714SOL    HW251584   4.915   6.912   9.518
16715SOL     OW51585   4.352   6.406  10.747
16715SOL    HW151586   4.406   6.481  10.725
16715SOL    HW251587   4.414   6.335  10.764
16716SOL     OW51588   5.206   7.373  10.295
16716SOL    HW151589   5.223   7.434  10.223
16716SOL    HW251590   5.293   7.350  10.328
16717SOL     OW51591   4.466   6.149  11.015
16717SOL    HW151592   4.490   6.213  11.082
16717SOL    HW251593   4.462   6.065  11.061
16718SOL     OW51594   5.181   6.783  10.937
16718SOL    HW151595   5.162   6.793  11.030
16718SOL    HW251596   5.271   6.813  10.927
16719SOL     OW51597   4.121   7.303  10.886
16719SOL    HW151598   4.075   7.327  10.806
16719SOL    HW251599   4.069   7.231  10.923
16720SOL     OW51600   5.371   6.464  10.561
16720SOL    HW151601   5.376   6.378  10.520
16720SOL    HW251602   5.363   6.526  10.487
16721SOL     OW51603   4.941   5.907   9.769
16721SOL    HW151604   5.003   5.835   9.758
16721SOL    HW251605   4.975   5.957   9.843
16722SOL     OW51606   4.295   6.336  10.008
16722SOL    HW151607   4.346   6.411   9.978
16722SOL    HW251608   4.240   6.313   9.933
16723SOL     OW51609   5.482   5.951  10.955
16723SOL    HW151610   5.452   5.969  10.866
16723SOL    HW251611   5.420   5.886  10.988
16724SOL     OW51612   5.483   6.538  10.796
16724SOL    HW151613   5.448   6.625  10.816
16724SOL    HW251614   5.442   6.515  10.712
16725SOL     OW51615   4.611   6.962   9.367
16725SOL    HW151616   4.550   7.007   9.425
16725SOL    HW251617   4.629   7.027   9.298
16726SOL     OW51618   4.398   7.370  10.263
16726SOL    HW151619   4.369   7.456  10.234
16726SOL    HW251620   4.488   7.362  10.232
16727SOL     OW51621   4.590   6.559  10.177
16727SOL    HW151622   4.643   6.481  10.195
16727SOL    HW251623   4.553   6.583  10.262
16728SOL     OW51624   4.820   6.582   9.408
16728SOL    HW151625   4.791   6.624   9.327
16728SOL    HW251626   4.889   6.522   9.380
16729SOL     OW51627   5.565   7.135  10.154
16729SOL    HW151628   5.494   7.130  10.090
16729SOL    HW251629   5.533   7.087  10.230
16730SOL     OW51630   3.942   6.876  11.154
16730SOL    HW151631   3.903   6.800  11.111
16730SOL    HW251632   3.898   6.882  11.239
16731SOL     OW51633   3.802   6.814   9.965
16731SOL    HW151634   3.822   6.756  10.038
16731SOL    HW251635   3.858   6.783   9.894
16732SOL     OW51636   4.403   7.000  10.931
16732SOL    HW151637   4.332   6.953  10.975
16732SOL    HW251638   4.413   7.081  10.981
16733SOL     OW51639   5.534   5.779  10.553
16733SOL    HW151640   5.575   5.701  10.590
16733SOL    HW251641   5.549   5.771  10.458
16734SOL     OW51642   4.180   6.008   9.851
16734SOL    HW151643   4.198   5.950   9.777
16734SOL    HW251644   4.117   5.960   9.904
16735SOL     OW51645   5.419   7.065  10.392
16735SOL    HW151646   5.338   7.052  10.342
16735SOL    HW251647   5.411   7.005  10.466
16736SOL     OW51648   4.068   6.147  10.607
16736SOL    HW151649   4.116   6.081  10.658
16736SOL    HW251650   4.076   6.115  10.516
16737SOL     OW51651   4.553   7.189   9.976
16737SOL    HW151652   4.555   7.271   9.928
16737SOL    HW251653   4.482   7.139   9.935
16738SOL     OW51654   5.190   5.819  10.414
16738SOL    HW151655   5.219   5.743  10.464
16738SOL    HW251656   5.148   5.876  10.478
16739SOL     OW51657   4.728   5.603  10.444
16739SOL    HW151658   4.665   5.539  10.410
16739SOL    HW251659   4.813   5.558  10.440
16740SOL     OW51660   4.489   6.912   9.653
16740SOL    HW151661   4.458   6.822   9.650
16740SOL    HW251662   4.584   6.905   9.662
16741SOL     OW51663   4.414   7.179  10.547
16741SOL    HW151664   4.393   7.230  10.625
16741SOL    HW251665   4.360   7.217  10.478
16742SOL     OW51666   5.056   5.644   9.494
16742SOL    HW151667   5.047   5.642   9.399
16742SOL    HW251668   4.984   5.588   9.526
16743SOL     OW51669   5.027   6.046   9.994
16743SOL    HW151670   4.982   6.129   9.984
16743SOL    HW251671   4.997   6.012  10.078
16744SOL     OW51672   3.786   6.666   9.627
16744SOL    HW151673   3.873   6.636   9.601
16744SOL    HW251674   3.741   6.586   9.655
16745SOL     OW51675   4.613   7.250   9.641
16745SOL    HW151676   4.551   7.222   9.574
16745SOL    HW251677   4.565   7.315   9.693
16746SOL     OW51678   3.929   6.228  11.299
16746SOL    HW151679   3.841   6.217  11.335
16746SOL    HW251680   3.921   6.200  11.208
16747SOL     OW51681   3.718   5.984  11.791
16747SOL    HW151682   3.640   6.006  11.842
16747SOL    HW251683   3.699   5.897  11.755
16748SOL     OW51684   4.291   6.861  12.338
16748SOL    HW151685   4.205   6.899  12.359
16748SOL    HW251686   4.349   6.892  12.407
16749SOL     OW51687   5.293   7.101  11.881
16749SOL    HW151688   5.243   7.073  11.958
16749SOL    HW251689   5.229   7.107  11.811
16750SOL     OW51690   4.865   6.293  11.864
16750SOL    HW151691   4.913   6.374  11.881
16750SOL    HW251692   4.807   6.283  11.939
16751SOL     OW51693   5.525   6.172  11.389
16751SOL    HW151694   5.491   6.170  11.300
16751SOL    HW251695   5.476   6.104  11.436
16752SOL     OW51696   4.479   6.729  12.193
16752SOL    HW151697   4.412   6.753  12.257
16752SOL    HW251698   4.514   6.813  12.162
16753SOL     OW51699   4.411   6.589  11.815
16753SOL    HW151700   4.479   6.574  11.880
16753SOL    HW251701   4.344   6.640  11.861
16754SOL     OW51702   4.046   7.031  12.237
16754SOL    HW151703   3.985   6.975  12.189
16754SOL    HW251704   4.108   7.061  12.171
16755SOL     OW51705   5.322   6.022  11.926
16755SOL    HW151706   5.244   6.031  11.872
16755SOL    HW251707   5.306   6.079  12.002
16756SOL     OW51708   3.941   7.308  11.633
16756SOL    HW151709   3.966   7.376  11.695
16756SOL    HW251710   4.016   7.301  11.574
16757SOL     OW51711   3.943   7.033  11.708
16757SOL    HW151712   3.930   7.128  11.715
16757SOL    HW251713   3.900   6.997  11.786
16758SOL     OW51714   3.928   6.661  12.066
16758SOL    HW151715   3.977   6.584  12.095
16758SOL    HW251716   3.908   6.708  12.147
16759SOL     OW51717   4.294   6.574  11.317
16759SOL    HW151718   4.349   6.610  11.247
16759SOL    HW251719   4.336   6.603  11.398
16760SOL     OW51720   3.836   6.241  11.735
16760SOL    HW151721   3.807   6.150  11.737
16760SOL    HW251722   3.843   6.266  11.827
16761SOL     OW51723   5.548   7.359  11.536
16761SOL    HW151724   5.628   7.321  11.573
16761SOL    HW251725   5.579   7.435  11.487
16762SOL     OW51726   3.755   7.176  11.295
16762SOL    HW151727   3.747   7.082  11.313
16762SOL    HW251728   3.733   7.217  11.379
16763SOL     OW51729   5.418   6.510  11.831
16763SOL    HW151730   5.503   6.467  11.819
16763SOL    HW251731   5.401   6.553  11.747
16764SOL     OW51732   5.376   6.688  11.602
16764SOL    HW151733   5.463   6.684  11.563
16764SOL    HW251734   5.384   6.752  11.673
16765SOL     OW51735   3.913   6.294   0.244
16765SOL    HW151736   3.974   6.272   0.314
16765SOL    HW251737   3.848   6.351   0.286
16766SOL     OW51738   4.332   6.974  11.885
16766SOL    HW151739   4.287   6.890  11.898
16766SOL    HW251740   4.318   6.995  11.793
16767SOL     OW51741   4.556   5.604  11.679
16767SOL    HW151742   4.585   5.692  11.655
16767SOL    HW251743   4.462   5.611  11.690
16768SOL     OW51744   3.909   6.557  12.349
16768SOL    HW151745   3.997   6.524  12.364
16768SOL    HW251746   3.855   6.515  12.416
16769SOL     OW51747   5.252   6.593  11.373
16769SOL    HW151748   5.182   6.537  11.406
16769SOL    HW251749   5.297   6.625  11.451
16770SOL     OW51750   5.167   6.986  12.098
16770SOL    HW151751   5.106   7.000  12.170
16770SOL    HW251752   5.242   6.943  12.139
16771SOL     OW51753   5.342   7.387  11.743
16771SOL    HW151754   5.392   7.340  11.676
16771SOL    HW251755   5.329   7.323  11.813
16772SOL     OW51756   4.300   6.295  11.433
16772SOL    HW151757   4.304   6.384  11.397
16772SOL    HW251758   4.237   6.302  11.505
16773SOL     OW51759   5.006   5.946  12.106
16773SOL    HW151760   4.917   5.910  12.108
16773SOL    HW251761   5.055   5.889  12.165
16774SOL     OW51762   5.294   7.259  11.473
16774SOL    HW151763   5.388   7.281  11.474
16774SOL    HW251764   5.273   7.251  11.380
16775SOL     OW51765   4.716   5.986  12.373
16775SOL    HW151766   4.625   6.007  12.398
16775SOL    HW251767   4.708   5.919  12.306
16776SOL     OW51768   4.782   6.296  11.594
16776SOL    HW151769   4.806   6.288  11.686
16776SOL    HW251770   4.699   6.249  11.586
16777SOL     OW51771   3.810   6.396  11.992
16777SOL    HW151772   3.802   6.321  12.051
16777SOL    HW251773   3.903   6.420  11.996
16778SOL     OW51774   5.100   6.721  11.689
16778SOL    HW151775   5.188   6.718  11.651
16778SOL    HW251776   5.055   6.791  11.642
16779SOL     OW51777   4.286   5.776  12.065
16779SOL    HW151778   4.281   5.796  12.158
16779SOL    HW251779   4.277   5.861  12.022
16780SOL     OW51780   4.723   7.027  11.638
16780SOL    HW151781   4.695   7.107  11.593
16780SOL    HW251782   4.712   7.047  11.731
16781SOL     OW51783   4.099   7.387  12.039
16781SOL    HW151784   4.143   7.303  12.051
16781SOL    HW251785   4.160   7.452  12.072
16782SOL     OW51786   5.518   6.655  12.050
16782SOL    HW151787   5.476   6.623  11.970
16782SOL    HW251788   5.445   6.671  12.110
16783SOL     OW51789   4.027   6.546  11.429
16783SOL    HW151790   4.111   6.564  11.386
16783SOL    HW251791   4.003   6.459  11.398
16784SOL     OW51792   5.212   6.331  11.887
16784SOL    HW151793   5.208   6.280  11.968
16784SOL    HW251794   5.296   6.376  11.891
16785SOL     OW51795   4.853   7.372  11.389
16785SOL    HW151796   4.781   7.335  11.440
16785SOL    HW251797   4.875   7.304  11.325
16786SOL     OW51798   5.383   6.936  11.238
16786SOL    HW151799   5.376   7.030  11.222
16786SOL    HW251800   5.293   6.903  11.233
16787SOL     OW51801   4.190   7.359  11.465
16787SOL    HW151802   4.232   7.394  11.545
16787SOL    HW251803   4.256   7.302  11.427
16788SOL     OW51804   5.096   5.703  11.609
16788SOL    HW151805   5.059   5.685  11.522
16788SOL    HW251806   5.182   5.660  11.608
16789SOL     OW51807   3.964   7.390  12.369
16789SOL    HW151808   4.010   7.320  12.416
16789SOL    HW251809   3.923   7.345  12.295
16790SOL     OW51810   4.647   7.269  12.077
16790SOL    HW151811   4.727   7.224  12.107
16790SOL    HW251812   4.610   7.210  12.011
16791SOL     OW51813   4.114   6.284  11.641
16791SOL    HW151814   4.134   6.192  11.653
16791SOL    HW251815   4.020   6.291  11.660
16792SOL     OW51816   4.353   5.708  11.271
16792SOL    HW151817   4.425   5.760  11.306
16792SOL    HW251818   4.370   5.702  11.177
16793SOL     OW51819   4.520   6.989  12.095
16793SOL    HW151820   4.611   6.974  12.071
16793SOL    HW251821   4.470   6.967  12.016
16794SOL     OW51822   4.661   6.104  12.062
16794SOL    HW151823   4.634   6.090  11.972
16794SOL    HW251824   4.684   6.016  12.094
16795SOL     OW51825   4.281   5.643  11.674
16795SOL    HW151826   4.208   5.637  11.735
16795SOL    HW251827   4.261   5.720  11.621
16796SOL     OW51828   5.140   6.785  11.207
16796SOL    HW151829   5.176   6.715  11.261
16796SOL    HW251830   5.059   6.811  11.251
16797SOL     OW51831   4.045   5.658  11.368
16797SOL    HW151832   4.094   5.711  11.431
16797SOL    HW251833   4.067   5.568  11.391
16798SOL     OW51834   4.660   5.852  11.613
16798SOL    HW151835   4.630   5.877  11.525
16798SOL    HW251836   4.755   5.866  11.611
16799SOL     OW51837   4.929   7.158  11.961
16799SOL    HW151838   4.961   7.220  11.896
16799SOL    HW251839   4.993   7.163  12.032
16800SOL     OW51840   4.185   6.739  11.901
16800SOL    HW151841   4.136   6.698  11.972
16800SOL    HW251842   4.134   6.719  11.822
16801SOL     OW51843   4.997   7.384  11.782
16801SOL    HW151844   5.036   7.444  11.718
16801SOL    HW251845   4.975   7.440  11.857
16802SOL     OW51846   4.774   6.160  11.176
16802SOL    HW151847   4.700   6.220  11.186
16802SOL    HW251848   4.793   6.130  11.265
16803SOL     OW51849   4.289   5.818  12.344
16803SOL    HW151850   4.334   5.758  12.403
16803SOL    HW251851   4.198   5.815  12.372
16804SOL     OW51852   4.601   6.055  11.800
16804SOL    HW151853   4.555   6.107  11.734
16804SOL    HW251854   4.619   5.972  11.756
16805SOL     OW51855   4.743   5.629  11.897
16805SOL    HW151856   4.682   5.617  11.824
16805SOL    HW251857   4.718   5.561  11.960
16806SOL     OW51858   5.210   6.166  12.140
16806SOL    HW151859   5.147   6.096  12.153
16806SOL    HW251860   5.262   6.168  12.220
16807SOL     OW51861   5.554   6.381  11.562
16807SOL    HW151862   5.612   6.337  11.624
16807SOL    HW251863   5.538   6.316  11.494
16808SOL     OW51864   4.209   7.008  11.325
16808SOL    HW151865   4.131   6.976  11.370
16808SOL    HW251866   4.217   6.951  11.248
16809SOL     OW51867   5.408   6.855  11.807
16809SOL    HW151868   5.502   6.856  11.829
16809SOL    HW251869   5.376   6.941  11.836
16810SOL     OW51870   5.115   6.149  11.242
16810SOL    HW151871   5.042   6.139  11.303
16810SOL    HW251872   5.184   6.093  11.278
16811SOL     OW51873   4.227   5.837  11.477
16811SOL    HW151874   4.288   5.782  11.428
16811SOL    HW251875   4.259   5.926  11.463
16812SOL     OW51876   4.807   6.801  12.319
16812SOL    HW151877   4.719   6.809  12.356
16812SOL    HW251878   4.801   6.843  12.233
16813SOL     OW51879   5.309   6.737  12.216
16813SOL    HW151880   5.357   6.801  12.268
16813SOL    HW251881   5.265   6.682  12.280
16814SOL     OW51882   4.438   6.650  11.544
16814SOL    HW151883   4.425   6.629  11.636
16814SOL    HW251884   4.509   6.592  11.516
16815SOL     OW51885   4.147   6.427  12.420
16815SOL    HW151886   4.199   6.453  12.496
16815SOL    HW251887   4.111   6.341  12.444
16816SOL     OW51888   4.976   5.954  12.436
16816SOL    HW151889   5.008   6.039  12.466
16816SOL    HW251890   4.886   5.970  12.408
16817SOL     OW51891   4.037   6.703  11.668
16817SOL    HW151892   4.054   6.773  11.605
16817SOL    HW251893   4.039   6.623  11.616
16818SOL     OW51894   4.284   6.102  12.012
16818SOL    HW151895   4.300   6.169  11.946
16818SOL    HW251896   4.340   6.127  12.085
16819SOL     OW51897   4.974   6.942  11.556
16819SOL    HW151898   5.030   7.011  11.592
16819SOL    HW251899   4.888   6.959  11.595
16820SOL     OW51900   5.021   7.014  12.323
16820SOL    HW151901   5.070   7.058  12.393
16820SOL    HW251902   4.967   6.949  12.370
16821SOL     OW51903   5.300   6.213  11.646
16821SOL    HW151904   5.248   6.243  11.720
16821SOL    HW251905   5.351   6.290  11.620
16822SOL     OW51906   4.088   7.174  12.463
16822SOL    HW151907   4.069   7.115  12.390
16822SOL    HW251908   4.122   7.116  12.532
16823SOL     OW51909   4.316   6.476  12.207
16823SOL    HW151910   4.365   6.555  12.227
16823SOL    HW251911   4.265   6.458  12.286
16824SOL     OW51912   5.052   6.399  12.139
16824SOL    HW151913   4.962   6.372  12.158
16824SOL    HW251914   5.105   6.323  12.164
16825SOL     OW51915   4.914   6.117  11.427
16825SOL    HW151916   4.927   6.041  11.483
16825SOL    HW251917   4.872   6.182  11.483
16826SOL     OW51918   4.035   5.773  12.446
16826SOL    HW151919   3.992   5.817  12.372
16826SOL    HW251920   4.014   5.680  12.434
16827SOL     OW51921   3.823   6.923  12.453
16827SOL    HW151922   3.853   6.869  12.526
16827SOL    HW251923   3.811   7.010  12.491
16828SOL     OW51924   4.441   6.212  12.210
16828SOL    HW151925   4.521   6.197  12.160
16828SOL    HW251926   4.421   6.305  12.197
16829SOL     OW51927   4.034   5.657  11.800
16829SOL    HW151928   4.014   5.746  11.827
16829SOL    HW251929   4.042   5.607  11.881
16830SOL     OW51930   5.364   5.976  11.524
16830SOL    HW151931   5.383   5.907  11.588
16830SOL    HW251932   5.331   6.048  11.577
16831SOL     OW51933   4.761   6.344  12.146
16831SOL    HW151934   4.736   6.361  12.237
16831SOL    HW251935   4.731   6.255  12.129
16832SOL     OW51936   5.245   5.883  11.294
16832SOL    HW151937   5.190   5.808  11.316
16832SOL    HW251938   5.288   5.906  11.377
16833SOL     OW51939   5.011   6.409  11.199
16833SOL    HW151940   5.045   6.320  11.207
16833SOL    HW251941   5.051   6.443  11.119
16834SOL     OW51942   4.776   6.932  12.032
16834SOL    HW151943   4.790   6.857  11.974
16834SOL    HW251944   4.839   6.997  12.002
16835SOL     OW51945   4.067   6.428  12.094
16835SOL    HW151946   4.158   6.447  12.118
16835SOL    HW251947   4.054   6.337  12.119
16836SOL     OW51948   4.052   6.165  12.142
16836SOL    HW151949   4.009   6.083  12.166
16836SOL    HW251950   4.133   6.137  12.099
16837SOL     OW51951   4.872   5.810   0.148
16837SOL    HW151952   4.893   5.864   0.224
16837SOL    HW251953   4.918   5.852   0.076
16838SOL     OW51954   3.734   6.899  11.365
16838SOL    HW151955   3.644   6.917  11.338
16838SOL    HW251956   3.730   6.810  11.402
16839SOL     OW51957   3.825   7.368  12.106
16839SOL    HW151958   3.792   7.289  12.063
16839SOL    HW251959   3.916   7.374  12.079
16840SOL     OW51960   4.244   7.151  12.078
16840SOL    HW151961   4.312   7.138  12.144
16840SOL    HW251962   4.269   7.093  12.006
16841SOL     OW51963   4.683   6.391  12.406
16841SOL    HW151964   4.742   6.440  12.463
16841SOL    HW251965   4.650   6.320  12.460
16842SOL     OW51966   3.758   6.156  12.253
16842SOL    HW151967   3.786   6.071  12.219
16842SOL    HW251968   3.824   6.178  12.319
16843SOL     OW51969   4.539   6.180  11.541
16843SOL    HW151970   4.544   6.104  11.482
16843SOL    HW251971   4.459   6.226  11.513
16844SOL     OW51972   4.454   6.031  12.418
16844SOL    HW151973   4.388   5.965  12.402
16844SOL    HW251974   4.434   6.101  12.355
16845SOL     OW51975   4.596   7.269   0.080
16845SOL    HW151976   4.681   7.232   0.057
16845SOL    HW251977   4.611   7.363   0.087
16846SOL     OW51978   4.157   6.066  11.303
16846SOL    HW151979   4.235   6.115  11.330
16846SOL    HW251980   4.084   6.126  11.317
16847SOL     OW51981   5.044   6.654  12.294
16847SOL    HW151982   5.052   6.586  12.361
16847SOL    HW251983   4.968   6.705  12.322
16848SOL     OW51984   5.036   6.449  11.474
16848SOL    HW151985   4.970   6.405  11.528
16848SOL    HW251986   5.012   6.426  11.384
16849SOL     OW51987   5.454   7.326  12.265
16849SOL    HW151988   5.533   7.346  12.214
16849SOL    HW251989   5.452   7.231  12.270
16850SOL     OW51990   4.967   7.318  12.247
16850SOL    HW151991   5.042   7.360  12.206
16850SOL    HW251992   5.004   7.249  12.302
16851SOL     OW51993   3.769   6.846  12.199
16851SOL    HW151994   3.804   6.859  12.287
16851SOL    HW251995   3.688   6.897  12.198
16852SOL     OW51996   5.483   5.758  11.689
16852SOL    HW151997   5.537   5.743  11.611
16852SOL    HW251998   5.453   5.670  11.715
16853SOL     OW51999   5.118   7.157  11.660
16853SOL    HW152000   5.179   7.191  11.594
16853SOL    HW252001   5.072   7.235  11.693
16854SOL     OW52002   5.031   6.536  11.868
16854SOL    HW152003   5.087   6.460  11.856
16854SOL    HW252004   5.052   6.594  11.796
16855SOL     OW52005   4.389   7.209  11.336
16855SOL    HW152006   4.404   7.229  11.244
16855SOL    HW252007   4.334   7.130  11.335
16856SOL     OW52008   5.416   7.432   0.031
16856SOL    HW152009   5.409   7.375  -0.046
16856SOL    HW252010   5.342   7.406   0.087
16857SOL     OW52011   5.573   5.683  12.070
16857SOL    HW152012   5.608   5.752  12.013
16857SOL    HW252013   5.479   5.700  12.071
16858SOL     OW52014   3.977   5.914  11.878
16858SOL    HW152015   3.888   5.944  11.856
16858SOL    HW252016   3.977   5.907  11.973
16859SOL     OW52017   4.918   7.180  11.205
16859SOL    HW152018   4.911   7.090  11.237
16859SOL    HW252019   4.847   7.188  11.141
16860SOL     OW52020   4.533   6.616   0.004
16860SOL    HW152021   4.583   6.557  -0.053
16860SOL    HW252022   4.566   6.597   0.092
16861SOL     OW52023   4.635   6.491  11.444
16861SOL    HW152024   4.702   6.530  11.388
16861SOL    HW252025   4.682   6.429  11.498
16862SOL     OW52026   5.184   7.256  11.216
16862SOL    HW152027   5.095   7.222  11.206
16862SOL    HW252028   5.226   7.238  11.131
16863SOL     OW52029   4.792   6.702  11.888
16863SOL    HW152030   4.722   6.648  11.923
16863SOL    HW252031   4.858   6.639  11.859
16864SOL     OW52032   4.753   5.823  12.118
16864SOL    HW152033   4.744   5.777  12.034
16864SOL    HW252034   4.751   5.754  12.184
16865SOL     OW52035   4.324   7.063  11.627
16865SOL    HW152036   4.391   7.017  11.576
16865SOL    HW252037   4.250   7.071  11.567
16866SOL     OW52038   5.569   5.983   0.058
16866SOL    HW152039   5.502   6.040   0.021
16866SOL    HW252040   5.565   5.904   0.005
16867SOL     OW52041   3.988   6.930  11.468
16867SOL    HW152042   3.898   6.921  11.438
16867SOL    HW252043   3.980   6.969  11.555
16868SOL     OW52044   3.866   5.899  11.203
16868SOL    HW152045   3.778   5.863  11.196
16868SOL    HW252046   3.865   5.977  11.147
16869SOL     OW52047   3.773   5.724  11.494
16869SOL    HW152048   3.805   5.800  11.446
16869SOL    HW252049   3.851   5.672  11.511
16870SOL     OW52050   4.898   6.916  11.294
16870SOL    HW152051   4.816   6.866  11.303
16870SOL    HW252052   4.930   6.925  11.383
16871SOL     OW52053   5.212   7.368  12.114
16871SOL    HW152054   5.236   7.455  12.082
16871SOL    HW252055   5.278   7.348  12.180
16872SOL     OW52056   5.341   6.487  12.362
16872SOL    HW152057   5.335   6.393  12.377
16872SOL    HW252058   5.432   6.509  12.383
16873SOL     OW52059   4.941   5.926  11.626
16873SOL    HW152060   4.996   5.848  11.622
16873SOL    HW252061   4.971   5.972  11.705
16874SOL     OW52062   4.313   6.322  11.839
16874SOL    HW152063   4.352   6.408  11.826
16874SOL    HW252064   4.246   6.315  11.772
16875SOL     OW52065   5.539   6.536   0.081
16875SOL    HW152066   5.563   6.583   0.160
16875SOL    HW252067   5.447   6.511   0.095
16876SOL     OW52068   4.567   6.950  11.215
16876SOL    HW152069   4.548   6.966  11.307
16876SOL    HW252070   4.595   7.035  11.182
16877SOL     OW52071   4.602   6.553  12.018
16877SOL    HW152072   4.647   6.482  12.064
16877SOL    HW252073   4.560   6.604  12.088
16878SOL     OW52074   4.806   6.584  11.255
16878SOL    HW152075   4.790   6.629  11.172
16878SOL    HW252076   4.878   6.524  11.236
16879SOL     OW52077   5.561   7.134  12.018
16879SOL    HW152078   5.473   7.128  11.981
16879SOL    HW252079   5.566   7.063  12.082
16880SOL     OW52080   3.830   6.795  11.848
16880SOL    HW152081   3.877   6.765  11.925
16880SOL    HW252082   3.884   6.765  11.774
16881SOL     OW52083   5.571   5.757  12.394
16881SOL    HW152084   5.537   5.672  12.420
16881SOL    HW252085   5.552   5.763  12.301
16882SOL     OW52086   4.141   6.022  11.682
16882SOL    HW152087   4.174   5.942  11.641
16882SOL    HW252088   4.097   5.991  11.762
16883SOL     OW52089   5.411   7.048  12.292
16883SOL    HW152090   5.333   7.084  12.336
16883SOL    HW252091   5.465   7.015  12.364
16884SOL     OW52092   4.539   7.167  11.839
16884SOL    HW152093   4.509   7.212  11.760
16884SOL    HW252094   4.471   7.102  11.857
16885SOL     OW52095   5.166   5.821  12.301
16885SOL    HW152096   5.227   5.789  12.368
16885SOL    HW252097   5.096   5.864  12.350
16886SOL     OW52098   4.749   5.622  12.307
16886SOL    HW152099   4.679   5.558  12.297
16886SOL    HW252100   4.830   5.572  12.299
16887SOL     OW52101   4.512   6.915  11.491
16887SOL    HW152102   4.487   6.824  11.505
16887SOL    HW252103   4.590   6.928  11.545
16888SOL     OW52104   5.091   5.652  11.319
16888SOL    HW152105   5.157   5.593  11.357
16888SOL    HW252106   5.008   5.608  11.336
16889SOL     OW52107   5.034   6.057  11.855
16889SOL    HW152108   4.978   6.135  11.857
16889SOL    HW252109   5.020   6.015  11.940
16890SOL     OW52110   5.317   5.774  12.073
16890SOL    HW152111   5.261   5.796  12.148
16890SOL    HW252112   5.312   5.850  12.015
16891SOL     OW52113   3.763   6.648  11.484
16891SOL    HW152114   3.856   6.637  11.461
16891SOL    HW252115   3.734   6.560  11.506
16892SOL     OW52116   4.615   7.247  11.506
16892SOL    HW152117   4.540   7.230  11.450
16892SOL    HW252118   4.590   7.323  11.559
16893SOL     OW52119   3.949   7.718   1.001
16893SOL    HW152120   3.974   7.689   1.088
16893SOL    HW252121   3.857   7.692   0.993
16894SOL     OW52122   3.706   7.822   0.644
16894SOL    HW152123   3.627   7.868   0.671
16894SOL    HW252124   3.674   7.740   0.606
16895SOL     OW52125   5.476   0.047   0.211
16895SOL    HW152126   5.401   0.059   0.152
16895SOL    HW252127   5.449  -0.022   0.271
16896SOL     OW52128   4.167   7.860   1.516
16896SOL    HW152129   4.241   7.815   1.476
16896SOL    HW252130   4.093   7.801   1.503
16897SOL     OW52131   5.293   7.931   0.755
16897SOL    HW152132   5.229   7.902   0.690
16897SOL    HW252133   5.334   8.009   0.716
16898SOL     OW52134   5.315   7.584   1.463
16898SOL    HW152135   5.349   7.663   1.420
16898SOL    HW252136   5.293   7.613   1.552
16899SOL     OW52137   3.891   0.049   0.634
16899SOL    HW152138   3.843  -0.033   0.622
16899SOL    HW252139   3.826   0.117   0.619
16900SOL     OW52140   4.510   7.472   0.490
16900SOL    HW152141   4.544   7.552   0.451
16900SOL    HW252142   4.556   7.465   0.574
16901SOL     OW52143   4.078   7.715   1.830
16901SOL    HW152144   4.114   7.800   1.803
16901SOL    HW252145   3.985   7.732   1.844
16902SOL     OW52146   5.008   7.830   0.952
16902SOL    HW152147   4.917   7.799   0.953
16902SOL    HW252148   5.057   7.765   1.003
16903SOL     OW52149   5.127   7.923   1.696
16903SOL    HW152150   5.125   7.960   1.784
16903SOL    HW252151   5.185   7.847   1.704
16904SOL     OW52152   4.715   7.827   1.250
16904SOL    HW152153   4.638   7.853   1.301
16904SOL    HW252154   4.682   7.761   1.189
16905SOL     OW52155   4.575   7.797   0.179
16905SOL    HW152156   4.660   7.825   0.147
16905SOL    HW252157   4.591   7.711   0.219
16906SOL     OW52158   5.432   0.040   1.771
16906SOL    HW152159   5.508   0.095   1.789
16906SOL    HW252160   5.469  -0.042   1.738
16907SOL     OW52161   4.260   7.619   0.883
16907SOL    HW152162   4.263   7.651   0.973
16907SOL    HW252163   4.274   7.698   0.830
16908SOL     OW52164   3.924   7.714   1.507
16908SOL    HW152165   3.886   7.775   1.570
16908SOL    HW252166   3.894   7.628   1.535
16909SOL     OW52167   5.138   7.574   0.433
16909SOL    HW152168   5.153   7.528   0.351
16909SOL    HW252169   5.209   7.638   0.438
16910SOL     OW52170   5.257   7.668   1.731
16910SOL    HW152171   5.259   7.698   1.822
16910SOL    HW252172   5.213   7.583   1.736
16911SOL     OW52173   4.366   7.534   0.091
16911SOL    HW152174   4.461   7.540   0.102
16911SOL    HW252175   4.345   7.444   0.115
16912SOL     OW52176   4.468   7.676   1.747
16912SOL    HW152177   4.559   7.648   1.755
16912SOL    HW252178   4.470   7.770   1.763
16913SOL     OW52179   5.077   0.001   1.427
16913SOL    HW152180   5.109  -0.024   1.514
16913SOL    HW252181   5.027   0.081   1.443
16914SOL     OW52182   4.212   7.451   0.446
16914SOL    HW152183   4.149   7.476   0.514
16914SOL    HW252184   4.255   7.533   0.422
16915SOL     OW52185   4.041   7.558   0.192
16915SOL    HW152186   4.106   7.604   0.246
16915SOL    HW252187   4.072   7.468   0.189
16916SOL     OW52188   4.668   7.684   0.428
16916SOL    HW152189   4.728   7.758   0.416
16916SOL    HW252190   4.696   7.643   0.509
16917SOL     OW52191   3.819  -0.001   1.388
16917SOL    HW152192   3.876  -0.039   1.455
16917SOL    HW252193   3.803   0.088   1.419
16918SOL     OW52194   4.269   7.674   1.152
16918SOL    HW152195   4.316   7.598   1.188
16918SOL    HW252196   4.182   7.670   1.191
16919SOL     OW52197   4.273   7.707   0.302
16919SOL    HW152198   4.315   7.668   0.225
16919SOL    HW252199   4.324   7.785   0.320
16920SOL     OW52200   4.644   7.546   1.378
16920SOL    HW152201   4.672   7.522   1.290
16920SOL    HW252202   4.723   7.582   1.419
16921SOL     OW52203   4.986   7.797   1.280
16921SOL    HW152204   5.019   7.872   1.329
16921SOL    HW252205   4.893   7.815   1.269
16922SOL     OW52206   4.285   7.975   0.814
16922SOL    HW152207   4.351   8.009   0.753
16922SOL    HW252208   4.327   7.979   0.899
16923SOL     OW52209   4.723   7.586   1.753
16923SOL    HW152210   4.784   7.659   1.740
16923SOL    HW252211   4.770   7.510   1.716
16924SOL     OW52212   4.214   7.491   1.740
16924SOL    HW152213   4.144   7.435   1.707
16924SOL    HW252214   4.171   7.575   1.759
16925SOL     OW52215   4.020   7.639   1.256
16925SOL    HW152216   3.979   7.670   1.337
16925SOL    HW252217   4.001   7.545   1.255
16926SOL     OW52218   4.453   0.049   1.024
16926SOL    HW152219   4.538   0.082   0.995
16926SOL    HW252220   4.414   0.122   1.072
16927SOL     OW52221   4.023   7.510   0.636
16927SOL    HW152222   4.002   7.601   0.657
16927SOL    HW252223   4.040   7.469   0.721
16928SOL     OW52224   5.155   7.752   0.135
16928SOL    HW152225   5.155   7.657   0.141
16928SOL    HW252226   5.225   7.780   0.194
16929SOL     OW52227   4.025   7.980   1.020
16929SOL    HW152228   4.018   7.886   1.006
16929SOL    HW252229   4.106   8.006   0.976
16930SOL     OW52230   4.868   7.821   1.690
16930SOL    HW152231   4.818   7.902   1.699
16930SOL    HW252232   4.960   7.849   1.693
16931SOL     OW52233   4.884   7.636   1.483
16931SOL    HW152234   4.876   7.704   1.550
16931SOL    HW252235   4.933   7.678   1.413
16932SOL     OW52236   3.765   7.948   1.127
16932SOL    HW152237   3.846   7.953   1.077
16932SOL    HW252238   3.792   7.958   1.218
16933SOL     OW52239   3.889   7.956   1.670
16933SOL    HW152240   3.978   7.972   1.699
16933SOL    HW252241   3.837   8.026   1.711
16934SOL     OW52242   4.464   7.970   0.344
16934SOL    HW152243   4.512   7.907   0.291
16934SOL    HW252244   4.436   8.037   0.283
16935SOL     OW52245   5.335   7.974   1.144
16935SOL    HW152246   5.322   7.949   1.236
16935SOL    HW252247   5.430   7.966   1.131
16936SOL     OW52248   4.437   7.873   1.237
16936SOL    HW152249   4.372   7.809   1.209
16936SOL    HW252250   4.442   7.936   1.165
16937SOL     OW52251   4.646   7.529   0.127
16937SOL    HW152252   4.685   7.591   0.065
16937SOL    HW252253   4.716   7.512   0.190
16938SOL     OW52254   5.543   7.556   0.595
16938SOL    HW152255   5.561   7.569   0.502
16938SOL    HW252256   5.485   7.480   0.598
16939SOL     OW52257   5.578   7.542   0.908
16939SOL    HW152258   5.601   7.554   0.816
16939SOL    HW252259   5.489   7.577   0.915
16940SOL     OW52260   3.965   7.760   0.729
16940SOL    HW152261   3.874   7.786   0.715
16940SOL    HW252262   3.972   7.748   0.824
16941SOL     OW52263   4.765   7.690   0.967
16941SOL    HW152264   4.752   7.652   0.880
16941SOL    HW252265   4.757   7.615   1.026
16942SOL     OW52266   5.451   7.818   1.383
16942SOL    HW152267   5.506   7.896   1.384
16942SOL    HW252268   5.493   7.759   1.321
16943SOL     OW52269   4.393   7.603   1.494
16943SOL    HW152270   4.477   7.613   1.448
16943SOL    HW252271   4.408   7.642   1.580
16944SOL     OW52272   3.795   7.610   0.308
16944SOL    HW152273   3.807   7.699   0.342
16944SOL    HW252274   3.879   7.587   0.270
16945SOL     OW52275   4.488   7.956   1.745
16945SOL    HW152276   4.476   8.048   1.767
16945SOL    HW252277   4.561   7.956   1.682
16946SOL     OW52278   4.945   7.776   0.430
16946SOL    HW152279   5.005   7.701   0.434
16946SOL    HW252280   4.976   7.836   0.497
16947SOL     OW52281   4.321   0.272   0.654
16947SOL    HW152282   4.413   0.296   0.669
16947SOL    HW252283   4.282   0.350   0.613
16948SOL     OW52284   5.494   7.792   1.655
16948SOL    HW152285   5.475   7.804   1.562
16948SOL    HW252286   5.422   7.739   1.688
16949SOL     OW52287   5.542   7.623   1.218
16949SOL    HW152288   5.539   7.531   1.243
16949SOL    HW252289   5.542   7.622   1.122
16950SOL     OW52290   4.031   7.804   0.459
16950SOL    HW152291   4.125   7.809   0.447
16950SOL    HW252292   4.018   7.805   0.554
16951SOL     OW52293   5.154   7.667   1.111
16951SOL    HW152294   5.164   7.575   1.135
16951SOL    HW252295   5.105   7.706   1.182
16952SOL     OW52296   4.729   7.459   1.131
16952SOL    HW152297   4.683   7.404   1.067
16952SOL    HW252298   4.815   7.419   1.140
16953SOL     OW52299   5.094   7.482   0.156
16953SOL    HW152300   5.120   7.404   0.106
16953SOL    HW252301   5.006   7.461   0.187
16954SOL     OW52302   5.014   7.916   0.683
16954SOL    HW152303   4.943   7.980   0.679
16954SOL    HW252304   4.996   7.865   0.762
16955SOL     OW52305   5.336   7.658   0.906
16955SOL    HW152306   5.270   7.664   0.975
16955SOL    HW252307   5.309   7.723   0.841
16956SOL     OW52308   3.959   7.706   2.849
16956SOL    HW152309   3.982   7.684   2.939
16956SOL    HW252310   3.867   7.682   2.841
16957SOL     OW52311   3.709   7.814   2.518
16957SOL    HW152312   3.628   7.858   2.546
16957SOL    HW252313   3.679   7.736   2.472
16958SOL     OW52314   5.379   0.011   2.074
16958SOL    HW152315   5.408   0.009   1.982
16958SOL    HW252316   5.451   0.054   2.120
16959SOL     OW52317   4.149   7.816   3.304
16959SOL    HW152318   4.241   7.845   3.308
16959SOL    HW252319   4.122   7.813   3.396
16960SOL     OW52320   5.283   7.916   2.645
16960SOL    HW152321   5.216   7.914   2.577
16960SOL    HW252322   5.349   7.977   2.611
16961SOL     OW52323   5.296   7.587   3.313
16961SOL    HW152324   5.351   7.659   3.282
16961SOL    HW252325   5.286   7.602   3.407
16962SOL     OW52326   3.786   0.075   2.458
16962SOL    HW152327   3.776  -0.018   2.477
16962SOL    HW252328   3.825   0.111   2.538
16963SOL     OW52329   4.535   7.428   2.362
16963SOL    HW152330   4.588   7.506   2.341
16963SOL    HW252331   4.447   7.462   2.374
16964SOL     OW52332   4.058   7.706   3.625
16964SOL    HW152333   4.101   7.791   3.631
16964SOL    HW252334   3.983   7.713   3.685
16965SOL     OW52335   5.016   7.832   2.808
16965SOL    HW152336   4.924   7.803   2.813
16965SOL    HW252337   5.064   7.767   2.860
16966SOL     OW52338   5.113   7.899   3.541
16966SOL    HW152339   5.090   7.983   3.580
16966SOL    HW252340   5.178   7.862   3.601
16967SOL     OW52341   4.626   0.358   3.427
16967SOL    HW152342   4.711   0.375   3.468
16967SOL    HW252343   4.568   0.337   3.500
16968SOL     OW52344   4.702   7.834   3.128
16968SOL    HW152345   4.613   7.846   3.161
16968SOL    HW252346   4.695   7.758   3.069
16969SOL     OW52347   4.579   7.757   2.040
16969SOL    HW152348   4.625   7.808   1.974
16969SOL    HW252349   4.647   7.702   2.080
16970SOL     OW52350   5.490   0.015   3.685
16970SOL    HW152351   5.426   0.077   3.652
16970SOL    HW252352   5.487  -0.058   3.624
16971SOL     OW52353   4.276   7.630   2.766
16971SOL    HW152354   4.277   7.641   2.861
16971SOL    HW252355   4.278   7.719   2.731
16972SOL     OW52356   3.879   7.679   3.414
16972SOL    HW152357   3.831   7.758   3.436
16972SOL    HW252358   3.949   7.674   3.479
16973SOL     OW52359   5.114   7.546   2.305
16973SOL    HW152360   5.114   7.525   2.211
16973SOL    HW252361   5.198   7.589   2.320
16974SOL     OW52362   5.262   7.641   3.588
16974SOL    HW152363   5.274   7.668   3.679
16974SOL    HW252364   5.186   7.583   3.590
16975SOL     OW52365   4.356   7.529   1.979
16975SOL    HW152366   4.436   7.581   1.972
16975SOL    HW252367   4.321   7.528   1.890
16976SOL     OW52368   4.468   7.681   3.600
16976SOL    HW152369   4.559   7.652   3.609
16976SOL    HW252370   4.474   7.777   3.595
16977SOL     OW52371   5.089  -0.009   3.283
16977SOL    HW152372   5.088  -0.043   3.373
16977SOL    HW252373   5.152   0.063   3.286
16978SOL     OW52374   4.268   7.495   2.347
16978SOL    HW152375   4.195   7.506   2.408
16978SOL    HW252376   4.268   7.574   2.294
16979SOL     OW52377   4.023   7.528   2.031
16979SOL    HW152378   4.054   7.604   1.982
16979SOL    HW252379   4.093   7.464   2.022
16980SOL     OW52380   4.667   7.665   2.325
16980SOL    HW152381   4.627   7.751   2.342
16980SOL    HW252382   4.761   7.683   2.326
16981SOL     OW52383   3.821   0.010   3.244
16981SOL    HW152384   3.871  -0.052   3.299
16981SOL    HW252385   3.825   0.092   3.292
16982SOL     OW52386   4.277   7.652   3.039
16982SOL    HW152387   4.326   7.621   3.116
16982SOL    HW252388   4.185   7.651   3.067
16983SOL     OW52389   4.757   7.499   2.608
16983SOL    HW152390   4.694   7.505   2.536
16983SOL    HW252391   4.723   7.429   2.663
16984SOL     OW52392   4.265   7.702   2.170
16984SOL    HW152393   4.289   7.640   2.101
16984SOL    HW252394   4.312   7.782   2.148
16985SOL     OW52395   4.658   7.528   3.254
16985SOL    HW152396   4.687   7.516   3.163
16985SOL    HW252397   4.732   7.570   3.297
16986SOL     OW52398   4.976   7.819   3.118
16986SOL    HW152399   5.016   7.885   3.176
16986SOL    HW252400   4.882   7.828   3.133
16987SOL     OW52401   4.288   7.930   2.736
16987SOL    HW152402   4.265   7.998   2.672
16987SOL    HW252403   4.357   7.969   2.789
16988SOL     OW52404   4.722   7.579   3.613
16988SOL    HW152405   4.779   7.654   3.597
16988SOL    HW252406   4.775   7.503   3.588
16989SOL     OW52407   4.215   7.476   3.607
16989SOL    HW152408   4.166   7.424   3.543
16989SOL    HW252409   4.170   7.560   3.609
16990SOL     OW52410   4.014   7.649   3.118
16990SOL    HW152411   4.040   7.712   3.186
16990SOL    HW252412   3.957   7.587   3.164
16991SOL     OW52413   4.467   0.063   2.897
16991SOL    HW152414   4.543   0.117   2.874
16991SOL    HW252415   4.411   0.122   2.947
16992SOL     OW52416   4.031   7.506   2.484
16992SOL    HW152417   4.005   7.596   2.502
16992SOL    HW252418   4.038   7.465   2.571
16993SOL     OW52419   5.297   7.781   2.249
16993SOL    HW152420   5.362   7.729   2.297
16993SOL    HW252421   5.338   7.867   2.240
16994SOL     OW52422   5.218   7.738   1.989
16994SOL    HW152423   5.166   7.659   2.008
16994SOL    HW252424   5.261   7.759   2.072
16995SOL     OW52425   4.951   0.253   1.972
16995SOL    HW152426   5.027   0.195   1.967
16995SOL    HW252427   4.941   0.286   1.883
16996SOL     OW52428   4.020   7.964   2.822
16996SOL    HW152429   4.001   7.871   2.833
16996SOL    HW252430   4.115   7.970   2.828
16997SOL     OW52431   4.863   7.801   3.545
16997SOL    HW152432   4.811   7.872   3.585
16997SOL    HW252433   4.953   7.833   3.547
16998SOL     OW52434   4.896   7.637   3.332
16998SOL    HW152435   4.882   7.696   3.406
16998SOL    HW252436   4.953   7.686   3.273
16999SOL     OW52437   3.777   7.960   2.977
16999SOL    HW152438   3.860   7.967   2.929
16999SOL    HW252439   3.803   7.961   3.069
17000SOL     OW52440   3.874   7.959   3.521
17000SOL    HW152441   3.966   7.965   3.545
17000SOL    HW252442   3.838   8.044   3.544
17001SOL     OW52443   4.544   0.041   2.108
17001SOL    HW152444   4.560  -0.053   2.120
17001SOL    HW252445   4.562   0.080   2.193
17002SOL     OW52446   5.345   7.980   3.020
17002SOL    HW152447   5.338   7.949   3.110
17002SOL    HW252448   5.439   7.987   3.004
17003SOL     OW52449   4.434   7.880   3.105
17003SOL    HW152450   4.362   7.822   3.084
17003SOL    HW252451   4.438   7.942   3.031
17004SOL     OW52452   5.464   7.603   2.370
17004SOL    HW152453   5.530   7.588   2.303
17004SOL    HW252454   5.440   7.516   2.401
17005SOL     OW52455   5.562   7.620   2.818
17005SOL    HW152456   5.594   7.532   2.800
17005SOL    HW252457   5.471   7.619   2.786
17006SOL     OW52458   3.978   7.758   2.566
17006SOL    HW152459   3.888   7.787   2.555
17006SOL    HW252460   3.989   7.749   2.661
17007SOL     OW52461   4.777   7.687   2.816
17007SOL    HW152462   4.774   7.636   2.736
17007SOL    HW252463   4.766   7.623   2.886
17008SOL     OW52464   5.454   7.836   3.246
17008SOL    HW152465   5.527   7.898   3.249
17008SOL    HW252466   5.486   7.766   3.189
17009SOL     OW52467   4.406   7.603   3.340
17009SOL    HW152468   4.498   7.590   3.316
17009SOL    HW252469   4.409   7.635   3.430
17010SOL     OW52470   3.814   7.771   1.884
17010SOL    HW152471   3.730   7.733   1.858
17010SOL    HW252472   3.815   7.857   1.843
17011SOL     OW52473   3.791   7.592   2.169
17011SOL    HW152474   3.771   7.676   2.127
17011SOL    HW252475   3.877   7.568   2.136
17012SOL     OW52476   4.925   7.747   2.334
17012SOL    HW152477   4.994   7.681   2.320
17012SOL    HW252478   4.965   7.810   2.395
17013SOL     OW52479   4.334   0.200   2.475
17013SOL    HW152480   4.382   0.280   2.459
17013SOL    HW252481   4.305   0.206   2.566
17014SOL     OW52482   5.472   7.803   3.521
17014SOL    HW152483   5.465   7.814   3.426
17014SOL    HW252484   5.405   7.739   3.542
17015SOL     OW52485   5.532   7.630   3.095
17015SOL    HW152486   5.578   7.553   3.128
17015SOL    HW252487   5.546   7.628   3.000
17016SOL     OW52488   4.152   7.871   2.366
17016SOL    HW152489   4.172   7.795   2.310
17016SOL    HW252490   4.103   7.834   2.439
17017SOL     OW52491   5.168   7.682   2.981
17017SOL    HW152492   5.218   7.622   3.037
17017SOL    HW252493   5.105   7.723   3.041
17018SOL     OW52494   4.743   7.473   2.995
17018SOL    HW152495   4.679   7.407   2.970
17018SOL    HW252496   4.828   7.429   2.986
17019SOL     OW52497   5.090   7.496   2.029
17019SOL    HW152498   5.135   7.416   2.001
17019SOL    HW252499   4.999   7.468   2.045
17020SOL     OW52500   5.016   7.912   2.544
17020SOL    HW152501   4.949   7.980   2.543
17020SOL    HW252502   5.010   7.873   2.631
17021SOL     OW52503   5.300   7.645   2.743
17021SOL    HW152504   5.254   7.656   2.827
17021SOL    HW252505   5.290   7.729   2.699
17022SOL     OW52506   3.950   7.707   4.709
17022SOL    HW152507   3.979   7.684   4.797
17022SOL    HW252508   3.859   7.677   4.705
17023SOL     OW52509   3.716   7.836   4.357
17023SOL    HW152510   3.635   7.872   4.394
17023SOL    HW252511   3.690   7.754   4.316
17024SOL     OW52512   5.434   0.037   3.958
17024SOL    HW152513   5.458   0.030   3.866
17024SOL    HW252514   5.406  -0.052   3.982
17025SOL     OW52515   4.153   7.860   5.263
17025SOL    HW152516   4.234   7.823   5.228
17025SOL    HW252517   4.085   7.799   5.233
17026SOL     OW52518   5.317   7.891   4.442
17026SOL    HW152519   5.231   7.894   4.401
17026SOL    HW252520   5.307   7.941   4.523
17027SOL     OW52521   5.307   7.570   5.188
17027SOL    HW152522   5.370   7.634   5.154
17027SOL    HW252523   5.284   7.603   5.275
17028SOL     OW52524   3.813   0.109   4.225
17028SOL    HW152525   3.812   0.015   4.243
17028SOL    HW252526   3.885   0.142   4.279
17029SOL     OW52527   4.538   7.429   4.243
17029SOL    HW152528   4.584   7.508   4.217
17029SOL    HW252529   4.446   7.454   4.245
17030SOL     OW52530   4.056   7.703   5.525
17030SOL    HW152531   4.097   7.787   5.503
17030SOL    HW252532   3.973   7.727   5.566
17031SOL     OW52533   4.976   7.810   4.665
17031SOL    HW152534   4.891   7.769   4.677
17031SOL    HW252535   5.037   7.754   4.713
17032SOL     OW52536   5.128   7.915   5.408
17032SOL    HW152537   5.196   7.981   5.424
17032SOL    HW252538   5.176   7.832   5.406
17033SOL     OW52539   4.625   0.348   5.319
17033SOL    HW152540   4.702   0.316   5.271
17033SOL    HW252541   4.588   0.416   5.263
17034SOL     OW52542   4.707   7.812   4.952
17034SOL    HW152543   4.616   7.830   4.976
17034SOL    HW252544   4.701   7.754   4.876
17035SOL     OW52545   4.628   7.788   3.911
17035SOL    HW152546   4.649   7.836   3.832
17035SOL    HW252547   4.680   7.707   3.904
17036SOL     OW52548   5.442   0.030   5.542
17036SOL    HW152549   5.447   0.071   5.456
17036SOL    HW252550   5.458  -0.063   5.525
17037SOL     OW52551   4.272   7.619   4.622
17037SOL    HW152552   4.279   7.646   4.713
17037SOL    HW252553   4.273   7.701   4.573
17038SOL     OW52554   3.928   7.713   5.209
17038SOL    HW152555   3.845   7.756   5.228
17038SOL    HW252556   3.930   7.637   5.267
17039SOL     OW52557   5.130   7.550   4.168
17039SOL    HW152558   5.125   7.530   4.075
17039SOL    HW252559   5.224   7.557   4.186
17040SOL     OW52560   5.236   7.658   5.448
17040SOL    HW152561   5.235   7.683   5.540
17040SOL    HW252562   5.171   7.588   5.442
17041SOL     OW52563   4.328   7.558   3.843
17041SOL    HW152564   4.418   7.584   3.821
17041SOL    HW252565   4.293   7.523   3.761
17042SOL     OW52566   4.471   7.672   5.479
17042SOL    HW152567   4.561   7.639   5.481
17042SOL    HW252568   4.480   7.767   5.481
17043SOL     OW52569   5.074   0.012   5.143
17043SOL    HW152570   5.092  -0.019   5.232
17043SOL    HW252571   5.141   0.079   5.127
17044SOL     OW52572   4.277   7.507   4.222
17044SOL    HW152573   4.198   7.513   4.276
17044SOL    HW252574   4.279   7.589   4.173
17045SOL     OW52575   4.029   7.492   3.902
17045SOL    HW152576   4.103   7.547   3.878
17045SOL    HW252577   4.068   7.419   3.951
17046SOL     OW52578   4.664   7.660   4.179
17046SOL    HW152579   4.636   7.728   4.118
17046SOL    HW252580   4.756   7.681   4.198
17047SOL     OW52581   3.869   0.031   5.087
17047SOL    HW152582   3.922  -0.032   5.135
17047SOL    HW252583   3.856   0.104   5.148
17048SOL     OW52584   4.283   7.669   4.890
17048SOL    HW152585   4.324   7.599   4.942
17048SOL    HW252586   4.191   7.668   4.918
17049SOL     OW52587   4.734   7.509   4.478
17049SOL    HW152588   4.685   7.505   4.395
17049SOL    HW252589   4.713   7.427   4.523
17050SOL     OW52590   5.209   7.974   4.678
17050SOL    HW152591   5.125   7.933   4.697
17050SOL    HW252592   5.246   7.997   4.763
17051SOL     OW52593   4.279   7.722   4.054
17051SOL    HW152594   4.295   7.665   3.979
17051SOL    HW252595   4.334   7.799   4.037
17052SOL     OW52596   4.639   7.536   5.112
17052SOL    HW152597   4.665   7.512   5.023
17052SOL    HW252598   4.718   7.575   5.150
17053SOL     OW52599   4.979   7.795   5.012
17053SOL    HW152600   5.011   7.876   5.050
17053SOL    HW252601   4.887   7.813   4.992
17054SOL     OW52602   4.269  -0.024   4.587
17054SOL    HW152603   4.318  -0.028   4.504
17054SOL    HW252604   4.285   0.064   4.620
17055SOL     OW52605   4.728   7.588   5.489
17055SOL    HW152606   4.784   7.663   5.467
17055SOL    HW252607   4.777   7.512   5.455
17056SOL     OW52608   4.023   7.644   4.965
17056SOL    HW152609   3.985   7.673   5.048
17056SOL    HW252610   4.017   7.549   4.968
17057SOL     OW52611   4.039   7.517   4.359
17057SOL    HW152612   4.013   7.608   4.376
17057SOL    HW252613   4.047   7.478   4.446
17058SOL     OW52614   5.338   7.811   4.091
17058SOL    HW152615   5.379   7.740   4.141
17058SOL    HW252616   5.310   7.874   4.158
17059SOL     OW52617   5.251   7.715   3.845
17059SOL    HW152618   5.190   7.647   3.874
17059SOL    HW252619   5.280   7.757   3.926
17060SOL     OW52620   4.024   7.963   4.720
17060SOL    HW152621   4.008   7.869   4.715
17060SOL    HW252622   4.113   7.973   4.687
17061SOL     OW52623   4.870   7.819   5.420
17061SOL    HW152624   4.816   7.897   5.428
17061SOL    HW252625   4.960   7.852   5.421
17062SOL     OW52626   4.880   7.634   5.211
17062SOL    HW152627   4.874   7.703   5.277
17062SOL    HW252628   4.926   7.674   5.138
17063SOL     OW52629   3.769   7.964   4.837
17063SOL    HW152630   3.853   7.964   4.790
17063SOL    HW252631   3.794   7.959   4.930
17064SOL     OW52632   3.925   7.970   5.436
17064SOL    HW152633   3.986   7.942   5.368
17064SOL    HW252634   3.841   7.930   5.411
17065SOL     OW52635   4.499   8.016   3.987
17065SOL    HW152636   4.554   7.940   3.970
17065SOL    HW252637   4.505   8.030   4.081
17066SOL     OW52638   5.339   0.034   4.923
17066SOL    HW152639   5.344   0.030   5.019
17066SOL    HW252640   5.417  -0.011   4.893
17067SOL     OW52641   4.444   7.886   4.950
17067SOL    HW152642   4.382   7.818   4.924
17067SOL    HW252643   4.393   7.967   4.947
17068SOL     OW52644   5.447   7.599   4.227
17068SOL    HW152645   5.521   7.583   4.168
17068SOL    HW252646   5.430   7.515   4.268
17069SOL     OW52647   5.569   7.625   4.675
17069SOL    HW152648   5.596   7.535   4.655
17069SOL    HW252649   5.482   7.633   4.637
17070SOL     OW52650   3.975   7.770   4.439
17070SOL    HW152651   3.887   7.803   4.417
17070SOL    HW252652   3.972   7.754   4.533
17071SOL     OW52653   4.743   7.667   4.707
17071SOL    HW152654   4.738   7.631   4.618
17071SOL    HW252655   4.742   7.590   4.764
17072SOL     OW52656   5.495   7.774   5.146
17072SOL    HW152657   5.461   7.862   5.131
17072SOL    HW252658   5.506   7.738   5.058
17073SOL     OW52659   4.395   7.625   5.216
17073SOL    HW152660   4.481   7.612   5.175
17073SOL    HW252661   4.415   7.647   5.307
17074SOL     OW52662   3.818   7.776   3.750
17074SOL    HW152663   3.736   7.746   3.712
17074SOL    HW252664   3.829   7.865   3.717
17075SOL     OW52665   3.799   7.606   4.020
17075SOL    HW152666   3.792   7.689   3.974
17075SOL    HW252667   3.882   7.569   3.992
17076SOL     OW52668   4.508   7.937   5.484
17076SOL    HW152669   4.434   7.998   5.475
17076SOL    HW252670   4.585   7.991   5.467
17077SOL     OW52671   4.925   7.733   4.213
17077SOL    HW152672   4.996   7.673   4.192
17077SOL    HW252673   4.965   7.796   4.273
17078SOL     OW52674   4.345   0.263   4.398
17078SOL    HW152675   4.405   0.337   4.384
17078SOL    HW252676   4.339   0.220   4.313
17079SOL     OW52677   5.482   7.774   5.427
17079SOL    HW152678   5.492   7.802   5.336
17079SOL    HW252679   5.402   7.722   5.428
17080SOL     OW52680   5.539   7.603   4.945
17080SOL    HW152681   5.532   7.507   4.943
17080SOL    HW252682   5.551   7.628   4.853
17081SOL     OW52683   4.050   7.845   4.153
17081SOL    HW152684   4.128   7.795   4.131
17081SOL    HW252685   4.042   7.836   4.248
17082SOL     OW52686   5.149   7.675   4.829
17082SOL    HW152687   5.176   7.588   4.858
17082SOL    HW252688   5.101   7.711   4.904
17083SOL     OW52689   4.728   7.443   4.865
17083SOL    HW152690   4.680   7.379   4.812
17083SOL    HW252691   4.818   7.410   4.867
17084SOL     OW52692   5.091   7.494   3.898
17084SOL    HW152693   5.130   7.419   3.854
17084SOL    HW252694   5.000   7.467   3.915
17085SOL     OW52695   5.039   7.896   4.405
17085SOL    HW152696   5.021   7.990   4.401
17085SOL    HW252697   5.020   7.871   4.495
17086SOL     OW52698   5.307   7.650   4.599
17086SOL    HW152699   5.253   7.676   4.674
17086SOL    HW252700   5.304   7.725   4.540
17087SOL     OW52701   3.939   7.752   6.593
17087SOL    HW152702   3.976   7.708   6.670
17087SOL    HW252703   3.856   7.707   6.577
17088SOL     OW52704   3.708   7.779   6.259
17088SOL    HW152705   3.629   7.826   6.283
17088SOL    HW252706   3.679   7.714   6.195
17089SOL     OW52707   5.438   0.011   5.842
17089SOL    HW152708   5.432   0.064   5.763
17089SOL    HW252709   5.480  -0.070   5.812
17090SOL     OW52710   4.175   7.829   7.145
17090SOL    HW152711   4.244   7.785   7.096
17090SOL    HW252712   4.094   7.789   7.113
17091SOL     OW52713   5.319   7.937   6.279
17091SOL    HW152714   5.229   7.927   6.250
17091SOL    HW252715   5.312   7.978   6.365
17092SOL     OW52716   5.312   7.580   7.048
17092SOL    HW152717   5.355   7.659   7.014
17092SOL    HW252718   5.286   7.603   7.137
17093SOL     OW52719   3.832   0.062   6.241
17093SOL    HW152720   3.758   0.011   6.208
17093SOL    HW252721   3.831   0.143   6.190
17094SOL     OW52722   4.546   7.428   6.108
17094SOL    HW152723   4.590   7.509   6.082
17094SOL    HW252724   4.453   7.451   6.110
17095SOL     OW52725   4.059   7.695   7.425
17095SOL    HW152726   4.087   7.769   7.369
17095SOL    HW252727   3.967   7.713   7.443
17096SOL     OW52728   4.992   7.730   6.516
17096SOL    HW152729   4.899   7.735   6.539
17096SOL    HW252730   4.993   7.705   6.423
17097SOL     OW52731   5.114   7.909   7.262
17097SOL    HW152732   5.148   7.997   7.282
17097SOL    HW252733   5.187   7.850   7.282
17098SOL     OW52734   4.658   0.407   7.086
17098SOL    HW152735   4.710   0.327   7.073
17098SOL    HW252736   4.570   0.383   7.058
17099SOL     OW52737   4.732   7.809   6.819
17099SOL    HW152738   4.647   7.834   6.858
17099SOL    HW252739   4.709   7.759   6.741
17100SOL     OW52740   4.612   7.795   5.769
17100SOL    HW152741   4.620   7.835   5.683
17100SOL    HW252742   4.653   7.709   5.760
17101SOL     OW52743   5.488   0.025   7.430
17101SOL    HW152744   5.416   0.081   7.402
17101SOL    HW252745   5.487  -0.048   7.368
17102SOL     OW52746   4.280   7.628   6.484
17102SOL    HW152747   4.283   7.656   6.576
17102SOL    HW252748   4.280   7.710   6.434
17103SOL     OW52749   3.934   7.718   7.077
17103SOL    HW152750   3.868   7.787   7.070
17103SOL    HW252751   3.887   7.644   7.115
17104SOL     OW52752   5.126   7.548   6.021
17104SOL    HW152753   5.108   7.519   5.932
17104SOL    HW252754   5.205   7.603   6.013
17105SOL     OW52755   5.249   7.659   7.310
17105SOL    HW152756   5.261   7.675   7.404
17105SOL    HW252757   5.165   7.613   7.305
17106SOL     OW52758   4.322   7.533   5.654
17106SOL    HW152759   4.384   7.470   5.689
17106SOL    HW252760   4.373   7.586   5.594
17107SOL     OW52761   4.495   7.731   7.338
17107SOL    HW152762   4.571   7.674   7.340
17107SOL    HW252763   4.443   7.704   7.414
17108SOL     OW52764   5.068  -0.008   6.997
17108SOL    HW152765   5.092  -0.032   7.086
17108SOL    HW252766   5.010   0.068   7.007
17109SOL     OW52767   4.284   7.506   6.084
17109SOL    HW152768   4.202   7.512   6.135
17109SOL    HW252769   4.282   7.582   6.026
17110SOL     OW52770   4.045   7.514   5.774
17110SOL    HW152771   4.095   7.591   5.803
17110SOL    HW252772   4.084   7.441   5.823
17111SOL     OW52773   4.667   7.665   6.053
17111SOL    HW152774   4.623   7.743   6.020
17111SOL    HW252775   4.759   7.689   6.059
17112SOL     OW52776   3.796   7.959   7.026
17112SOL    HW152777   3.807   7.955   6.931
17112SOL    HW252778   3.768   8.048   7.043
17113SOL     OW52779   4.286   7.671   6.758
17113SOL    HW152780   4.316   7.584   6.784
17113SOL    HW252781   4.193   7.673   6.783
17114SOL     OW52782   4.756   7.486   6.332
17114SOL    HW152783   4.690   7.483   6.263
17114SOL    HW252784   4.738   7.409   6.387
17115SOL     OW52785   5.214   7.941   6.549
17115SOL    HW152786   5.121   7.938   6.570
17115SOL    HW252787   5.249   8.013   6.602
17116SOL     OW52788   4.275   7.702   5.890
17116SOL    HW152789   4.309   7.666   5.808
17116SOL    HW252790   4.290   7.797   5.882
17117SOL     OW52791   4.640   7.532   6.998
17117SOL    HW152792   4.658   7.515   6.905
17117SOL    HW252793   4.720   7.574   7.030
17118SOL     OW52794   5.004   7.774   6.839
17118SOL    HW152795   5.039   7.851   6.885
17118SOL    HW252796   4.911   7.793   6.827
17119SOL     OW52797   4.270   7.914   6.428
17119SOL    HW152798   4.221   7.949   6.353
17119SOL    HW252799   4.301   7.991   6.474
17120SOL     OW52800   4.722   7.583   7.353
17120SOL    HW152801   4.779   7.657   7.331
17120SOL    HW252802   4.771   7.506   7.323
17121SOL     OW52803   4.211   7.478   7.350
17121SOL    HW152804   4.165   7.430   7.281
17121SOL    HW252805   4.158   7.557   7.362
17122SOL     OW52806   4.025   7.638   6.830
17122SOL    HW152807   3.990   7.670   6.914
17122SOL    HW252808   4.005   7.544   6.830
17123SOL     OW52809   4.480   0.073   6.622
17123SOL    HW152810   4.501   0.090   6.530
17123SOL    HW252811   4.411   0.135   6.642
17124SOL     OW52812   4.037   7.510   6.211
17124SOL    HW152813   4.010   7.600   6.231
17124SOL    HW252814   4.046   7.468   6.296
17125SOL     OW52815   5.306   7.768   5.970
17125SOL    HW152816   5.377   7.731   6.022
17125SOL    HW252817   5.323   7.862   5.970
17126SOL     OW52818   5.211   7.728   5.712
17126SOL    HW152819   5.157   7.652   5.729
17126SOL    HW252820   5.254   7.747   5.795
17127SOL     OW52821   4.975   0.243   5.669
17127SOL    HW152822   5.068   0.267   5.671
17127SOL    HW252823   4.940   0.291   5.594
17128SOL     OW52824   4.051   8.007   6.628
17128SOL    HW152825   4.034   7.918   6.598
17128SOL    HW252826   4.105   8.045   6.558
17129SOL     OW52827   4.862   7.816   7.283
17129SOL    HW152828   4.814   7.897   7.300
17129SOL    HW252829   4.954   7.843   7.278
17130SOL     OW52830   4.886   7.637   7.073
17130SOL    HW152831   4.872   7.705   7.139
17130SOL    HW252832   4.925   7.683   6.999
17131SOL     OW52833   3.791   7.939   6.756
17131SOL    HW152834   3.852   7.889   6.701
17131SOL    HW252835   3.762   8.011   6.700
17132SOL     OW52836   3.928   7.951   7.309
17132SOL    HW152837   3.942   7.939   7.215
17132SOL    HW252838   3.869   8.026   7.316
17133SOL     OW52839   4.547   0.059   5.842
17133SOL    HW152840   4.573  -0.033   5.830
17133SOL    HW252841   4.503   0.060   5.927
17134SOL     OW52842   5.352   8.026   6.787
17134SOL    HW152843   5.335   7.993   6.875
17134SOL    HW252844   5.412   7.961   6.749
17135SOL     OW52845   4.462   7.878   6.819
17135SOL    HW152846   4.395   7.812   6.801
17135SOL    HW252847   4.455   7.939   6.746
17136SOL     OW52848   5.482   7.599   6.105
17136SOL    HW152849   5.539   7.585   6.029
17136SOL    HW252850   5.451   7.511   6.129
17137SOL     OW52851   5.564   7.623   6.552
17137SOL    HW152852   5.584   7.536   6.518
17137SOL    HW252853   5.477   7.643   6.517
17138SOL     OW52854   3.974   7.757   6.308
17138SOL    HW152855   3.883   7.778   6.289
17138SOL    HW252856   3.981   7.766   6.403
17139SOL     OW52857   4.735   7.668   6.562
17139SOL    HW152858   4.720   7.632   6.475
17139SOL    HW252859   4.722   7.594   6.622
17140SOL     OW52860   5.462   7.804   6.981
17140SOL    HW152861   5.518   7.881   6.975
17140SOL    HW252862   5.499   7.742   6.919
17141SOL     OW52863   4.398   7.635   7.091
17141SOL    HW152864   4.481   7.614   7.048
17141SOL    HW252865   4.423   7.679   7.172
17142SOL     OW52866   3.814   7.775   5.646
17142SOL    HW152867   3.759   7.769   5.568
17142SOL    HW252868   3.835   7.868   5.655
17143SOL     OW52869   3.778   7.601   5.872
17143SOL    HW152870   3.765   7.668   5.805
17143SOL    HW252871   3.873   7.591   5.878
17144SOL     OW52872   4.503   8.012   7.308
17144SOL    HW152873   4.409   8.026   7.296
17144SOL    HW252874   4.513   7.917   7.306
17145SOL     OW52875   4.930   7.739   6.074
17145SOL    HW152876   4.999   7.679   6.044
17145SOL    HW252877   4.977   7.806   6.124
17146SOL     OW52878   5.478   7.801   7.264
17146SOL    HW152879   5.479   7.818   7.170
17146SOL    HW252880   5.402   7.745   7.278
17147SOL     OW52881   5.546   7.602   6.823
17147SOL    HW152882   5.536   7.507   6.819
17147SOL    HW252883   5.556   7.629   6.731
17148SOL     OW52884   4.059   7.826   6.048
17148SOL    HW152885   4.151   7.799   6.044
17148SOL    HW252886   4.035   7.816   6.140
17149SOL     OW52887   4.736   7.470   6.749
17149SOL    HW152888   4.700   7.404   6.690
17149SOL    HW252889   4.828   7.446   6.760
17150SOL     OW52890   5.080   7.492   5.755
17150SOL    HW152891   5.118   7.423   5.700
17150SOL    HW252892   4.993   7.460   5.777
17151SOL     OW52893   5.035   7.911   6.278
17151SOL    HW152894   4.961   7.965   6.251
17151SOL    HW252895   5.023   7.899   6.372
17152SOL     OW52896   5.301   7.685   6.479
17152SOL    HW152897   5.280   7.666   6.387
17152SOL    HW252898   5.280   7.777   6.490
17153SOL     OW52899   3.942   7.739   8.450
17153SOL    HW152900   3.975   7.704   8.533
17153SOL    HW252901   3.856   7.699   8.440
17154SOL     OW52902   3.705   7.774   8.129
17154SOL    HW152903   3.638   7.841   8.139
17154SOL    HW252904   3.669   7.713   8.063
17155SOL     OW52905   5.481   0.038   7.708
17155SOL    HW152906   5.486   0.035   7.613
17155SOL    HW252907   5.437  -0.043   7.733
17156SOL     OW52908   4.125   7.888   8.997
17156SOL    HW152909   4.209   7.853   8.970
17156SOL    HW252910   4.061   7.821   8.970
17157SOL     OW52911   5.322   7.952   8.144
17157SOL    HW152912   5.234   7.927   8.118
17157SOL    HW252913   5.313   7.979   8.236
17158SOL     OW52914   5.298   7.571   8.905
17158SOL    HW152915   5.272   7.593   8.815
17158SOL    HW252916   5.270   7.647   8.957
17159SOL     OW52917   3.783   0.073   8.097
17159SOL    HW152918   3.818   0.001   8.044
17159SOL    HW252919   3.835   0.149   8.072
17160SOL     OW52920   4.526   7.425   7.945
17160SOL    HW152921   4.584   7.501   7.943
17160SOL    HW252922   4.439   7.462   7.961
17161SOL     OW52923   4.028   7.671   9.218
17161SOL    HW152924   4.090   7.742   9.237
17161SOL    HW252925   3.994   7.646   9.304
17162SOL     OW52926   5.018   7.786   8.422
17162SOL    HW152927   4.929   7.750   8.424
17162SOL    HW252928   5.069   7.727   8.478
17163SOL     OW52929   5.149   7.959   9.138
17163SOL    HW152930   5.065   7.937   9.178
17163SOL    HW252931   5.196   7.876   9.133
17164SOL     OW52932   4.656   0.344   9.024
17164SOL    HW152933   4.643   0.272   8.961
17164SOL    HW252934   4.609   0.418   8.986
17165SOL     OW52935   4.686   7.813   8.701
17165SOL    HW152936   4.617   7.784   8.761
17165SOL    HW252937   4.674   7.760   8.622
17166SOL     OW52938   4.628   7.774   7.645
17166SOL    HW152939   4.645   7.823   7.564
17166SOL    HW252940   4.674   7.691   7.633
17167SOL     OW52941   5.461   0.032   9.264
17167SOL    HW152942   5.408   0.088   9.207
17167SOL    HW252943   5.475  -0.048   9.213
17168SOL     OW52944   4.258   7.623   8.355
17168SOL    HW152945   4.270   7.636   8.450
17168SOL    HW252946   4.264   7.711   8.319
17169SOL     OW52947   3.918   7.716   8.960
17169SOL    HW152948   3.824   7.725   8.974
17169SOL    HW252949   3.951   7.675   9.040
17170SOL     OW52950   5.151   7.588   7.867
17170SOL    HW152951   5.128   7.541   7.787
17170SOL    HW252952   5.125   7.529   7.937
17171SOL     OW52953   5.233   7.691   9.172
17171SOL    HW152954   5.226   7.707   9.267
17171SOL    HW252955   5.173   7.619   9.156
17172SOL     OW52956   4.365   7.556   7.559
17172SOL    HW152957   4.448   7.510   7.549
17172SOL    HW252958   4.313   7.528   7.484
17173SOL     OW52959   4.527   7.750   9.195
17173SOL    HW152960   4.588   7.676   9.203
17173SOL    HW252961   4.475   7.729   9.117
17174SOL     OW52962   5.137   0.059   8.868
17174SOL    HW152963   5.141   0.004   8.946
17174SOL    HW252964   5.053   0.106   8.876
17175SOL     OW52965   4.260   7.505   7.942
17175SOL    HW152966   4.183   7.513   7.998
17175SOL    HW252967   4.263   7.588   7.893
17176SOL     OW52968   4.013   7.508   7.634
17176SOL    HW152969   4.048   7.575   7.576
17176SOL    HW252970   4.090   7.457   7.661
17177SOL     OW52971   4.677   7.656   7.904
17177SOL    HW152972   4.644   7.721   7.841
17177SOL    HW252973   4.767   7.683   7.920
17178SOL     OW52974   3.815  -0.000   8.881
17178SOL    HW152975   3.905  -0.034   8.880
17178SOL    HW252976   3.825   0.092   8.902
17179SOL     OW52977   4.276   7.658   8.623
17179SOL    HW152978   4.327   7.665   8.703
17179SOL    HW252979   4.185   7.662   8.651
17180SOL     OW52980   4.703   7.532   8.220
17180SOL    HW152981   4.753   7.524   8.139
17180SOL    HW252982   4.700   7.443   8.255
17181SOL     OW52983   5.212   7.979   8.401
17181SOL    HW152984   5.143   7.914   8.415
17181SOL    HW252985   5.251   7.993   8.487
17182SOL     OW52986   4.265   7.716   7.767
17182SOL    HW152987   4.298   7.663   7.694
17182SOL    HW252988   4.309   7.800   7.757
17183SOL     OW52989   4.687   7.486   8.844
17183SOL    HW152990   4.699   7.487   8.749
17183SOL    HW252991   4.753   7.547   8.877
17184SOL     OW52992   4.947   7.846   8.800
17184SOL    HW152993   5.009   7.890   8.743
17184SOL    HW252994   4.866   7.841   8.749
17185SOL     OW52995   4.270   7.910   8.315
17185SOL    HW152996   4.235   7.970   8.248
17185SOL    HW252997   4.347   7.955   8.350
17186SOL     OW52998   4.736   7.572   9.217
17186SOL    HW152999   4.799   7.638   9.188
17186SOL    HW253000   4.773   7.489   9.188
17187SOL     OW53001   4.216   7.463   9.203
17187SOL    HW153002   4.177   7.416   9.130
17187SOL    HW253003   4.154   7.534   9.222
17188SOL     OW53004   4.006   7.644   8.701
17188SOL    HW153005   3.981   7.670   8.789
17188SOL    HW253006   3.994   7.549   8.699
17189SOL     OW53007   4.484   0.051   8.438
17189SOL    HW153008   4.544   0.061   8.364
17189SOL    HW253009   4.450   0.138   8.454
17190SOL     OW53010   4.016   7.493   8.078
17190SOL    HW153011   3.992   7.584   8.094
17190SOL    HW253012   4.038   7.458   8.165
17191SOL     OW53013   5.334   7.824   7.817
17191SOL    HW153014   5.357   7.745   7.866
17191SOL    HW253015   5.249   7.850   7.851
17192SOL     OW53016   5.256   7.709   7.573
17192SOL    HW153017   5.191   7.645   7.602
17192SOL    HW253018   5.286   7.751   7.653
17193SOL     OW53019   5.018   0.294   7.551
17193SOL    HW153020   5.047   0.203   7.554
17193SOL    HW253021   4.979   0.304   7.464
17194SOL     OW53022   4.040   7.995   8.479
17194SOL    HW153023   4.031   7.902   8.461
17194SOL    HW253024   4.118   8.022   8.429
17195SOL     OW53025   4.886   7.844   9.126
17195SOL    HW153026   4.830   7.909   9.168
17195SOL    HW253027   4.907   7.882   9.041
17196SOL     OW53028   4.902   7.627   8.951
17196SOL    HW153029   4.884   7.693   9.018
17196SOL    HW253030   4.935   7.678   8.876
17197SOL     OW53031   3.780   7.973   8.583
17197SOL    HW153032   3.850   7.959   8.519
17197SOL    HW253033   3.808   7.925   8.661
17198SOL     OW53034   3.913   7.966   9.186
17198SOL    HW153035   3.980   7.933   9.127
17198SOL    HW253036   3.858   8.023   9.132
17199SOL     OW53037   4.511   8.021   7.695
17199SOL    HW153038   4.561   7.940   7.706
17199SOL    HW253039   4.462   8.031   7.776
17200SOL     OW53040   5.356   8.007   8.644
17200SOL    HW153041   5.323   7.938   8.701
17200SOL    HW253042   5.432   7.969   8.600
17201SOL     OW53043   4.362   7.975   8.698
17201SOL    HW153044   4.362   7.902   8.759
17201SOL    HW253045   4.394   7.938   8.616
17202SOL     OW53046   5.476   7.594   7.961
17202SOL    HW153047   5.476   7.535   7.886
17202SOL    HW253048   5.439   7.542   8.032
17203SOL     OW53049   5.588   7.619   8.410
17203SOL    HW153050   5.602   7.526   8.392
17203SOL    HW253051   5.503   7.639   8.371
17204SOL     OW53052   3.972   7.746   8.167
17204SOL    HW153053   3.878   7.765   8.157
17204SOL    HW253054   3.987   7.752   8.261
17205SOL     OW53055   4.757   7.689   8.436
17205SOL    HW153056   4.731   7.656   8.350
17205SOL    HW253057   4.758   7.612   8.492
17206SOL     OW53058   5.477   7.826   8.853
17206SOL    HW153059   5.540   7.894   8.830
17206SOL    HW253060   5.491   7.758   8.788
17207SOL     OW53061   3.797   7.769   7.494
17207SOL    HW153062   3.734   7.761   7.423
17207SOL    HW253063   3.834   7.856   7.483
17208SOL     OW53064   3.779   7.606   7.743
17208SOL    HW153065   3.758   7.676   7.680
17208SOL    HW253066   3.868   7.579   7.719
17209SOL     OW53067   4.492   8.020   9.154
17209SOL    HW153068   4.397   8.021   9.170
17209SOL    HW253069   4.516   7.927   9.156
17210SOL     OW53070   4.937   7.757   7.921
17210SOL    HW153071   5.005   7.694   7.898
17210SOL    HW253072   4.973   7.805   7.996
17211SOL     OW53073   4.365   0.237   8.166
17211SOL    HW153074   4.337   0.313   8.115
17211SOL    HW253075   4.313   0.165   8.132
17212SOL     OW53076   5.476   7.803   9.118
17212SOL    HW153077   5.474   7.818   9.024
17212SOL    HW253078   5.396   7.753   9.136
17213SOL     OW53079   5.550   7.624   8.686
17213SOL    HW153080   5.458   7.601   8.676
17213SOL    HW253081   5.582   7.635   8.596
17214SOL     OW53082   4.104   7.866   7.956
17214SOL    HW153083   4.136   7.802   7.893
17214SOL    HW253084   4.065   7.814   8.026
17215SOL     OW53085   4.745   7.455   8.574
17215SOL    HW153086   4.694   7.398   8.517
17215SOL    HW253087   4.829   7.410   8.583
17216SOL     OW53088   5.076   7.501   7.609
17216SOL    HW153089   5.099   7.433   7.546
17216SOL    HW253090   4.987   7.479   7.636
17217SOL     OW53091   5.047   7.889   8.144
17217SOL    HW153092   4.999   7.972   8.144
17217SOL    HW253093   5.031   7.851   8.230
17218SOL     OW53094   5.339   7.668   8.316
17218SOL    HW153095   5.305   7.661   8.405
17218SOL    HW253096   5.271   7.714   8.267
17219SOL     OW53097   3.929   7.738  10.312
17219SOL    HW153098   3.974   7.691  10.382
17219SOL    HW253099   3.855   7.682  10.289
17220SOL     OW53100   3.704   7.813   9.962
17220SOL    HW153101   3.620   7.850   9.987
17220SOL    HW253102   3.683   7.737   9.909
17221SOL     OW53103   5.430   0.050   9.535
17221SOL    HW153104   5.452   0.036   9.442
17221SOL    HW253105   5.420  -0.038   9.571
17222SOL     OW53106   4.183   7.817  10.843
17222SOL    HW153107   4.248   7.756  10.808
17222SOL    HW253108   4.099   7.776  10.825
17223SOL     OW53109   5.317   7.906  10.017
17223SOL    HW153110   5.226   7.902   9.987
17223SOL    HW253111   5.313   7.955  10.100
17224SOL     OW53112   5.310   7.576  10.765
17224SOL    HW153113   5.344   7.653  10.719
17224SOL    HW253114   5.290   7.608  10.853
17225SOL     OW53115   3.803   0.066   9.984
17225SOL    HW153116   3.777  -0.023   9.960
17225SOL    HW253117   3.763   0.121   9.916
17226SOL     OW53118   4.542   7.450   9.852
17226SOL    HW153119   4.585   7.525   9.811
17226SOL    HW253120   4.449   7.470   9.846
17227SOL     OW53121   4.061   7.696  11.176
17227SOL    HW153122   4.096   7.780  11.146
17227SOL    HW253123   3.967   7.711  11.186
17228SOL     OW53124   4.987   7.807  10.243
17228SOL    HW153125   4.900   7.768  10.254
17228SOL    HW253126   5.044   7.752  10.297
17229SOL     OW53127   5.125   7.916  11.000
17229SOL    HW153128   5.168   7.979  11.058
17229SOL    HW253129   5.176   7.836  11.009
17230SOL     OW53130   4.634   0.355  10.796
17230SOL    HW153131   4.666   0.351  10.886
17230SOL    HW253132   4.596   0.443  10.788
17231SOL     OW53133   4.711   7.823  10.546
17231SOL    HW153134   4.627   7.822  10.592
17231SOL    HW253135   4.698   7.766  10.471
17232SOL     OW53136   4.590   7.770   9.501
17232SOL    HW153137   4.627   7.784   9.414
17232SOL    HW253138   4.519   7.707   9.487
17233SOL     OW53139   5.427  -0.019  11.149
17233SOL    HW153140   5.437   0.076  11.149
17233SOL    HW253141   5.468  -0.048  11.068
17234SOL     OW53142   4.273   7.617  10.215
17234SOL    HW153143   4.279   7.651  10.304
17234SOL    HW253144   4.276   7.695  10.159
17235SOL     OW53145   3.900   7.745  10.827
17235SOL    HW153146   3.807   7.766  10.827
17235SOL    HW253147   3.904   7.653  10.855
17236SOL     OW53148   5.125   7.547   9.754
17236SOL    HW153149   5.118   7.523   9.662
17236SOL    HW253150   5.219   7.558   9.770
17237SOL     OW53151   5.252   7.667  11.038
17237SOL    HW153152   5.249   7.698  11.129
17237SOL    HW253153   5.210   7.581  11.041
17238SOL     OW53154   4.387   7.545   9.429
17238SOL    HW153155   4.457   7.487   9.401
17238SOL    HW253156   4.312   7.520   9.374
17239SOL     OW53157   4.509   7.763  11.050
17239SOL    HW153158   4.577   7.697  11.034
17239SOL    HW253159   4.498   7.763  11.145
17240SOL     OW53160   5.066  -0.007  10.735
17240SOL    HW153161   5.108  -0.029  10.819
17240SOL    HW253162   5.012   0.069  10.755
17241SOL     OW53163   4.278   7.520   9.815
17241SOL    HW153164   4.189   7.516   9.851
17241SOL    HW253165   4.272   7.586   9.746
17242SOL     OW53166   4.670   7.674   9.757
17242SOL    HW153167   4.645   7.710   9.672
17242SOL    HW253168   4.761   7.701   9.768
17243SOL     OW53169   3.831  -0.019  10.634
17243SOL    HW153170   3.888  -0.049  10.704
17243SOL    HW253171   3.805   0.069  10.660
17244SOL     OW53172   4.284   7.678  10.485
17244SOL    HW153173   4.316   7.594  10.517
17244SOL    HW253174   4.193   7.682  10.516
17245SOL     OW53175   4.731   7.505  10.060
17245SOL    HW153176   4.672   7.502   9.984
17245SOL    HW253177   4.714   7.423  10.106
17246SOL     OW53178   5.190   8.002  10.253
17246SOL    HW153179   5.114   7.945  10.265
17246SOL    HW253180   5.236   7.997  10.337
17247SOL     OW53181   4.282   7.714   9.617
17247SOL    HW153182   4.307   7.640   9.562
17247SOL    HW253183   4.250   7.780   9.555
17248SOL     OW53184   4.639   7.554  10.691
17248SOL    HW153185   4.663   7.518  10.606
17248SOL    HW253186   4.722   7.582  10.730
17249SOL     OW53187   4.982   7.794  10.581
17249SOL    HW153188   5.017   7.869  10.629
17249SOL    HW253189   4.889   7.813  10.570
17250SOL     OW53190   4.272   7.917  10.179
17250SOL    HW153191   4.238   7.967  10.105
17250SOL    HW253192   4.350   7.964  10.206
17251SOL     OW53193   4.708   7.579  11.036
17251SOL    HW153194   4.776   7.647  11.038
17251SOL    HW253195   4.755   7.499  11.011
17252SOL     OW53196   4.209   7.487  11.058
17252SOL    HW153197   4.170   7.425  10.996
17252SOL    HW253198   4.149   7.561  11.059
17253SOL     OW53199   4.023   7.675  10.570
17253SOL    HW153200   3.975   7.707  10.646
17253SOL    HW253201   4.017   7.580  10.576
17254SOL     OW53202   4.491   0.059  10.314
17254SOL    HW153203   4.556   0.052  10.244
17254SOL    HW253204   4.441   0.138  10.291
17255SOL     OW53205   4.029   7.515   9.936
17255SOL    HW153206   4.003   7.605   9.959
17255SOL    HW253207   4.037   7.471  10.021
17256SOL     OW53208   5.329   7.816   9.677
17256SOL    HW153209   5.365   7.736   9.714
17256SOL    HW253210   5.287   7.861   9.750
17257SOL     OW53211   5.203   7.746   9.440
17257SOL    HW153212   5.156   7.665   9.462
17257SOL    HW253213   5.256   7.765   9.518
17258SOL     OW53214   5.035   0.275   9.374
17258SOL    HW153215   5.007   0.187   9.400
17258SOL    HW253216   4.976   0.298   9.302
17259SOL     OW53217   4.044   7.991  10.340
17259SOL    HW153218   4.066   7.900  10.320
17259SOL    HW253219   4.104   8.042  10.287
17260SOL     OW53220   4.867   7.814  10.996
17260SOL    HW153221   4.811   7.884  11.031
17260SOL    HW253222   4.956   7.850  11.001
17261SOL     OW53223   4.890   7.634  10.783
17261SOL    HW153224   4.883   7.699  10.853
17261SOL    HW253225   4.936   7.679  10.713
17262SOL     OW53226   3.946   7.966  11.022
17262SOL    HW153227   3.933   7.894  10.961
17262SOL    HW253228   3.860   8.008  11.028
17263SOL     OW53229   4.514   8.005   9.625
17263SOL    HW153230   4.554   7.926   9.587
17263SOL    HW253231   4.457   8.038   9.556
17264SOL     OW53232   5.339   8.003  10.480
17264SOL    HW153233   5.327   7.991  10.575
17264SOL    HW253234   5.425   7.965  10.463
17265SOL     OW53235   4.427   7.911  10.543
17265SOL    HW153236   4.374   7.833  10.526
17265SOL    HW253237   4.438   7.952  10.457
17266SOL     OW53238   5.396   7.584   9.809
17266SOL    HW153239   5.489   7.594   9.789
17266SOL    HW253240   5.391   7.500   9.855
17267SOL     OW53241   5.564   7.615  10.275
17267SOL    HW153242   5.590   7.527  10.249
17267SOL    HW253243   5.479   7.628  10.233
17268SOL     OW53244   3.972   7.774  10.025
17268SOL    HW153245   3.879   7.785  10.001
17268SOL    HW253246   3.971   7.763  10.120
17269SOL     OW53247   4.749   7.674  10.280
17269SOL    HW153248   4.739   7.635  10.194
17269SOL    HW253249   4.746   7.600  10.341
17270SOL     OW53250   5.458   7.827  10.693
17270SOL    HW153251   5.525   7.896  10.691
17270SOL    HW253252   5.492   7.760  10.634
17271SOL     OW53253   4.402   7.637  10.809
17271SOL    HW153254   4.484   7.616  10.765
17271SOL    HW253255   4.427   7.671  10.894
17272SOL     OW53256   3.792   7.805   9.377
17272SOL    HW153257   3.733   7.759   9.316
17272SOL    HW253258   3.837   7.869   9.323
17273SOL     OW53259   3.773   7.636   9.612
17273SOL    HW153260   3.767   7.703   9.543
17273SOL    HW253261   3.859   7.596   9.599
17274SOL     OW53262   4.936   7.748   9.783
17274SOL    HW153263   4.998   7.676   9.767
17274SOL    HW253264   4.978   7.801   9.850
17275SOL     OW53265   4.319   0.216   9.912
17275SOL    HW153266   4.401   0.266   9.909
17275SOL    HW253267   4.299   0.210  10.006
17276SOL     OW53268   5.497   7.774  10.954
17276SOL    HW153269   5.475   7.798  10.864
17276SOL    HW253270   5.416   7.735  10.988
17277SOL     OW53271   5.540   7.621  10.545
17277SOL    HW153272   5.543   7.526  10.558
17277SOL    HW253273   5.550   7.633  10.450
17278SOL     OW53274   4.158   7.859   9.813
17278SOL    HW153275   4.198   7.793   9.756
17278SOL    HW253276   4.107   7.809   9.876
17279SOL     OW53277   5.152   7.669  10.412
17279SOL    HW153278   5.173   7.583  10.450
17279SOL    HW253279   5.102   7.714  10.480
17280SOL     OW53280   4.731   7.451  10.442
17280SOL    HW153281   4.685   7.391  10.383
17280SOL    HW253282   4.819   7.414  10.449
17281SOL     OW53283   5.081   7.500   9.483
17281SOL    HW153284   5.110   7.434   9.421
17281SOL    HW253285   4.994   7.471   9.510
17282SOL     OW53286   5.044   7.898   9.988
17282SOL    HW153287   4.998   7.981   9.981
17282SOL    HW253288   5.021   7.865  10.075
17283SOL     OW53289   5.311   7.649  10.187
17283SOL    HW153290   5.255   7.671  10.261
17283SOL    HW253291   5.297   7.719  10.123
17284SOL     OW53292   3.974   7.697  12.157
17284SOL    HW153293   4.001   7.671  12.245
17284SOL    HW253294   3.885   7.665  12.148
17285SOL     OW53295   3.704   7.822  11.830
17285SOL    HW153296   3.622   7.866  11.855
17285SOL    HW253297   3.676   7.738  11.793
17286SOL     OW53298   5.440   7.933  11.423
17286SOL    HW153299   5.413   7.943  11.331
17286SOL    HW253300   5.495   8.009  11.440
17287SOL     OW53301   5.305   7.922  11.843
17287SOL    HW153302   5.211   7.910  11.832
17287SOL    HW253303   5.315   7.947  11.935
17288SOL     OW53304   3.787   0.114  11.781
17288SOL    HW153305   3.801   0.019  11.788
17288SOL    HW253306   3.870   0.153  11.806
17289SOL     OW53307   4.539   7.462  11.656
17289SOL    HW153308   4.580   7.545  11.635
17289SOL    HW253309   4.447   7.484  11.671
17290SOL     OW53310   4.946   7.759  12.117
17290SOL    HW153311   4.933   7.766  12.211
17290SOL    HW253312   5.033   7.796  12.102
17291SOL     OW53313   4.664   7.792  12.399
17291SOL    HW153314   4.651   7.861  12.464
17291SOL    HW253315   4.673   7.839  12.316
17292SOL     OW53316   4.562   7.761  11.336
17292SOL    HW153317   4.582   7.853  11.351
17292SOL    HW253318   4.611   7.714  11.404
17293SOL     OW53319   4.341   7.600  12.092
17293SOL    HW153320   4.318   7.625  12.182
17293SOL    HW253321   4.326   7.679  12.041
17294SOL     OW53322   5.136   7.552  11.605
17294SOL    HW153323   5.131   7.523  11.514
17294SOL    HW253324   5.214   7.508  11.640
17295SOL     OW53325   4.391   7.520  11.258
17295SOL    HW153326   4.487   7.516  11.256
17295SOL    HW253327   4.364   7.498  11.168
17296SOL     OW53328   4.268   7.530  11.666
17296SOL    HW153329   4.192   7.521  11.723
17296SOL    HW253330   4.258   7.617  11.627
17297SOL     OW53331   4.659   7.710  11.604
17297SOL    HW153332   4.631   7.780  11.663
17297SOL    HW253333   4.755   7.711  11.609
17298SOL     OW53334   3.829  -0.013   0.072
17298SOL    HW153335   3.914  -0.004   0.116
17298SOL    HW253336   3.766   0.028   0.130
17299SOL     OW53337   4.282   7.663  12.355
17299SOL    HW153338   4.323   7.618  12.429
17299SOL    HW253339   4.192   7.680  12.385
17300SOL     OW53340   4.684   7.479  11.900
17300SOL    HW153341   4.656   7.465  11.810
17300SOL    HW253342   4.723   7.396  11.927
17301SOL     OW53343   4.288   7.727  11.442
17301SOL    HW153344   4.378   7.723  11.408
17301SOL    HW253345   4.281   7.812  11.484
17302SOL     OW53346   4.956   7.801  12.387
17302SOL    HW153347   5.024   7.839  12.443
17302SOL    HW253348   4.882   7.786  12.445
17303SOL     OW53349   4.293   7.946  12.039
17303SOL    HW153350   4.282   8.018  11.977
17303SOL    HW253351   4.367   7.972  12.094
17304SOL     OW53352   3.977   7.643  12.434
17304SOL    HW153353   4.001   7.649  12.526
17304SOL    HW253354   3.979   7.549  12.414
17305SOL     OW53355   4.489   0.056  12.193
17305SOL    HW153356   4.584   0.054  12.206
17305SOL    HW253357   4.467   0.149  12.197
17306SOL     OW53358   4.029   7.501  11.802
17306SOL    HW153359   4.002   7.590  11.825
17306SOL    HW253360   4.047   7.459  11.886
17307SOL     OW53361   5.209   7.749  11.298
17307SOL    HW153362   5.163   7.667  11.320
17307SOL    HW253363   5.280   7.754  11.361
17308SOL     OW53364   5.002   0.226  11.139
17308SOL    HW153365   5.031   0.187  11.221
17308SOL    HW253366   4.950   0.303  11.165
17309SOL     OW53367   4.027   7.965  12.133
17309SOL    HW153368   4.023   7.870  12.148
17309SOL    HW253369   4.121   7.985  12.134
17310SOL     OW53370   4.874   7.724   0.166
17310SOL    HW153371   4.880   7.743   0.259
17310SOL    HW253372   4.964   7.712   0.137
17311SOL     OW53373   3.806   7.929  12.305
17311SOL    HW153374   3.873   7.971  12.251
17311SOL    HW253375   3.813   7.973  12.390
17312SOL     OW53376   4.513   0.033  11.432
17312SOL    HW153377   4.522  -0.011  11.517
17312SOL    HW253378   4.520   0.126  11.453
17313SOL     OW53379   5.339   0.045  12.374
17313SOL    HW153380   5.377  -0.030  12.420
17313SOL    HW253381   5.299   0.007  12.296
17314SOL     OW53382   4.368   7.947  12.409
17314SOL    HW153383   4.362   7.852  12.402
17314SOL    HW253384   4.415   7.975  12.330
17315SOL     OW53385   5.453   7.633  11.668
17315SOL    HW153386   5.515   7.594  11.607
17315SOL    HW253387   5.413   7.558  11.712
17316SOL     OW53388   5.582   7.630  12.080
17316SOL    HW153389   5.603   7.537  12.084
17316SOL    HW253390   5.487   7.633  12.086
17317SOL     OW53391   3.961   7.750  11.887
17317SOL    HW153392   3.873   7.785  11.879
17317SOL    HW253393   3.978   7.748  11.981
17318SOL     OW53394   4.686   7.688  12.138
17318SOL    HW153395   4.772   7.708  12.102
17318SOL    HW253396   4.702   7.673  12.232
17319SOL     OW53397   5.463   7.838   0.001
17319SOL    HW153398   5.540   7.878   0.042
17319SOL    HW253399   5.493   7.753  -0.029
17320SOL     OW53400   3.802   7.775  11.218
17320SOL    HW153401   3.738   7.776  11.147
17320SOL    HW253402   3.824   7.867  11.232
17321SOL     OW53403   3.821   7.613  11.468
17321SOL    HW153404   3.805   7.677  11.400
17321SOL    HW253405   3.881   7.656  11.529
17322SOL     OW53406   4.932   7.748  11.630
17322SOL    HW153407   5.002   7.683  11.622
17322SOL    HW253408   4.960   7.805  11.701
17323SOL     OW53409   4.369   0.210  11.805
17323SOL    HW153410   4.426   0.286  11.798
17323SOL    HW253411   4.323   0.221  11.889
17324SOL     OW53412   5.578   7.610  12.413
17324SOL    HW153413   5.531   7.546  12.466
17324SOL    HW253414   5.550   7.592  12.323
17325SOL     OW53415   4.060   7.780  11.634
17325SOL    HW153416   4.113   7.859  11.627
17325SOL    HW253417   4.031   7.779  11.726
17326SOL     OW53418   5.173   7.616  12.316
17326SOL    HW153419   5.208   7.607  12.405
17326SOL    HW253420   5.111   7.689  12.323
17327SOL     OW53421   4.714   7.447  12.300
17327SOL    HW153422   4.690   7.360  12.334
17327SOL    HW253423   4.809   7.444  12.292
17328SOL     OW53424   5.097   7.495  11.336
17328SOL    HW153425   5.137   7.417  11.299
17328SOL    HW253426   5.006   7.470  11.354
17329SOL     OW53427   5.024   7.902  11.839
17329SOL    HW153428   5.002   7.995  11.845
17329SOL    HW253429   5.031   7.873  11.930
17330SOL     OW53430   5.307   7.644  12.086
17330SOL    HW153431   5.264   7.622  12.169
17330SOL    HW253432   5.287   7.736  12.072
17331SOL     OW53433   5.867   0.618   0.016
17331SOL    HW153434   5.825   0.656   0.093
17331SOL    HW253435   5.795   0.597  -0.043
17332SOL     OW53436   5.800   0.298   0.994
17332SOL    HW153437   5.830   0.254   1.074
17332SOL    HW253438   5.717   0.256   0.972
17333SOL     OW53439   5.595   0.367   0.636
17333SOL    HW153440   5.507   0.381   0.669
17333SOL    HW253441   5.584   0.347   0.543
17334SOL     OW53442   7.162   1.521   0.701
17334SOL    HW153443   7.126   1.504   0.789
17334SOL    HW253444   7.087   1.513   0.643
17335SOL     OW53445   7.307   0.544   0.170
17335SOL    HW153446   7.355   0.626   0.155
17335SOL    HW253447   7.270   0.554   0.258
17336SOL     OW53448   6.331   1.116   1.039
17336SOL    HW153449   6.364   1.121   1.129
17336SOL    HW253450   6.339   1.206   1.006
17337SOL     OW53451   6.470   0.760   1.826
17337SOL    HW153452   6.478   0.825   1.896
17337SOL    HW253453   6.502   0.805   1.748
17338SOL     OW53454   6.286   1.001   0.651
17338SOL    HW153455   6.335   0.984   0.731
17338SOL    HW253456   6.210   1.051   0.680
17339SOL     OW53457   6.280   1.149   1.820
17339SOL    HW153458   6.326   1.226   1.851
17339SOL    HW253459   6.200   1.183   1.780
17340SOL     OW53460   5.961   1.384   1.079
17340SOL    HW153461   5.877   1.355   1.044
17340SOL    HW253462   5.990   1.451   1.017
17341SOL     OW53463   7.048   1.479   1.366
17341SOL    HW153464   7.117   1.545   1.361
17341SOL    HW253465   6.971   1.526   1.396
17342SOL     OW53466   6.043   0.382   1.460
17342SOL    HW153467   6.128   0.338   1.471
17342SOL    HW253468   5.983   0.333   1.516
17343SOL     OW53469   7.192   0.452   0.728
17343SOL    HW153470   7.104   0.466   0.691
17343SOL    HW253471   7.211   0.534   0.774
17344SOL     OW53472   5.797   1.716   0.462
17344SOL    HW153473   5.821   1.788   0.519
17344SOL    HW253474   5.863   1.716   0.393
17345SOL     OW53475   6.722   1.320   1.698
17345SOL    HW153476   6.747   1.314   1.790
17345SOL    HW253477   6.652   1.255   1.689
17346SOL     OW53478   5.799   1.442   0.518
17346SOL    HW153479   5.793   1.538   0.519
17346SOL    HW253480   5.756   1.415   0.599
17347SOL     OW53481   5.857   1.088   0.882
17347SOL    HW153482   5.858   1.000   0.918
17347SOL    HW253483   5.807   1.140   0.946
17348SOL     OW53484   6.172   1.801   1.410
17348SOL    HW153485   6.092   1.781   1.458
17348SOL    HW253486   6.199   1.888   1.442
17349SOL     OW53487   6.205   0.996   0.128
17349SOL    HW153488   6.125   1.043   0.106
17349SOL    HW253489   6.227   1.026   0.217
17350SOL     OW53490   7.242   0.113   1.487
17350SOL    HW153491   7.162   0.117   1.436
17350SOL    HW253492   7.219   0.151   1.572
17351SOL     OW53493   5.632   0.643   0.581
17351SOL    HW153494   5.654   0.554   0.606
17351SOL    HW253495   5.665   0.697   0.653
17352SOL     OW53496   7.440   1.743   0.319
17352SOL    HW153497   7.503   1.717   0.386
17352SOL    HW253498   7.461   1.835   0.300
17353SOL     OW53499   5.665   1.624   0.089
17353SOL    HW153500   5.672   1.535   0.055
17353SOL    HW253501   5.588   1.620   0.147
17354SOL     OW53502   7.243   0.905   0.646
17354SOL    HW153503   7.334   0.880   0.664
17354SOL    HW253504   7.247   0.952   0.563
17355SOL     OW53505   7.227   1.119   0.432
17355SOL    HW153506   7.310   1.128   0.385
17355SOL    HW253507   7.239   1.172   0.512
17356SOL     OW53508   5.731   0.749   1.584
17356SOL    HW153509   5.826   0.758   1.585
17356SOL    HW253510   5.698   0.835   1.610
17357SOL     OW53511   6.202   1.404   0.714
17357SOL    HW153512   6.160   1.319   0.729
17357SOL    HW253513   6.180   1.426   0.624
17358SOL     OW53514   6.894   1.244   1.420
17358SOL    HW153515   6.945   1.321   1.397
17358SOL    HW253516   6.882   1.250   1.515
17359SOL     OW53517   6.428   0.026   0.583
17359SOL    HW153518   6.467   0.101   0.538
17359SOL    HW253519   6.337   0.051   0.598
17360SOL     OW53520   5.774   0.959   1.277
17360SOL    HW153521   5.862   0.922   1.267
17360SOL    HW253522   5.721   0.915   1.211
17361SOL     OW53523   7.075   1.015   0.227
17361SOL    HW153524   7.012   0.956   0.267
17361SOL    HW253525   7.131   1.043   0.298
17362SOL     OW53526   6.846   1.852   1.628
17362SOL    HW153527   6.812   1.919   1.568
17362SOL    HW253528   6.827   1.769   1.584
17363SOL     OW53529   5.930   0.268   1.758
17363SOL    HW153530   5.992   0.297   1.824
17363SOL    HW253531   5.846   0.264   1.803
17364SOL     OW53532   6.976   1.426   0.895
17364SOL    HW153533   6.950   1.441   0.986
17364SOL    HW253534   7.016   1.339   0.896
17365SOL     OW53535   7.228   1.768   0.579
17365SOL    HW153536   7.212   1.729   0.493
17365SOL    HW253537   7.215   1.696   0.641
17366SOL     OW53538   6.192   0.722   0.250
17366SOL    HW153539   6.211   0.805   0.206
17366SOL    HW253540   6.128   0.745   0.317
17367SOL     OW53541   6.878   0.362   0.931
17367SOL    HW153542   6.787   0.334   0.936
17367SOL    HW253543   6.923   0.309   0.996
17368SOL     OW53544   7.176   1.687   0.316
17368SOL    HW153545   7.271   1.696   0.318
17368SOL    HW253546   7.153   1.705   0.224
17369SOL     OW53547   6.350   0.648   1.440
17369SOL    HW153548   6.347   0.613   1.529
17369SOL    HW253549   6.342   0.570   1.384
17370SOL     OW53550   6.990   0.469   1.693
17370SOL    HW153551   6.993   0.518   1.775
17370SOL    HW253552   7.051   0.396   1.706
17371SOL     OW53553   6.552   0.866   1.583
17371SOL    HW153554   6.590   0.790   1.539
17371SOL    HW253555   6.490   0.902   1.519
17372SOL     OW53556   6.601   0.421   1.220
17372SOL    HW153557   6.564   0.426   1.308
17372SOL    HW253558   6.528   0.396   1.164
17373SOL     OW53559   6.624   0.690   0.422
17373SOL    HW153560   6.618   0.670   0.515
17373SOL    HW253561   6.546   0.650   0.384
17374SOL     OW53562   5.673   0.815   0.792
17374SOL    HW153563   5.759   0.812   0.833
17374SOL    HW253564   5.636   0.899   0.818
17375SOL     OW53565   5.695   1.850   1.566
17375SOL    HW153566   5.689   1.831   1.660
17375SOL    HW253567   5.608   1.881   1.543
17376SOL     OW53568   6.500   0.330   0.204
17376SOL    HW153569   6.507   0.397   0.137
17376SOL    HW253570   6.479   0.250   0.156
17377SOL     OW53571   7.341   0.589   1.793
17377SOL    HW153572   7.279   0.649   1.753
17377SOL    HW253573   7.344   0.514   1.734
17378SOL     OW53574   6.954   1.129   0.529
17378SOL    HW153575   7.042   1.126   0.491
17378SOL    HW253576   6.910   1.200   0.483
17379SOL     OW53577   6.115   0.239   0.920
17379SOL    HW153578   6.109   0.255   1.014
17379SOL    HW253579   6.123   0.326   0.881
17380SOL     OW53580   6.580   1.444   0.471
17380SOL    HW153581   6.539   1.518   0.427
17380SOL    HW253582   6.562   1.459   0.564
17381SOL     OW53583   5.930   1.808   0.859
17381SOL    HW153584   5.990   1.739   0.889
17381SOL    HW253585   5.954   1.884   0.913
17382SOL     OW53586   7.379   1.025   0.872
17382SOL    HW153587   7.317   1.049   0.803
17382SOL    HW253588   7.337   1.053   0.953
17383SOL     OW53589   5.913   0.951   0.146
17383SOL    HW153590   5.960   0.963   0.229
17383SOL    HW253591   5.848   0.883   0.165
17384SOL     OW53592   7.056   0.723   0.711
17384SOL    HW153593   7.054   0.697   0.803
17384SOL    HW253594   7.124   0.790   0.706
17385SOL     OW53595   6.051   1.265   1.722
17385SOL    HW153596   6.025   1.253   1.630
17385SOL    HW253597   5.969   1.270   1.770
17386SOL     OW53598   6.698   1.742   0.287
17386SOL    HW153599   6.719   1.751   0.380
17386SOL    HW253600   6.778   1.768   0.242
17387SOL     OW53601   5.767   0.264   1.505
17387SOL    HW153602   5.700   0.331   1.517
17387SOL    HW253603   5.798   0.246   1.594
17388SOL     OW53604   7.224   1.410   0.034
17388SOL    HW153605   7.161   1.481   0.046
17388SOL    HW253606   7.173   1.330   0.050
17389SOL     OW53607   6.100   1.738   0.321
17389SOL    HW153608   6.108   1.797   0.396
17389SOL    HW253609   6.123   1.792   0.246
17390SOL     OW53610   6.993   0.118   0.400
17390SOL    HW153611   6.989   0.059   0.325
17390SOL    HW253612   7.085   0.115   0.427
17391SOL     OW53613   5.834   1.756   1.212
17391SOL    HW153614   5.870   1.838   1.247
17391SOL    HW253615   5.794   1.782   1.129
17392SOL     OW53616   6.535   1.706   0.893
17392SOL    HW153617   6.612   1.662   0.928
17392SOL    HW253618   6.501   1.645   0.827
17393SOL     OW53619   7.148   0.218   1.721
17393SOL    HW153620   7.166   0.243   1.811
17393SOL    HW253621   7.065   0.170   1.725
17394SOL     OW53622   6.202   0.123   0.087
17394SOL    HW153623   6.282   0.107   0.138
17394SOL    HW253624   6.189   0.043   0.037
17395SOL     OW53625   6.356   0.255   1.752
17395SOL    HW153626   6.395   0.167   1.748
17395SOL    HW253627   6.288   0.248   1.819
17396SOL     OW53628   6.475   1.527   1.166
17396SOL    HW153629   6.449   1.472   1.092
17396SOL    HW253630   6.540   1.474   1.213
17397SOL     OW53631   6.929   0.588   1.456
17397SOL    HW153632   6.959   0.546   1.536
17397SOL    HW253633   6.971   0.674   1.457
17398SOL     OW53634   6.387   1.367   0.945
17398SOL    HW153635   6.476   1.364   0.910
17398SOL    HW253636   6.332   1.394   0.871
17399SOL     OW53637   6.521   0.514   0.891
17399SOL    HW153638   6.501   0.510   0.797
17399SOL    HW253639   6.553   0.426   0.912
17400SOL     OW53640   6.144   0.030   0.437
17400SOL    HW153641   6.095   0.022   0.519
17400SOL    HW253642   6.123   0.118   0.405
17401SOL     OW53643   7.030   1.226   0.062
17401SOL    HW153644   7.047   1.146   0.112
17401SOL    HW253645   6.938   1.246   0.079
17402SOL     OW53646   5.908   0.028   0.212
17402SOL    HW153647   5.967   0.103   0.220
17402SOL    HW253648   5.924  -0.023   0.292
17403SOL     OW53649   6.541   0.256   0.475
17403SOL    HW153650   6.504   0.264   0.387
17403SOL    HW253651   6.635   0.272   0.463
17404SOL     OW53652   6.661   0.651   1.455
17404SOL    HW153653   6.610   0.572   1.471
17404SOL    HW253654   6.752   0.623   1.463
17405SOL     OW53655   6.777   1.564   0.780
17405SOL    HW153656   6.811   1.638   0.730
17405SOL    HW253657   6.854   1.527   0.823
17406SOL     OW53658   6.073   1.160   0.732
17406SOL    HW153659   6.005   1.137   0.795
17406SOL    HW253660   6.031   1.151   0.647
17407SOL     OW53661   6.835   1.791   0.590
17407SOL    HW153662   6.889   1.861   0.553
17407SOL    HW253663   6.770   1.836   0.643
17408SOL     OW53664   6.607   0.577   0.086
17408SOL    HW153665   6.650   0.625   0.016
17408SOL    HW253666   6.676   0.557   0.149
17409SOL     OW53667   5.672   0.562   1.392
17409SOL    HW153668   5.763   0.555   1.365
17409SOL    HW253669   5.671   0.630   1.459
17410SOL     OW53670   6.149   0.226   1.203
17410SOL    HW153671   6.189   0.197   1.285
17410SOL    HW253672   6.055   0.223   1.219
17411SOL     OW53673   6.485   0.493   0.620
17411SOL    HW153674   6.411   0.529   0.570
17411SOL    HW253675   6.495   0.404   0.586
17412SOL     OW53676   6.613   8.024   0.778
17412SOL    HW153677   6.550   8.025   0.706
17412SOL    HW253678   6.597   7.941   0.823
17413SOL     OW53679   7.045   1.158   0.855
17413SOL    HW153680   6.969   1.102   0.841
17413SOL    HW253681   7.083   1.170   0.768
17414SOL     OW53682   7.038   0.616   0.966
17414SOL    HW153683   6.989   0.534   0.974
17414SOL    HW253684   7.102   0.613   1.037
17415SOL     OW53685   7.406   0.863   0.414
17415SOL    HW153686   7.440   0.786   0.459
17415SOL    HW253687   7.389   0.833   0.325
17416SOL     OW53688   6.102   1.397   0.200
17416SOL    HW153689   6.032   1.347   0.243
17416SOL    HW253690   6.059   1.435   0.123
17417SOL     OW53691   7.264   1.257   0.660
17417SOL    HW153692   7.359   1.251   0.670
17417SOL    HW253693   7.244   1.348   0.682
17418SOL     OW53694   6.984   0.566   0.088
17418SOL    HW153695   6.925   0.561   0.163
17418SOL    HW253696   7.052   0.501   0.105
17419SOL     OW53697   6.075   0.252   0.286
17419SOL    HW153698   6.133   0.212   0.221
17419SOL    HW253699   6.064   0.342   0.256
17420SOL     OW53700   7.358   1.244   1.597
17420SOL    HW153701   7.446   1.213   1.574
17420SOL    HW253702   7.368   1.337   1.614
17421SOL     OW53703   6.630   1.331   1.300
17421SOL    HW153704   6.554   1.316   1.356
17421SOL    HW253705   6.701   1.353   1.362
17422SOL     OW53706   7.200   1.653   1.662
17422SOL    HW153707   7.191   1.671   1.568
17422SOL    HW253708   7.277   1.597   1.668
17423SOL     OW53709   6.689   1.165   1.083
17423SOL    HW153710   6.677   1.214   1.164
17423SOL    HW253711   6.682   1.230   1.014
17424SOL     OW53712   7.206   1.097   1.072
17424SOL    HW153713   7.204   1.161   1.143
17424SOL    HW253714   7.149   1.134   1.004
17425SOL     OW53715   6.502   0.123   1.384
17425SOL    HW153716   6.538   0.119   1.295
17425SOL    HW253717   6.579   0.121   1.441
17426SOL     OW53718   6.517   1.139   1.668
17426SOL    HW153719   6.443   1.139   1.730
17426SOL    HW253720   6.567   1.061   1.691
17427SOL     OW53721   6.303   1.077   0.371
17427SOL    HW153722   6.273   1.051   0.458
17427SOL    HW253723   6.380   1.021   0.355
17428SOL     OW53724   6.009   0.821   1.248
17428SOL    HW153725   6.073   0.838   1.318
17428SOL    HW253726   5.977   0.733   1.265
17429SOL     OW53727   6.864   0.389   1.273
17429SOL    HW153728   6.890   0.465   1.325
17429SOL    HW253729   6.776   0.409   1.243
17430SOL     OW53730   5.636   1.582   1.344
17430SOL    HW153731   5.574   1.649   1.315
17430SOL    HW253732   5.722   1.623   1.332
17431SOL     OW53733   5.948   1.125   0.501
17431SOL    HW153734   5.919   1.166   0.420
17431SOL    HW253735   5.951   1.032   0.481
17432SOL     OW53736   6.133   0.514   0.854
17432SOL    HW153737   6.144   0.567   0.775
17432SOL    HW253738   6.199   0.549   0.915
17433SOL     OW53739   6.829   1.351   0.397
17433SOL    HW153740   6.887   1.422   0.425
17433SOL    HW253741   6.742   1.377   0.428
17434SOL     OW53742   6.877   1.436   1.147
17434SOL    HW153743   6.946   1.456   1.210
17434SOL    HW253744   6.796   1.448   1.197
17435SOL     OW53745   7.179   0.626   0.463
17435SOL    HW153746   7.111   0.656   0.524
17435SOL    HW253747   7.255   0.681   0.482
17436SOL     OW53748   5.934   1.543   1.349
17436SOL    HW153749   5.907   1.598   1.276
17436SOL    HW253750   5.958   1.605   1.418
17437SOL     OW53751   6.016   0.731   1.609
17437SOL    HW153752   6.070   0.784   1.550
17437SOL    HW253753   6.072   0.658   1.634
17438SOL     OW53754   7.172   0.756   1.659
17438SOL    HW153755   7.093   0.782   1.706
17438SOL    HW253756   7.197   0.833   1.608
17439SOL     OW53757   6.701   0.111   1.762
17439SOL    HW153758   6.677   0.199   1.735
17439SOL    HW253759   6.618   0.063   1.763
17440SOL     OW53760   6.020   0.001   1.730
17440SOL    HW153761   6.089  -0.012   1.665
17440SOL    HW253762   6.008   0.096   1.734
17441SOL     OW53763   6.182   0.870   1.032
17441SOL    HW153764   6.211   0.961   1.032
17441SOL    HW253765   6.120   0.865   1.105
17442SOL     OW53766   6.892   0.852   0.990
17442SOL    HW153767   6.852   0.838   1.075
17442SOL    HW253768   6.953   0.779   0.979
17443SOL     OW53769   6.797   0.534   0.281
17443SOL    HW153770   6.805   0.454   0.333
17443SOL    HW253771   6.741   0.591   0.333
17444SOL     OW53772   5.877   0.201   1.248
17444SOL    HW153773   5.842   0.234   1.331
17444SOL    HW253774   5.869   0.106   1.255
17445SOL     OW53775   5.594   1.318   1.285
17445SOL    HW153776   5.644   1.263   1.346
17445SOL    HW253777   5.618   1.407   1.309
17446SOL     OW53778   6.300   0.620   1.041
17446SOL    HW153779   6.381   0.615   0.990
17446SOL    HW253780   6.273   0.712   1.032
17447SOL     OW53781   7.322   0.961   1.856
17447SOL    HW153782   7.252   0.914   1.810
17447SOL    HW253783   7.291   0.969   1.946
17448SOL     OW53784   5.987   0.068   0.672
17448SOL    HW153785   5.947   0.153   0.689
17448SOL    HW253786   5.922   0.020   0.621
17449SOL     OW53787   7.207   0.364   0.377
17449SOL    HW153788   7.220   0.300   0.447
17449SOL    HW253789   7.194   0.447   0.423
17450SOL     OW53790   6.612   0.752   0.985
17450SOL    HW153791   6.596   0.757   1.079
17450SOL    HW253792   6.594   0.661   0.962
17451SOL     OW53793   6.591   1.563   1.728
17451SOL    HW153794   6.552   1.607   1.653
17451SOL    HW253795   6.635   1.486   1.691
17452SOL     OW53796   7.434   1.511   1.612
17452SOL    HW153797   7.457   1.527   1.520
17452SOL    HW253798   7.517   1.522   1.659
17453SOL     OW53799   5.963   0.934   1.794
17453SOL    HW153800   6.032   0.947   1.859
17453SOL    HW253801   5.994   0.859   1.742
17454SOL     OW53802   7.081   0.304   0.143
17454SOL    HW153803   6.989   0.280   0.133
17454SOL    HW253804   7.093   0.315   0.237
17455SOL     OW53805   6.880   0.815   0.043
17455SOL    HW153806   6.930   0.734   0.045
17455SOL    HW253807   6.935   0.877  -0.004
17456SOL     OW53808   6.642   1.339   0.861
17456SOL    HW153809   6.667   1.271   0.799
17456SOL    HW253810   6.692   1.416   0.833
17457SOL     OW53811   5.900   0.814   0.948
17457SOL    HW153812   5.993   0.829   0.932
17457SOL    HW253813   5.895   0.724   0.982
17458SOL     OW53814   5.916   0.537   1.014
17458SOL    HW153815   5.874   0.452   1.002
17458SOL    HW253816   5.991   0.536   0.954
17459SOL     OW53817   6.726   0.385   1.688
17459SOL    HW153818   6.681   0.438   1.753
17459SOL    HW253819   6.815   0.420   1.685
17460SOL     OW53820   6.770   0.210   1.465
17460SOL    HW153821   6.758   0.264   1.543
17460SOL    HW253822   6.794   0.273   1.396
17461SOL     OW53823   5.673   1.776   0.943
17461SOL    HW153824   5.646   1.700   0.892
17461SOL    HW253825   5.759   1.801   0.907
17462SOL     OW53826   6.086   1.568   0.914
17462SOL    HW153827   6.151   1.637   0.926
17462SOL    HW253828   6.120   1.516   0.841
17463SOL     OW53829   6.548   0.780   1.246
17463SOL    HW153830   6.604   0.739   1.312
17463SOL    HW253831   6.459   0.764   1.277
17464SOL     OW53832   5.623   0.562   1.114
17464SOL    HW153833   5.703   0.550   1.063
17464SOL    HW253834   5.651   0.554   1.205
17465SOL     OW53835   5.762   0.528   1.746
17465SOL    HW153836   5.847   0.500   1.713
17465SOL    HW253837   5.737   0.601   1.690
17466SOL     OW53838   6.921   0.942   1.571
17466SOL    HW153839   6.942   0.914   1.660
17466SOL    HW253840   6.827   0.960   1.573
17467SOL     OW53841   6.399   0.570   0.345
17467SOL    HW153842   6.400   0.488   0.296
17467SOL    HW253843   6.323   0.617   0.312
17468SOL     OW53844   7.224   0.614   1.164
17468SOL    HW153845   7.217   0.561   1.243
17468SOL    HW253846   7.313   0.598   1.132
17469SOL     OW53847   5.823   1.548   1.718
17469SOL    HW153848   5.798   1.621   1.774
17469SOL    HW253849   5.837   1.475   1.778
17470SOL     OW53850   6.305   0.453   1.253
17470SOL    HW153851   6.243   0.382   1.235
17470SOL    HW253852   6.296   0.513   1.179
17471SOL     OW53853   6.488   1.696   1.507
17471SOL    HW153854   6.566   1.663   1.462
17471SOL    HW253855   6.471   1.781   1.467
17472SOL     OW53856   6.057   0.494   0.174
17472SOL    HW153857   6.109   0.569   0.203
17472SOL    HW253858   5.988   0.532   0.120
17473SOL     OW53859   5.722   1.138   1.472
17473SOL    HW153860   5.727   1.089   1.554
17473SOL    HW253861   5.739   1.073   1.404
17474SOL     OW53862   6.936   1.014   1.231
17474SOL    HW153863   6.955   1.007   1.138
17474SOL    HW253864   6.869   1.082   1.237
17475SOL     OW53865   6.875   0.850   0.323
17475SOL    HW153866   6.802   0.807   0.368
17475SOL    HW253867   6.866   0.821   0.232
17476SOL     OW53868   7.399   1.749   1.178
17476SOL    HW153869   7.456   1.773   1.105
17476SOL    HW253870   7.350   1.673   1.145
17477SOL     OW53871   6.822   1.755   1.109
17477SOL    HW153872   6.912   1.748   1.076
17477SOL    HW253873   6.821   1.703   1.189
17478SOL     OW53874   5.696   1.249   1.031
17478SOL    HW153875   5.657   1.275   1.114
17478SOL    HW253876   5.624   1.213   0.980
17479SOL     OW53877   6.277   1.673   1.712
17479SOL    HW153878   6.222   1.751   1.717
17479SOL    HW253879   6.341   1.693   1.644
17480SOL     OW53880   7.252   0.108   0.498
17480SOL    HW153881   7.347   0.114   0.511
17480SOL    HW253882   7.219   0.064   0.576
17481SOL     OW53883   6.976   1.570   0.482
17481SOL    HW153884   7.039   1.608   0.421
17481SOL    HW253885   6.928   1.646   0.517
17482SOL     OW53886   5.728   1.784   1.831
17482SOL    HW153887   5.679   1.727   1.890
17482SOL    HW253888   5.786   1.835   1.889
17483SOL     OW53889   6.855   0.903   0.660
17483SOL    HW153890   6.925   0.838   0.658
17483SOL    HW253891   6.887   0.973   0.603
17484SOL     OW53892   6.415   1.271   1.456
17484SOL    HW153893   6.454   1.232   1.534
17484SOL    HW253894   6.352   1.335   1.490
17485SOL     OW53895   6.298   1.583   0.087
17485SOL    HW153896   6.227   1.633   0.047
17485SOL    HW253897   6.254   1.520   0.144
17486SOL     OW53898   7.210   1.727   1.397
17486SOL    HW153899   7.267   1.733   1.320
17486SOL    HW253900   7.161   1.809   1.397
17487SOL     OW53901   7.445   0.179   0.956
17487SOL    HW153902   7.440   0.088   0.987
17487SOL    HW253903   7.358   0.196   0.920
17488SOL     OW53904   5.846   0.300   0.718
17488SOL    HW153905   5.760   0.332   0.692
17488SOL    HW253906   5.846   0.307   0.814
17489SOL     OW53907   6.673   1.593   0.018
17489SOL    HW153908   6.718   1.512   0.040
17489SOL    HW253909   6.724   1.630  -0.054
17490SOL     OW53910   6.402   1.019   1.351
17490SOL    HW153911   6.488   1.001   1.313
17490SOL    HW253912   6.409   1.107   1.388
17491SOL     OW53913   6.522   0.932   0.303
17491SOL    HW153914   6.574   0.944   0.224
17491SOL    HW253915   6.552   0.849   0.340
17492SOL     OW53916   7.022   1.601   0.032
17492SOL    HW153917   6.956   1.650   0.081
17492SOL    HW253918   7.090   1.666   0.013
17493SOL     OW53919   5.957   1.283   1.450
17493SOL    HW153920   5.923   1.372   1.453
17493SOL    HW253921   5.880   1.227   1.457
17494SOL     OW53922   7.192   1.238   1.311
17494SOL    HW153923   7.286   1.258   1.308
17494SOL    HW253924   7.150   1.324   1.320
17495SOL     OW53925   6.654   1.107   0.711
17495SOL    HW153926   6.560   1.088   0.718
17495SOL    HW253927   6.674   1.096   0.618
17496SOL     OW53928   6.621   0.257   0.931
17496SOL    HW153929   6.618   0.192   0.861
17496SOL    HW253930   6.620   0.205   1.012
17497SOL     OW53931   6.188   1.502   0.445
17497SOL    HW153932   6.168   1.436   0.379
17497SOL    HW253933   6.136   1.578   0.420
17498SOL     OW53934   7.303   0.436   1.363
17498SOL    HW153935   7.381   0.490   1.378
17498SOL    HW253936   7.337   0.358   1.318
17499SOL     OW53937   5.864   1.296   0.295
17499SOL    HW153938   5.799   1.313   0.227
17499SOL    HW253939   5.835   1.350   0.369
17500SOL     OW53940   5.720   1.005   1.711
17500SOL    HW153941   5.670   1.022   1.791
17500SOL    HW253942   5.808   0.986   1.742
17501SOL     OW53943   6.265   0.214   1.486
17501SOL    HW153944   6.337   0.162   1.449
17501SOL    HW253945   6.283   0.216   1.580
17502SOL     OW53946   5.661   0.242   0.281
17502SOL    HW153947   5.589   0.180   0.268
17502SOL    HW253948   5.726   0.192   0.330
17503SOL     OW53949   6.758   1.328   0.128
17503SOL    HW153950   6.665   1.310   0.143
17503SOL    HW253951   6.796   1.335   0.216
17504SOL     OW53952   6.194   0.859   1.439
17504SOL    HW153953   6.253   0.931   1.417
17504SOL    HW253954   6.250   0.782   1.442
17505SOL     OW53955   7.088   1.775   1.015
17505SOL    HW153956   7.121   1.809   0.932
17505SOL    HW253957   7.133   1.691   1.027
17506SOL     OW53958   6.309   0.565   1.699
17506SOL    HW153959   6.353   0.628   1.755
17506SOL    HW253960   6.330   0.480   1.737
17507SOL     OW53961   7.089   1.200   1.628
17507SOL    HW153962   7.062   1.196   1.720
17507SOL    HW253963   7.182   1.222   1.631
17508SOL     OW53964   5.941   1.733   1.551
17508SOL    HW153965   5.860   1.783   1.539
17508SOL    HW253966   5.917   1.662   1.611
17509SOL     OW53967   7.244   0.894   1.257
17509SOL    HW153968   7.232   0.807   1.219
17509SOL    HW253969   7.233   0.954   1.183
17510SOL     OW53970   6.814   0.315   0.443
17510SOL    HW153971   6.872   0.240   0.430
17510SOL    HW253972   6.843   0.354   0.526
17511SOL     OW53973   6.177   0.727   0.668
17511SOL    HW153974   6.220   0.812   0.656
17511SOL    HW253975   6.106   0.727   0.604
17512SOL     OW53976   7.364   0.372   1.620
17512SOL    HW153977   7.317   0.390   1.538
17512SOL    HW253978   7.306   0.313   1.668
17513SOL     OW53979   7.270   0.972   1.521
17513SOL    HW153980   7.317   1.051   1.549
17513SOL    HW253981   7.302   0.955   1.433
17514SOL     OW53982   6.443   1.365  -0.010
17514SOL    HW153983   6.439   1.327   0.078
17514SOL    HW253984   6.404   1.452  -0.000
17515SOL     OW53985   6.256   1.778   0.914
17515SOL    HW153986   6.236   1.872   0.909
17515SOL    HW253987   6.351   1.775   0.927
17516SOL     OW53988   6.470   0.959   0.868
17516SOL    HW153989   6.476   0.877   0.917
17516SOL    HW253990   6.423   1.018   0.926
17517SOL     OW53991   6.664   0.977   0.060
17517SOL    HW153992   6.699   1.065   0.047
17517SOL    HW253993   6.741   0.920   0.059
17518SOL     OW53994   7.447   1.564   0.803
17518SOL    HW153995   7.378   1.554   0.738
17518SOL    HW253996   7.406   1.538   0.886
17519SOL     OW53997   5.821   1.308   1.864
17519SOL    HW153998   5.726   1.294   1.869
17519SOL    HW253999   5.848   1.317   1.955
17520SOL     OW54000   5.661   1.222   0.666
17520SOL    HW154001   5.719   1.182   0.731
17520SOL    HW254002   5.696   1.194   0.582
17521SOL     OW54003   6.230   1.427   1.583
17521SOL    HW154004   6.178   1.379   1.647
17521SOL    HW254005   6.251   1.509   1.626
17522SOL     OW54006   7.413   0.224   1.237
17522SOL    HW154007   7.339   0.163   1.234
17522SOL    HW254008   7.437   0.237   1.145
17523SOL     OW54009   6.061   0.400   0.553
17523SOL    HW154010   6.034   0.389   0.462
17523SOL    HW254011   5.979   0.392   0.602
17524SOL     OW54012   5.924   0.562   1.293
17524SOL    HW154013   5.975   0.500   1.346
17524SOL    HW254014   5.939   0.535   1.203
17525SOL     OW54015   6.420   1.574   0.679
17525SOL    HW154016   6.388   1.658   0.645
17525SOL    HW254017   6.342   1.519   0.685
17526SOL     OW54018   7.024   0.227   1.116
17526SOL    HW154019   7.081   0.170   1.167
17526SOL    HW254020   6.974   0.276   1.181
17527SOL     OW54021   6.592   0.069   1.126
17527SOL    HW154022   6.503   0.050   1.096
17527SOL    HW254023   6.623  -0.015   1.162
17528SOL     OW54024   6.438   1.299   0.258
17528SOL    HW154025   6.377   1.232   0.288
17528SOL    HW254026   6.473   1.337   0.338
17529SOL     OW54027   6.232   1.562   1.279
17529SOL    HW154028   6.220   1.646   1.324
17529SOL    HW254029   6.322   1.565   1.247
17530SOL     OW54030   6.960   0.002   0.143
17530SOL    HW154031   7.020   0.038   0.078
17530SOL    HW254032   6.890   0.068   0.150
17531SOL     OW54033   6.903   0.439   0.673
17531SOL    HW154034   6.854   0.521   0.681
17531SOL    HW254035   6.898   0.399   0.760
17532SOL     OW54036   7.193   0.221   0.872
17532SOL    HW154037   7.123   0.225   0.936
17532SOL    HW254038   7.184   0.302   0.821
17533SOL     OW54039   5.626   1.091   0.368
17533SOL    HW154040   5.695   1.097   0.302
17533SOL    HW254041   5.615   0.997   0.383
17534SOL     OW54042   6.417   1.641   0.366
17534SOL    HW154043   6.338   1.593   0.390
17534SOL    HW254044   6.416   1.718   0.423
17535SOL     OW54045   5.790   0.651   1.997
17535SOL    HW154046   5.733   0.597   2.053
17535SOL    HW254047   5.780   0.613   1.910
17536SOL     OW54048   5.814   0.292   2.849
17536SOL    HW154049   5.839   0.252   2.932
17536SOL    HW254050   5.724   0.263   2.834
17537SOL     OW54051   5.605   0.415   2.475
17537SOL    HW154052   5.520   0.402   2.518
17537SOL    HW254053   5.603   0.357   2.399
17538SOL     OW54054   6.192   1.301   3.074
17538SOL    HW154055   6.115   1.268   3.028
17538SOL    HW254056   6.181   1.396   3.076
17539SOL     OW54057   7.132   1.525   2.570
17539SOL    HW154058   7.061   1.535   2.634
17539SOL    HW254059   7.087   1.518   2.485
17540SOL     OW54060   6.719   0.700   2.551
17540SOL    HW154061   6.768   0.782   2.540
17540SOL    HW254062   6.679   0.708   2.638
17541SOL     OW54063   7.397   0.507   2.055
17541SOL    HW154064   7.363   0.550   1.976
17541SOL    HW254065   7.391   0.575   2.123
17542SOL     OW54066   6.414   1.138   2.942
17542SOL    HW154067   6.339   1.082   2.925
17542SOL    HW254068   6.389   1.224   2.907
17543SOL     OW54069   6.459   0.754   3.691
17543SOL    HW154070   6.455   0.815   3.765
17543SOL    HW254071   6.483   0.809   3.616
17544SOL     OW54072   6.271   1.001   2.504
17544SOL    HW154073   6.343   0.985   2.564
17544SOL    HW254074   6.204   1.044   2.557
17545SOL     OW54075   6.300   1.148   3.677
17545SOL    HW154076   6.342   1.227   3.710
17545SOL    HW254077   6.217   1.177   3.641
17546SOL     OW54078   5.871   1.465   2.926
17546SOL    HW154079   5.821   1.400   2.877
17546SOL    HW254080   5.941   1.493   2.866
17547SOL     OW54081   7.042   1.517   3.221
17547SOL    HW154082   7.100   1.591   3.239
17547SOL    HW254083   6.973   1.524   3.288
17548SOL     OW54084   6.031   0.373   3.316
17548SOL    HW154085   6.111   0.323   3.333
17548SOL    HW254086   5.966   0.336   3.376
17549SOL     OW54087   7.194   0.456   2.595
17549SOL    HW154088   7.131   0.479   2.527
17549SOL    HW254089   7.173   0.513   2.669
17550SOL     OW54090   5.802   1.717   2.339
17550SOL    HW154091   5.824   1.793   2.393
17550SOL    HW254092   5.882   1.698   2.289
17551SOL     OW54093   6.723   1.345   3.548
17551SOL    HW154094   6.772   1.336   3.630
17551SOL    HW254095   6.669   1.266   3.544
17552SOL     OW54096   5.808   1.439   2.383
17552SOL    HW154097   5.797   1.534   2.394
17552SOL    HW254098   5.764   1.400   2.458
17553SOL     OW54099   5.835   1.085   2.753
17553SOL    HW154100   5.864   0.995   2.770
17553SOL    HW254101   5.796   1.114   2.835
17554SOL     OW54102   6.150   1.813   3.247
17554SOL    HW154103   6.096   1.792   3.323
17554SOL    HW254104   6.240   1.806   3.278
17555SOL     OW54105   6.155   0.989   2.008
17555SOL    HW154106   6.207   1.031   1.940
17555SOL    HW254107   6.196   1.016   2.091
17556SOL     OW54108   7.245   0.120   3.339
17556SOL    HW154109   7.228   0.203   3.294
17556SOL    HW254110   7.192   0.125   3.419
17557SOL     OW54111   5.701   0.675   2.422
17557SOL    HW154112   5.678   0.585   2.443
17557SOL    HW254113   5.696   0.722   2.505
17558SOL     OW54114   7.427   1.760   2.195
17558SOL    HW154115   7.503   1.734   2.248
17558SOL    HW254116   7.446   1.850   2.169
17559SOL     OW54117   5.619   1.589   1.983
17559SOL    HW154118   5.606   1.497   2.009
17559SOL    HW254119   5.600   1.639   2.062
17560SOL     OW54120   7.285   0.926   2.509
17560SOL    HW154121   7.356   0.872   2.475
17560SOL    HW254122   7.250   0.972   2.433
17561SOL     OW54123   7.231   1.107   2.293
17561SOL    HW154124   7.317   1.102   2.252
17561SOL    HW254125   7.239   1.176   2.359
17562SOL     OW54126   5.710   0.749   3.442
17562SOL    HW154127   5.798   0.785   3.446
17562SOL    HW254128   5.653   0.826   3.439
17563SOL     OW54129   6.200   1.392   2.590
17563SOL    HW154130   6.153   1.309   2.597
17563SOL    HW254131   6.188   1.418   2.499
17564SOL     OW54132   6.885   1.223   3.269
17564SOL    HW154133   6.914   1.140   3.232
17564SOL    HW254134   6.933   1.230   3.351
17565SOL     OW54135   6.428   0.013   2.401
17565SOL    HW154136   6.454   0.103   2.385
17565SOL    HW254137   6.332   0.016   2.406
17566SOL     OW54138   5.742   0.999   3.103
17566SOL    HW154139   5.817   0.940   3.111
17566SOL    HW254140   5.669   0.942   3.081
17567SOL     OW54141   7.120   0.994   2.063
17567SOL    HW154142   7.048   0.936   2.088
17567SOL    HW254143   7.159   1.021   2.146
17568SOL     OW54144   6.800   1.826   3.482
17568SOL    HW154145   6.757   1.869   3.408
17568SOL    HW254146   6.803   1.733   3.457
17569SOL     OW54147   5.916   0.258   3.633
17569SOL    HW154148   5.983   0.306   3.682
17569SOL    HW254149   5.838   0.263   3.688
17570SOL     OW54150   7.221   1.772   2.443
17570SOL    HW154151   7.228   1.725   2.360
17570SOL    HW254152   7.200   1.705   2.508
17571SOL     OW54153   6.185   0.711   2.133
17571SOL    HW154154   6.198   0.799   2.097
17571SOL    HW254155   6.121   0.723   2.203
17572SOL     OW54156   6.874   0.375   2.784
17572SOL    HW154157   6.783   0.345   2.796
17572SOL    HW254158   6.925   0.321   2.844
17573SOL     OW54159   7.157   1.703   2.158
17573SOL    HW154160   7.251   1.718   2.164
17573SOL    HW254161   7.143   1.668   2.070
17574SOL     OW54162   6.388   0.604   3.320
17574SOL    HW154163   6.344   0.593   3.404
17574SOL    HW254164   6.338   0.549   3.259
17575SOL     OW54165   6.984   0.452   3.558
17575SOL    HW154166   6.998   0.508   3.634
17575SOL    HW254167   7.009   0.507   3.483
17576SOL     OW54168   6.533   0.887   3.445
17576SOL    HW154169   6.594   0.823   3.408
17576SOL    HW254170   6.487   0.922   3.368
17577SOL     OW54171   6.562   0.396   3.071
17577SOL    HW154172   6.483   0.427   3.116
17577SOL    HW254173   6.545   0.413   2.978
17578SOL     OW54174   6.642   0.704   2.283
17578SOL    HW154175   6.663   0.701   2.377
17578SOL    HW254176   6.557   0.659   2.277
17579SOL     OW54177   5.669   0.843   2.640
17579SOL    HW154178   5.751   0.824   2.684
17579SOL    HW254179   5.628   0.913   2.691
17580SOL     OW54180   5.682   1.835   3.441
17580SOL    HW154181   5.698   1.830   3.535
17580SOL    HW254182   5.587   1.841   3.433
17581SOL     OW54183   6.473   0.350   2.070
17581SOL    HW154184   6.518   0.396   2.000
17581SOL    HW254185   6.444   0.268   2.031
17582SOL     OW54186   7.305   0.570   3.690
17582SOL    HW154187   7.260   0.643   3.646
17582SOL    HW254188   7.313   0.503   3.622
17583SOL     OW54189   6.971   1.146   2.403
17583SOL    HW154190   7.050   1.134   2.350
17583SOL    HW254191   6.916   1.205   2.351
17584SOL     OW54192   6.116   0.255   2.746
17584SOL    HW154193   6.107   0.245   2.840
17584SOL    HW254194   6.121   0.350   2.733
17585SOL     OW54195   6.586   1.445   2.328
17585SOL    HW154196   6.553   1.524   2.286
17585SOL    HW254197   6.561   1.455   2.420
17586SOL     OW54198   5.942   1.814   2.744
17586SOL    HW154199   5.986   1.728   2.743
17586SOL    HW254200   6.013   1.876   2.758
17587SOL     OW54201   7.376   1.077   2.727
17587SOL    HW154202   7.331   1.030   2.656
17587SOL    HW254203   7.312   1.079   2.798
17588SOL     OW54204   6.808   1.545   3.370
17588SOL    HW154205   6.797   1.473   3.433
17588SOL    HW254206   6.725   1.547   3.322
17589SOL     OW54207   5.889   0.957   2.110
17589SOL    HW154208   5.976   0.974   2.074
17589SOL    HW254209   5.872   0.865   2.089
17590SOL     OW54210   7.071   0.755   2.577
17590SOL    HW154211   7.065   0.709   2.660
17590SOL    HW254212   7.153   0.806   2.583
17591SOL     OW54213   6.062   1.269   3.610
17591SOL    HW154214   6.036   1.274   3.518
17591SOL    HW254215   5.979   1.261   3.658
17592SOL     OW54216   6.705   1.772   2.087
17592SOL    HW154217   6.628   1.742   2.136
17592SOL    HW254218   6.725   1.700   2.028
17593SOL     OW54219   5.765   0.263   3.372
17593SOL    HW154220   5.703   0.335   3.385
17593SOL    HW254221   5.794   0.241   3.460
17594SOL     OW54222   7.205   1.380   1.948
17594SOL    HW154223   7.153   1.458   1.933
17594SOL    HW254224   7.146   1.307   1.933
17595SOL     OW54225   6.054   1.700   2.222
17595SOL    HW154226   6.093   1.775   2.267
17595SOL    HW254227   6.045   1.729   2.131
17596SOL     OW54228   7.003   0.111   2.252
17596SOL    HW154229   7.056   0.143   2.179
17596SOL    HW254230   7.062   0.115   2.327
17597SOL     OW54231   5.853   1.773   3.085
17597SOL    HW154232   5.935   1.758   3.132
17597SOL    HW254233   5.879   1.782   2.993
17598SOL     OW54234   6.516   1.697   2.751
17598SOL    HW154235   6.520   1.644   2.831
17598SOL    HW254236   6.489   1.636   2.683
17599SOL     OW54237   5.974   0.692   2.321
17599SOL    HW154238   5.992   0.600   2.339
17599SOL    HW254239   5.884   0.706   2.350
17600SOL     OW54240   7.131   0.197   3.594
17600SOL    HW154241   7.134   0.218   3.687
17600SOL    HW254242   7.057   0.247   3.560
17601SOL     OW54243   6.177   0.144   1.930
17601SOL    HW154244   6.248   0.102   1.978
17601SOL    HW254245   6.119   0.072   1.905
17602SOL     OW54246   6.303   0.312   3.615
17602SOL    HW154247   6.394   0.284   3.611
17602SOL    HW254248   6.264   0.257   3.683
17603SOL     OW54249   6.467   1.536   3.003
17603SOL    HW154250   6.441   1.469   2.940
17603SOL    HW254251   6.513   1.488   3.072
17604SOL     OW54252   6.402   1.380   2.789
17604SOL    HW154253   6.483   1.375   2.739
17604SOL    HW254254   6.333   1.374   2.724
17605SOL     OW54255   6.512   0.513   2.755
17605SOL    HW154256   6.474   0.508   2.667
17605SOL    HW254257   6.552   0.427   2.769
17606SOL     OW54258   6.155   0.036   2.302
17606SOL    HW154259   6.091   0.021   2.372
17606SOL    HW254260   6.142   0.127   2.276
17607SOL     OW54261   7.020   1.184   1.895
17607SOL    HW154262   7.058   1.114   1.948
17607SOL    HW254263   6.926   1.174   1.907
17608SOL     OW54264   5.885   0.022   2.043
17608SOL    HW154265   5.833   0.096   2.076
17608SOL    HW254266   5.901  -0.032   2.120
17609SOL     OW54267   6.543   0.249   2.321
17609SOL    HW154268   6.511   0.284   2.238
17609SOL    HW254269   6.636   0.272   2.322
17610SOL     OW54270   6.687   0.699   3.316
17610SOL    HW154271   6.646   0.619   3.349
17610SOL    HW254272   6.778   0.674   3.299
17611SOL     OW54273   6.874   1.567   2.679
17611SOL    HW154274   6.852   1.628   2.608
17611SOL    HW254275   6.840   1.609   2.758
17612SOL     OW54276   6.047   1.166   2.586
17612SOL    HW154277   5.995   1.134   2.660
17612SOL    HW254278   5.997   1.143   2.508
17613SOL     OW54279   6.847   1.781   2.470
17613SOL    HW154280   6.890   1.854   2.426
17613SOL    HW254281   6.767   1.819   2.508
17614SOL     OW54282   6.612   0.527   1.888
17614SOL    HW154283   6.570   0.612   1.874
17614SOL    HW254284   6.669   0.541   1.964
17615SOL     OW54285   5.664   0.558   3.254
17615SOL    HW154286   5.755   0.553   3.225
17615SOL    HW254287   5.663   0.627   3.320
17616SOL     OW54288   6.147   0.222   3.056
17616SOL    HW154289   6.182   0.198   3.141
17616SOL    HW254290   6.052   0.222   3.068
17617SOL     OW54291   6.429   0.446   2.496
17617SOL    HW154292   6.404   0.511   2.431
17617SOL    HW254293   6.472   0.377   2.445
17618SOL     OW54294   6.606   0.027   2.624
17618SOL    HW154295   6.525   0.027   2.574
17618SOL    HW254296   6.588  -0.030   2.699
17619SOL     OW54297   6.989   1.174   2.692
17619SOL    HW154298   6.944   1.090   2.703
17619SOL    HW254299   6.999   1.183   2.597
17620SOL     OW54300   7.066   0.595   2.807
17620SOL    HW154301   7.001   0.527   2.824
17620SOL    HW254302   7.117   0.601   2.888
17621SOL     OW54303   6.083   1.443   2.009
17621SOL    HW154304   6.011   1.414   2.064
17621SOL    HW254305   6.093   1.374   1.944
17622SOL     OW54306   7.259   1.290   2.485
17622SOL    HW154307   7.350   1.287   2.515
17622SOL    HW254308   7.221   1.366   2.530
17623SOL     OW54309   6.987   0.579   1.947
17623SOL    HW154310   6.913   0.562   2.004
17623SOL    HW254311   7.064   0.570   2.004
17624SOL     OW54312   6.111   0.274   2.164
17624SOL    HW154313   6.130   0.224   2.086
17624SOL    HW254314   6.083   0.360   2.132
17625SOL     OW54315   7.343   1.243   3.401
17625SOL    HW154316   7.429   1.201   3.389
17625SOL    HW254317   7.363   1.323   3.450
17626SOL     OW54318   6.651   1.350   3.181
17626SOL    HW154319   6.569   1.326   3.225
17626SOL    HW254320   6.719   1.307   3.232
17627SOL     OW54321   7.197   1.638   3.520
17627SOL    HW154322   7.194   1.669   3.429
17627SOL    HW254323   7.274   1.582   3.524
17628SOL     OW54324   6.692   1.204   2.953
17628SOL    HW154325   6.665   1.250   3.032
17628SOL    HW254326   6.610   1.168   2.917
17629SOL     OW54327   7.202   1.108   2.948
17629SOL    HW154328   7.220   1.162   3.025
17629SOL    HW254329   7.115   1.072   2.963
17630SOL     OW54330   6.518   0.089   3.240
17630SOL    HW154331   6.547   0.144   3.167
17630SOL    HW254332   6.523   0.146   3.316
17631SOL     OW54333   6.565   1.120   3.578
17631SOL    HW154334   6.475   1.133   3.606
17631SOL    HW254335   6.563   1.040   3.526
17632SOL     OW54336   6.295   1.058   2.234
17632SOL    HW154337   6.284   1.041   2.327
17632SOL    HW254338   6.371   1.006   2.209
17633SOL     OW54339   5.948   0.827   3.154
17633SOL    HW154340   6.040   0.840   3.174
17633SOL    HW254341   5.936   0.732   3.159
17634SOL     OW54342   6.832   0.362   3.114
17634SOL    HW154343   6.874   0.441   3.148
17634SOL    HW254344   6.740   0.387   3.102
17635SOL     OW54345   5.897   1.118   2.355
17635SOL    HW154346   5.926   1.191   2.301
17635SOL    HW254347   5.903   1.042   2.298
17636SOL     OW54348   6.136   0.524   2.716
17636SOL    HW154349   6.149   0.580   2.639
17636SOL    HW254350   6.193   0.561   2.783
17637SOL     OW54351   6.834   1.349   2.258
17637SOL    HW154352   6.888   1.422   2.288
17637SOL    HW254353   6.746   1.370   2.288
17638SOL     OW54354   6.877   1.448   3.021
17638SOL    HW154355   6.930   1.471   3.098
17638SOL    HW254356   6.794   1.418   3.057
17639SOL     OW54357   7.177   0.623   2.330
17639SOL    HW154358   7.133   0.678   2.393
17639SOL    HW254359   7.249   0.677   2.297
17640SOL     OW54360   5.940   1.508   3.182
17640SOL    HW154361   5.938   1.482   3.090
17640SOL    HW254362   6.032   1.529   3.199
17641SOL     OW54363   6.020   0.737   3.478
17641SOL    HW154364   6.066   0.777   3.404
17641SOL    HW254365   6.083   0.674   3.514
17642SOL     OW54366   7.183   0.766   3.545
17642SOL    HW154367   7.099   0.812   3.546
17642SOL    HW254368   7.232   0.806   3.473
17643SOL     OW54369   6.640   0.045   3.615
17643SOL    HW154370   6.677   0.130   3.635
17643SOL    HW254371   6.548   0.062   3.594
17644SOL     OW54372   6.012  -0.013   3.593
17644SOL    HW154373   6.059  -0.022   3.511
17644SOL    HW254374   6.011   0.081   3.611
17645SOL     OW54375   6.920   0.843   2.881
17645SOL    HW154376   6.831   0.815   2.858
17645SOL    HW254377   6.967   0.761   2.895
17646SOL     OW54378   6.772   0.526   2.115
17646SOL    HW154379   6.788   0.451   2.172
17646SOL    HW254380   6.737   0.593   2.174
17647SOL     OW54381   5.873   0.200   3.107
17647SOL    HW154382   5.848   0.245   3.188
17647SOL    HW254383   5.868   0.107   3.129
17648SOL     OW54384   5.677   1.349   3.152
17648SOL    HW154385   5.632   1.304   3.224
17648SOL    HW254386   5.749   1.291   3.129
17649SOL     OW54387   6.294   0.632   2.908
17649SOL    HW154388   6.377   0.626   2.862
17649SOL    HW254389   6.267   0.723   2.898
17650SOL     OW54390   7.362   0.925   3.688
17650SOL    HW154391   7.293   0.868   3.654
17650SOL    HW254392   7.320   0.973   3.759
17651SOL     OW54393   5.976   0.056   2.525
17651SOL    HW154394   5.945   0.145   2.543
17651SOL    HW254395   5.927   0.001   2.587
17652SOL     OW54396   7.166   0.366   2.235
17652SOL    HW154397   7.214   0.312   2.298
17652SOL    HW254398   7.172   0.455   2.270
17653SOL     OW54399   6.635   0.750   2.820
17653SOL    HW154400   6.617   0.769   2.912
17653SOL    HW254401   6.596   0.663   2.806
17654SOL     OW54402   6.574   1.574   3.596
17654SOL    HW154403   6.538   1.620   3.520
17654SOL    HW254404   6.607   1.492   3.561
17655SOL     OW54405   7.438   1.504   3.472
17655SOL    HW154406   7.461   1.529   3.383
17655SOL    HW254407   7.520   1.511   3.521
17656SOL     OW54408   5.934   0.929   3.658
17656SOL    HW154409   6.007   0.945   3.718
17656SOL    HW254410   5.966   0.859   3.600
17657SOL     OW54411   7.166   0.291   1.975
17657SOL    HW154412   7.071   0.289   1.972
17657SOL    HW254413   7.187   0.323   2.063
17658SOL     OW54414   6.958   0.831   1.817
17658SOL    HW154415   6.967   0.756   1.877
17658SOL    HW254416   6.889   0.885   1.857
17659SOL     OW54417   6.637   1.371   2.650
17659SOL    HW154418   6.648   1.280   2.622
17659SOL    HW254419   6.726   1.404   2.660
17660SOL     OW54420   5.902   0.820   2.796
17660SOL    HW154421   5.993   0.849   2.808
17660SOL    HW254422   5.897   0.737   2.843
17661SOL     OW54423   5.913   0.540   2.874
17661SOL    HW154424   5.877   0.452   2.861
17661SOL    HW254425   5.989   0.544   2.816
17662SOL     OW54426   6.716   0.428   3.518
17662SOL    HW154427   6.680   0.463   3.599
17662SOL    HW254428   6.810   0.445   3.524
17663SOL     OW54429   6.815   0.220   3.346
17663SOL    HW154430   6.776   0.278   3.411
17663SOL    HW254431   6.821   0.274   3.267
17664SOL     OW54432   5.591   1.312   2.044
17664SOL    HW154433   5.502   1.328   2.015
17664SOL    HW254434   5.588   1.225   2.083
17665SOL     OW54435   5.672   1.779   2.796
17665SOL    HW154436   5.645   1.698   2.753
17665SOL    HW254437   5.763   1.791   2.769
17666SOL     OW54438   6.075   1.569   2.768
17666SOL    HW154439   6.145   1.629   2.792
17666SOL    HW254440   6.116   1.506   2.709
17667SOL     OW54441   6.567   0.775   3.079
17667SOL    HW154442   6.623   0.755   3.154
17667SOL    HW254443   6.479   0.781   3.115
17668SOL     OW54444   5.624   0.541   2.975
17668SOL    HW154445   5.711   0.556   2.937
17668SOL    HW254446   5.635   0.559   3.068
17669SOL     OW54447   5.769   0.534   3.602
17669SOL    HW154448   5.859   0.526   3.569
17669SOL    HW254449   5.731   0.605   3.550
17670SOL     OW54450   6.968   0.939   3.524
17670SOL    HW154451   6.990   1.032   3.535
17670SOL    HW254452   6.958   0.927   3.429
17671SOL     OW54453   6.407   0.568   2.237
17671SOL    HW154454   6.414   0.493   2.179
17671SOL    HW254455   6.331   0.617   2.205
17672SOL     OW54456   7.211   0.625   3.036
17672SOL    HW154457   7.149   0.608   3.107
17672SOL    HW254458   7.282   0.562   3.051
17673SOL     OW54459   5.825   1.541   3.603
17673SOL    HW154460   5.795   1.580   3.685
17673SOL    HW254461   5.844   1.450   3.625
17674SOL     OW54462   6.290   0.457   3.116
17674SOL    HW154463   6.230   0.387   3.092
17674SOL    HW254464   6.280   0.522   3.046
17675SOL     OW54465   6.040   0.503   2.028
17675SOL    HW154466   6.106   0.567   2.054
17675SOL    HW254467   5.956   0.548   2.042
17676SOL     OW54468   5.731   1.143   3.336
17676SOL    HW154469   5.730   1.092   3.417
17676SOL    HW254470   5.736   1.078   3.266
17677SOL     OW54471   6.931   1.085   2.996
17677SOL    HW154472   6.928   0.991   2.980
17677SOL    HW254473   6.839   1.111   3.001
17678SOL     OW54474   6.888   0.863   2.139
17678SOL    HW154475   6.831   0.825   2.205
17678SOL    HW254476   6.830   0.912   2.081
17679SOL     OW54477   7.321   1.741   2.985
17679SOL    HW154478   7.399   1.776   2.943
17679SOL    HW254479   7.325   1.647   2.970
17680SOL     OW54480   6.829   1.715   2.927
17680SOL    HW154481   6.917   1.748   2.911
17680SOL    HW254482   6.841   1.634   2.976
17681SOL     OW54483   5.640   1.291   2.861
17681SOL    HW154484   5.614   1.283   2.952
17681SOL    HW254485   5.600   1.216   2.817
17682SOL     OW54486   6.269   1.682   3.597
17682SOL    HW154487   6.219   1.764   3.595
17682SOL    HW254488   6.332   1.691   3.525
17683SOL     OW54489   7.272   0.128   2.362
17683SOL    HW154490   7.365   0.114   2.341
17683SOL    HW254491   7.255   0.069   2.435
17684SOL     OW54492   6.981   1.572   2.340
17684SOL    HW154493   7.033   1.617   2.274
17684SOL    HW254494   6.926   1.640   2.378
17685SOL     OW54495   5.720   1.828   3.707
17685SOL    HW154496   5.682   1.750   3.748
17685SOL    HW254497   5.780   1.862   3.772
17686SOL     OW54498   6.866   0.927   2.524
17686SOL    HW154499   6.940   0.868   2.540
17686SOL    HW254500   6.904   0.998   2.472
17687SOL     OW54501   6.393   1.284   3.269
17687SOL    HW154502   6.355   1.329   3.344
17687SOL    HW254503   6.323   1.286   3.203
17688SOL     OW54504   6.280   1.640   2.000
17688SOL    HW154505   6.288   1.642   1.905
17688SOL    HW254506   6.214   1.572   2.017
17689SOL     OW54507   7.213   1.732   3.247
17689SOL    HW154508   7.251   1.744   3.160
17689SOL    HW254509   7.196   1.821   3.278
17690SOL     OW54510   7.453   0.115   2.731
17690SOL    HW154511   7.452   0.054   2.805
17690SOL    HW254512   7.366   0.156   2.733
17691SOL     OW54513   5.839   0.293   2.572
17691SOL    HW154514   5.764   0.349   2.551
17691SOL    HW254515   5.847   0.299   2.667
17692SOL     OW54516   6.796   1.581   1.904
17692SOL    HW154517   6.786   1.492   1.938
17692SOL    HW254518   6.727   1.589   1.838
17693SOL     OW54519   6.410   1.010   3.224
17693SOL    HW154520   6.427   1.019   3.130
17693SOL    HW254521   6.405   1.100   3.256
17694SOL     OW54522   6.503   0.910   2.134
17694SOL    HW154523   6.568   0.950   2.076
17694SOL    HW254524   6.554   0.848   2.187
17695SOL     OW54525   7.056   1.665   1.888
17695SOL    HW154526   6.972   1.620   1.881
17695SOL    HW254527   7.103   1.639   1.809
17696SOL     OW54528   5.949   1.303   3.371
17696SOL    HW154529   5.940   1.374   3.307
17696SOL    HW254530   5.874   1.246   3.354
17697SOL     OW54531   7.179   1.276   3.166
17697SOL    HW154532   7.237   1.252   3.238
17697SOL    HW254533   7.115   1.335   3.205
17698SOL     OW54534   6.660   1.112   2.575
17698SOL    HW154535   6.587   1.063   2.615
17698SOL    HW254536   6.723   1.044   2.551
17699SOL     OW54537   6.617   0.261   2.791
17699SOL    HW154538   6.615   0.206   2.713
17699SOL    HW254539   6.615   0.200   2.865
17700SOL     OW54540   6.195   1.485   2.333
17700SOL    HW154541   6.240   1.438   2.263
17700SOL    HW254542   6.140   1.548   2.288
17701SOL     OW54543   7.315   0.402   3.243
17701SOL    HW154544   7.368   0.482   3.249
17701SOL    HW254545   7.369   0.342   3.192
17702SOL     OW54546   5.850   1.348   2.136
17702SOL    HW154547   5.756   1.341   2.116
17702SOL    HW254548   5.853   1.385   2.224
17703SOL     OW54549   5.695   1.049   3.594
17703SOL    HW154550   5.620   1.016   3.644
17703SOL    HW254551   5.770   1.000   3.627
17704SOL     OW54552   6.239   0.204   3.356
17704SOL    HW154553   6.303   0.134   3.343
17704SOL    HW254554   6.262   0.242   3.441
17705SOL     OW54555   5.670   0.253   1.844
17705SOL    HW154556   5.647   0.251   1.936
17705SOL    HW254557   5.653   0.343   1.816
17706SOL     OW54558   7.012   0.912   3.251
17706SOL    HW154559   6.985   0.821   3.241
17706SOL    HW254560   7.108   0.908   3.256
17707SOL     OW54561   6.759   1.320   1.988
17707SOL    HW154562   6.724   1.232   1.979
17707SOL    HW254563   6.787   1.325   2.080
17708SOL     OW54564   6.207   0.822   3.284
17708SOL    HW154565   6.259   0.900   3.265
17708SOL    HW254566   6.272   0.754   3.300
17709SOL     OW54567   7.083   1.795   2.860
17709SOL    HW154568   7.114   1.848   2.786
17709SOL    HW254569   7.162   1.774   2.909
17710SOL     OW54570   6.272   0.583   3.563
17710SOL    HW154571   6.328   0.634   3.621
17710SOL    HW254572   6.276   0.494   3.597
17711SOL     OW54573   7.061   1.211   3.482
17711SOL    HW154574   7.043   1.224   3.575
17711SOL    HW254575   7.157   1.214   3.475
17712SOL     OW54576   5.951   1.740   3.437
17712SOL    HW154577   5.860   1.767   3.426
17712SOL    HW254578   5.945   1.656   3.484
17713SOL     OW54579   7.314   0.878   3.088
17713SOL    HW154580   7.275   0.792   3.069
17713SOL    HW254581   7.270   0.938   3.028
17714SOL     OW54582   6.808   0.317   2.306
17714SOL    HW154583   6.878   0.253   2.292
17714SOL    HW254584   6.836   0.367   2.383
17715SOL     OW54585   6.181   0.712   2.521
17715SOL    HW154586   6.210   0.799   2.546
17715SOL    HW254587   6.112   0.727   2.455
17716SOL     OW54588   7.332   0.369   3.512
17716SOL    HW154589   7.320   0.384   3.418
17716SOL    HW254590   7.262   0.308   3.536
17717SOL     OW54591   7.330   0.909   3.361
17717SOL    HW154592   7.369   0.994   3.381
17717SOL    HW254593   7.339   0.901   3.266
17718SOL     OW54594   6.406   1.375   1.886
17718SOL    HW154595   6.405   1.382   1.982
17718SOL    HW254596   6.462   1.447   1.858
17719SOL     OW54597   6.246   1.781   2.792
17719SOL    HW154598   6.235   1.875   2.781
17719SOL    HW254599   6.341   1.768   2.794
17720SOL     OW54600   6.475   0.953   2.697
17720SOL    HW154601   6.531   0.890   2.742
17720SOL    HW254602   6.395   0.956   2.750
17721SOL     OW54603   7.441   1.560   2.720
17721SOL    HW154604   7.359   1.549   2.671
17721SOL    HW254605   7.446   1.482   2.775
17722SOL     OW54606   5.807   1.284   3.706
17722SOL    HW154607   5.761   1.208   3.672
17722SOL    HW254608   5.776   1.292   3.797
17723SOL     OW54609   5.687   1.217   2.528
17723SOL    HW154610   5.708   1.174   2.611
17723SOL    HW254611   5.752   1.183   2.467
17724SOL     OW54612   6.261   1.414   3.473
17724SOL    HW154613   6.199   1.368   3.529
17724SOL    HW254614   6.276   1.498   3.518
17725SOL     OW54615   6.000   0.430   2.378
17725SOL    HW154616   6.052   0.363   2.333
17725SOL    HW254617   5.958   0.382   2.449
17726SOL     OW54618   7.285   1.468   2.977
17726SOL    HW154619   7.215   1.467   3.042
17726SOL    HW254620   7.353   1.412   3.015
17727SOL     OW54621   5.914   0.555   3.155
17727SOL    HW154622   5.967   0.494   3.207
17727SOL    HW254623   5.937   0.536   3.064
17728SOL     OW54624   6.410   1.571   2.528
17728SOL    HW154625   6.368   1.615   2.454
17728SOL    HW254626   6.348   1.504   2.555
17729SOL     OW54627   7.021   0.235   2.960
17729SOL    HW154628   7.075   0.170   3.006
17729SOL    HW254629   6.967   0.274   3.029
17730SOL     OW54630   6.614   0.048   2.960
17730SOL    HW154631   6.577  -0.028   3.006
17730SOL    HW254632   6.705   0.052   2.989
17731SOL     OW54633   6.371   1.328   2.172
17731SOL    HW154634   6.345   1.237   2.190
17731SOL    HW254635   6.449   1.341   2.225
17732SOL     OW54636   6.205   1.572   3.116
17732SOL    HW154637   6.203   1.653   3.167
17732SOL    HW254638   6.296   1.563   3.090
17733SOL     OW54639   6.951   7.983   1.975
17733SOL    HW154640   7.040   7.956   1.998
17733SOL    HW254641   6.907   7.995   2.060
17734SOL     OW54642   6.875   0.463   2.526
17734SOL    HW154643   6.828   0.546   2.534
17734SOL    HW254644   6.881   0.431   2.616
17735SOL     OW54645   7.208   0.223   2.741
17735SOL    HW154646   7.140   0.225   2.808
17735SOL    HW254647   7.193   0.303   2.689
17736SOL     OW54648   5.625   1.055   2.145
17736SOL    HW154649   5.721   1.050   2.135
17736SOL    HW254650   5.600   0.968   2.178
17737SOL     OW54651   6.475   1.669   2.202
17737SOL    HW154652   6.405   1.655   2.139
17737SOL    HW254653   6.442   1.737   2.260
17738SOL     OW54654   5.796   0.638   3.860
17738SOL    HW154655   5.713   0.624   3.905
17738SOL    HW254656   5.780   0.609   3.770
17739SOL     OW54657   5.815   0.270   4.772
17739SOL    HW154658   5.882   0.215   4.733
17739SOL    HW254659   5.733   0.242   4.731
17740SOL     OW54660   5.593   0.403   4.358
17740SOL    HW154661   5.505   0.418   4.392
17740SOL    HW254662   5.586   0.325   4.303
17741SOL     OW54663   6.153   1.303   4.910
17741SOL    HW154664   6.068   1.312   4.866
17741SOL    HW254665   6.171   1.391   4.944
17742SOL     OW54666   7.136   1.530   4.451
17742SOL    HW154667   7.095   1.494   4.530
17742SOL    HW254668   7.065   1.534   4.387
17743SOL     OW54669   6.740   0.679   4.446
17743SOL    HW154670   6.698   0.675   4.360
17743SOL    HW254671   6.766   0.771   4.455
17744SOL     OW54672   7.395   0.596   3.943
17744SOL    HW154673   7.357   0.593   3.856
17744SOL    HW254674   7.341   0.537   3.995
17745SOL     OW54675   6.324   1.143   4.769
17745SOL    HW154676   6.257   1.176   4.829
17745SOL    HW254677   6.366   1.222   4.735
17746SOL     OW54678   6.414   0.785   5.536
17746SOL    HW154679   6.350   0.853   5.558
17746SOL    HW254680   6.455   0.817   5.456
17747SOL     OW54681   6.279   1.016   4.368
17747SOL    HW154682   6.338   1.006   4.443
17747SOL    HW254683   6.206   1.069   4.401
17748SOL     OW54684   6.308   1.166   5.547
17748SOL    HW154685   6.350   1.248   5.574
17748SOL    HW254686   6.223   1.193   5.512
17749SOL     OW54687   5.921   1.412   4.784
17749SOL    HW154688   5.845   1.377   4.738
17749SOL    HW254689   5.963   1.470   4.721
17750SOL     OW54690   7.069   1.501   5.085
17750SOL    HW154691   7.118   1.582   5.097
17750SOL    HW254692   6.991   1.511   5.141
17751SOL     OW54693   6.040   0.368   5.172
17751SOL    HW154694   6.117   0.315   5.190
17751SOL    HW254695   5.968   0.323   5.216
17752SOL     OW54696   7.202   0.461   4.457
17752SOL    HW154697   7.127   0.485   4.404
17752SOL    HW254698   7.191   0.510   4.539
17753SOL     OW54699   5.800   1.726   4.186
17753SOL    HW154700   5.824   1.796   4.247
17753SOL    HW254701   5.880   1.708   4.137
17754SOL     OW54702   6.715   1.331   5.447
17754SOL    HW154703   6.761   1.352   5.366
17754SOL    HW254704   6.677   1.244   5.431
17755SOL     OW54705   5.817   1.444   4.256
17755SOL    HW154706   5.792   1.535   4.272
17755SOL    HW254707   5.767   1.394   4.320
17756SOL     OW54708   5.857   1.096   4.625
17756SOL    HW154709   5.845   1.008   4.661
17756SOL    HW254710   5.797   1.151   4.675
17757SOL     OW54711   6.163   1.808   5.131
17757SOL    HW154712   6.090   1.783   5.187
17757SOL    HW254713   6.194   1.891   5.167
17758SOL     OW54714   6.153   0.996   3.867
17758SOL    HW154715   6.209   1.029   3.797
17758SOL    HW254716   6.195   1.027   3.947
17759SOL     OW54717   7.211   0.126   5.212
17759SOL    HW154718   7.241   0.207   5.170
17759SOL    HW254719   7.173   0.155   5.295
17760SOL     OW54720   5.710   0.660   4.286
17760SOL    HW154721   5.677   0.572   4.304
17760SOL    HW254722   5.695   0.708   4.367
17761SOL     OW54723   7.459   1.757   4.076
17761SOL    HW154724   7.400   1.743   4.150
17761SOL    HW254725   7.462   1.852   4.063
17762SOL     OW54726   5.640   1.593   3.827
17762SOL    HW154727   5.620   1.501   3.844
17762SOL    HW254728   5.610   1.639   3.905
17763SOL     OW54729   7.300   0.915   4.377
17763SOL    HW154730   7.349   0.854   4.322
17763SOL    HW254731   7.265   0.980   4.317
17764SOL     OW54732   7.231   1.108   4.203
17764SOL    HW154733   7.224   1.085   4.110
17764SOL    HW254734   7.269   1.196   4.204
17765SOL     OW54735   5.696   0.754   5.310
17765SOL    HW154736   5.780   0.799   5.318
17765SOL    HW254737   5.631   0.823   5.323
17766SOL     OW54738   6.207   1.393   4.456
17766SOL    HW154739   6.160   1.310   4.467
17766SOL    HW254740   6.190   1.418   4.365
17767SOL     OW54741   6.854   1.207   5.169
17767SOL    HW154742   6.881   1.153   5.095
17767SOL    HW254743   6.932   1.212   5.225
17768SOL     OW54744   6.429   0.018   4.286
17768SOL    HW154745   6.458   0.100   4.245
17768SOL    HW254746   6.345  -0.002   4.244
17769SOL     OW54747   5.775   0.945   4.987
17769SOL    HW154748   5.857   0.906   4.957
17769SOL    HW254749   5.708   0.902   4.934
17770SOL     OW54750   6.787   1.845   5.369
17770SOL    HW154751   6.776   1.900   5.291
17770SOL    HW254752   6.796   1.756   5.334
17771SOL     OW54753   5.881   0.249   5.490
17771SOL    HW154754   5.942   0.323   5.502
17771SOL    HW254755   5.805   0.271   5.543
17772SOL     OW54756   7.050   1.409   4.677
17772SOL    HW154757   6.983   1.422   4.744
17772SOL    HW254758   7.033   1.321   4.643
17773SOL     OW54759   7.297   1.660   4.271
17773SOL    HW154760   7.234   1.667   4.199
17773SOL    HW254761   7.243   1.635   4.347
17774SOL     OW54762   6.168   0.717   3.983
17774SOL    HW154763   6.184   0.806   3.952
17774SOL    HW254764   6.114   0.729   4.061
17775SOL     OW54765   6.871   0.358   4.662
17775SOL    HW154766   6.778   0.337   4.671
17775SOL    HW254767   6.915   0.300   4.725
17776SOL     OW54768   7.158   1.667   4.024
17776SOL    HW154769   7.213   1.742   4.002
17776SOL    HW254770   7.121   1.640   3.940
17777SOL     OW54771   6.359   0.631   5.156
17777SOL    HW154772   6.345   0.596   5.244
17777SOL    HW254773   6.334   0.560   5.097
17778SOL     OW54774   6.993   0.490   5.398
17778SOL    HW154775   7.001   0.542   5.478
17778SOL    HW254776   7.065   0.427   5.404
17779SOL     OW54777   6.528   0.876   5.311
17779SOL    HW154778   6.585   0.810   5.272
17779SOL    HW254779   6.488   0.920   5.236
17780SOL     OW54780   6.568   0.399   4.969
17780SOL    HW154781   6.477   0.429   4.970
17780SOL    HW254782   6.580   0.361   4.882
17781SOL     OW54783   5.669   0.820   4.503
17781SOL    HW154784   5.747   0.815   4.558
17781SOL    HW254785   5.622   0.897   4.535
17782SOL     OW54786   5.688   1.822   5.290
17782SOL    HW154787   5.696   1.816   5.385
17782SOL    HW254788   5.595   1.837   5.274
17783SOL     OW54789   6.475   0.343   3.930
17783SOL    HW154790   6.532   0.380   3.862
17783SOL    HW254791   6.477   0.249   3.914
17784SOL     OW54792   7.280   0.579   5.567
17784SOL    HW154793   7.249   0.649   5.509
17784SOL    HW254794   7.318   0.514   5.507
17785SOL     OW54795   6.966   1.158   4.275
17785SOL    HW154796   7.048   1.132   4.233
17785SOL    HW254797   6.921   1.210   4.208
17786SOL     OW54798   6.071   0.259   4.650
17786SOL    HW154799   6.152   0.298   4.684
17786SOL    HW254800   6.092   0.235   4.560
17787SOL     OW54801   6.582   1.444   4.194
17787SOL    HW154802   6.556   1.521   4.144
17787SOL    HW254803   6.558   1.465   4.285
17788SOL     OW54804   5.937   1.808   4.578
17788SOL    HW154805   5.984   1.726   4.595
17788SOL    HW254806   5.987   1.874   4.627
17789SOL     OW54807   7.374   1.110   4.559
17789SOL    HW154808   7.344   1.040   4.501
17789SOL    HW254809   7.317   1.103   4.636
17790SOL     OW54810   5.894   0.959   3.979
17790SOL    HW154811   5.978   0.976   3.938
17790SOL    HW254812   5.870   0.871   3.949
17791SOL     OW54813   7.075   0.755   4.441
17791SOL    HW154814   7.045   0.769   4.531
17791SOL    HW254815   7.153   0.811   4.433
17792SOL     OW54816   6.057   1.264   5.475
17792SOL    HW154817   6.031   1.263   5.383
17792SOL    HW254818   5.975   1.268   5.524
17793SOL     OW54819   6.710   1.791   3.942
17793SOL    HW154820   6.639   1.749   3.990
17793SOL    HW254821   6.741   1.723   3.882
17794SOL     OW54822   5.772   0.292   5.221
17794SOL    HW154823   5.719   0.371   5.217
17794SOL    HW254824   5.782   0.275   5.314
17795SOL     OW54825   7.242   1.405   3.806
17795SOL    HW154826   7.171   1.467   3.792
17795SOL    HW254827   7.200   1.319   3.813
17796SOL     OW54828   6.042   1.735   4.039
17796SOL    HW154829   6.091   1.783   4.107
17796SOL    HW254830   6.110   1.695   3.985
17797SOL     OW54831   6.988   0.122   4.160
17797SOL    HW154832   6.989   0.078   4.074
17797SOL    HW254833   7.080   0.132   4.183
17798SOL     OW54834   5.783   1.750   4.962
17798SOL    HW154835   5.870   1.777   4.993
17798SOL    HW254836   5.773   1.795   4.878
17799SOL     OW54837   6.526   1.703   4.617
17799SOL    HW154838   6.599   1.651   4.650
17799SOL    HW254839   6.489   1.650   4.547
17800SOL     OW54840   5.994   0.697   4.216
17800SOL    HW154841   6.011   0.603   4.224
17800SOL    HW254842   5.899   0.706   4.224
17801SOL     OW54843   7.114   0.225   5.454
17801SOL    HW154844   7.119   0.249   5.547
17801SOL    HW254845   7.024   0.196   5.442
17802SOL     OW54846   6.208   0.115   3.780
17802SOL    HW154847   6.274   0.099   3.848
17802SOL    HW254848   6.130   0.068   3.810
17803SOL     OW54849   6.351   0.319   5.534
17803SOL    HW154850   6.401   0.260   5.478
17803SOL    HW254851   6.290   0.262   5.580
17804SOL     OW54852   6.454   1.524   4.908
17804SOL    HW154853   6.436   1.480   4.825
17804SOL    HW254854   6.523   1.471   4.949
17805SOL     OW54855   6.929   0.597   5.153
17805SOL    HW154856   6.972   0.570   5.234
17805SOL    HW254857   6.966   0.683   5.133
17806SOL     OW54858   6.405   1.387   4.670
17806SOL    HW154859   6.491   1.375   4.630
17806SOL    HW254860   6.345   1.395   4.596
17807SOL     OW54861   6.445   0.500   4.625
17807SOL    HW154862   6.440   0.486   4.531
17807SOL    HW254863   6.510   0.437   4.656
17808SOL     OW54864   7.000   1.218   3.743
17808SOL    HW154865   7.060   1.164   3.795
17808SOL    HW254866   6.925   1.233   3.800
17809SOL     OW54867   5.906   0.065   3.938
17809SOL    HW154868   5.941   0.151   3.962
17809SOL    HW254869   5.961   0.003   3.986
17810SOL     OW54870   6.530   0.263   4.196
17810SOL    HW154871   6.496   0.298   4.113
17810SOL    HW254872   6.624   0.279   4.192
17811SOL     OW54873   6.672   0.673   5.202
17811SOL    HW154874   6.621   0.593   5.191
17811SOL    HW254875   6.763   0.646   5.186
17812SOL     OW54876   6.806   1.571   4.514
17812SOL    HW154877   6.823   1.641   4.451
17812SOL    HW254878   6.860   1.594   4.589
17813SOL     OW54879   6.058   1.157   4.450
17813SOL    HW154880   5.994   1.139   4.519
17813SOL    HW254881   6.009   1.144   4.368
17814SOL     OW54882   6.869   1.799   4.338
17814SOL    HW154883   6.930   1.861   4.299
17814SOL    HW254884   6.795   1.853   4.367
17815SOL     OW54885   6.618   0.527   3.751
17815SOL    HW154886   6.568   0.608   3.741
17815SOL    HW254887   6.670   0.541   3.831
17816SOL     OW54888   5.684   0.554   5.130
17816SOL    HW154889   5.774   0.563   5.099
17816SOL    HW254890   5.672   0.629   5.189
17817SOL     OW54891   6.159   0.203   4.920
17817SOL    HW154892   6.193   0.121   4.957
17817SOL    HW254893   6.103   0.175   4.847
17818SOL     OW54894   6.434   0.464   4.362
17818SOL    HW154895   6.419   0.527   4.291
17818SOL    HW254896   6.468   0.386   4.317
17819SOL     OW54897   6.548   0.033   4.528
17819SOL    HW154898   6.505   0.036   4.443
17819SOL    HW254899   6.582  -0.056   4.535
17820SOL     OW54900   7.006   1.167   4.555
17820SOL    HW154901   6.983   1.080   4.587
17820SOL    HW254902   6.987   1.164   4.461
17821SOL     OW54903   7.090   0.546   4.714
17821SOL    HW154904   7.006   0.504   4.695
17821SOL    HW254905   7.070   0.639   4.720
17822SOL     OW54906   7.464   0.818   4.109
17822SOL    HW154907   7.505   0.752   4.166
17822SOL    HW254908   7.418   0.766   4.042
17823SOL     OW54909   6.075   1.429   3.880
17823SOL    HW154910   5.995   1.397   3.923
17823SOL    HW254911   6.091   1.366   3.809
17824SOL     OW54912   7.309   1.337   4.361
17824SOL    HW154913   7.301   1.256   4.412
17824SOL    HW254914   7.231   1.388   4.384
17825SOL     OW54915   6.977   0.579   3.806
17825SOL    HW154916   6.908   0.558   3.870
17825SOL    HW254917   7.057   0.582   3.857
17826SOL     OW54918   6.046   0.284   4.029
17826SOL    HW154919   6.122   0.226   4.041
17826SOL    HW254920   6.076   0.352   3.969
17827SOL     OW54921   7.340   1.224   5.319
17827SOL    HW154922   7.407   1.177   5.368
17827SOL    HW254923   7.366   1.316   5.324
17828SOL     OW54924   6.628   1.346   5.034
17828SOL    HW154925   6.552   1.320   5.087
17828SOL    HW254926   6.699   1.357   5.097
17829SOL     OW54927   7.211   1.638   5.400
17829SOL    HW154928   7.181   1.661   5.312
17829SOL    HW254929   7.286   1.581   5.387
17830SOL     OW54930   6.711   1.196   4.821
17830SOL    HW154931   6.666   1.243   4.891
17830SOL    HW254932   6.687   1.243   4.741
17831SOL     OW54933   7.230   1.108   4.788
17831SOL    HW154934   7.213   1.165   4.864
17831SOL    HW254935   7.146   1.064   4.773
17832SOL     OW54936   6.510   0.101   5.129
17832SOL    HW154937   6.516   0.080   5.035
17832SOL    HW254938   6.596   0.135   5.152
17833SOL     OW54939   6.568   1.092   5.473
17833SOL    HW154940   6.478   1.123   5.482
17833SOL    HW254941   6.563   1.024   5.405
17834SOL     OW54942   6.296   1.071   4.094
17834SOL    HW154943   6.289   1.049   4.186
17834SOL    HW254944   6.364   1.013   4.059
17835SOL     OW54945   6.021   0.805   4.956
17835SOL    HW154946   6.076   0.834   5.029
17835SOL    HW254947   5.981   0.723   4.985
17836SOL     OW54948   6.849   0.377   5.011
17836SOL    HW154949   6.889   0.456   5.047
17836SOL    HW254950   6.763   0.406   4.980
17837SOL     OW54951   5.913   1.120   4.217
17837SOL    HW154952   5.917   1.192   4.155
17837SOL    HW254953   5.911   1.041   4.162
17838SOL     OW54954   6.129   0.556   4.585
17838SOL    HW154955   6.145   0.490   4.518
17838SOL    HW254956   6.140   0.640   4.540
17839SOL     OW54957   6.832   1.358   4.114
17839SOL    HW154958   6.888   1.427   4.150
17839SOL    HW254959   6.745   1.377   4.149
17840SOL     OW54960   6.873   1.464   4.879
17840SOL    HW154961   6.924   1.475   4.960
17840SOL    HW254962   6.803   1.403   4.902
17841SOL     OW54963   7.143   0.650   4.188
17841SOL    HW154964   7.113   0.672   4.276
17841SOL    HW254965   7.107   0.719   4.132
17842SOL     OW54966   5.936   1.490   5.040
17842SOL    HW154967   5.929   1.473   4.946
17842SOL    HW254968   6.023   1.527   5.051
17843SOL     OW54969   6.016   0.715   5.339
17843SOL    HW154970   6.049   0.778   5.275
17843SOL    HW254971   6.091   0.656   5.355
17844SOL     OW54972   7.182   0.756   5.392
17844SOL    HW154973   7.102   0.810   5.394
17844SOL    HW254974   7.243   0.806   5.337
17845SOL     OW54975   6.589   0.093   5.463
17845SOL    HW154976   6.644   0.140   5.526
17845SOL    HW254977   6.615   0.127   5.378
17846SOL     OW54978   6.038   0.021   5.529
17846SOL    HW154979   6.105  -0.010   5.468
17846SOL    HW254980   5.994   0.092   5.482
17847SOL     OW54981   6.208   0.830   4.751
17847SOL    HW154982   6.225   0.924   4.752
17847SOL    HW254983   6.142   0.818   4.819
17848SOL     OW54984   6.777   0.519   3.984
17848SOL    HW154985   6.785   0.445   4.045
17848SOL    HW254986   6.735   0.588   4.035
17849SOL     OW54987   5.678   1.384   5.018
17849SOL    HW154988   5.667   1.303   5.069
17849SOL    HW254989   5.772   1.402   5.023
17850SOL     OW54990   7.296   0.935   5.645
17850SOL    HW154991   7.380   0.924   5.601
17850SOL    HW254992   7.247   0.996   5.589
17851SOL     OW54993   5.948   0.071   4.393
17851SOL    HW154994   5.900   0.151   4.415
17851SOL    HW254995   5.895   0.001   4.432
17852SOL     OW54996   7.217   0.404   4.080
17852SOL    HW154997   7.222   0.337   4.149
17852SOL    HW254998   7.187   0.482   4.125
17853SOL     OW54999   6.609   0.762   4.699
17853SOL    HW155000   6.628   0.780   4.791
17853SOL    HW255001   6.692   0.732   4.663
17854SOL     OW55002   6.566   1.565   5.456
17854SOL    HW155003   6.539   1.618   5.381
17854SOL    HW255004   6.628   1.502   5.420
17855SOL     OW55005   7.438   1.488   5.333
17855SOL    HW155006   7.452   1.519   5.244
17855SOL    HW255007   7.520   1.508   5.379
17856SOL     OW55008   5.976   0.879   5.566
17856SOL    HW155009   5.916   0.948   5.536
17856SOL    HW255010   5.987   0.823   5.490
17857SOL     OW55011   7.134   0.256   3.857
17857SOL    HW155012   7.105   0.175   3.900
17857SOL    HW255013   7.163   0.312   3.928
17858SOL     OW55014   6.862   0.836   3.759
17858SOL    HW155015   6.903   0.750   3.771
17858SOL    HW255016   6.902   0.869   3.678
17859SOL     OW55017   6.654   1.338   4.580
17859SOL    HW155018   6.661   1.261   4.523
17859SOL    HW255019   6.715   1.401   4.543
17860SOL     OW55020   5.889   0.805   4.665
17860SOL    HW155021   5.979   0.825   4.639
17860SOL    HW255022   5.894   0.718   4.705
17861SOL     OW55023   5.915   0.523   4.748
17861SOL    HW155024   5.890   0.431   4.746
17861SOL    HW255025   5.991   0.529   4.690
17862SOL     OW55026   6.736   0.399   5.400
17862SOL    HW155027   6.744   0.358   5.486
17862SOL    HW255028   6.818   0.447   5.388
17863SOL     OW55029   6.754   0.213   5.204
17863SOL    HW155030   6.755   0.277   5.276
17863SOL    HW255031   6.787   0.262   5.129
17864SOL     OW55032   5.590   1.318   3.906
17864SOL    HW155033   5.502   1.334   3.873
17864SOL    HW255034   5.585   1.230   3.945
17865SOL     OW55035   5.680   1.765   4.669
17865SOL    HW155036   5.650   1.693   4.613
17865SOL    HW255037   5.764   1.792   4.630
17866SOL     OW55038   6.079   1.574   4.627
17866SOL    HW155039   6.146   1.638   4.650
17866SOL    HW255040   6.124   1.511   4.570
17867SOL     OW55041   6.549   0.780   4.975
17867SOL    HW155042   6.621   0.767   5.037
17867SOL    HW255043   6.472   0.746   5.021
17868SOL     OW55044   5.624   0.550   4.848
17868SOL    HW155045   5.702   0.550   4.793
17868SOL    HW255046   5.657   0.560   4.938
17869SOL     OW55047   5.792   0.542   5.451
17869SOL    HW155048   5.874   0.559   5.405
17869SOL    HW255049   5.729   0.604   5.413
17870SOL     OW55050   6.966   0.930   5.383
17870SOL    HW155051   6.990   1.022   5.377
17870SOL    HW255052   6.959   0.901   5.292
17871SOL     OW55053   6.321   0.504   4.095
17871SOL    HW155054   6.378   0.463   4.030
17871SOL    HW255055   6.292   0.586   4.054
17872SOL     OW55056   7.250   0.603   4.955
17872SOL    HW155057   7.177   0.577   4.900
17872SOL    HW255058   7.328   0.587   4.901
17873SOL     OW55059   5.832   1.543   5.452
17873SOL    HW155060   5.808   1.607   5.520
17873SOL    HW255061   5.833   1.459   5.498
17874SOL     OW55062   6.295   0.446   4.960
17874SOL    HW155063   6.245   0.364   4.966
17874SOL    HW255064   6.260   0.489   4.882
17875SOL     OW55065   6.465   1.700   5.232
17875SOL    HW155066   6.511   1.644   5.170
17875SOL    HW255067   6.471   1.788   5.194
17876SOL     OW55068   6.047   0.505   3.851
17876SOL    HW155069   6.107   0.569   3.888
17876SOL    HW255070   5.960   0.543   3.863
17877SOL     OW55071   5.745   1.149   5.162
17877SOL    HW155072   5.734   1.109   5.248
17877SOL    HW255073   5.754   1.075   5.102
17878SOL     OW55074   6.902   1.042   4.942
17878SOL    HW155075   6.935   0.982   4.875
17878SOL    HW255076   6.835   1.094   4.898
17879SOL     OW55077   6.915   0.844   4.080
17879SOL    HW155078   6.831   0.815   4.113
17879SOL    HW255079   6.898   0.872   3.990
17880SOL     OW55080   7.364   1.733   4.879
17880SOL    HW155081   7.423   1.755   4.807
17880SOL    HW255082   7.333   1.645   4.859
17881SOL     OW55083   6.820   1.736   4.820
17881SOL    HW155084   6.907   1.755   4.784
17881SOL    HW255085   6.829   1.648   4.857
17882SOL     OW55086   5.672   1.267   4.745
17882SOL    HW155087   5.650   1.306   4.830
17882SOL    HW255088   5.593   1.219   4.720
17883SOL     OW55089   6.267   1.675   5.445
17883SOL    HW155090   6.214   1.754   5.441
17883SOL    HW255091   6.334   1.688   5.378
17884SOL     OW55092   7.248   0.140   4.239
17884SOL    HW155093   7.340   0.124   4.216
17884SOL    HW255094   7.237   0.098   4.324
17885SOL     OW55095   6.980   1.573   4.217
17885SOL    HW155096   7.034   1.604   4.144
17885SOL    HW255097   6.933   1.651   4.246
17886SOL     OW55098   5.728   1.802   5.556
17886SOL    HW155099   5.678   1.736   5.603
17886SOL    HW255100   5.776   1.849   5.625
17887SOL     OW55101   6.858   0.936   4.398
17887SOL    HW155102   6.921   0.864   4.393
17887SOL    HW255103   6.890   1.000   4.335
17888SOL     OW55104   6.382   1.281   5.149
17888SOL    HW155105   6.357   1.322   5.232
17888SOL    HW255106   6.311   1.304   5.089
17889SOL     OW55107   6.251   1.637   3.876
17889SOL    HW155108   6.274   1.644   3.783
17889SOL    HW255109   6.200   1.557   3.882
17890SOL     OW55110   7.220   1.733   5.119
17890SOL    HW155111   7.259   1.741   5.032
17890SOL    HW255112   7.202   1.823   5.145
17891SOL     OW55113   7.445   0.178   4.672
17891SOL    HW155114   7.444   0.083   4.659
17891SOL    HW255115   7.358   0.206   4.643
17892SOL     OW55116   5.836   0.315   4.447
17892SOL    HW155117   5.751   0.348   4.418
17892SOL    HW255118   5.848   0.353   4.535
17893SOL     OW55119   6.792   1.592   3.765
17893SOL    HW155120   6.781   1.502   3.797
17893SOL    HW255121   6.720   1.604   3.702
17894SOL     OW55122   6.410   1.013   5.107
17894SOL    HW155123   6.455   1.005   5.023
17894SOL    HW255124   6.403   1.107   5.122
17895SOL     OW55125   6.478   0.912   3.974
17895SOL    HW155126   6.553   0.954   3.931
17895SOL    HW255127   6.518   0.849   4.034
17896SOL     OW55128   7.065   1.633   3.765
17896SOL    HW155129   6.972   1.616   3.751
17896SOL    HW255130   7.103   1.637   3.677
17897SOL     OW55131   5.970   1.289   5.225
17897SOL    HW155132   5.965   1.364   5.165
17897SOL    HW255133   5.894   1.236   5.202
17898SOL     OW55134   7.217   1.288   5.005
17898SOL    HW155135   7.251   1.252   5.087
17898SOL    HW255136   7.155   1.356   5.033
17899SOL     OW55137   6.643   1.100   4.440
17899SOL    HW155138   6.582   1.060   4.378
17899SOL    HW255139   6.722   1.046   4.434
17900SOL     OW55140   6.601   0.268   4.694
17900SOL    HW155141   6.588   0.226   4.609
17900SOL    HW255142   6.610   0.195   4.756
17901SOL     OW55143   6.192   1.481   4.197
17901SOL    HW155144   6.249   1.434   4.135
17901SOL    HW255145   6.111   1.497   4.148
17902SOL     OW55146   7.309   0.378   5.134
17902SOL    HW155147   7.302   0.468   5.102
17902SOL    HW255148   7.355   0.331   5.064
17903SOL     OW55149   5.844   1.346   4.010
17903SOL    HW155150   5.752   1.340   3.986
17903SOL    HW255151   5.844   1.385   4.098
17904SOL     OW55152   6.257   0.215   5.236
17904SOL    HW155153   6.305   0.145   5.193
17904SOL    HW255154   6.324   0.278   5.263
17905SOL     OW55155   5.674   0.323   3.758
17905SOL    HW155156   5.579   0.319   3.764
17905SOL    HW255157   5.692   0.400   3.705
17906SOL     OW55158   7.008   0.859   5.119
17906SOL    HW155159   6.958   0.918   5.062
17906SOL    HW255160   7.097   0.861   5.084
17907SOL     OW55161   5.689   0.202   4.054
17907SOL    HW155162   5.673   0.257   3.977
17907SOL    HW255163   5.754   0.138   4.024
17908SOL     OW55164   6.757   1.327   3.850
17908SOL    HW155165   6.699   1.251   3.851
17908SOL    HW255166   6.786   1.336   3.941
17909SOL     OW55167   6.194   0.846   5.161
17909SOL    HW155168   6.250   0.923   5.149
17909SOL    HW255169   6.254   0.772   5.162
17910SOL     OW55170   7.067   1.792   4.714
17910SOL    HW155171   7.091   1.853   4.644
17910SOL    HW255172   7.150   1.756   4.744
17911SOL     OW55173   6.277   0.568   5.422
17911SOL    HW155174   6.328   0.631   5.472
17911SOL    HW255175   6.306   0.482   5.455
17912SOL     OW55176   7.067   1.184   5.355
17912SOL    HW155177   7.049   1.214   5.444
17912SOL    HW255178   7.159   1.206   5.340
17913SOL     OW55179   5.951   1.740   5.293
17913SOL    HW155180   5.864   1.775   5.274
17913SOL    HW255181   5.935   1.657   5.337
17914SOL     OW55182   7.259   0.880   4.986
17914SOL    HW155183   7.256   0.786   4.968
17914SOL    HW255184   7.234   0.922   4.904
17915SOL     OW55185   6.801   0.319   4.180
17915SOL    HW155186   6.864   0.247   4.174
17915SOL    HW255187   6.832   0.371   4.255
17916SOL     OW55188   6.179   0.764   4.421
17916SOL    HW155189   6.217   0.846   4.390
17916SOL    HW255190   6.120   0.737   4.351
17917SOL     OW55191   7.347   0.363   5.403
17917SOL    HW155192   7.349   0.381   5.309
17917SOL    HW255193   7.269   0.309   5.416
17918SOL     OW55194   7.331   0.928   5.243
17918SOL    HW155195   7.337   1.023   5.255
17918SOL    HW255196   7.313   0.917   5.149
17919SOL     OW55197   6.409   1.379   3.761
17919SOL    HW155198   6.406   1.386   3.856
17919SOL    HW255199   6.463   1.454   3.734
17920SOL     OW55200   6.250   1.782   4.653
17920SOL    HW155201   6.233   1.876   4.640
17920SOL    HW255202   6.346   1.775   4.653
17921SOL     OW55203   6.428   0.965   4.594
17921SOL    HW155204   6.524   0.971   4.598
17921SOL    HW255205   6.398   1.029   4.659
17922SOL     OW55206   6.674   1.026   3.816
17922SOL    HW155207   6.647   1.053   3.728
17922SOL    HW255208   6.740   0.958   3.801
17923SOL     OW55209   7.437   1.535   4.552
17923SOL    HW155210   7.342   1.543   4.540
17923SOL    HW255211   7.448   1.473   4.623
17924SOL     OW55212   5.804   1.301   5.584
17924SOL    HW155213   5.776   1.222   5.538
17924SOL    HW255214   5.735   1.318   5.648
17925SOL     OW55215   5.687   1.228   4.390
17925SOL    HW155216   5.680   1.181   4.473
17925SOL    HW255217   5.752   1.179   4.339
17926SOL     OW55218   6.273   1.406   5.365
17926SOL    HW155219   6.189   1.372   5.394
17926SOL    HW255220   6.273   1.498   5.393
17927SOL     OW55221   7.421   0.221   4.949
17927SOL    HW155222   7.353   0.153   4.947
17927SOL    HW255223   7.447   0.233   4.858
17928SOL     OW55224   6.012   0.432   4.262
17928SOL    HW155225   6.022   0.380   4.182
17928SOL    HW255226   5.955   0.380   4.318
17929SOL     OW55227   7.280   1.485   4.807
17929SOL    HW155228   7.200   1.463   4.759
17929SOL    HW255229   7.286   1.418   4.876
17930SOL     OW55230   5.925   0.558   5.018
17930SOL    HW155231   5.981   0.495   5.065
17930SOL    HW255232   5.938   0.536   4.926
17931SOL     OW55233   6.419   1.576   4.398
17931SOL    HW155234   6.388   1.639   4.334
17931SOL    HW255235   6.345   1.515   4.410
17932SOL     OW55236   7.004   0.207   4.848
17932SOL    HW155237   7.077   0.161   4.890
17932SOL    HW255238   6.966   0.261   4.917
17933SOL     OW55239   6.623   0.059   4.862
17933SOL    HW155240   6.574  -0.023   4.864
17933SOL    HW255241   6.715   0.032   4.864
17934SOL     OW55242   6.371   1.336   4.041
17934SOL    HW155243   6.344   1.245   4.053
17934SOL    HW255244   6.450   1.345   4.094
17935SOL     OW55245   6.205   1.559   5.016
17935SOL    HW155246   6.200   1.645   5.057
17935SOL    HW255247   6.294   1.554   4.980
17936SOL     OW55248   6.972   8.018   3.903
17936SOL    HW155249   6.995   7.927   3.884
17936SOL    HW255250   6.879   8.024   3.884
17937SOL     OW55251   6.896   0.452   4.404
17937SOL    HW155252   6.849   0.535   4.410
17937SOL    HW255253   6.891   0.415   4.492
17938SOL     OW55254   7.193   0.225   4.591
17938SOL    HW155255   7.117   0.232   4.649
17938SOL    HW255256   7.189   0.304   4.538
17939SOL     OW55257   5.629   1.064   4.025
17939SOL    HW155258   5.723   1.053   4.007
17939SOL    HW255259   5.600   0.976   4.050
17940SOL     OW55260   6.478   1.664   4.060
17940SOL    HW155261   6.402   1.648   4.005
17940SOL    HW255262   6.452   1.734   4.119
17941SOL     OW55263   5.793   0.619   5.721
17941SOL    HW155264   5.702   0.642   5.741
17941SOL    HW255265   5.797   0.618   5.625
17942SOL     OW55266   5.819   0.298   6.550
17942SOL    HW155267   5.848   0.269   6.636
17942SOL    HW255268   5.733   0.257   6.538
17943SOL     OW55269   5.595   0.386   6.209
17943SOL    HW155270   5.512   0.407   6.252
17943SOL    HW255271   5.571   0.322   6.142
17944SOL     OW55272   6.177   1.289   6.767
17944SOL    HW155273   6.095   1.292   6.719
17944SOL    HW255274   6.174   1.366   6.824
17945SOL     OW55275   7.108   1.507   6.297
17945SOL    HW155276   7.079   1.582   6.347
17945SOL    HW255277   7.057   1.510   6.216
17946SOL     OW55278   6.718   0.706   6.269
17946SOL    HW155279   6.759   0.792   6.260
17946SOL    HW255280   6.673   0.709   6.353
17947SOL     OW55281   7.324   0.605   5.832
17947SOL    HW155282   7.309   0.621   5.739
17947SOL    HW255283   7.333   0.510   5.838
17948SOL     OW55284   6.392   1.152   6.661
17948SOL    HW155285   6.312   1.176   6.707
17948SOL    HW255286   6.402   1.220   6.594
17949SOL     OW55287   6.459   0.773   7.404
17949SOL    HW155288   6.449   0.851   7.459
17949SOL    HW255289   6.485   0.808   7.319
17950SOL     OW55290   6.255   0.968   6.255
17950SOL    HW155291   6.324   0.977   6.321
17950SOL    HW255292   6.189   1.033   6.280
17951SOL     OW55293   6.307   1.164   7.420
17951SOL    HW155294   6.329   1.256   7.408
17951SOL    HW255295   6.236   1.148   7.357
17952SOL     OW55296   5.932   1.404   6.658
17952SOL    HW155297   5.852   1.378   6.613
17952SOL    HW255298   5.973   1.467   6.599
17953SOL     OW55299   7.045   1.494   6.948
17953SOL    HW155300   7.102   1.570   6.959
17953SOL    HW255301   6.970   1.512   7.004
17954SOL     OW55302   6.007   0.407   7.145
17954SOL    HW155303   6.077   0.412   7.081
17954SOL    HW255304   5.943   0.346   7.106
17955SOL     OW55305   7.160   0.500   6.335
17955SOL    HW155306   7.077   0.486   6.290
17955SOL    HW255307   7.221   0.528   6.266
17956SOL     OW55308   5.817   1.710   6.055
17956SOL    HW155309   5.833   1.789   6.107
17956SOL    HW255310   5.893   1.705   5.996
17957SOL     OW55311   6.734   1.333   7.274
17957SOL    HW155312   6.813   1.303   7.319
17957SOL    HW255313   6.676   1.257   7.274
17958SOL     OW55314   5.810   1.453   6.137
17958SOL    HW155315   5.822   1.545   6.112
17958SOL    HW255316   5.723   1.450   6.177
17959SOL     OW55317   5.836   1.100   6.454
17959SOL    HW155318   5.837   1.013   6.495
17959SOL    HW255319   5.789   1.155   6.516
17960SOL     OW55320   6.214   1.770   7.045
17960SOL    HW155321   6.122   1.765   7.070
17960SOL    HW255322   6.235   1.863   7.049
17961SOL     OW55323   6.293   0.956   5.713
17961SOL    HW155324   6.285   1.030   5.653
17961SOL    HW255325   6.288   0.994   5.800
17962SOL     OW55326   7.231   0.216   7.050
17962SOL    HW155327   7.238   0.169   6.967
17962SOL    HW255328   7.144   0.195   7.083
17963SOL     OW55329   5.708   0.642   6.159
17963SOL    HW155330   5.661   0.561   6.175
17963SOL    HW255331   5.687   0.697   6.235
17964SOL     OW55332   7.421   1.762   5.922
17964SOL    HW155333   7.485   1.732   5.986
17964SOL    HW255334   7.440   1.855   5.910
17965SOL     OW55335   5.629   1.598   5.699
17965SOL    HW155336   5.599   1.509   5.718
17965SOL    HW255337   5.603   1.649   5.776
17966SOL     OW55338   7.276   0.934   6.234
17966SOL    HW155339   7.347   0.870   6.228
17966SOL    HW255340   7.284   0.987   6.155
17967SOL     OW55341   7.275   1.109   6.032
17967SOL    HW155342   7.354   1.096   5.980
17967SOL    HW255343   7.247   1.198   6.012
17968SOL     OW55344   5.708   0.762   7.163
17968SOL    HW155345   5.788   0.813   7.150
17968SOL    HW255346   5.637   0.823   7.144
17969SOL     OW55347   6.184   1.386   6.340
17969SOL    HW155348   6.138   1.303   6.330
17969SOL    HW255349   6.184   1.424   6.252
17970SOL     OW55350   6.838   1.240   6.985
17970SOL    HW155351   6.871   1.169   6.930
17970SOL    HW255352   6.897   1.243   7.060
17971SOL     OW55353   6.406   0.063   6.189
17971SOL    HW155354   6.456   0.120   6.130
17971SOL    HW255355   6.329   0.039   6.138
17972SOL     OW55356   5.762   0.945   6.863
17972SOL    HW155357   5.851   0.912   6.855
17972SOL    HW255358   5.725   0.938   6.775
17973SOL     OW55359   7.075   1.017   5.826
17973SOL    HW155360   7.071   0.952   5.756
17973SOL    HW255361   7.166   1.018   5.854
17974SOL     OW55362   6.768   1.824   7.220
17974SOL    HW155363   6.766   1.899   7.161
17974SOL    HW255364   6.813   1.756   7.170
17975SOL     OW55365   5.889   0.230   7.407
17975SOL    HW155366   5.950   0.301   7.390
17975SOL    HW255367   5.810   0.273   7.439
17976SOL     OW55368   7.059   1.405   6.560
17976SOL    HW155369   6.971   1.435   6.585
17976SOL    HW255370   7.062   1.415   6.465
17977SOL     OW55371   7.263   1.715   6.172
17977SOL    HW155372   7.248   1.723   6.078
17977SOL    HW255373   7.206   1.643   6.199
17978SOL     OW55374   6.193   0.736   5.843
17978SOL    HW155375   6.205   0.792   5.767
17978SOL    HW255376   6.159   0.794   5.911
17979SOL     OW55377   6.879   0.356   6.528
17979SOL    HW155378   6.786   0.333   6.534
17979SOL    HW255379   6.924   0.279   6.563
17980SOL     OW55380   7.163   1.671   5.895
17980SOL    HW155381   7.252   1.706   5.883
17980SOL    HW255382   7.130   1.660   5.806
17981SOL     OW55383   6.405   0.584   7.084
17981SOL    HW155384   6.336   0.626   7.135
17981SOL    HW255385   6.385   0.606   6.993
17982SOL     OW55386   6.988   0.490   7.253
17982SOL    HW155387   7.004   0.536   7.335
17982SOL    HW255388   7.032   0.406   7.264
17983SOL     OW55389   6.537   0.892   7.171
17983SOL    HW155390   6.593   0.828   7.128
17983SOL    HW255391   6.488   0.933   7.100
17984SOL     OW55392   6.560   0.416   6.806
17984SOL    HW155393   6.501   0.492   6.807
17984SOL    HW255394   6.559   0.386   6.715
17985SOL     OW55395   6.621   0.704   5.991
17985SOL    HW155396   6.645   0.709   6.083
17985SOL    HW255397   6.538   0.656   5.990
17986SOL     OW55398   5.658   0.801   6.373
17986SOL    HW155399   5.736   0.811   6.427
17986SOL    HW255400   5.607   0.880   6.389
17987SOL     OW55401   5.698   1.797   7.156
17987SOL    HW155402   5.697   1.810   7.251
17987SOL    HW255403   5.646   1.870   7.121
17988SOL     OW55404   6.483   0.361   5.804
17988SOL    HW155405   6.515   0.420   5.736
17988SOL    HW255406   6.485   0.275   5.763
17989SOL     OW55407   7.261   0.570   7.429
17989SOL    HW155408   7.245   0.644   7.371
17989SOL    HW255409   7.299   0.503   7.372
17990SOL     OW55410   6.979   1.153   6.049
17990SOL    HW155411   6.998   1.112   5.965
17990SOL    HW255412   6.916   1.222   6.029
17991SOL     OW55413   6.161   0.244   6.506
17991SOL    HW155414   6.163   0.338   6.522
17991SOL    HW255415   6.147   0.235   6.412
17992SOL     OW55416   6.594   1.483   6.083
17992SOL    HW155417   6.564   1.539   6.012
17992SOL    HW255418   6.529   1.495   6.153
17993SOL     OW55419   5.928   1.815   6.460
17993SOL    HW155420   5.977   1.734   6.474
17993SOL    HW255421   5.992   1.884   6.476
17994SOL     OW55422   7.379   1.044   6.484
17994SOL    HW155423   7.338   1.028   6.398
17994SOL    HW255424   7.305   1.057   6.543
17995SOL     OW55425   6.800   1.539   7.080
17995SOL    HW155426   6.787   1.475   7.149
17995SOL    HW255427   6.716   1.585   7.073
17996SOL     OW55428   5.940   0.925   5.846
17996SOL    HW155429   5.992   0.985   5.793
17996SOL    HW255430   5.896   0.869   5.782
17997SOL     OW55431   7.068   0.774   6.328
17997SOL    HW155432   7.080   0.680   6.341
17997SOL    HW255433   7.153   0.806   6.297
17998SOL     OW55434   6.027   1.252   7.415
17998SOL    HW155435   6.043   1.220   7.326
17998SOL    HW255436   5.935   1.278   7.415
17999SOL     OW55437   6.723   1.760   5.827
17999SOL    HW155438   6.636   1.734   5.856
17999SOL    HW255439   6.741   1.702   5.753
18000SOL     OW55440   5.767   0.281   7.069
18000SOL    HW155441   5.723   0.363   7.048
18000SOL    HW255442   5.745   0.265   7.161
18001SOL     OW55443   7.218   1.390   5.694
18001SOL    HW155444   7.181   1.475   5.671
18001SOL    HW255445   7.152   1.327   5.664
18002SOL     OW55446   7.003   0.114   6.020
18002SOL    HW155447   6.967   0.063   5.947
18002SOL    HW255448   7.086   0.149   5.986
18003SOL     OW55449   5.780   1.775   6.798
18003SOL    HW155450   5.852   1.720   6.829
18003SOL    HW255451   5.812   1.865   6.807
18004SOL     OW55452   6.539   1.686   6.492
18004SOL    HW155453   6.626   1.650   6.474
18004SOL    HW255454   6.483   1.651   6.423
18005SOL     OW55455   5.966   0.635   6.082
18005SOL    HW155456   5.968   0.663   5.991
18005SOL    HW255457   5.877   0.653   6.112
18006SOL     OW55458   7.085   0.241   7.319
18006SOL    HW155459   7.093   0.264   7.412
18006SOL    HW255460   7.134   0.159   7.310
18007SOL     OW55461   6.198   0.149   5.704
18007SOL    HW155462   6.278   0.103   5.730
18007SOL    HW255463   6.159   0.093   5.637
18008SOL     OW55464   6.387   0.281   7.399
18008SOL    HW155465   6.352   0.192   7.402
18008SOL    HW255466   6.312   0.338   7.416
18009SOL     OW55467   6.508   1.480   6.746
18009SOL    HW155468   6.523   1.567   6.709
18009SOL    HW255469   6.460   1.433   6.678
18010SOL     OW55470   6.917   0.593   7.008
18010SOL    HW155471   6.957   0.565   7.090
18010SOL    HW255472   6.951   0.681   6.993
18011SOL     OW55473   6.404   1.375   6.504
18011SOL    HW155474   6.470   1.399   6.440
18011SOL    HW255475   6.321   1.381   6.457
18012SOL     OW55476   6.541   0.507   6.461
18012SOL    HW155477   6.491   0.497   6.381
18012SOL    HW255478   6.565   0.417   6.485
18013SOL     OW55479   6.172   0.052   6.047
18013SOL    HW155480   6.104  -0.012   6.066
18013SOL    HW255481   6.128   0.119   5.995
18014SOL     OW55482   7.020   1.214   5.629
18014SOL    HW155483   7.025   1.144   5.694
18014SOL    HW255484   6.936   1.257   5.645
18015SOL     OW55485   5.883   0.056   5.779
18015SOL    HW155486   5.925   0.100   5.705
18015SOL    HW255487   5.897  -0.037   5.762
18016SOL     OW55488   6.538   0.261   6.054
18016SOL    HW155489   6.516   0.281   5.963
18016SOL    HW255490   6.634   0.267   6.058
18017SOL     OW55491   6.663   0.694   7.037
18017SOL    HW155492   6.595   0.628   7.050
18017SOL    HW255493   6.744   0.644   7.028
18018SOL     OW55494   6.817   1.597   6.399
18018SOL    HW155495   6.815   1.634   6.311
18018SOL    HW255496   6.870   1.660   6.449
18019SOL     OW55497   6.056   1.148   6.303
18019SOL    HW155498   5.982   1.132   6.362
18019SOL    HW255499   6.018   1.138   6.215
18020SOL     OW55500   6.865   1.800   6.204
18020SOL    HW155501   6.907   1.864   6.146
18020SOL    HW255502   6.784   1.842   6.232
18021SOL     OW55503   6.605   0.596   5.670
18021SOL    HW155504   6.599   0.594   5.574
18021SOL    HW255505   6.691   0.560   5.690
18022SOL     OW55506   5.692   0.548   6.992
18022SOL    HW155507   5.781   0.554   6.957
18022SOL    HW255508   5.683   0.626   7.047
18023SOL     OW55509   6.149   0.177   6.777
18023SOL    HW155510   6.145   0.194   6.683
18023SOL    HW255511   6.060   0.192   6.808
18024SOL     OW55512   6.416   0.438   6.218
18024SOL    HW155513   6.395   0.510   6.157
18024SOL    HW255514   6.466   0.376   6.165
18025SOL     OW55515   6.558   8.016   6.402
18025SOL    HW155516   6.502   8.039   6.327
18025SOL    HW255517   6.599   7.933   6.376
18026SOL     OW55518   7.050   0.575   6.583
18026SOL    HW155519   6.980   0.510   6.583
18026SOL    HW255520   7.105   0.551   6.509
18027SOL     OW55521   7.425   0.815   5.981
18027SOL    HW155522   7.485   0.760   6.031
18027SOL    HW255523   7.392   0.758   5.911
18028SOL     OW55524   6.107   1.320   5.782
18028SOL    HW155525   6.020   1.327   5.821
18028SOL    HW255526   6.098   1.360   5.695
18029SOL     OW55527   7.231   1.250   6.295
18029SOL    HW155528   7.325   1.248   6.277
18029SOL    HW255529   7.208   1.343   6.288
18030SOL     OW55530   6.994   0.594   5.656
18030SOL    HW155531   6.943   0.559   5.728
18030SOL    HW255532   7.083   0.562   5.672
18031SOL     OW55533   6.093   0.284   5.910
18031SOL    HW155534   6.133   0.232   5.841
18031SOL    HW255535   6.067   0.366   5.867
18032SOL     OW55536   7.327   1.244   7.139
18032SOL    HW155537   7.414   1.207   7.125
18032SOL    HW255538   7.343   1.329   7.179
18033SOL     OW55539   7.186   1.627   7.250
18033SOL    HW155540   7.186   1.660   7.160
18033SOL    HW255541   7.265   1.573   7.255
18034SOL     OW55542   6.670   1.210   6.711
18034SOL    HW155543   6.585   1.168   6.699
18034SOL    HW255544   6.687   1.254   6.627
18035SOL     OW55545   7.188   1.093   6.682
18035SOL    HW155546   7.205   1.161   6.747
18035SOL    HW255547   7.093   1.088   6.676
18036SOL     OW55548   6.515   0.076   6.945
18036SOL    HW155549   6.554   0.068   6.858
18036SOL    HW255550   6.586   0.107   7.001
18037SOL     OW55551   6.563   1.121   7.316
18037SOL    HW155552   6.470   1.133   7.336
18037SOL    HW255553   6.566   1.045   7.258
18038SOL     OW55554   6.312   1.021   5.974
18038SOL    HW155555   6.270   1.013   6.060
18038SOL    HW255556   6.345   1.111   5.971
18039SOL     OW55557   6.002   0.820   6.845
18039SOL    HW155558   6.069   0.832   6.912
18039SOL    HW255559   5.976   0.728   6.854
18040SOL     OW55560   6.831   0.371   6.867
18040SOL    HW155561   6.868   0.452   6.903
18040SOL    HW255562   6.744   0.397   6.835
18041SOL     OW55563   5.655   1.553   6.925
18041SOL    HW155564   5.633   1.637   6.884
18041SOL    HW255565   5.751   1.553   6.929
18042SOL     OW55566   5.943   1.106   6.060
18042SOL    HW155567   5.923   1.184   6.008
18042SOL    HW255568   5.937   1.033   5.998
18043SOL     OW55569   6.169   0.549   6.491
18043SOL    HW155570   6.175   0.598   6.409
18043SOL    HW255571   6.231   0.593   6.549
18044SOL     OW55572   6.818   1.361   6.006
18044SOL    HW155573   6.876   1.436   6.014
18044SOL    HW255574   6.732   1.393   6.035
18045SOL     OW55575   6.845   1.451   6.760
18045SOL    HW155576   6.920   1.452   6.820
18045SOL    HW255577   6.842   1.361   6.728
18046SOL     OW55578   7.183   0.620   6.075
18046SOL    HW155579   7.105   0.672   6.051
18046SOL    HW255580   7.244   0.635   6.002
18047SOL     OW55581   5.925   1.538   6.894
18047SOL    HW155582   5.924   1.488   6.813
18047SOL    HW255583   6.015   1.531   6.926
18048SOL     OW55584   6.007   0.742   7.195
18048SOL    HW155585   6.067   0.793   7.140
18048SOL    HW255586   6.045   0.654   7.196
18049SOL     OW55587   7.188   0.775   7.274
18049SOL    HW155588   7.104   0.819   7.269
18049SOL    HW255589   7.242   0.818   7.207
18050SOL     OW55590   6.076   0.007   7.334
18050SOL    HW155591   6.073  -0.037   7.249
18050SOL    HW255592   6.002   0.068   7.333
18051SOL     OW55593   6.113   0.909   6.602
18051SOL    HW155594   6.206   0.935   6.604
18051SOL    HW255595   6.093   0.886   6.693
18052SOL     OW55596   6.925   0.842   6.617
18052SOL    HW155597   6.844   0.826   6.569
18052SOL    HW255598   6.978   0.764   6.601
18053SOL     OW55599   6.819   0.518   5.852
18053SOL    HW155600   6.800   0.426   5.835
18053SOL    HW255601   6.751   0.545   5.914
18054SOL     OW55602   5.881   0.212   6.812
18054SOL    HW155603   5.824   0.227   6.888
18054SOL    HW255604   5.859   0.123   6.783
18055SOL     OW55605   5.618   1.294   6.863
18055SOL    HW155606   5.663   1.244   6.931
18055SOL    HW255607   5.635   1.386   6.887
18056SOL     OW55608   7.336   0.940   7.448
18056SOL    HW155609   7.285   0.886   7.388
18056SOL    HW255610   7.276   0.958   7.521
18057SOL     OW55611   5.964   0.064   6.307
18057SOL    HW155612   5.908   0.140   6.291
18057SOL    HW255613   5.946   0.005   6.233
18058SOL     OW55614   7.189   0.361   5.963
18058SOL    HW155615   7.241   0.303   6.019
18058SOL    HW255616   7.182   0.442   6.012
18059SOL     OW55617   6.630   0.758   6.534
18059SOL    HW155618   6.624   0.779   6.628
18059SOL    HW255619   6.589   0.672   6.527
18060SOL     OW55620   6.577   1.549   7.319
18060SOL    HW155621   6.550   1.597   7.241
18060SOL    HW255622   6.625   1.473   7.285
18061SOL     OW55623   7.426   1.498   7.201
18061SOL    HW155624   7.450   1.537   7.117
18061SOL    HW255625   7.504   1.508   7.255
18062SOL     OW55626   5.918   0.880   7.414
18062SOL    HW155627   5.970   0.959   7.398
18062SOL    HW255628   5.944   0.820   7.344
18063SOL     OW55629   7.103   0.289   5.713
18063SOL    HW155630   7.008   0.290   5.719
18063SOL    HW255631   7.134   0.313   5.800
18064SOL     OW55632   6.913   0.853   5.640
18064SOL    HW155633   6.941   0.762   5.639
18064SOL    HW255634   6.926   0.883   5.550
18065SOL     OW55635   6.722   1.332   6.475
18065SOL    HW155636   6.700   1.267   6.409
18065SOL    HW255637   6.748   1.409   6.424
18066SOL     OW55638   5.869   0.819   6.542
18066SOL    HW155639   5.957   0.857   6.549
18066SOL    HW255640   5.882   0.726   6.563
18067SOL     OW55641   5.920   0.545   6.599
18067SOL    HW155642   5.886   0.460   6.569
18067SOL    HW255643   6.006   0.552   6.558
18068SOL     OW55644   6.727   0.423   7.269
18068SOL    HW155645   6.687   0.479   7.334
18068SOL    HW255646   6.814   0.460   7.255
18069SOL     OW55647   6.757   0.216   7.078
18069SOL    HW155648   6.765   0.291   7.136
18069SOL    HW255649   6.779   0.250   6.991
18070SOL     OW55650   5.601   1.321   5.776
18070SOL    HW155651   5.515   1.342   5.739
18070SOL    HW255652   5.589   1.236   5.819
18071SOL     OW55653   5.656   1.786   6.505
18071SOL    HW155654   5.641   1.709   6.451
18071SOL    HW255655   5.750   1.802   6.498
18072SOL     OW55656   6.080   1.579   6.507
18072SOL    HW155657   6.149   1.644   6.519
18072SOL    HW255658   6.114   1.519   6.441
18073SOL     OW55659   6.598   0.822   6.797
18073SOL    HW155660   6.636   0.796   6.881
18073SOL    HW255661   6.513   0.777   6.793
18074SOL     OW55662   5.624   0.529   6.707
18074SOL    HW155663   5.692   0.547   6.641
18074SOL    HW255664   5.668   0.544   6.791
18075SOL     OW55665   5.805   0.541   7.297
18075SOL    HW155666   5.879   0.501   7.251
18075SOL    HW255667   5.780   0.616   7.243
18076SOL     OW55668   6.961   0.923   7.249
18076SOL    HW155669   6.969   1.018   7.259
18076SOL    HW255670   6.959   0.909   7.155
18077SOL     OW55671   6.388   0.571   5.957
18077SOL    HW155672   6.406   0.495   5.901
18077SOL    HW255673   6.313   0.614   5.916
18078SOL     OW55674   7.239   0.609   6.780
18078SOL    HW155675   7.161   0.595   6.726
18078SOL    HW255676   7.313   0.600   6.720
18079SOL     OW55677   5.866   1.555   7.333
18079SOL    HW155678   5.817   1.625   7.376
18079SOL    HW255679   5.828   1.474   7.369
18080SOL     OW55680   6.172   0.426   6.917
18080SOL    HW155681   6.190   0.347   6.867
18080SOL    HW255682   6.224   0.494   6.875
18081SOL     OW55683   6.547   1.651   7.049
18081SOL    HW155684   6.475   1.622   6.993
18081SOL    HW255685   6.546   1.746   7.042
18082SOL     OW55686   6.021   0.522   5.823
18082SOL    HW155687   6.083   0.593   5.805
18082SOL    HW255688   5.940   0.551   5.781
18083SOL     OW55689   5.734   1.135   7.057
18083SOL    HW155690   5.823   1.150   7.087
18083SOL    HW255691   5.742   1.065   6.992
18084SOL     OW55692   6.895   1.049   6.787
18084SOL    HW155693   6.906   0.974   6.728
18084SOL    HW255694   6.813   1.090   6.759
18085SOL     OW55695   6.874   0.839   5.970
18085SOL    HW155696   6.796   0.788   5.949
18085SOL    HW255697   6.903   0.875   5.886
18086SOL     OW55698   7.391   1.717   6.752
18086SOL    HW155699   7.428   1.760   6.675
18086SOL    HW255700   7.340   1.644   6.718
18087SOL     OW55701   6.832   1.729   6.706
18087SOL    HW155702   6.907   1.746   6.650
18087SOL    HW255703   6.835   1.634   6.722
18088SOL     OW55704   5.667   1.260   6.597
18088SOL    HW155705   5.647   1.267   6.690
18088SOL    HW255706   5.604   1.197   6.563
18089SOL     OW55707   6.250   1.682   7.322
18089SOL    HW155708   6.183   1.751   7.331
18089SOL    HW255709   6.284   1.694   7.234
18090SOL     OW55710   7.315   0.162   6.106
18090SOL    HW155711   7.338   0.126   6.020
18090SOL    HW255712   7.277   0.088   6.153
18091SOL     OW55713   6.979   1.577   6.070
18091SOL    HW155714   7.037   1.605   5.999
18091SOL    HW255715   6.924   1.653   6.088
18092SOL     OW55716   5.730   1.780   7.432
18092SOL    HW155717   5.681   1.721   7.489
18092SOL    HW255718   5.769   1.844   7.491
18093SOL     OW55719   6.881   0.933   6.228
18093SOL    HW155720   6.937   0.864   6.262
18093SOL    HW255721   6.876   0.916   6.134
18094SOL     OW55722   6.428   1.313   6.995
18094SOL    HW155723   6.390   1.328   7.081
18094SOL    HW255724   6.358   1.333   6.934
18095SOL     OW55725   6.299   1.590   5.711
18095SOL    HW155726   6.286   1.622   5.622
18095SOL    HW255727   6.221   1.619   5.759
18096SOL     OW55728   7.228   1.714   6.985
18096SOL    HW155729   7.281   1.716   6.905
18096SOL    HW255730   7.211   1.806   7.006
18097SOL     OW55731   7.431   0.172   6.536
18097SOL    HW155732   7.438   0.079   6.515
18097SOL    HW255733   7.345   0.197   6.504
18098SOL     OW55734   5.859   0.340   6.272
18098SOL    HW155735   5.767   0.355   6.248
18098SOL    HW255736   5.858   0.332   6.367
18099SOL     OW55737   6.802   1.596   5.617
18099SOL    HW155738   6.799   1.501   5.621
18099SOL    HW255739   6.746   1.620   5.544
18100SOL     OW55740   6.412   1.015   6.966
18100SOL    HW155741   6.430   1.012   6.872
18100SOL    HW255742   6.376   1.103   6.981
18101SOL     OW55743   7.075   1.637   5.637
18101SOL    HW155744   6.982   1.621   5.619
18101SOL    HW255745   7.116   1.642   5.551
18102SOL     OW55746   7.213   1.283   6.887
18102SOL    HW155747   7.254   1.260   6.971
18102SOL    HW255748   7.145   1.345   6.910
18103SOL     OW55749   6.653   1.120   6.322
18103SOL    HW155750   6.576   1.069   6.345
18103SOL    HW255751   6.700   1.065   6.258
18104SOL     OW55752   6.619   0.254   6.545
18104SOL    HW155753   6.597   0.197   6.471
18104SOL    HW255754   6.631   0.194   6.619
18105SOL     OW55755   6.215   1.499   6.094
18105SOL    HW155756   6.250   1.437   6.030
18105SOL    HW255757   6.165   1.562   6.042
18106SOL     OW55758   5.858   1.317   5.908
18106SOL    HW155759   5.779   1.336   5.856
18106SOL    HW255760   5.852   1.377   5.982
18107SOL     OW55761   5.699   1.053   7.392
18107SOL    HW155762   5.615   1.012   7.414
18107SOL    HW255763   5.760   0.980   7.387
18108SOL     OW55764   6.271   0.150   7.113
18108SOL    HW155765   6.326   0.137   7.036
18108SOL    HW255766   6.279   0.244   7.133
18109SOL     OW55767   5.655   0.344   5.615
18109SOL    HW155768   5.578   0.330   5.560
18109SOL    HW255769   5.693   0.426   5.583
18110SOL     OW55770   7.000   0.865   6.981
18110SOL    HW155771   6.952   0.923   6.922
18110SOL    HW255772   7.090   0.868   6.949
18111SOL     OW55773   5.697   0.232   5.891
18111SOL    HW155774   5.674   0.277   5.810
18111SOL    HW255775   5.760   0.165   5.865
18112SOL     OW55776   6.792   1.322   5.727
18112SOL    HW155777   6.707   1.318   5.683
18112SOL    HW255778   6.771   1.333   5.819
18113SOL     OW55779   6.209   0.817   7.022
18113SOL    HW155780   6.237   0.908   7.035
18113SOL    HW255781   6.261   0.786   6.948
18114SOL     OW55782   7.042   1.771   6.523
18114SOL    HW155783   7.034   1.839   6.456
18114SOL    HW255784   7.115   1.801   6.579
18115SOL     OW55785   6.293   0.556   7.352
18115SOL    HW155786   6.328   0.642   7.376
18115SOL    HW255787   6.370   0.506   7.326
18116SOL     OW55788   7.041   1.206   7.189
18116SOL    HW155789   7.024   1.213   7.283
18116SOL    HW255790   7.136   1.219   7.181
18117SOL     OW55791   5.967   1.735   7.153
18117SOL    HW155792   5.883   1.770   7.122
18117SOL    HW255793   5.943   1.657   7.203
18118SOL     OW55794   7.246   0.880   6.855
18118SOL    HW155795   7.250   0.792   6.818
18118SOL    HW255796   7.239   0.937   6.779
18119SOL     OW55797   6.804   0.296   6.082
18119SOL    HW155798   6.872   0.236   6.051
18119SOL    HW255799   6.852   0.364   6.130
18120SOL     OW55800   6.177   0.702   6.259
18120SOL    HW155801   6.207   0.793   6.256
18120SOL    HW255802   6.105   0.699   6.196
18121SOL     OW55803   7.350   0.355   7.274
18121SOL    HW155804   7.417   0.332   7.210
18121SOL    HW255805   7.269   0.316   7.239
18122SOL     OW55806   7.331   0.930   7.107
18122SOL    HW155807   7.329   1.024   7.120
18122SOL    HW255808   7.312   0.918   7.014
18123SOL     OW55809   6.461   1.384   5.651
18123SOL    HW155810   6.401   1.454   5.676
18123SOL    HW255811   6.509   1.418   5.576
18124SOL     OW55812   6.257   1.782   6.546
18124SOL    HW155813   6.214   1.864   6.521
18124SOL    HW255814   6.346   1.790   6.513
18125SOL     OW55815   6.454   0.971   6.453
18125SOL    HW155816   6.504   0.896   6.483
18125SOL    HW255817   6.435   1.021   6.533
18126SOL     OW55818   6.664   0.959   5.692
18126SOL    HW155819   6.638   1.021   5.624
18126SOL    HW255820   6.755   0.938   5.672
18127SOL     OW55821   7.441   1.555   6.434
18127SOL    HW155822   7.386   1.564   6.357
18127SOL    HW255823   7.437   1.462   6.456
18128SOL     OW55824   5.764   1.313   7.431
18128SOL    HW155825   5.741   1.227   7.396
18128SOL    HW255826   5.702   1.327   7.503
18129SOL     OW55827   5.660   1.236   6.262
18129SOL    HW155828   5.710   1.185   6.325
18129SOL    HW255829   5.713   1.234   6.182
18130SOL     OW55830   6.286   1.386   7.224
18130SOL    HW155831   6.218   1.325   7.195
18130SOL    HW255832   6.238   1.467   7.242
18131SOL     OW55833   7.429   0.217   6.811
18131SOL    HW155834   7.462   0.139   6.856
18131SOL    HW255835   7.431   0.195   6.718
18132SOL     OW55836   7.284   1.475   6.701
18132SOL    HW155837   7.211   1.457   6.642
18132SOL    HW255838   7.275   1.410   6.771
18133SOL     OW55839   5.931   0.554   6.870
18133SOL    HW155840   6.012   0.509   6.896
18133SOL    HW255841   5.929   0.547   6.775
18134SOL     OW55842   6.409   1.608   6.261
18134SOL    HW155843   6.416   1.691   6.212
18134SOL    HW255844   6.335   1.563   6.220
18135SOL     OW55845   7.102   0.293   6.799
18135SOL    HW155846   7.107   0.208   6.756
18135SOL    HW255847   7.008   0.308   6.811
18136SOL     OW55848   6.649   0.033   6.705
18136SOL    HW155849   6.574   0.003   6.654
18136SOL    HW255850   6.724  -0.010   6.665
18137SOL     OW55851   6.339   1.306   5.919
18137SOL    HW155852   6.257   1.308   5.869
18137SOL    HW255853   6.405   1.336   5.856
18138SOL     OW55854   6.217   1.542   6.892
18138SOL    HW155855   6.218   1.620   6.948
18138SOL    HW255856   6.233   1.576   6.804
18139SOL     OW55857   6.937   0.004   5.780
18139SOL    HW155858   7.021   0.020   5.737
18139SOL    HW255859   6.878   0.070   5.743
18140SOL     OW55860   6.896   0.484   6.274
18140SOL    HW155861   6.832   0.555   6.264
18140SOL    HW255862   6.874   0.444   6.359
18141SOL     OW55863   7.190   0.241   6.453
18141SOL    HW155864   7.111   0.187   6.460
18141SOL    HW255865   7.161   0.321   6.410
18142SOL     OW55866   5.611   1.073   5.907
18142SOL    HW155867   5.689   1.069   5.852
18142SOL    HW255868   5.593   0.982   5.930
18143SOL     OW55869   6.472   1.663   5.916
18143SOL    HW155870   6.415   1.636   5.844
18143SOL    HW255871   6.420   1.727   5.965
18144SOL     OW55872   5.812   0.300   8.429
18144SOL    HW155873   5.848   0.260   8.509
18144SOL    HW255874   5.730   0.253   8.413
18145SOL     OW55875   5.593   0.390   8.075
18145SOL    HW155876   5.506   0.401   8.112
18145SOL    HW255877   5.579   0.336   7.997
18146SOL     OW55878   7.148   1.454   8.127
18146SOL    HW155879   7.108   1.472   8.212
18146SOL    HW255880   7.087   1.493   8.064
18147SOL     OW55881   6.693   0.719   8.124
18147SOL    HW155882   6.751   0.794   8.108
18147SOL    HW255883   6.665   0.729   8.215
18148SOL     OW55884   7.347   0.608   7.684
18148SOL    HW155885   7.321   0.605   7.592
18148SOL    HW255886   7.330   0.520   7.717
18149SOL     OW55887   6.336   1.111   8.486
18149SOL    HW155888   6.293   1.137   8.568
18149SOL    HW255889   6.357   1.193   8.443
18150SOL     OW55890   6.463   0.766   9.279
18150SOL    HW155891   6.461   0.838   9.342
18150SOL    HW255892   6.484   0.807   9.196
18151SOL     OW55893   6.276   0.997   8.079
18151SOL    HW155894   6.340   0.986   8.150
18151SOL    HW255895   6.205   1.048   8.117
18152SOL     OW55896   6.299   1.155   9.276
18152SOL    HW155897   6.346   1.231   9.310
18152SOL    HW255898   6.219   1.192   9.237
18153SOL     OW55899   5.939   1.414   8.507
18153SOL    HW155900   5.866   1.353   8.498
18153SOL    HW255901   5.933   1.469   8.430
18154SOL     OW55902   7.052   1.501   8.821
18154SOL    HW155903   7.100   1.582   8.802
18154SOL    HW255904   7.070   1.484   8.914
18155SOL     OW55905   6.017   0.387   9.028
18155SOL    HW155906   6.107   0.358   9.010
18155SOL    HW255907   5.969   0.365   8.948
18156SOL     OW55908   7.197   0.467   8.135
18156SOL    HW155909   7.163   0.519   8.061
18156SOL    HW255910   7.208   0.530   8.206
18157SOL     OW55911   5.811   1.713   7.912
18157SOL    HW155912   5.833   1.790   7.964
18157SOL    HW255913   5.883   1.704   7.849
18158SOL     OW55914   6.721   1.331   9.159
18158SOL    HW155915   6.763   1.317   9.244
18158SOL    HW255916   6.667   1.253   9.146
18159SOL     OW55917   5.826   1.452   8.001
18159SOL    HW155918   5.808   1.544   7.982
18159SOL    HW255919   5.751   1.423   8.053
18160SOL     OW55920   5.882   1.091   8.367
18160SOL    HW155921   5.867   0.998   8.385
18160SOL    HW255922   5.811   1.136   8.412
18161SOL     OW55923   6.188   1.789   8.871
18161SOL    HW155924   6.107   1.777   8.921
18161SOL    HW255925   6.216   1.878   8.893
18162SOL     OW55926   6.188   0.994   7.617
18162SOL    HW155927   6.213   1.040   7.537
18162SOL    HW255928   6.237   1.037   7.687
18163SOL     OW55929   7.210   0.141   8.931
18163SOL    HW155930   7.227   0.094   8.849
18163SOL    HW255931   7.186   0.229   8.903
18164SOL     OW55932   5.716   0.646   8.009
18164SOL    HW155933   5.678   0.561   8.029
18164SOL    HW255934   5.701   0.698   8.089
18165SOL     OW55935   7.426   1.752   7.790
18165SOL    HW155936   7.469   1.732   7.873
18165SOL    HW255937   7.453   1.842   7.770
18166SOL     OW55938   5.629   1.597   7.599
18166SOL    HW155939   5.603   1.505   7.603
18166SOL    HW255940   5.580   1.637   7.671
18167SOL     OW55941   7.283   0.903   8.100
18167SOL    HW155942   7.368   0.859   8.106
18167SOL    HW255943   7.273   0.925   8.008
18168SOL     OW55944   7.248   1.111   7.888
18168SOL    HW155945   7.295   1.108   7.804
18168SOL    HW255946   7.316   1.122   7.954
18169SOL     OW55947   5.713   0.823   9.014
18169SOL    HW155948   5.804   0.812   9.043
18169SOL    HW255949   5.693   0.742   8.967
18170SOL     OW55950   6.182   1.390   8.161
18170SOL    HW155951   6.139   1.305   8.162
18170SOL    HW255952   6.173   1.420   8.070
18171SOL     OW55953   6.861   1.244   8.862
18171SOL    HW155954   6.895   1.174   8.806
18171SOL    HW255955   6.911   1.235   8.944
18172SOL     OW55956   6.427   0.019   8.005
18172SOL    HW155957   6.464   0.100   7.973
18172SOL    HW255958   6.334   0.024   7.981
18173SOL     OW55959   5.774   0.965   8.711
18173SOL    HW155960   5.861   0.925   8.703
18173SOL    HW255961   5.715   0.901   8.671
18174SOL     OW55962   7.130   0.976   7.636
18174SOL    HW155963   7.071   1.031   7.585
18174SOL    HW255964   7.133   1.018   7.722
18175SOL     OW55965   6.774   1.796   9.087
18175SOL    HW155966   6.795   1.881   9.050
18175SOL    HW255967   6.770   1.737   9.011
18176SOL     OW55968   5.909   0.233   9.275
18176SOL    HW155969   5.968   0.303   9.246
18176SOL    HW255970   5.840   0.279   9.323
18177SOL     OW55971   7.063   1.413   8.392
18177SOL    HW155972   6.998   1.433   8.459
18177SOL    HW255973   7.038   1.326   8.361
18178SOL     OW55974   7.215   1.767   8.023
18178SOL    HW155975   7.205   1.728   7.937
18178SOL    HW255976   7.266   1.702   8.073
18179SOL     OW55977   6.182   0.735   7.722
18179SOL    HW155978   6.179   0.818   7.675
18179SOL    HW255979   6.113   0.741   7.787
18180SOL     OW55980   6.884   0.357   8.383
18180SOL    HW155981   6.792   0.335   8.397
18180SOL    HW255982   6.931   0.275   8.395
18181SOL     OW55983   7.161   1.669   7.760
18181SOL    HW155984   7.253   1.692   7.751
18181SOL    HW255985   7.131   1.653   7.671
18182SOL     OW55986   6.416   0.563   8.927
18182SOL    HW155987   6.364   0.566   9.007
18182SOL    HW255988   6.355   0.535   8.859
18183SOL     OW55989   6.958   0.484   9.128
18183SOL    HW155990   6.981   0.534   9.206
18183SOL    HW255991   7.010   0.404   9.134
18184SOL     OW55992   6.529   0.883   9.035
18184SOL    HW155993   6.588   0.820   8.995
18184SOL    HW255994   6.483   0.923   8.961
18185SOL     OW55995   6.556   0.391   8.715
18185SOL    HW155996   6.468   0.426   8.701
18185SOL    HW255997   6.565   0.322   8.650
18186SOL     OW55998   5.676   0.813   8.223
18186SOL    HW155999   5.753   0.811   8.280
18186SOL    HW256000   5.626   0.889   8.253
18187SOL     OW56001   5.695   1.797   9.000
18187SOL    HW156002   5.703   1.793   9.095
18187SOL    HW256003   5.633   1.869   8.984
18188SOL     OW56004   6.475   0.366   7.666
18188SOL    HW156005   6.524   0.412   7.598
18188SOL    HW256006   6.434   0.292   7.621
18189SOL     OW56007   7.279   0.583   9.278
18189SOL    HW156008   7.261   0.645   9.207
18189SOL    HW256009   7.310   0.504   9.233
18190SOL     OW56010   6.990   1.146   8.010
18190SOL    HW156011   7.069   1.144   7.957
18190SOL    HW256012   6.934   1.212   7.969
18191SOL     OW56013   6.155   0.235   8.379
18191SOL    HW156014   6.129   0.274   8.462
18191SOL    HW256015   6.151   0.307   8.316
18192SOL     OW56016   6.523   1.420   7.884
18192SOL    HW156017   6.518   1.512   7.857
18192SOL    HW256018   6.599   1.417   7.942
18193SOL     OW56019   5.930   1.821   8.330
18193SOL    HW156020   5.986   1.743   8.337
18193SOL    HW256021   5.989   1.894   8.344
18194SOL     OW56022   7.297   1.129   8.272
18194SOL    HW156023   7.294   1.048   8.221
18194SOL    HW256024   7.270   1.103   8.360
18195SOL     OW56025   6.811   1.533   8.976
18195SOL    HW156026   6.801   1.438   8.988
18195SOL    HW256027   6.856   1.542   8.893
18196SOL     OW56028   5.919   0.964   7.690
18196SOL    HW156029   6.010   0.987   7.668
18196SOL    HW256030   5.884   0.925   7.610
18197SOL     OW56031   7.056   0.764   8.186
18197SOL    HW156032   7.062   0.712   8.266
18197SOL    HW256033   7.141   0.806   8.177
18198SOL     OW56034   6.056   1.276   9.192
18198SOL    HW156035   6.034   1.278   9.099
18198SOL    HW256036   5.972   1.272   9.237
18199SOL     OW56037   6.714   1.779   7.685
18199SOL    HW156038   6.633   1.742   7.719
18199SOL    HW256039   6.740   1.719   7.615
18200SOL     OW56040   5.769   0.244   8.938
18200SOL    HW156041   5.737   0.330   8.911
18200SOL    HW256042   5.786   0.252   9.032
18201SOL     OW56043   7.202   1.374   7.549
18201SOL    HW156044   7.163   1.460   7.530
18201SOL    HW256045   7.132   1.312   7.531
18202SOL     OW56046   6.076   1.721   7.793
18202SOL    HW156047   6.103   1.798   7.843
18202SOL    HW256048   6.125   1.728   7.711
18203SOL     OW56049   7.001   0.134   7.859
18203SOL    HW156050   7.008   0.105   7.767
18203SOL    HW256051   7.091   0.134   7.890
18204SOL     OW56052   5.857   1.794   8.682
18204SOL    HW156053   5.889   1.715   8.725
18204SOL    HW256054   5.787   1.764   8.625
18205SOL     OW56055   6.534   1.674   8.357
18205SOL    HW156056   6.624   1.645   8.339
18205SOL    HW256057   6.483   1.641   8.283
18206SOL     OW56058   5.984   0.682   7.919
18206SOL    HW156059   6.004   0.591   7.940
18206SOL    HW256060   5.891   0.692   7.942
18207SOL     OW56061   7.082   0.246   9.186
18207SOL    HW156062   7.109   0.245   9.277
18207SOL    HW256063   7.067   0.154   9.164
18208SOL     OW56064   6.184   0.137   7.544
18208SOL    HW156065   6.256   0.087   7.581
18208SOL    HW256066   6.151   0.083   7.472
18209SOL     OW56067   6.408   0.297   9.222
18209SOL    HW156068   6.470   0.224   9.221
18209SOL    HW256069   6.331   0.263   9.268
18210SOL     OW56070   6.454   1.498   8.635
18210SOL    HW156071   6.493   1.539   8.557
18210SOL    HW256072   6.526   1.451   8.676
18211SOL     OW56073   6.917   0.595   8.879
18211SOL    HW156074   6.949   0.561   8.963
18211SOL    HW256075   6.959   0.680   8.870
18212SOL     OW56076   6.355   1.368   8.374
18212SOL    HW156077   6.449   1.372   8.356
18212SOL    HW256078   6.314   1.376   8.288
18213SOL     OW56079   6.518   0.517   8.339
18213SOL    HW156080   6.499   0.503   8.247
18213SOL    HW256081   6.549   0.431   8.370
18214SOL     OW56082   6.178   0.032   7.880
18214SOL    HW156083   6.106  -0.011   7.926
18214SOL    HW256084   6.144   0.120   7.861
18215SOL     OW56085   5.893   0.005   7.635
18215SOL    HW156086   5.903   0.067   7.563
18215SOL    HW256087   5.948   0.041   7.705
18216SOL     OW56088   6.541   0.259   7.914
18216SOL    HW156089   6.511   0.286   7.827
18216SOL    HW256090   6.636   0.265   7.911
18217SOL     OW56091   6.662   0.696   8.892
18217SOL    HW156092   6.599   0.627   8.913
18217SOL    HW256093   6.747   0.651   8.891
18218SOL     OW56094   6.784   1.593   8.259
18218SOL    HW156095   6.801   1.646   8.180
18218SOL    HW256096   6.862   1.606   8.313
18219SOL     OW56097   6.061   1.146   8.169
18219SOL    HW156098   5.997   1.126   8.238
18219SOL    HW256099   6.012   1.134   8.087
18220SOL     OW56100   6.842   1.793   8.065
18220SOL    HW156101   6.895   1.850   8.009
18220SOL    HW256102   6.779   1.852   8.107
18221SOL     OW56103   6.606   0.550   7.482
18221SOL    HW156104   6.558   0.629   7.456
18221SOL    HW256105   6.662   0.578   7.554
18222SOL     OW56106   6.151   0.236   8.665
18222SOL    HW156107   6.183   0.145   8.665
18222SOL    HW256108   6.056   0.227   8.675
18223SOL     OW56109   6.457   0.472   8.069
18223SOL    HW156110   6.361   0.472   8.073
18223SOL    HW256111   6.479   0.385   8.036
18224SOL     OW56112   6.537   0.040   8.255
18224SOL    HW156113   6.496   0.032   8.169
18224SOL    HW256114   6.605  -0.027   8.255
18225SOL     OW56115   6.990   1.165   8.298
18225SOL    HW156116   6.940   1.084   8.313
18225SOL    HW256117   6.998   1.170   8.203
18226SOL     OW56118   7.040   0.605   8.418
18226SOL    HW156119   6.993   0.522   8.413
18226SOL    HW256120   7.098   0.596   8.493
18227SOL     OW56121   7.423   0.816   7.843
18227SOL    HW156122   7.487   0.768   7.895
18227SOL    HW256123   7.398   0.755   7.774
18228SOL     OW56124   6.105   1.376   7.641
18228SOL    HW156125   6.019   1.365   7.682
18228SOL    HW256126   6.096   1.335   7.555
18229SOL     OW56127   7.004   0.572   7.522
18229SOL    HW156128   6.995   0.508   7.592
18229SOL    HW256129   7.098   0.579   7.507
18230SOL     OW56130   6.088   0.269   7.756
18230SOL    HW156131   6.126   0.221   7.682
18230SOL    HW256132   6.066   0.355   7.719
18231SOL     OW56133   6.630   1.342   8.769
18231SOL    HW156134   6.564   1.309   8.830
18231SOL    HW256135   6.713   1.312   8.807
18232SOL     OW56136   7.175   1.613   9.083
18232SOL    HW156137   7.173   1.667   9.005
18232SOL    HW256138   7.267   1.587   9.092
18233SOL     OW56139   6.727   1.212   8.548
18233SOL    HW156140   6.672   1.255   8.613
18233SOL    HW256141   6.698   1.247   8.464
18234SOL     OW56142   7.200   1.091   8.528
18234SOL    HW156143   7.201   1.149   8.604
18234SOL    HW256144   7.115   1.107   8.487
18235SOL     OW56145   6.485   0.116   8.822
18235SOL    HW156146   6.464   0.041   8.767
18235SOL    HW256147   6.579   0.109   8.836
18236SOL     OW56148   6.556   1.114   9.171
18236SOL    HW156149   6.465   1.127   9.197
18236SOL    HW256150   6.554   1.034   9.118
18237SOL     OW56151   6.353   1.097   7.820
18237SOL    HW156152   6.314   1.078   7.906
18237SOL    HW256153   6.411   1.022   7.803
18238SOL     OW56154   6.023   0.839   8.703
18238SOL    HW156155   6.086   0.847   8.775
18238SOL    HW256156   5.999   0.747   8.703
18239SOL     OW56157   6.836   0.378   8.735
18239SOL    HW156158   6.870   0.458   8.776
18239SOL    HW256159   6.743   0.396   8.719
18240SOL     OW56160   5.647   1.578   8.807
18240SOL    HW156161   5.602   1.633   8.742
18240SOL    HW256162   5.701   1.639   8.857
18241SOL     OW56163   5.930   1.116   7.931
18241SOL    HW156164   5.917   1.193   7.875
18241SOL    HW256165   5.926   1.042   7.871
18242SOL     OW56166   6.138   0.534   8.310
18242SOL    HW156167   6.150   0.594   8.236
18242SOL    HW256168   6.207   0.558   8.372
18243SOL     OW56169   6.826   1.344   7.899
18243SOL    HW156170   6.879   1.423   7.911
18243SOL    HW256171   6.793   1.351   7.810
18244SOL     OW56172   6.889   1.456   8.601
18244SOL    HW156173   6.946   1.462   8.678
18244SOL    HW256174   6.846   1.370   8.609
18245SOL     OW56175   7.153   0.632   7.920
18245SOL    HW156176   7.102   0.707   7.951
18245SOL    HW256177   7.211   0.668   7.853
18246SOL     OW56178   5.943   1.518   8.764
18246SOL    HW156179   5.927   1.482   8.676
18246SOL    HW256180   6.036   1.540   8.764
18247SOL     OW56181   5.999   0.752   9.057
18247SOL    HW156182   6.070   0.786   9.003
18247SOL    HW256183   6.007   0.657   9.050
18248SOL     OW56184   7.170   0.753   9.088
18248SOL    HW156185   7.105   0.771   9.020
18248SOL    HW256186   7.247   0.802   9.060
18249SOL     OW56187   6.615   0.113   9.202
18249SOL    HW156188   6.688   0.160   9.242
18249SOL    HW256189   6.638   0.108   9.109
18250SOL     OW56190   6.066   0.017   9.211
18250SOL    HW156191   6.047  -0.029   9.129
18250SOL    HW256192   5.997   0.083   9.218
18251SOL     OW56193   6.167   0.859   8.467
18251SOL    HW156194   6.200   0.948   8.457
18251SOL    HW256195   6.115   0.861   8.548
18252SOL     OW56196   6.921   0.856   8.468
18252SOL    HW156197   6.838   0.838   8.425
18252SOL    HW256198   6.972   0.775   8.458
18253SOL     OW56199   6.739   0.553   7.770
18253SOL    HW156200   6.785   0.474   7.797
18253SOL    HW256201   6.807   0.620   7.766
18254SOL     OW56202   5.885   0.200   8.676
18254SOL    HW156203   5.821   0.203   8.747
18254SOL    HW256204   5.872   0.114   8.636
18255SOL     OW56205   5.599   1.317   8.749
18255SOL    HW156206   5.670   1.265   8.785
18255SOL    HW256207   5.625   1.408   8.766
18256SOL     OW56208   6.320   0.631   8.502
18256SOL    HW156209   6.389   0.615   8.438
18256SOL    HW256210   6.282   0.715   8.475
18257SOL     OW56211   7.290   0.937   9.307
18257SOL    HW156212   7.293   1.007   9.241
18257SOL    HW256213   7.326   0.976   9.386
18258SOL     OW56214   5.999   0.100   8.122
18258SOL    HW156215   5.943   0.176   8.139
18258SOL    HW256216   5.942   0.036   8.081
18259SOL     OW56217   7.209   0.390   7.802
18259SOL    HW156218   7.226   0.317   7.862
18259SOL    HW256219   7.182   0.462   7.860
18260SOL     OW56220   6.627   0.760   8.397
18260SOL    HW156221   6.615   0.779   8.490
18260SOL    HW256222   6.598   0.669   8.388
18261SOL     OW56223   6.574   1.560   9.180
18261SOL    HW156224   6.542   1.608   9.104
18261SOL    HW256225   6.596   1.473   9.147
18262SOL     OW56226   7.444   1.583   9.054
18262SOL    HW156227   7.465   1.564   8.962
18262SOL    HW256228   7.526   1.566   9.101
18263SOL     OW56229   5.930   0.941   9.242
18263SOL    HW156230   6.007   0.955   9.297
18263SOL    HW256231   5.956   0.871   9.182
18264SOL     OW56232   7.113   0.267   7.584
18264SOL    HW156233   7.147   0.179   7.601
18264SOL    HW256234   7.147   0.320   7.657
18265SOL     OW56235   6.872   0.818   7.491
18265SOL    HW156236   6.922   0.736   7.492
18265SOL    HW256237   6.903   0.865   7.414
18266SOL     OW56238   6.630   1.349   8.320
18266SOL    HW156239   6.642   1.276   8.259
18266SOL    HW256240   6.689   1.417   8.287
18267SOL     OW56241   5.891   0.812   8.394
18267SOL    HW156242   5.986   0.824   8.386
18267SOL    HW256243   5.881   0.721   8.422
18268SOL     OW56244   5.910   0.543   8.453
18268SOL    HW156245   5.871   0.457   8.439
18268SOL    HW256246   5.988   0.543   8.398
18269SOL     OW56247   6.677   0.443   9.100
18269SOL    HW156248   6.640   0.461   9.187
18269SOL    HW256249   6.770   0.465   9.109
18270SOL     OW56250   6.715   0.213   8.947
18270SOL    HW156251   6.753   0.280   9.003
18270SOL    HW256252   6.778   0.202   8.876
18271SOL     OW56253   5.598   1.318   7.651
18271SOL    HW156254   5.510   1.335   7.617
18271SOL    HW256255   5.593   1.229   7.686
18272SOL     OW56256   5.650   1.762   8.289
18272SOL    HW156257   5.652   1.800   8.201
18272SOL    HW256258   5.739   1.774   8.322
18273SOL     OW56259   6.098   1.584   8.336
18273SOL    HW156260   6.159   1.657   8.338
18273SOL    HW256261   6.119   1.536   8.256
18274SOL     OW56262   6.553   0.792   8.659
18274SOL    HW156263   6.607   0.770   8.735
18274SOL    HW256264   6.478   0.733   8.665
18275SOL     OW56265   5.628   0.574   8.577
18275SOL    HW156266   5.701   0.543   8.523
18275SOL    HW256267   5.658   0.560   8.667
18276SOL     OW56268   5.803   0.511   9.175
18276SOL    HW156269   5.884   0.479   9.137
18276SOL    HW256270   5.749   0.536   9.100
18277SOL     OW56271   6.948   0.939   9.140
18277SOL    HW156272   6.958   1.034   9.135
18277SOL    HW256273   6.948   0.910   9.048
18278SOL     OW56274   6.420   0.614   7.780
18278SOL    HW156275   6.422   0.527   7.739
18278SOL    HW256276   6.332   0.648   7.761
18279SOL     OW56277   7.216   0.581   8.629
18279SOL    HW156278   7.192   0.545   8.715
18279SOL    HW256279   7.268   0.512   8.588
18280SOL     OW56280   5.826   1.536   9.163
18280SOL    HW156281   5.801   1.615   9.211
18280SOL    HW256282   5.834   1.468   9.230
18281SOL     OW56283   6.291   0.463   8.714
18281SOL    HW156284   6.233   0.389   8.699
18281SOL    HW256285   6.278   0.520   8.638
18282SOL     OW56286   6.492   1.687   8.951
18282SOL    HW156287   6.501   1.637   8.870
18282SOL    HW256288   6.496   1.778   8.924
18283SOL     OW56289   6.027   0.512   7.650
18283SOL    HW156290   6.096   0.576   7.636
18283SOL    HW256291   5.965   0.556   7.708
18284SOL     OW56292   5.752   1.132   8.918
18284SOL    HW156293   5.773   1.073   8.991
18284SOL    HW256294   5.756   1.076   8.841
18285SOL     OW56295   6.891   1.031   8.676
18285SOL    HW156296   6.917   0.967   8.610
18285SOL    HW256297   6.832   1.091   8.630
18286SOL     OW56298   6.851   0.806   7.768
18286SOL    HW156299   6.827   0.895   7.797
18286SOL    HW256300   6.873   0.816   7.676
18287SOL     OW56301   7.377   1.746   8.619
18287SOL    HW156302   7.435   1.763   8.544
18287SOL    HW256303   7.336   1.662   8.599
18288SOL     OW56304   6.830   1.725   8.561
18288SOL    HW156305   6.907   1.757   8.514
18288SOL    HW256306   6.847   1.631   8.575
18289SOL     OW56307   5.687   1.255   8.482
18289SOL    HW156308   5.639   1.264   8.565
18289SOL    HW256309   5.624   1.215   8.422
18290SOL     OW56310   6.279   1.675   9.179
18290SOL    HW156311   6.218   1.749   9.182
18290SOL    HW256312   6.337   1.695   9.105
18291SOL     OW56313   7.267   0.152   7.933
18291SOL    HW156314   7.346   0.150   7.879
18291SOL    HW256315   7.296   0.122   8.019
18292SOL     OW56316   6.976   1.571   7.942
18292SOL    HW156317   7.035   1.601   7.873
18292SOL    HW256318   6.932   1.650   7.973
18293SOL     OW56319   5.736   1.772   9.268
18293SOL    HW156320   5.693   1.723   9.338
18293SOL    HW256321   5.764   1.854   9.310
18294SOL     OW56322   6.859   0.934   8.113
18294SOL    HW156323   6.929   0.873   8.138
18294SOL    HW256324   6.903   1.005   8.067
18295SOL     OW56325   6.389   1.278   8.879
18295SOL    HW156326   6.359   1.303   8.967
18295SOL    HW256327   6.354   1.345   8.822
18296SOL     OW56328   6.259   1.607   7.585
18296SOL    HW156329   6.254   1.637   7.494
18296SOL    HW256330   6.188   1.542   7.593
18297SOL     OW56331   7.190   1.739   8.833
18297SOL    HW156332   7.257   1.740   8.764
18297SOL    HW256333   7.180   1.831   8.858
18298SOL     OW56334   7.431   0.160   8.396
18298SOL    HW156335   7.417   0.065   8.399
18298SOL    HW256336   7.350   0.195   8.362
18299SOL     OW56337   5.849   0.331   8.160
18299SOL    HW156338   5.760   0.350   8.130
18299SOL    HW256339   5.841   0.322   8.255
18300SOL     OW56340   6.793   1.602   7.492
18300SOL    HW156341   6.774   1.517   7.530
18300SOL    HW256342   6.728   1.612   7.422
18301SOL     OW56343   6.409   1.006   8.822
18301SOL    HW156344   6.463   0.994   8.744
18301SOL    HW256345   6.409   1.101   8.837
18302SOL     OW56346   6.511   0.889   7.755
18302SOL    HW156347   6.565   0.918   7.681
18302SOL    HW256348   6.483   0.801   7.731
18303SOL     OW56349   7.070   1.630   7.499
18303SOL    HW156350   6.977   1.617   7.485
18303SOL    HW256351   7.108   1.635   7.411
18304SOL     OW56352   5.969   1.302   8.939
18304SOL    HW156353   5.951   1.382   8.890
18304SOL    HW256354   5.894   1.245   8.921
18305SOL     OW56355   7.180   1.263   8.738
18305SOL    HW156356   7.258   1.259   8.794
18305SOL    HW256357   7.135   1.343   8.766
18306SOL     OW56358   6.649   1.118   8.177
18306SOL    HW156359   6.577   1.060   8.200
18306SOL    HW256360   6.716   1.060   8.140
18307SOL     OW56361   6.614   0.262   8.406
18307SOL    HW156362   6.586   0.208   8.332
18307SOL    HW256363   6.636   0.199   8.474
18308SOL     OW56364   6.168   1.485   7.906
18308SOL    HW156365   6.147   1.430   7.832
18308SOL    HW256366   6.134   1.572   7.882
18309SOL     OW56367   7.326   0.414   8.854
18309SOL    HW156368   7.397   0.476   8.841
18309SOL    HW256369   7.335   0.351   8.782
18310SOL     OW56370   5.865   1.329   7.765
18310SOL    HW156371   5.783   1.336   7.717
18310SOL    HW256372   5.851   1.381   7.844
18311SOL     OW56373   5.684   1.077   9.205
18311SOL    HW156374   5.611   1.034   9.250
18311SOL    HW256375   5.758   1.018   9.218
18312SOL     OW56376   6.276   0.233   8.964
18312SOL    HW156377   6.296   0.187   8.883
18312SOL    HW256378   6.285   0.166   9.032
18313SOL     OW56379   5.631   0.346   7.461
18313SOL    HW156380   5.563   0.314   7.520
18313SOL    HW256381   5.590   0.347   7.375
18314SOL     OW56382   7.012   0.859   8.869
18314SOL    HW156383   6.954   0.915   8.817
18314SOL    HW256384   7.097   0.864   8.824
18315SOL     OW56385   5.699   0.226   7.760
18315SOL    HW156386   5.610   0.202   7.733
18315SOL    HW256387   5.746   0.143   7.762
18316SOL     OW56388   6.726   1.347   7.617
18316SOL    HW156389   6.668   1.329   7.543
18316SOL    HW256390   6.808   1.303   7.595
18317SOL     OW56391   6.216   0.826   8.897
18317SOL    HW156392   6.275   0.898   8.875
18317SOL    HW256393   6.274   0.751   8.907
18318SOL     OW56394   7.058   1.781   8.420
18318SOL    HW156395   7.077   1.856   8.363
18318SOL    HW256396   7.145   1.746   8.442
18319SOL     OW56397   6.306   0.559   9.168
18319SOL    HW156398   6.348   0.626   9.223
18319SOL    HW256399   6.335   0.476   9.205
18320SOL     OW56400   7.001   1.213   9.091
18320SOL    HW156401   6.982   1.214   9.185
18320SOL    HW256402   7.096   1.212   9.086
18321SOL     OW56403   5.962   1.733   9.013
18321SOL    HW156404   5.879   1.775   8.991
18321SOL    HW256405   5.937   1.649   9.051
18322SOL     OW56406   7.233   0.872   8.709
18322SOL    HW156407   7.249   0.789   8.663
18322SOL    HW256408   7.237   0.938   8.639
18323SOL     OW56409   6.810   0.321   7.903
18323SOL    HW156410   6.875   0.251   7.891
18323SOL    HW256411   6.833   0.361   7.987
18324SOL     OW56412   6.179   0.729   8.115
18324SOL    HW156413   6.217   0.815   8.099
18324SOL    HW256414   6.112   0.719   8.048
18325SOL     OW56415   7.327   0.361   9.124
18325SOL    HW156416   7.329   0.382   9.030
18325SOL    HW256417   7.247   0.310   9.135
18326SOL     OW56418   7.346   0.917   8.968
18326SOL    HW156419   7.347   1.008   8.998
18326SOL    HW256420   7.331   0.924   8.874
18327SOL     OW56421   6.441   1.415   7.516
18327SOL    HW156422   6.376   1.482   7.535
18327SOL    HW256423   6.489   1.448   7.441
18328SOL     OW56424   6.257   1.789   8.379
18328SOL    HW156425   6.223   1.877   8.365
18328SOL    HW256426   6.352   1.800   8.378
18329SOL     OW56427   6.456   0.957   8.290
18329SOL    HW156428   6.512   0.888   8.326
18329SOL    HW256429   6.420   1.001   8.367
18330SOL     OW56430   6.647   0.978   7.541
18330SOL    HW156431   6.636   1.038   7.467
18330SOL    HW256432   6.732   0.936   7.525
18331SOL     OW56433   7.432   1.513   8.266
18331SOL    HW156434   7.481   1.574   8.210
18331SOL    HW256435   7.490   1.499   8.341
18332SOL     OW56436   5.810   1.296   9.310
18332SOL    HW156437   5.769   1.217   9.274
18332SOL    HW256438   5.757   1.317   9.387
18333SOL     OW56439   5.661   1.248   8.121
18333SOL    HW156440   5.645   1.180   8.186
18333SOL    HW256441   5.723   1.209   8.059
18334SOL     OW56442   6.276   1.411   9.088
18334SOL    HW156443   6.195   1.374   9.122
18334SOL    HW256444   6.276   1.502   9.120
18335SOL     OW56445   7.428   0.257   8.652
18335SOL    HW156446   7.406   0.175   8.698
18335SOL    HW256447   7.428   0.232   8.559
18336SOL     OW56448   6.026   0.424   7.978
18336SOL    HW156449   6.029   0.360   7.907
18336SOL    HW256450   5.960   0.391   8.038
18337SOL     OW56451   7.266   1.507   8.567
18337SOL    HW156452   7.207   1.474   8.499
18337SOL    HW256453   7.300   1.428   8.609
18338SOL     OW56454   5.968   0.577   8.723
18338SOL    HW156455   5.889   0.559   8.774
18338SOL    HW256456   5.946   0.549   8.634
18339SOL     OW56457   6.401   1.614   8.125
18339SOL    HW156458   6.404   1.690   8.067
18339SOL    HW256459   6.356   1.546   8.075
18340SOL     OW56460   7.074   0.263   8.659
18340SOL    HW156461   7.064   0.201   8.588
18340SOL    HW256462   6.986   0.297   8.675
18341SOL     OW56463   6.671   0.066   8.583
18341SOL    HW156464   6.620  -0.011   8.609
18341SOL    HW256465   6.760   0.033   8.570
18342SOL     OW56466   6.210   1.569   8.718
18342SOL    HW156467   6.201   1.649   8.770
18342SOL    HW256468   6.304   1.559   8.706
18343SOL     OW56469   6.943   7.996   7.598
18343SOL    HW156470   7.026   7.948   7.598
18343SOL    HW256471   6.889   7.951   7.663
18344SOL     OW56472   6.849   0.463   8.130
18344SOL    HW156473   6.830   0.555   8.148
18344SOL    HW256474   6.872   0.425   8.215
18345SOL     OW56475   7.207   0.276   8.329
18345SOL    HW156476   7.137   0.213   8.347
18345SOL    HW256477   7.177   0.325   8.253
18346SOL     OW56478   5.625   1.065   7.772
18346SOL    HW156479   5.715   1.063   7.738
18346SOL    HW256480   5.604   0.973   7.789
18347SOL     OW56481   6.464   1.667   7.778
18347SOL    HW156482   6.395   1.659   7.713
18347SOL    HW256483   6.438   1.740   7.833
18348SOL     OW56484   5.812   0.658   9.422
18348SOL    HW156485   5.749   0.592   9.451
18348SOL    HW256486   5.821   0.643   9.328
18349SOL     OW56487   5.826   0.278  10.293
18349SOL    HW156488   5.841   0.250  10.384
18349SOL    HW256489   5.747   0.231  10.266
18350SOL     OW56490   5.598   0.400   9.926
18350SOL    HW156491   5.507   0.399   9.957
18350SOL    HW256492   5.606   0.323   9.870
18351SOL     OW56493   6.165   1.313  10.484
18351SOL    HW156494   6.073   1.317  10.457
18351SOL    HW256495   6.182   1.398  10.523
18352SOL     OW56496   7.150   1.502  10.017
18352SOL    HW156497   7.101   1.483  10.097
18352SOL    HW256498   7.082   1.510   9.949
18353SOL     OW56499   6.710   0.705  10.005
18353SOL    HW156500   6.760   0.786   9.991
18353SOL    HW256501   6.668   0.718  10.089
18354SOL     OW56502   7.340   0.604   9.541
18354SOL    HW156503   7.324   0.598   9.447
18354SOL    HW256504   7.322   0.516   9.575
18355SOL     OW56505   6.312   1.138  10.335
18355SOL    HW156506   6.264   1.185  10.403
18355SOL    HW256507   6.341   1.205  10.273
18356SOL     OW56508   6.462   0.758  11.137
18356SOL    HW156509   6.437   0.825  11.200
18356SOL    HW256510   6.482   0.807  11.057
18357SOL     OW56511   6.266   0.991   9.959
18357SOL    HW156512   6.337   0.985  10.023
18357SOL    HW256513   6.201   1.048  10.000
18358SOL     OW56514   6.306   1.152  11.130
18358SOL    HW156515   6.350   1.233  11.155
18358SOL    HW256516   6.223   1.181  11.090
18359SOL     OW56517   5.918   1.420  10.364
18359SOL    HW156518   5.845   1.360  10.347
18359SOL    HW256519   5.890   1.503  10.326
18360SOL     OW56520   7.060   1.492  10.684
18360SOL    HW156521   7.104   1.577  10.692
18360SOL    HW256522   6.980   1.501  10.736
18361SOL     OW56523   6.037   0.370  10.773
18361SOL    HW156524   6.118   0.318  10.770
18361SOL    HW256525   5.996   0.346  10.856
18362SOL     OW56526   7.184   0.490  10.075
18362SOL    HW156527   7.134   0.450  10.004
18362SOL    HW256528   7.253   0.540  10.030
18363SOL     OW56529   5.810   1.703   9.778
18363SOL    HW156530   5.828   1.782   9.830
18363SOL    HW256531   5.881   1.699   9.714
18364SOL     OW56532   6.733   1.338  11.009
18364SOL    HW156533   6.756   1.341  11.102
18364SOL    HW256534   6.675   1.262  11.001
18365SOL     OW56535   5.856   1.447   9.883
18365SOL    HW156536   5.827   1.534   9.857
18365SOL    HW256537   5.778   1.405   9.918
18366SOL     OW56538   5.857   1.085  10.193
18366SOL    HW156539   5.860   0.998  10.232
18366SOL    HW256540   5.803   1.136  10.253
18367SOL     OW56541   6.175   1.804  10.722
18367SOL    HW156542   6.096   1.784  10.773
18367SOL    HW256543   6.205   1.888  10.757
18368SOL     OW56544   6.157   0.991   9.457
18368SOL    HW156545   6.208   1.033   9.388
18368SOL    HW256546   6.199   1.020   9.538
18369SOL     OW56547   7.240   0.124  10.802
18369SOL    HW156548   7.173   0.099  10.739
18369SOL    HW256549   7.190   0.146  10.881
18370SOL     OW56550   5.697   0.661   9.864
18370SOL    HW156551   5.670   0.572   9.885
18370SOL    HW256552   5.694   0.707   9.948
18371SOL     OW56553   5.632   1.590   9.441
18371SOL    HW156554   5.611   1.500   9.465
18371SOL    HW256555   5.599   1.643   9.514
18372SOL     OW56556   7.292   0.916   9.944
18372SOL    HW156557   7.339   0.867   9.876
18372SOL    HW256558   7.251   0.989   9.898
18373SOL     OW56559   7.225   1.106   9.731
18373SOL    HW156560   7.309   1.100   9.686
18373SOL    HW256561   7.240   1.168   9.802
18374SOL     OW56562   5.720   0.751  10.884
18374SOL    HW156563   5.812   0.776  10.896
18374SOL    HW256564   5.671   0.830  10.905
18375SOL     OW56565   6.870   1.226  10.722
18375SOL    HW156566   6.901   1.159  10.661
18375SOL    HW256567   6.921   1.212  10.802
18376SOL     OW56568   6.424   0.042   9.885
18376SOL    HW156569   6.467   0.114   9.839
18376SOL    HW256570   6.332   0.048   9.858
18377SOL     OW56571   5.775   0.961  10.586
18377SOL    HW156572   5.862   0.923  10.576
18377SOL    HW256573   5.715   0.895  10.550
18378SOL     OW56574   7.082   0.974   9.515
18378SOL    HW156575   7.012   0.926   9.560
18378SOL    HW256576   7.133   1.012   9.586
18379SOL     OW56577   6.807   1.845  10.930
18379SOL    HW156578   6.784   1.913  10.866
18379SOL    HW256579   6.771   1.764  10.893
18380SOL     OW56580   7.047   1.421  10.268
18380SOL    HW156581   6.980   1.431  10.335
18380SOL    HW256582   7.039   1.329  10.240
18381SOL     OW56583   7.213   1.766   9.934
18381SOL    HW156584   7.274   1.752   9.861
18381SOL    HW256585   7.194   1.678   9.966
18382SOL     OW56586   6.184   0.723   9.586
18382SOL    HW156587   6.185   0.806   9.540
18382SOL    HW256588   6.118   0.734   9.654
18383SOL     OW56589   6.882   0.343  10.251
18383SOL    HW156590   6.787   0.333  10.257
18383SOL    HW256591   6.908   0.280  10.184
18384SOL     OW56592   7.137   1.622   9.570
18384SOL    HW156593   7.212   1.668   9.608
18384SOL    HW256594   7.174   1.542   9.532
18385SOL     OW56595   7.028   0.477  10.981
18385SOL    HW156596   7.002   0.487  11.073
18385SOL    HW256597   7.071   0.391  10.978
18386SOL     OW56598   6.539   0.892  10.904
18386SOL    HW156599   6.603   0.833  10.865
18386SOL    HW256600   6.487   0.923  10.830
18387SOL     OW56601   6.602   0.406  10.565
18387SOL    HW156602   6.561   0.467  10.626
18387SOL    HW256603   6.530   0.373  10.511
18388SOL     OW56604   6.631   0.699   9.738
18388SOL    HW156605   6.651   0.696   9.832
18388SOL    HW256606   6.548   0.654   9.729
18389SOL     OW56607   5.673   0.832  10.084
18389SOL    HW156608   5.755   0.819  10.132
18389SOL    HW256609   5.633   0.908  10.125
18390SOL     OW56610   5.698   1.870  10.895
18390SOL    HW156611   5.700   1.847  10.988
18390SOL    HW256612   5.617   1.832  10.862
18391SOL     OW56613   6.472   0.353   9.519
18391SOL    HW156614   6.518   0.403   9.452
18391SOL    HW256615   6.438   0.276   9.473
18392SOL     OW56616   7.301   0.565  11.127
18392SOL    HW156617   7.263   0.643  11.086
18392SOL    HW256618   7.319   0.505  11.055
18393SOL     OW56619   6.966   1.135   9.834
18393SOL    HW156620   7.051   1.131   9.789
18393SOL    HW256621   6.918   1.204   9.789
18394SOL     OW56622   6.592   1.435   9.769
18394SOL    HW156623   6.552   1.514   9.733
18394SOL    HW256624   6.571   1.437   9.862
18395SOL     OW56625   5.955   1.823  10.181
18395SOL    HW156626   6.020   1.756  10.201
18395SOL    HW256627   5.995   1.905  10.209
18396SOL     OW56628   7.399   1.026  10.199
18396SOL    HW156629   7.357   1.017  10.113
18396SOL    HW256630   7.326   1.038  10.260
18397SOL     OW56631   6.829   1.522  10.814
18397SOL    HW156632   6.793   1.457  10.875
18397SOL    HW256633   6.752   1.566  10.778
18398SOL     OW56634   5.890   0.953   9.555
18398SOL    HW156635   5.975   0.977   9.519
18398SOL    HW256636   5.869   0.869   9.513
18399SOL     OW56637   7.066   0.773  10.035
18399SOL    HW156638   7.069   0.714  10.110
18399SOL    HW256639   7.152   0.815  10.033
18400SOL     OW56640   6.059   1.215  11.027
18400SOL    HW156641   6.017   1.244  10.947
18400SOL    HW256642   6.015   1.132  11.049
18401SOL     OW56643   6.689   1.751   9.505
18401SOL    HW156644   6.631   1.710   9.568
18401SOL    HW256645   6.630   1.792   9.442
18402SOL     OW56646   5.727   0.253  10.782
18402SOL    HW156647   5.666   0.324  10.803
18402SOL    HW256648   5.784   0.247  10.859
18403SOL     OW56649   7.220   1.380   9.384
18403SOL    HW156650   7.257   1.455   9.338
18403SOL    HW256651   7.221   1.309   9.320
18404SOL     OW56652   6.074   1.705   9.658
18404SOL    HW156653   6.103   1.784   9.704
18404SOL    HW256654   6.126   1.705   9.577
18405SOL     OW56655   6.977   0.132   9.750
18405SOL    HW156656   6.993   0.083   9.670
18405SOL    HW256657   7.061   0.132   9.796
18406SOL     OW56658   5.823   1.749  10.529
18406SOL    HW156659   5.894   1.719  10.585
18406SOL    HW256660   5.827   1.845  10.534
18407SOL     OW56661   6.559   1.742  10.145
18407SOL    HW156662   6.571   1.742  10.240
18407SOL    HW256663   6.494   1.673  10.129
18408SOL     OW56664   5.981   0.700   9.780
18408SOL    HW156665   6.000   0.607   9.792
18408SOL    HW256666   5.887   0.707   9.799
18409SOL     OW56667   7.129   0.212  11.045
18409SOL    HW156668   7.139   0.244  11.135
18409SOL    HW256669   7.052   0.154  11.049
18410SOL     OW56670   6.223   0.169   9.385
18410SOL    HW156671   6.270   0.107   9.441
18410SOL    HW256672   6.168   0.113   9.330
18411SOL     OW56673   6.301   0.244  11.080
18411SOL    HW156674   6.380   0.273  11.034
18411SOL    HW256675   6.253   0.325  11.099
18412SOL     OW56676   6.460   1.537  10.467
18412SOL    HW156677   6.504   1.452  10.462
18412SOL    HW256678   6.503   1.581  10.540
18413SOL     OW56679   6.943   0.577  10.737
18413SOL    HW156680   6.988   0.551  10.817
18413SOL    HW256681   6.971   0.667  10.722
18414SOL     OW56682   6.385   1.353  10.167
18414SOL    HW156683   6.479   1.341  10.180
18414SOL    HW256684   6.378   1.440  10.126
18415SOL     OW56685   6.511   0.519  10.199
18415SOL    HW156686   6.474   0.501  10.112
18415SOL    HW256687   6.546   0.435  10.228
18416SOL     OW56688   6.172   0.077   9.794
18416SOL    HW156689   6.107   0.008   9.803
18416SOL    HW256690   6.134   0.137   9.730
18417SOL     OW56691   6.955   1.166   9.355
18417SOL    HW156692   7.013   1.115   9.412
18417SOL    HW256693   6.929   1.241   9.408
18418SOL     OW56694   5.872   0.064   9.518
18418SOL    HW156695   5.906   0.098   9.435
18418SOL    HW256696   5.847  -0.026   9.498
18419SOL     OW56697   6.538   0.262   9.769
18419SOL    HW156698   6.508   0.288   9.682
18419SOL    HW256699   6.632   0.278   9.768
18420SOL     OW56700   6.702   0.713  10.778
18420SOL    HW156701   6.623   0.659  10.777
18420SOL    HW256702   6.773   0.651  10.760
18421SOL     OW56703   6.821   1.543  10.093
18421SOL    HW156704   6.807   1.624  10.045
18421SOL    HW256705   6.861   1.570  10.176
18422SOL     OW56706   6.045   1.167  10.021
18422SOL    HW156707   5.988   1.134  10.090
18422SOL    HW256708   6.005   1.137   9.940
18423SOL     OW56709   6.819   1.865   9.952
18423SOL    HW156710   6.861   1.896   9.872
18423SOL    HW256711   6.890   1.860  10.016
18424SOL     OW56712   6.601   0.537   9.352
18424SOL    HW156713   6.559   0.621   9.335
18424SOL    HW256714   6.670   0.557   9.416
18425SOL     OW56715   5.666   0.562  10.702
18425SOL    HW156716   5.758   0.551  10.679
18425SOL    HW256717   5.666   0.631  10.768
18426SOL     OW56718   6.104   0.222  10.415
18426SOL    HW156719   6.172   0.196  10.478
18426SOL    HW256720   6.022   0.214  10.464
18427SOL     OW56721   6.415   0.435   9.945
18427SOL    HW156722   6.388   0.503   9.882
18427SOL    HW256723   6.466   0.373   9.893
18428SOL     OW56724   6.546   0.031  10.122
18428SOL    HW156725   6.503   0.038  10.037
18428SOL    HW256726   6.596  -0.051  10.117
18429SOL     OW56727   7.034   1.161  10.170
18429SOL    HW156728   6.959   1.102  10.166
18429SOL    HW256729   7.064   1.168  10.080
18430SOL     OW56730   7.031   0.623  10.294
18430SOL    HW156731   7.011   0.533  10.270
18430SOL    HW256732   7.100   0.616  10.360
18431SOL     OW56733   7.406   0.802   9.715
18431SOL    HW156734   7.471   0.753   9.765
18431SOL    HW256735   7.387   0.746   9.639
18432SOL     OW56736   6.077   1.423   9.454
18432SOL    HW156737   6.007   1.393   9.511
18432SOL    HW256738   6.067   1.372   9.374
18433SOL     OW56739   7.256   1.247   9.960
18433SOL    HW156740   7.351   1.244   9.972
18433SOL    HW256741   7.232   1.338   9.975
18434SOL     OW56742   7.003   0.616   9.380
18434SOL    HW156743   6.934   0.585   9.439
18434SOL    HW256744   7.078   0.559   9.400
18435SOL     OW56745   6.106   0.278   9.615
18435SOL    HW156746   6.148   0.235   9.540
18435SOL    HW256747   6.074   0.361   9.580
18436SOL     OW56748   6.644   1.330  10.606
18436SOL    HW156749   6.565   1.327  10.661
18436SOL    HW256750   6.715   1.303  10.664
18437SOL     OW56751   7.212   1.611  10.968
18437SOL    HW156752   7.195   1.648  10.882
18437SOL    HW256753   7.296   1.566  10.959
18438SOL     OW56754   6.711   1.176  10.395
18438SOL    HW156755   6.677   1.228  10.468
18438SOL    HW256756   6.692   1.228  10.317
18439SOL     OW56757   7.201   1.085  10.382
18439SOL    HW156758   7.187   1.148  10.453
18439SOL    HW256759   7.131   1.104  10.319
18440SOL     OW56760   6.520   0.092  10.700
18440SOL    HW156761   6.558   0.104  10.613
18440SOL    HW256762   6.593   0.099  10.760
18441SOL     OW56763   6.575   1.117  11.043
18441SOL    HW156764   6.485   1.141  11.067
18441SOL    HW256765   6.565   1.039  10.988
18442SOL     OW56766   6.297   1.058   9.686
18442SOL    HW156767   6.284   1.034   9.778
18442SOL    HW256768   6.374   1.008   9.659
18443SOL     OW56769   6.009   0.815  10.568
18443SOL    HW156770   6.078   0.824  10.633
18443SOL    HW256771   5.973   0.727  10.583
18444SOL     OW56772   6.879   0.374  10.563
18444SOL    HW156773   6.906   0.448  10.618
18444SOL    HW256774   6.786   0.391  10.544
18445SOL     OW56775   5.643   1.584  10.661
18445SOL    HW156776   5.571   1.647  10.668
18445SOL    HW256777   5.713   1.632  10.617
18446SOL     OW56778   5.917   1.117   9.788
18446SOL    HW156779   5.913   1.188   9.724
18446SOL    HW256780   5.919   1.037   9.735
18447SOL     OW56781   6.120   0.503  10.173
18447SOL    HW156782   6.130   0.558  10.095
18447SOL    HW256783   6.183   0.538  10.236
18448SOL     OW56784   6.843   1.350   9.701
18448SOL    HW156785   6.895   1.423   9.734
18448SOL    HW256786   6.754   1.369   9.731
18449SOL     OW56787   6.869   1.467  10.475
18449SOL    HW156788   6.929   1.462  10.549
18449SOL    HW256789   6.787   1.431  10.507
18450SOL     OW56790   7.174   0.618   9.812
18450SOL    HW156791   7.118   0.678   9.861
18450SOL    HW256792   7.220   0.674   9.750
18451SOL     OW56793   5.952   1.500  10.628
18451SOL    HW156794   5.931   1.476  10.538
18451SOL    HW256795   6.042   1.530  10.625
18452SOL     OW56796   6.003   0.758  10.924
18452SOL    HW156797   6.071   0.786  10.863
18452SOL    HW256798   6.031   0.672  10.955
18453SOL     OW56799   7.210   0.792  10.996
18453SOL    HW156800   7.122   0.828  10.987
18453SOL    HW256801   7.258   0.830  10.922
18454SOL     OW56802   6.639   0.104  11.035
18454SOL    HW156803   6.623   0.194  11.007
18454SOL    HW256804   6.553   0.062  11.031
18455SOL     OW56805   6.056  -0.016  10.994
18455SOL    HW156806   6.121   0.019  10.933
18455SOL    HW256807   6.017   0.062  11.034
18456SOL     OW56808   6.160   0.887  10.341
18456SOL    HW156809   6.204   0.972  10.349
18456SOL    HW256810   6.115   0.876  10.425
18457SOL     OW56811   6.920   0.867  10.318
18457SOL    HW156812   6.829   0.852  10.291
18457SOL    HW256813   6.961   0.781  10.310
18458SOL     OW56814   6.793   0.557   9.568
18458SOL    HW156815   6.807   0.470   9.607
18458SOL    HW256816   6.733   0.600   9.629
18459SOL     OW56817   5.870   0.202  10.549
18459SOL    HW156818   5.837   0.243  10.629
18459SOL    HW256819   5.854   0.109  10.562
18460SOL     OW56820   5.644   1.324  10.576
18460SOL    HW156821   5.661   1.262  10.648
18460SOL    HW256822   5.652   1.410  10.616
18461SOL     OW56823   6.284   0.632  10.342
18461SOL    HW156824   6.370   0.623  10.303
18461SOL    HW256825   6.264   0.725  10.336
18462SOL     OW56826   7.309   0.987  11.166
18462SOL    HW156827   7.276   0.913  11.114
18462SOL    HW256828   7.250   0.992  11.241
18463SOL     OW56829   5.940   0.090  10.008
18463SOL    HW156830   5.855   0.115   9.973
18463SOL    HW256831   5.954   0.001   9.976
18464SOL     OW56832   7.221   0.381   9.682
18464SOL    HW156833   7.233   0.309   9.744
18464SOL    HW256834   7.195   0.456   9.736
18465SOL     OW56835   6.615   0.761  10.269
18465SOL    HW156836   6.604   0.775  10.363
18465SOL    HW256837   6.583   0.672  10.254
18466SOL     OW56838   6.593   1.583  11.025
18466SOL    HW156839   6.571   1.621  10.940
18466SOL    HW256840   6.608   1.491  11.006
18467SOL     OW56841   7.459   1.472  10.922
18467SOL    HW156842   7.459   1.498  10.830
18467SOL    HW256843   7.540   1.509  10.958
18468SOL     OW56844   5.963   0.962  11.106
18468SOL    HW156845   6.031   0.950  11.172
18468SOL    HW256846   5.975   0.889  11.045
18469SOL     OW56847   7.124   0.276   9.450
18469SOL    HW156848   7.118   0.184   9.475
18469SOL    HW256849   7.163   0.320   9.526
18470SOL     OW56850   6.658   1.334  10.172
18470SOL    HW156851   6.665   1.262  10.109
18470SOL    HW256852   6.719   1.400  10.140
18471SOL     OW56853   5.897   0.813  10.252
18471SOL    HW156854   5.990   0.835  10.260
18471SOL    HW256855   5.890   0.725  10.288
18472SOL     OW56856   5.898   0.539  10.325
18472SOL    HW156857   5.864   0.450  10.315
18472SOL    HW256858   5.976   0.540  10.270
18473SOL     OW56859   6.753   0.393  10.995
18473SOL    HW156860   6.691   0.440  11.050
18473SOL    HW256861   6.810   0.461  10.959
18474SOL     OW56862   6.769   0.215  10.779
18474SOL    HW156863   6.755   0.268  10.857
18474SOL    HW256864   6.782   0.279  10.708
18475SOL     OW56865   5.604   1.317   9.507
18475SOL    HW156866   5.518   1.330   9.467
18475SOL    HW256867   5.600   1.230   9.545
18476SOL     OW56868   5.677   1.784  10.200
18476SOL    HW156869   5.682   1.767  10.106
18476SOL    HW256870   5.768   1.797  10.227
18477SOL     OW56871   6.137   1.537  10.180
18477SOL    HW156872   6.184   1.619  10.195
18477SOL    HW256873   6.140   1.493  10.265
18478SOL     OW56874   6.567   0.784  10.535
18478SOL    HW156875   6.636   0.792  10.601
18478SOL    HW256876   6.499   0.732  10.578
18479SOL     OW56877   5.628   0.563  10.428
18479SOL    HW156878   5.714   0.569  10.386
18479SOL    HW256879   5.647   0.557  10.521
18480SOL     OW56880   5.740   0.530  11.067
18480SOL    HW156881   5.797   0.457  11.045
18480SOL    HW256882   5.746   0.589  10.992
18481SOL     OW56883   6.977   0.931  10.959
18481SOL    HW156884   6.991   1.025  10.952
18481SOL    HW256885   6.962   0.902  10.869
18482SOL     OW56886   6.399   0.569   9.687
18482SOL    HW156887   6.409   0.495   9.627
18482SOL    HW256888   6.326   0.619   9.651
18483SOL     OW56889   7.228   0.607  10.483
18483SOL    HW156890   7.223   0.555  10.564
18483SOL    HW256891   7.317   0.592  10.450
18484SOL     OW56892   5.821   1.565  11.038
18484SOL    HW156893   5.791   1.644  11.083
18484SOL    HW256894   5.846   1.505  11.109
18485SOL     OW56895   6.328   0.376  10.486
18485SOL    HW156896   6.238   0.376  10.454
18485SOL    HW256897   6.338   0.462  10.529
18486SOL     OW56898   6.037   0.510   9.493
18486SOL    HW156899   6.105   0.573   9.517
18486SOL    HW256900   5.960   0.564   9.473
18487SOL     OW56901   5.709   1.141  10.779
18487SOL    HW156902   5.714   1.096  10.864
18487SOL    HW256903   5.734   1.074  10.715
18488SOL     OW56904   6.903   1.034  10.526
18488SOL    HW156905   6.926   0.974  10.455
18488SOL    HW256906   6.833   1.089  10.490
18489SOL     OW56907   6.883   0.825   9.614
18489SOL    HW156908   6.815   0.845   9.678
18489SOL    HW256909   6.866   0.734   9.589
18490SOL     OW56910   7.383   1.752  10.480
18490SOL    HW156911   7.443   1.766  10.407
18490SOL    HW256912   7.337   1.671  10.458
18491SOL     OW56913   6.840   1.734  10.390
18491SOL    HW156914   6.927   1.749  10.355
18491SOL    HW256915   6.845   1.648  10.432
18492SOL     OW56916   5.693   1.258  10.321
18492SOL    HW156917   5.676   1.276  10.414
18492SOL    HW256918   5.611   1.222  10.288
18493SOL     OW56919   6.267   1.664  11.022
18493SOL    HW156920   6.211   1.739  11.042
18493SOL    HW256921   6.324   1.695  10.952
18494SOL     OW56922   6.980   1.574   9.793
18494SOL    HW156923   7.039   1.588   9.718
18494SOL    HW256924   6.937   1.659   9.805
18495SOL     OW56925   5.723   1.796  11.155
18495SOL    HW156926   5.674   1.729  11.202
18495SOL    HW256927   5.772   1.842  11.223
18496SOL     OW56928   6.856   0.932   9.972
18496SOL    HW156929   6.931   0.878   9.996
18496SOL    HW256930   6.894   1.002   9.919
18497SOL     OW56931   6.391   1.280  10.727
18497SOL    HW156932   6.365   1.318  10.811
18497SOL    HW256933   6.320   1.302  10.668
18498SOL     OW56934   6.278   1.607   9.461
18498SOL    HW156935   6.282   1.633   9.369
18498SOL    HW256936   6.208   1.541   9.464
18499SOL     OW56937   7.217   1.722  10.712
18499SOL    HW156938   7.266   1.728  10.630
18499SOL    HW256939   7.196   1.813  10.734
18500SOL     OW56940   7.434   0.190  10.264
18500SOL    HW156941   7.445   0.096  10.248
18500SOL    HW256942   7.353   0.212  10.219
18501SOL     OW56943   5.848   0.368  10.036
18501SOL    HW156944   5.768   0.380   9.985
18501SOL    HW256945   5.817   0.350  10.125
18502SOL     OW56946   6.408   1.007  10.690
18502SOL    HW156947   6.451   1.001  10.605
18502SOL    HW256948   6.403   1.101  10.708
18503SOL     OW56949   6.509   0.916   9.599
18503SOL    HW156950   6.570   0.943   9.531
18503SOL    HW256951   6.555   0.845   9.644
18504SOL     OW56952   7.012   1.655   9.301
18504SOL    HW156953   7.060   1.660   9.384
18504SOL    HW256954   7.079   1.645   9.234
18505SOL     OW56955   5.941   1.291  10.802
18505SOL    HW156956   5.941   1.369  10.748
18505SOL    HW256957   5.857   1.248  10.784
18506SOL     OW56958   7.186   1.276  10.575
18506SOL    HW156959   7.275   1.288  10.608
18506SOL    HW256960   7.134   1.341  10.622
18507SOL     OW56961   6.649   1.113  10.019
18507SOL    HW156962   6.577   1.063  10.059
18507SOL    HW256963   6.714   1.046   9.996
18508SOL     OW56964   6.619   0.265  10.254
18508SOL    HW156965   6.598   0.201  10.187
18508SOL    HW256966   6.626   0.214  10.335
18509SOL     OW56967   6.169   1.487   9.804
18509SOL    HW156968   6.226   1.438   9.745
18509SOL    HW256969   6.126   1.551   9.747
18510SOL     OW56970   7.307   0.433  10.687
18510SOL    HW156971   7.391   0.477  10.700
18510SOL    HW256972   7.329   0.355  10.635
18511SOL     OW56973   5.863   1.337   9.623
18511SOL    HW156974   5.773   1.343   9.594
18511SOL    HW256975   5.865   1.385   9.706
18512SOL     OW56976   5.698   1.023  11.026
18512SOL    HW156977   5.622   1.005  11.081
18512SOL    HW256978   5.772   0.987  11.076
18513SOL     OW56979   6.241   0.160  10.803
18513SOL    HW156980   6.323   0.129  10.765
18513SOL    HW256981   6.268   0.204  10.884
18514SOL     OW56982   5.636   0.371   9.342
18514SOL    HW156983   5.585   0.324   9.275
18514SOL    HW256984   5.695   0.427   9.292
18515SOL     OW56985   7.009   0.847  10.698
18515SOL    HW156986   6.954   0.906  10.647
18515SOL    HW256987   7.096   0.855  10.659
18516SOL     OW56988   5.669   0.236   9.625
18516SOL    HW156989   5.630   0.206   9.543
18516SOL    HW256990   5.752   0.190   9.631
18517SOL     OW56991   6.765   1.371   9.432
18517SOL    HW156992   6.671   1.351   9.438
18517SOL    HW256993   6.796   1.368   9.522
18518SOL     OW56994   6.211   0.817  10.749
18518SOL    HW156995   6.269   0.892  10.737
18518SOL    HW256996   6.269   0.742  10.750
18519SOL     OW56997   7.082   1.786  10.273
18519SOL    HW156998   7.115   1.860  10.222
18519SOL    HW256999   7.157   1.728  10.285
18520SOL     OW57000   6.312   0.534  11.043
18520SOL    HW157001   6.348   0.607  11.093
18520SOL    HW257002   6.335   0.554  10.952
18521SOL     OW57003   7.040   1.207  10.950
18521SOL    HW157004   7.025   1.204  11.044
18521SOL    HW257005   7.045   1.301  10.929
18522SOL     OW57006   5.950   1.751  10.869
18522SOL    HW157007   5.867   1.798  10.858
18522SOL    HW257008   5.925   1.667  10.907
18523SOL     OW57009   7.248   0.876  10.562
18523SOL    HW157010   7.242   0.791  10.518
18523SOL    HW257011   7.232   0.940  10.493
18524SOL     OW57012   6.801   0.339   9.756
18524SOL    HW157013   6.862   0.265   9.747
18524SOL    HW257014   6.826   0.381   9.838
18525SOL     OW57015   6.167   0.722   9.990
18525SOL    HW157016   6.210   0.806   9.980
18525SOL    HW257017   6.104   0.719   9.917
18526SOL     OW57018   7.380   0.354  10.941
18526SOL    HW157019   7.341   0.378  10.857
18526SOL    HW257020   7.331   0.277  10.970
18527SOL     OW57021   7.361   0.928  10.802
18527SOL    HW157022   7.381   1.021  10.795
18527SOL    HW257023   7.322   0.904  10.718
18528SOL     OW57024   6.448   1.375   9.367
18528SOL    HW157025   6.398   1.416   9.437
18528SOL    HW257026   6.472   1.448   9.309
18529SOL     OW57027   6.245   1.781  10.234
18529SOL    HW157028   6.219   1.872  10.219
18529SOL    HW257029   6.304   1.786  10.310
18530SOL     OW57030   6.458   0.970  10.160
18530SOL    HW157031   6.510   0.900  10.201
18530SOL    HW257032   6.417   1.015  10.234
18531SOL     OW57033   6.668   0.988   9.389
18531SOL    HW157034   6.632   1.042   9.318
18531SOL    HW257035   6.762   0.989   9.375
18532SOL     OW57036   7.432   1.560  10.154
18532SOL    HW157037   7.368   1.552  10.083
18532SOL    HW257038   7.430   1.475  10.198
18533SOL     OW57039   5.677   1.240   9.976
18533SOL    HW157040   5.679   1.197  10.061
18533SOL    HW257041   5.735   1.188   9.921
18534SOL     OW57042   6.261   1.399  10.936
18534SOL    HW157043   6.183   1.358  10.973
18534SOL    HW257044   6.258   1.489  10.968
18535SOL     OW57045   7.417   0.240  10.536
18535SOL    HW157046   7.440   0.156  10.576
18535SOL    HW257047   7.422   0.224  10.442
18536SOL     OW57048   6.022   0.441   9.831
18536SOL    HW157049   6.044   0.369   9.773
18536SOL    HW257050   5.969   0.402   9.900
18537SOL     OW57051   7.259   1.517  10.415
18537SOL    HW157052   7.189   1.494  10.354
18537SOL    HW257053   7.268   1.442  10.472
18538SOL     OW57054   5.920   0.555  10.610
18538SOL    HW157055   5.969   0.493  10.664
18538SOL    HW257056   5.940   0.528  10.520
18539SOL     OW57057   6.383   1.580   9.988
18539SOL    HW157058   6.433   1.631   9.924
18539SOL    HW257059   6.292   1.594   9.964
18540SOL     OW57060   6.629   0.066  10.443
18540SOL    HW157061   6.544   0.032  10.416
18540SOL    HW257062   6.691  -0.003  10.418
18541SOL     OW57063   6.346   1.333   9.662
18541SOL    HW157064   6.325   1.240   9.658
18541SOL    HW257065   6.438   1.337   9.685
18542SOL     OW57066   6.211   1.570  10.576
18542SOL    HW157067   6.212   1.648  10.632
18542SOL    HW257068   6.300   1.565  10.541
18543SOL     OW57069   6.954   8.026   9.470
18543SOL    HW157070   7.026   7.967   9.448
18543SOL    HW257071   6.876   7.972   9.462
18544SOL     OW57072   6.853   0.468   9.993
18544SOL    HW157073   6.804   0.549   9.989
18544SOL    HW257074   6.875   0.458  10.086
18545SOL     OW57075   7.160   0.270  10.229
18545SOL    HW157076   7.165   0.210  10.155
18545SOL    HW257077   7.176   0.357  10.192
18546SOL     OW57078   5.630   1.069   9.626
18546SOL    HW157079   5.721   1.055   9.599
18546SOL    HW257080   5.599   0.982   9.652
18547SOL     OW57081   6.467   1.659   9.666
18547SOL    HW157082   6.400   1.639   9.601
18547SOL    HW257083   6.434   1.737   9.711
18548SOL     OW57084   5.812   0.642  11.308
18548SOL    HW157085   5.733   0.645  11.363
18548SOL    HW257086   5.782   0.605  11.225
18549SOL     OW57087   5.802   0.322  12.157
18549SOL    HW157088   5.837   0.281  12.236
18549SOL    HW257089   5.731   0.264  12.129
18550SOL     OW57090   5.596   0.397  11.817
18550SOL    HW157091   5.507   0.420  11.846
18550SOL    HW257092   5.585   0.315  11.770
18551SOL     OW57093   6.121   1.289  12.355
18551SOL    HW157094   6.062   1.297  12.280
18551SOL    HW257095   6.083   1.344  12.423
18552SOL     OW57096   7.155   1.438  11.868
18552SOL    HW157097   7.106   1.448  11.950
18552SOL    HW257098   7.100   1.478  11.801
18553SOL     OW57099   6.725   0.690  11.859
18553SOL    HW157100   6.766   0.777  11.853
18553SOL    HW257101   6.675   0.693  11.940
18554SOL     OW57102   7.377   0.604  11.387
18554SOL    HW157103   7.343   0.592  11.299
18554SOL    HW257104   7.332   0.539  11.440
18555SOL     OW57105   6.272   0.992  11.821
18555SOL    HW157106   6.338   0.988  11.890
18555SOL    HW257107   6.203   1.047  11.857
18556SOL     OW57108   5.952   1.359  12.161
18556SOL    HW157109   5.857   1.344  12.168
18556SOL    HW257110   5.960   1.451  12.137
18557SOL     OW57111   7.178   0.454  11.896
18557SOL    HW157112   7.090   0.464  11.858
18557SOL    HW257113   7.179   0.515  11.970
18558SOL     OW57114   5.855   1.700  11.648
18558SOL    HW157115   5.839   1.775  11.705
18558SOL    HW257116   5.783   1.702  11.585
18559SOL     OW57117   5.838   1.423  11.731
18559SOL    HW157118   5.841   1.518  11.735
18559SOL    HW257119   5.769   1.398  11.793
18560SOL     OW57120   5.865   1.056  12.112
18560SOL    HW157121   5.844   1.020  12.198
18560SOL    HW257122   5.817   1.138  12.107
18561SOL     OW57123   6.174   0.982  11.304
18561SOL    HW157124   6.222   1.033  11.239
18561SOL    HW257125   6.209   1.012  11.388
18562SOL     OW57126   5.751   0.623  11.751
18562SOL    HW157127   5.686   0.554  11.760
18562SOL    HW257128   5.728   0.687  11.819
18563SOL     OW57129   7.446   1.743  11.507
18563SOL    HW157130   7.404   1.729  11.592
18563SOL    HW257131   7.460   1.838  11.502
18564SOL     OW57132   5.632   1.579  11.284
18564SOL    HW157133   5.590   1.494  11.301
18564SOL    HW257134   5.623   1.627  11.366
18565SOL     OW57135   7.289   0.905  11.828
18565SOL    HW157136   7.374   0.869  11.851
18565SOL    HW257137   7.295   0.926  11.734
18566SOL     OW57138   7.245   1.106  11.591
18566SOL    HW157139   7.337   1.099  11.564
18566SOL    HW257140   7.248   1.163  11.668
18567SOL     OW57141   5.759   0.732   0.233
18567SOL    HW157142   5.809   0.741   0.313
18567SOL    HW257143   5.676   0.777   0.250
18568SOL     OW57144   6.203   1.391  11.899
18568SOL    HW157145   6.149   1.313  11.912
18568SOL    HW257146   6.190   1.415  11.807
18569SOL     OW57147   6.414   0.010  11.715
18569SOL    HW157148   6.458   0.093  11.697
18569SOL    HW257149   6.322   0.034  11.731
18570SOL     OW57150   5.800   0.942  12.363
18570SOL    HW157151   5.846   0.954  12.446
18570SOL    HW257152   5.710   0.967  12.381
18571SOL     OW57153   7.121   0.997  11.372
18571SOL    HW157154   7.050   0.940  11.403
18571SOL    HW257155   7.163   1.029  11.451
18572SOL     OW57156   7.074   1.390  12.131
18572SOL    HW157157   7.005   1.416  12.192
18572SOL    HW257158   7.043   1.307  12.094
18573SOL     OW57159   7.295   1.706  11.727
18573SOL    HW157160   7.215   1.676  11.684
18573SOL    HW257161   7.265   1.758  11.801
18574SOL     OW57162   6.192   0.721  11.451
18574SOL    HW157163   6.195   0.808  11.411
18574SOL    HW257164   6.125   0.728  11.519
18575SOL     OW57165   6.877   0.372  12.089
18575SOL    HW157166   6.786   0.344  12.094
18575SOL    HW257167   6.922   0.318  12.154
18576SOL     OW57168   7.155   1.667  11.470
18576SOL    HW157169   7.241   1.708  11.460
18576SOL    HW257170   7.126   1.649  11.380
18577SOL     OW57171   6.594   0.377  12.371
18577SOL    HW157172   6.527   0.437  12.403
18577SOL    HW257173   6.556   0.290  12.381
18578SOL     OW57174   6.642   0.708  11.594
18578SOL    HW157175   6.662   0.699  11.687
18578SOL    HW257176   6.558   0.663  11.582
18579SOL     OW57177   5.693   0.784  11.966
18579SOL    HW157178   5.719   0.864  12.012
18579SOL    HW257179   5.614   0.809  11.918
18580SOL     OW57180   6.477   0.339  11.380
18580SOL    HW157181   6.500   0.378  11.296
18580SOL    HW257182   6.443   0.252  11.359
18581SOL     OW57183   6.969   1.149  11.717
18581SOL    HW157184   7.031   1.127  11.648
18581SOL    HW257185   6.912   1.215  11.678
18582SOL     OW57186   6.106   0.244  12.067
18582SOL    HW157187   6.122   0.237  12.162
18582SOL    HW257188   6.106   0.338  12.050
18583SOL     OW57189   6.610   1.471  11.657
18583SOL    HW157190   6.572   1.537  11.599
18583SOL    HW257191   6.554   1.471  11.734
18584SOL     OW57192   5.943   1.819  12.022
18584SOL    HW157193   5.978   1.731  12.033
18584SOL    HW257194   6.006   1.875  12.068
18585SOL     OW57195   7.309   1.112  12.016
18585SOL    HW157196   7.287   1.036  11.963
18585SOL    HW257197   7.263   1.098  12.099
18586SOL     OW57198   5.927   0.993  11.414
18586SOL    HW157199   6.015   0.979  11.378
18586SOL    HW257200   5.889   0.905  11.417
18587SOL     OW57201   7.064   0.754  11.883
18587SOL    HW157202   7.056   0.709  11.968
18587SOL    HW257203   7.145   0.805  11.891
18588SOL     OW57204   6.714   1.781  11.398
18588SOL    HW157205   6.634   1.750  11.441
18588SOL    HW257206   6.736   1.712  11.335
18589SOL     OW57207   7.229   1.361  11.197
18589SOL    HW157208   7.193   1.450  11.206
18589SOL    HW257209   7.153   1.304  11.208
18590SOL     OW57210   6.082   1.785  11.483
18590SOL    HW157211   6.042   1.724  11.545
18590SOL    HW257212   6.126   1.730  11.419
18591SOL     OW57213   6.991   0.136  11.545
18591SOL    HW157214   6.947   0.052  11.541
18591SOL    HW257215   7.073   0.118  11.591
18592SOL     OW57216   5.853   1.730  12.421
18592SOL    HW157217   5.785   1.699  12.482
18592SOL    HW257218   5.805   1.750  12.341
18593SOL     OW57219   6.537   1.695  12.078
18593SOL    HW157220   6.616   1.643  12.092
18593SOL    HW257221   6.489   1.649  12.010
18594SOL     OW57222   5.995   0.687  11.640
18594SOL    HW157223   6.019   0.596  11.657
18594SOL    HW257224   5.902   0.692  11.663
18595SOL     OW57225   6.155   0.092  11.279
18595SOL    HW157226   6.236   0.069  11.325
18595SOL    HW257227   6.183   0.143  11.204
18596SOL     OW57228   6.389   1.336  12.115
18596SOL    HW157229   6.477   1.351  12.079
18596SOL    HW257230   6.330   1.359  12.043
18597SOL     OW57231   6.516   0.526  12.064
18597SOL    HW157232   6.488   0.510  11.974
18597SOL    HW257233   6.547   0.441  12.095
18598SOL     OW57234   6.134   0.023  11.606
18598SOL    HW157235   6.087   0.025  11.690
18598SOL    HW257236   6.128   0.112  11.573
18599SOL     OW57237   7.007   1.204  11.221
18599SOL    HW157238   7.028   1.127  11.273
18599SOL    HW257239   6.922   1.234  11.254
18600SOL     OW57240   5.856   0.007  11.325
18600SOL    HW157241   5.894   0.079  11.273
18600SOL    HW257242   5.919  -0.006  11.396
18601SOL     OW57243   6.532   0.247  11.637
18601SOL    HW157244   6.508   0.283  11.552
18601SOL    HW257245   6.626   0.266  11.645
18602SOL     OW57246   6.820   1.581  11.980
18602SOL    HW157247   6.821   1.635  11.901
18602SOL    HW257248   6.887   1.620  12.036
18603SOL     OW57249   6.061   1.139  11.919
18603SOL    HW157250   5.999   1.123  11.990
18603SOL    HW257251   6.009   1.129  11.839
18604SOL     OW57252   6.847   1.785  11.781
18604SOL    HW157253   6.897   1.852  11.733
18604SOL    HW257254   6.778   1.835  11.826
18605SOL     OW57255   6.626   0.539  11.186
18605SOL    HW157256   6.568   0.614  11.171
18605SOL    HW257257   6.662   0.555  11.273
18606SOL     OW57258   6.149   0.230  12.340
18606SOL    HW157259   6.189   0.201  12.423
18606SOL    HW257260   6.055   0.232  12.359
18607SOL     OW57261   6.452   0.468  11.805
18607SOL    HW157262   6.417   0.518  11.732
18607SOL    HW257263   6.457   0.378  11.773
18608SOL     OW57264   6.613   0.030  11.912
18608SOL    HW157265   6.539   0.010  11.854
18608SOL    HW257266   6.594  -0.017  11.992
18609SOL     OW57267   6.996   1.160  12.004
18609SOL    HW157268   6.949   1.081  12.029
18609SOL    HW257269   6.985   1.166  11.909
18610SOL     OW57270   7.047   0.606  12.120
18610SOL    HW157271   6.987   0.532  12.130
18610SOL    HW257272   7.105   0.600  12.195
18611SOL     OW57273   7.420   0.812  11.560
18611SOL    HW157274   7.476   0.763  11.621
18611SOL    HW257275   7.401   0.749  11.491
18612SOL     OW57276   6.051   1.366  11.317
18612SOL    HW157277   6.063   1.371  11.412
18612SOL    HW257278   6.077   1.452  11.285
18613SOL     OW57279   6.087   0.266  11.481
18613SOL    HW157280   6.102   0.210  11.405
18613SOL    HW257281   6.072   0.353  11.443
18614SOL     OW57282   6.698   1.232  12.300
18614SOL    HW157283   6.633   1.279  12.352
18614SOL    HW257284   6.686   1.266  12.211
18615SOL     OW57285   7.198   1.108  12.269
18615SOL    HW157286   7.227   1.148  12.351
18615SOL    HW257287   7.102   1.108  12.275
18616SOL     OW57288   6.282   1.045  11.543
18616SOL    HW157289   6.272   1.034  11.637
18616SOL    HW257290   6.362   0.997  11.522
18617SOL     OW57291   6.076   0.792  12.439
18617SOL    HW157292   6.084   0.844  12.519
18617SOL    HW257293   6.007   0.728  12.459
18618SOL     OW57294   6.867   0.394  12.397
18618SOL    HW157295   6.885   0.461  12.464
18618SOL    HW257296   6.771   0.393  12.391
18619SOL     OW57297   5.926   1.118  11.678
18619SOL    HW157298   5.924   1.209  11.651
18619SOL    HW257299   5.947   1.069  11.599
18620SOL     OW57300   6.087   0.533  12.049
18620SOL    HW157301   6.107   0.585  11.971
18620SOL    HW257302   6.155   0.557  12.112
18621SOL     OW57303   6.838   1.354  11.573
18621SOL    HW157304   6.895   1.425  11.603
18621SOL    HW257305   6.751   1.379  11.604
18622SOL     OW57306   6.896   1.447  12.332
18622SOL    HW157307   6.943   1.471  12.412
18622SOL    HW257308   6.851   1.365  12.355
18623SOL     OW57309   7.160   0.644  11.644
18623SOL    HW157310   7.110   0.670  11.721
18623SOL    HW257311   7.208   0.722  11.617
18624SOL     OW57312   5.974   1.488  12.481
18624SOL    HW157313   5.895   1.435  12.476
18624SOL    HW257314   5.947   1.575  12.453
18625SOL     OW57315   6.210   0.903  12.223
18625SOL    HW157316   6.143   0.965  12.195
18625SOL    HW257317   6.170   0.859  12.299
18626SOL     OW57318   6.903   0.850  12.153
18626SOL    HW157319   6.813   0.820  12.139
18626SOL    HW257320   6.955   0.770  12.153
18627SOL     OW57321   6.785   0.526  11.444
18627SOL    HW157322   6.754   0.458  11.504
18627SOL    HW257323   6.753   0.608  11.481
18628SOL     OW57324   5.882   0.225  12.406
18628SOL    HW157325   5.860   0.276  12.484
18628SOL    HW257326   5.845   0.139  12.422
18629SOL     OW57327   6.291   0.622  12.208
18629SOL    HW157328   6.372   0.605  12.160
18629SOL    HW257329   6.283   0.718  12.206
18630SOL     OW57330   5.983   0.061  11.843
18630SOL    HW157331   5.954   0.152  11.854
18630SOL    HW257332   5.904   0.009  11.852
18631SOL     OW57333   7.180   0.394  11.546
18631SOL    HW157334   7.210   0.328  11.609
18631SOL    HW257335   7.178   0.475  11.596
18632SOL     OW57336   6.633   0.758  12.135
18632SOL    HW157337   6.613   0.773  12.227
18632SOL    HW257338   6.596   0.671  12.117
18633SOL     OW57339   7.182   0.272  11.306
18633SOL    HW157340   7.194   0.180  11.328
18633SOL    HW257341   7.207   0.319  11.386
18634SOL     OW57342   6.869   0.832  11.190
18634SOL    HW157343   6.899   0.741  11.187
18634SOL    HW257344   6.902   0.871  11.110
18635SOL     OW57345   6.660   1.347  12.045
18635SOL    HW157346   6.666   1.273  11.984
18635SOL    HW257347   6.719   1.413  12.009
18636SOL     OW57348   5.913   0.774  12.176
18636SOL    HW157349   5.940   0.841  12.114
18636SOL    HW257350   5.880   0.823  12.252
18637SOL     OW57351   6.792   0.216   0.150
18637SOL    HW157352   6.750   0.253   0.227
18637SOL    HW257353   6.720   0.195   0.091
18638SOL     OW57354   5.573   1.304  11.339
18638SOL    HW157355   5.489   1.324  11.298
18638SOL    HW257356   5.552   1.235  11.402
18639SOL     OW57357   5.687   1.789  12.121
18639SOL    HW157358   5.652   1.713  12.075
18639SOL    HW257359   5.776   1.799  12.086
18640SOL     OW57360   6.081   1.591  12.061
18640SOL    HW157361   6.153   1.650  12.083
18640SOL    HW257362   6.122   1.521  12.010
18641SOL     OW57363   6.556   0.783  12.392
18641SOL    HW157364   6.592   0.846  12.455
18641SOL    HW257365   6.486   0.739  12.440
18642SOL     OW57366   5.679   0.515  12.330
18642SOL    HW157367   5.675   0.424  12.301
18642SOL    HW257368   5.614   0.520  12.401
18643SOL     OW57369   6.410   0.573  11.539
18643SOL    HW157370   6.408   0.495  11.484
18643SOL    HW257371   6.335   0.625  11.511
18644SOL     OW57372   7.223   0.599  12.328
18644SOL    HW157373   7.202   0.565  12.415
18644SOL    HW257374   7.315   0.576  12.315
18645SOL     OW57375   6.334   0.463  12.429
18645SOL    HW157376   6.255   0.412  12.448
18645SOL    HW257377   6.308   0.523  12.360
18646SOL     OW57378   6.046   0.505  11.365
18646SOL    HW157379   6.104   0.577  11.387
18646SOL    HW257380   5.962   0.546  11.345
18647SOL     OW57381   6.903   1.043  12.344
18647SOL    HW157382   6.897   0.975  12.276
18647SOL    HW257383   6.829   1.101  12.326
18648SOL     OW57384   6.905   0.863  11.473
18648SOL    HW157385   6.837   0.842  11.537
18648SOL    HW257386   6.862   0.857  11.388
18649SOL     OW57387   7.315   1.739  12.287
18649SOL    HW157388   7.402   1.768  12.259
18649SOL    HW257389   7.322   1.644  12.290
18650SOL     OW57390   6.831   1.714  12.289
18650SOL    HW157391   6.903   1.762  12.249
18650SOL    HW257392   6.859   1.623  12.288
18651SOL     OW57393   5.694   1.264  12.173
18651SOL    HW157394   5.685   1.288  12.265
18651SOL    HW257395   5.610   1.225  12.149
18652SOL     OW57396   7.244   0.143  11.673
18652SOL    HW157397   7.339   0.137  11.663
18652SOL    HW257398   7.225   0.095  11.754
18653SOL     OW57399   6.991   1.569  11.668
18653SOL    HW157400   7.035   1.608  11.592
18653SOL    HW257401   6.934   1.638  11.700
18654SOL     OW57402   6.857   0.925  11.827
18654SOL    HW157403   6.932   0.869  11.846
18654SOL    HW257404   6.894   1.002  11.783
18655SOL     OW57405   6.200   1.625  11.299
18655SOL    HW157406   6.255   1.610  11.222
18655SOL    HW257407   6.241   1.572  11.368
18656SOL     OW57408   7.212   1.797   0.036
18656SOL    HW157409   7.257   1.777  -0.046
18656SOL    HW257410   7.244   1.884   0.061
18657SOL     OW57411   7.424   0.181  12.151
18657SOL    HW157412   7.432   0.087  12.166
18657SOL    HW257413   7.343   0.190  12.100
18658SOL     OW57414   5.856   0.314  11.882
18658SOL    HW157415   5.770   0.350  11.859
18658SOL    HW257416   5.855   0.307  11.977
18659SOL     OW57417   6.803   1.594  11.209
18659SOL    HW157418   6.785   1.507  11.243
18659SOL    HW257419   6.737   1.608  11.141
18660SOL     OW57420   6.410   1.065  12.454
18660SOL    HW157421   6.491   1.021  12.480
18660SOL    HW257422   6.344   1.033  12.517
18661SOL     OW57423   6.500   0.912  11.460
18661SOL    HW157424   6.562   0.951  11.399
18661SOL    HW257425   6.552   0.848  11.509
18662SOL     OW57426   7.081   1.605  11.211
18662SOL    HW157427   6.986   1.605  11.204
18662SOL    HW257428   7.112   1.621  11.122
18663SOL     OW57429   6.650   1.109  11.906
18663SOL    HW157430   6.572   1.064  11.940
18663SOL    HW257431   6.705   1.039  11.871
18664SOL     OW57432   6.625   0.262  12.074
18664SOL    HW157433   6.613   0.209  11.995
18664SOL    HW257434   6.629   0.197  12.145
18665SOL     OW57435   5.810   1.352  11.480
18665SOL    HW157436   5.722   1.385  11.461
18665SOL    HW257437   5.830   1.385  11.567
18666SOL     OW57438   5.623   0.297  11.224
18666SOL    HW157439   5.576   0.344  11.156
18666SOL    HW257440   5.716   0.312  11.204
18667SOL     OW57441   5.611   0.139  11.450
18667SOL    HW157442   5.602   0.207  11.383
18667SOL    HW257443   5.704   0.118  11.450
18668SOL     OW57444   6.762   1.331  11.301
18668SOL    HW157445   6.672   1.298  11.300
18668SOL    HW257446   6.785   1.336  11.394
18669SOL     OW57447   7.072   1.765  12.133
18669SOL    HW157448   7.091   1.835  12.071
18669SOL    HW257449   7.148   1.765  12.192
18670SOL     OW57450   7.243   0.866  12.410
18670SOL    HW157451   7.232   0.782  12.366
18670SOL    HW257452   7.229   0.931  12.342
18671SOL     OW57453   6.808   0.324  11.630
18671SOL    HW157454   6.849   0.238  11.640
18671SOL    HW257455   6.832   0.372  11.709
18672SOL     OW57456   6.162   0.731  11.857
18672SOL    HW157457   6.207   0.814  11.843
18672SOL    HW257458   6.103   0.723  11.782
18673SOL     OW57459   7.380   0.874   0.141
18673SOL    HW157460   7.382   0.967   0.166
18673SOL    HW257461   7.324   0.872   0.063
18674SOL     OW57462   6.470   1.365  11.196
18674SOL    HW157463   6.447   1.354  11.288
18674SOL    HW257464   6.472   1.459  11.183
18675SOL     OW57465   6.253   1.804  12.098
18675SOL    HW157466   6.239   1.897  12.080
18675SOL    HW257467   6.347   1.794  12.108
18676SOL     OW57468   6.443   0.954  12.044
18676SOL    HW157469   6.510   0.893  12.073
18676SOL    HW257470   6.371   0.942  12.106
18677SOL     OW57471   6.673   1.000  11.271
18677SOL    HW157472   6.640   1.050  11.196
18677SOL    HW257473   6.739   0.941  11.234
18678SOL     OW57474   7.416   1.545  12.036
18678SOL    HW157475   7.357   1.619  12.021
18678SOL    HW257476   7.401   1.521  12.128
18679SOL     OW57477   5.660   1.226  11.846
18679SOL    HW157478   5.626   1.177  11.921
18679SOL    HW257479   5.727   1.168  11.808
18680SOL     OW57480   7.407   0.244  12.437
18680SOL    HW157481   7.482   0.184  12.442
18680SOL    HW257482   7.407   0.274  12.347
18681SOL     OW57483   6.044   0.426  11.710
18681SOL    HW157484   6.047   0.364  11.637
18681SOL    HW257485   5.974   0.394  11.766
18682SOL     OW57486   7.300   1.470  12.271
18682SOL    HW157487   7.215   1.440  12.238
18682SOL    HW257488   7.303   1.438  12.361
18683SOL     OW57489   6.418   1.578  11.864
18683SOL    HW157490   6.394   1.634  11.790
18683SOL    HW257491   6.350   1.511  11.866
18684SOL     OW57492   7.033   0.231  12.267
18684SOL    HW157493   7.079   0.168  12.323
18684SOL    HW257494   6.981   0.284  12.327
18685SOL     OW57495   6.636   0.029  12.219
18685SOL    HW157496   6.603   0.044  12.308
18685SOL    HW257497   6.722  -0.011  12.232
18686SOL     OW57498   6.405   1.299  11.446
18686SOL    HW157499   6.363   1.218  11.473
18686SOL    HW257500   6.367   1.366  11.505
18687SOL     OW57501   6.954   8.019  11.256
18687SOL    HW157502   7.038   8.006  11.299
18687SOL    HW257503   6.891   7.975  11.314
18688SOL     OW57504   6.895   0.469  11.840
18688SOL    HW157505   6.840   0.547  11.844
18688SOL    HW257506   6.887   0.431  11.927
18689SOL     OW57507   7.188   0.212  12.028
18689SOL    HW157508   7.122   0.213  12.097
18689SOL    HW257509   7.174   0.294  11.980
18690SOL     OW57510   5.662   1.065  11.456
18690SOL    HW157511   5.725   1.050  11.527
18690SOL    HW257512   5.605   0.989  11.458
18691SOL     OW57513   6.482   1.682  11.521
18691SOL    HW157514   6.404   1.628  11.531
18691SOL    HW257515   6.469   1.755  11.581
18692SOL     OW57516   5.839   2.461  -0.013
18692SOL    HW157517   5.810   2.483   0.075
18692SOL    HW257518   5.850   2.366  -0.011
18693SOL     OW57519   5.572   2.265   0.630
18693SOL    HW157520   5.488   2.284   0.674
18693SOL    HW257521   5.560   2.178   0.593
18694SOL     OW57522   6.161   3.142   1.193
18694SOL    HW157523   6.074   3.138   1.153
18694SOL    HW257524   6.193   3.229   1.172
18695SOL     OW57525   7.162   3.383   0.702
18695SOL    HW157526   7.116   3.364   0.784
18695SOL    HW257527   7.093   3.381   0.635
18696SOL     OW57528   6.738   2.552   0.699
18696SOL    HW157529   6.771   2.641   0.688
18696SOL    HW257530   6.691   2.554   0.782
18697SOL     OW57531   7.284   2.470   0.248
18697SOL    HW157532   7.328   2.458   0.164
18697SOL    HW257533   7.273   2.381   0.282
18698SOL     OW57534   6.350   2.992   1.057
18698SOL    HW157535   6.275   3.021   1.110
18698SOL    HW257536   6.385   3.072   1.019
18699SOL     OW57537   6.466   2.631   1.847
18699SOL    HW157538   6.519   2.705   1.878
18699SOL    HW257539   6.392   2.672   1.802
18700SOL     OW57540   6.267   2.858   0.640
18700SOL    HW157541   6.335   2.855   0.707
18700SOL    HW257542   6.198   2.913   0.677
18701SOL     OW57543   6.307   3.025   1.817
18701SOL    HW157544   6.356   3.102   1.846
18701SOL    HW257545   6.229   3.060   1.774
18702SOL     OW57546   5.909   3.285   1.066
18702SOL    HW157547   5.837   3.249   1.014
18702SOL    HW257548   5.962   3.334   1.004
18703SOL     OW57549   7.044   3.353   1.365
18703SOL    HW157550   7.105   3.426   1.360
18703SOL    HW257551   6.984   3.376   1.435
18704SOL     OW57552   6.040   2.254   1.485
18704SOL    HW157553   6.106   2.185   1.482
18704SOL    HW257554   5.957   2.207   1.497
18705SOL     OW57555   7.164   2.321   0.764
18705SOL    HW157556   7.087   2.313   0.707
18705SOL    HW257557   7.185   2.415   0.763
18706SOL     OW57558   5.811   3.567   0.487
18706SOL    HW157559   5.838   3.648   0.530
18706SOL    HW257560   5.746   3.594   0.423
18707SOL     OW57561   6.732   3.201   1.702
18707SOL    HW157562   6.770   3.193   1.789
18707SOL    HW257563   6.689   3.117   1.687
18708SOL     OW57564   5.829   3.303   0.536
18708SOL    HW157565   5.822   3.398   0.528
18708SOL    HW257566   5.779   3.281   0.614
18709SOL     OW57567   5.833   2.955   0.877
18709SOL    HW157568   5.850   2.868   0.913
18709SOL    HW257569   5.795   3.004   0.950
18710SOL     OW57570   6.181   3.653   1.429
18710SOL    HW157571   6.099   3.639   1.477
18710SOL    HW257572   6.213   3.737   1.461
18711SOL     OW57573   6.146   2.911   0.129
18711SOL    HW157574   6.234   2.912   0.092
18711SOL    HW257575   6.159   2.921   0.223
18712SOL     OW57576   7.179   2.005   1.528
18712SOL    HW157577   7.174   2.074   1.463
18712SOL    HW257578   7.268   1.969   1.518
18713SOL     OW57579   5.696   2.520   0.563
18713SOL    HW157580   5.670   2.431   0.586
18713SOL    HW257581   5.686   2.570   0.645
18714SOL     OW57582   7.414   3.623   0.342
18714SOL    HW157583   7.479   3.591   0.404
18714SOL    HW257584   7.448   3.708   0.314
18715SOL     OW57585   5.622   3.395   0.098
18715SOL    HW157586   5.531   3.367   0.110
18715SOL    HW257587   5.629   3.476   0.149
18716SOL     OW57588   7.250   2.794   0.636
18716SOL    HW157589   7.319   2.748   0.588
18716SOL    HW257590   7.223   2.865   0.577
18717SOL     OW57591   7.230   2.988   0.429
18717SOL    HW157592   7.319   2.985   0.395
18717SOL    HW257593   7.235   3.048   0.504
18718SOL     OW57594   6.145   3.266   0.714
18718SOL    HW157595   6.123   3.173   0.725
18718SOL    HW257596   6.164   3.274   0.620
18719SOL     OW57597   6.861   3.069   1.436
18719SOL    HW157598   6.909   3.031   1.363
18719SOL    HW257599   6.926   3.078   1.505
18720SOL     OW57600   6.405   1.861   0.529
18720SOL    HW157601   6.445   1.943   0.500
18720SOL    HW257602   6.312   1.881   0.537
18721SOL     OW57603   5.760   2.835   1.267
18721SOL    HW157604   5.842   2.786   1.272
18721SOL    HW257605   5.708   2.789   1.201
18722SOL     OW57606   7.077   2.884   0.221
18722SOL    HW157607   7.017   2.822   0.262
18722SOL    HW257608   7.133   2.914   0.293
18723SOL     OW57609   6.762   3.677   1.631
18723SOL    HW157610   6.770   3.739   1.559
18723SOL    HW257611   6.782   3.592   1.592
18724SOL     OW57612   5.882   2.185   1.809
18724SOL    HW157613   5.974   2.198   1.784
18724SOL    HW257614   5.883   2.110   1.868
18725SOL     OW57615   7.001   3.308   0.905
18725SOL    HW157616   6.973   3.327   0.994
18725SOL    HW257617   7.005   3.212   0.901
18726SOL     OW57618   7.218   3.634   0.586
18726SOL    HW157619   7.208   3.590   0.502
18726SOL    HW257620   7.209   3.564   0.651
18727SOL     OW57621   6.124   2.608   0.230
18727SOL    HW157622   6.218   2.593   0.241
18727SOL    HW257623   6.089   2.605   0.320
18728SOL     OW57624   6.862   2.229   0.937
18728SOL    HW157625   6.768   2.208   0.939
18728SOL    HW257626   6.904   2.153   0.976
18729SOL     OW57627   7.165   3.528   0.331
18729SOL    HW157628   7.255   3.561   0.327
18729SOL    HW257629   7.166   3.449   0.276
18730SOL     OW57630   6.366   2.486   1.467
18730SOL    HW157631   6.341   2.450   1.551
18730SOL    HW257632   6.346   2.418   1.403
18731SOL     OW57633   6.997   2.353   1.686
18731SOL    HW157634   6.983   2.393   1.772
18731SOL    HW257635   7.088   2.324   1.687
18732SOL     OW57636   6.597   2.273   1.229
18732SOL    HW157637   6.508   2.285   1.261
18732SOL    HW257638   6.586   2.227   1.145
18733SOL     OW57639   6.678   2.562   0.425
18733SOL    HW157640   6.674   2.551   0.520
18733SOL    HW257641   6.588   2.551   0.396
18734SOL     OW57642   5.655   2.698   0.773
18734SOL    HW157643   5.735   2.682   0.824
18734SOL    HW257644   5.615   2.774   0.816
18735SOL     OW57645   5.707   3.734   1.601
18735SOL    HW157646   5.712   3.708   1.693
18735SOL    HW257647   5.639   3.679   1.564
18736SOL     OW57648   6.484   2.197   0.207
18736SOL    HW157649   6.452   2.285   0.229
18736SOL    HW257650   6.483   2.194   0.112
18737SOL     OW57651   7.269   2.439   1.843
18737SOL    HW157652   7.249   2.514   1.787
18737SOL    HW257653   7.305   2.373   1.784
18738SOL     OW57654   6.964   3.007   0.536
18738SOL    HW157655   7.043   3.006   0.481
18738SOL    HW257656   6.906   3.069   0.493
18739SOL     OW57657   6.193   2.045   0.908
18739SOL    HW157658   6.173   2.067   0.999
18739SOL    HW257659   6.151   2.115   0.857
18740SOL     OW57660   6.575   3.307   0.472
18740SOL    HW157661   6.545   3.389   0.431
18740SOL    HW257662   6.551   3.317   0.564
18741SOL     OW57663   5.943   3.675   0.877
18741SOL    HW157664   5.987   3.590   0.884
18741SOL    HW257665   6.012   3.740   0.888
18742SOL     OW57666   7.381   2.879   0.872
18742SOL    HW157667   7.322   2.878   0.796
18742SOL    HW257668   7.327   2.913   0.944
18743SOL     OW57669   6.812   3.407   1.526
18743SOL    HW157670   6.805   3.333   1.586
18743SOL    HW257671   6.758   3.381   1.451
18744SOL     OW57672   5.897   2.837   0.241
18744SOL    HW157673   5.977   2.862   0.195
18744SOL    HW257674   5.893   2.741   0.231
18745SOL     OW57675   7.085   2.609   0.746
18745SOL    HW157676   7.046   2.636   0.829
18745SOL    HW257677   7.146   2.679   0.724
18746SOL     OW57678   6.054   3.137   1.745
18746SOL    HW157679   6.030   3.139   1.653
18746SOL    HW257680   5.971   3.130   1.792
18747SOL     OW57681   6.698   3.662   0.236
18747SOL    HW157682   6.637   3.627   0.300
18747SOL    HW257683   6.736   3.585   0.193
18748SOL     OW57684   5.785   2.137   1.502
18748SOL    HW157685   5.700   2.134   1.458
18748SOL    HW257686   5.775   2.080   1.578
18749SOL     OW57687   7.185   3.318   0.166
18749SOL    HW157688   7.144   3.351   0.086
18749SOL    HW257689   7.181   3.222   0.156
18750SOL     OW57690   6.093   3.642   0.275
18750SOL    HW157691   6.106   3.662   0.367
18750SOL    HW257692   6.147   3.564   0.260
18751SOL     OW57693   6.989   1.960   0.427
18751SOL    HW157694   6.992   1.916   0.342
18751SOL    HW257695   7.080   1.965   0.455
18752SOL     OW57696   5.853   3.658   1.224
18752SOL    HW157697   5.906   3.586   1.258
18752SOL    HW257698   5.851   3.643   1.129
18753SOL     OW57699   6.523   3.578   0.888
18753SOL    HW157700   6.589   3.520   0.927
18753SOL    HW257701   6.478   3.524   0.824
18754SOL     OW57702   5.967   2.562   0.471
18754SOL    HW157703   5.991   2.470   0.478
18754SOL    HW257704   5.884   2.569   0.518
18755SOL     OW57705   6.198   1.931   0.127
18755SOL    HW157706   6.293   1.940   0.114
18755SOL    HW257707   6.159   1.997   0.070
18756SOL     OW57708   6.350   2.134   1.753
18756SOL    HW157709   6.436   2.093   1.746
18756SOL    HW257710   6.305   2.083   1.820
18757SOL     OW57711   6.484   3.417   1.240
18757SOL    HW157712   6.467   3.386   1.152
18757SOL    HW257713   6.555   3.361   1.272
18758SOL     OW57714   6.929   2.457   1.442
18758SOL    HW157715   6.966   2.426   1.525
18758SOL    HW257716   6.967   2.545   1.430
18759SOL     OW57717   6.563   2.358   0.884
18759SOL    HW157718   6.526   2.358   0.795
18759SOL    HW257719   6.550   2.269   0.916
18760SOL     OW57720   6.140   1.919   0.519
18760SOL    HW157721   6.056   1.918   0.566
18760SOL    HW257722   6.137   2.000   0.467
18761SOL     OW57723   7.041   3.098   0.053
18761SOL    HW157724   7.056   3.015   0.098
18761SOL    HW257725   6.950   3.120   0.072
18762SOL     OW57726   5.874   1.933   0.196
18762SOL    HW157727   5.876   2.002   0.129
18762SOL    HW257728   5.898   1.853   0.149
18763SOL     OW57729   6.529   2.098   0.458
18763SOL    HW157730   6.503   2.131   0.372
18763SOL    HW257731   6.621   2.122   0.467
18764SOL     OW57732   6.667   2.503   1.494
18764SOL    HW157733   6.636   2.416   1.522
18764SOL    HW257734   6.761   2.490   1.477
18765SOL     OW57735   6.782   3.434   0.795
18765SOL    HW157736   6.816   3.502   0.736
18765SOL    HW257737   6.859   3.392   0.832
18766SOL     OW57738   6.052   3.006   0.717
18766SOL    HW157739   5.987   2.987   0.785
18766SOL    HW257740   6.004   2.995   0.635
18767SOL     OW57741   6.847   3.650   0.608
18767SOL    HW157742   6.897   3.720   0.566
18767SOL    HW257743   6.773   3.695   0.650
18768SOL     OW57744   6.647   2.410   0.045
18768SOL    HW157745   6.570   2.451   0.085
18768SOL    HW257746   6.710   2.403   0.117
18769SOL     OW57747   5.688   2.502   1.402
18769SOL    HW157748   5.773   2.465   1.379
18769SOL    HW257749   5.634   2.489   1.324
18770SOL     OW57750   6.162   2.086   1.187
18770SOL    HW157751   6.201   2.015   1.238
18770SOL    HW257752   6.068   2.076   1.202
18771SOL     OW57753   6.465   2.327   0.629
18771SOL    HW157754   6.390   2.377   0.596
18771SOL    HW257755   6.466   2.247   0.576
18772SOL     OW57756   6.621   1.911   0.738
18772SOL    HW157757   6.549   1.917   0.676
18772SOL    HW257758   6.595   1.842   0.798
18773SOL     OW57759   7.021   3.028   0.858
18773SOL    HW157760   6.926   3.032   0.847
18773SOL    HW257761   7.056   3.031   0.769
18774SOL     OW57762   7.408   2.684   0.431
18774SOL    HW157763   7.457   2.603   0.445
18774SOL    HW257764   7.368   2.673   0.344
18775SOL     OW57765   6.074   3.259   0.197
18775SOL    HW157766   5.999   3.217   0.238
18775SOL    HW257767   6.039   3.297   0.116
18776SOL     OW57768   7.260   3.126   0.656
18776SOL    HW157769   7.354   3.123   0.674
18776SOL    HW257770   7.234   3.216   0.677
18777SOL     OW57771   6.991   2.416   0.083
18777SOL    HW157772   6.933   2.408   0.159
18777SOL    HW257773   7.077   2.391   0.116
18778SOL     OW57774   6.128   2.118   0.338
18778SOL    HW157775   6.129   2.048   0.272
18778SOL    HW257776   6.126   2.199   0.288
18779SOL     OW57777   7.336   3.099   1.596
18779SOL    HW157778   7.422   3.058   1.609
18779SOL    HW257779   7.352   3.193   1.602
18780SOL     OW57780   6.651   3.235   1.367
18780SOL    HW157781   6.569   3.191   1.391
18780SOL    HW257782   6.719   3.171   1.387
18781SOL     OW57783   7.197   3.490   1.664
18781SOL    HW157784   7.185   3.524   1.576
18781SOL    HW257785   7.277   3.438   1.659
18782SOL     OW57786   6.728   3.074   1.113
18782SOL    HW157787   6.640   3.104   1.136
18782SOL    HW257788   6.737   3.094   1.020
18783SOL     OW57789   7.186   2.950   1.066
18783SOL    HW157790   7.193   3.019   1.133
18783SOL    HW257791   7.135   2.990   0.996
18784SOL     OW57792   6.502   1.958   1.396
18784SOL    HW157793   6.524   1.934   1.306
18784SOL    HW257794   6.585   1.988   1.434
18785SOL     OW57795   6.555   2.970   1.697
18785SOL    HW157796   6.468   2.988   1.735
18785SOL    HW257797   6.543   2.984   1.603
18786SOL     OW57798   6.275   2.936   0.374
18786SOL    HW157799   6.268   2.910   0.466
18786SOL    HW257800   6.353   2.889   0.342
18787SOL     OW57801   5.971   2.676   1.277
18787SOL    HW157802   6.058   2.685   1.317
18787SOL    HW257803   5.955   2.581   1.274
18788SOL     OW57804   6.868   2.292   1.238
18788SOL    HW157805   6.889   2.343   1.317
18788SOL    HW257806   6.773   2.286   1.237
18789SOL     OW57807   5.671   3.440   1.362
18789SOL    HW157808   5.641   3.503   1.296
18789SOL    HW257809   5.766   3.434   1.348
18790SOL     OW57810   5.912   2.978   0.485
18790SOL    HW157811   5.900   3.052   0.426
18790SOL    HW257812   5.923   2.902   0.428
18791SOL     OW57813   6.165   2.433   0.888
18791SOL    HW157814   6.176   2.483   0.807
18791SOL    HW257815   6.221   2.477   0.951
18792SOL     OW57816   6.824   3.212   0.401
18792SOL    HW157817   6.880   3.282   0.435
18792SOL    HW257818   6.737   3.232   0.435
18793SOL     OW57819   6.875   3.334   1.150
18793SOL    HW157820   6.936   3.333   1.223
18793SOL    HW257821   6.819   3.258   1.164
18794SOL     OW57822   7.166   2.463   0.506
18794SOL    HW157823   7.121   2.524   0.565
18794SOL    HW257824   7.190   2.516   0.430
18795SOL     OW57825   5.939   3.391   1.309
18795SOL    HW157826   5.924   3.348   1.225
18795SOL    HW257827   6.035   3.400   1.313
18796SOL     OW57828   5.987   2.616   1.613
18796SOL    HW157829   6.051   2.654   1.552
18796SOL    HW257830   5.991   2.522   1.596
18797SOL     OW57831   7.196   2.649   1.688
18797SOL    HW157832   7.110   2.690   1.682
18797SOL    HW257833   7.248   2.691   1.620
18798SOL     OW57834   6.588   2.008   1.748
18798SOL    HW157835   6.659   2.061   1.713
18798SOL    HW257836   6.619   1.918   1.740
18799SOL     OW57837   6.092   1.884   1.732
18799SOL    HW157838   6.031   1.845   1.670
18799SOL    HW257839   6.040   1.899   1.811
18800SOL     OW57840   6.107   2.791   1.011
18800SOL    HW157841   6.181   2.847   0.986
18800SOL    HW257842   6.146   2.722   1.064
18801SOL     OW57843   6.929   2.617   1.014
18801SOL    HW157844   6.840   2.624   0.981
18801SOL    HW257845   6.940   2.695   1.069
18802SOL     OW57846   6.803   2.376   0.274
18802SOL    HW157847   6.805   2.303   0.336
18802SOL    HW257848   6.762   2.447   0.323
18803SOL     OW57849   5.905   2.019   1.275
18803SOL    HW157850   5.851   2.062   1.341
18803SOL    HW257851   5.869   2.049   1.191
18804SOL     OW57852   5.652   3.176   1.266
18804SOL    HW157853   5.676   3.115   1.336
18804SOL    HW257854   5.653   3.262   1.308
18805SOL     OW57855   7.323   2.829   1.865
18805SOL    HW157856   7.288   2.760   1.808
18805SOL    HW257857   7.256   2.841   1.932
18806SOL     OW57858   5.886   1.920   0.620
18806SOL    HW157859   5.864   2.011   0.639
18806SOL    HW257860   5.896   1.879   0.706
18807SOL     OW57861   7.203   2.229   0.369
18807SOL    HW157862   7.241   2.162   0.426
18807SOL    HW257863   7.179   2.300   0.428
18808SOL     OW57864   6.655   2.602   0.961
18808SOL    HW157865   6.618   2.641   1.040
18808SOL    HW257866   6.606   2.521   0.948
18809SOL     OW57867   6.566   3.419   1.727
18809SOL    HW157868   6.544   3.469   1.649
18809SOL    HW257869   6.618   3.346   1.695
18810SOL     OW57870   7.438   3.364   1.608
18810SOL    HW157871   7.458   3.384   1.517
18810SOL    HW257872   7.521   3.377   1.654
18811SOL     OW57873   5.954   2.784   1.828
18811SOL    HW157874   6.044   2.796   1.858
18811SOL    HW257875   5.961   2.723   1.754
18812SOL     OW57876   7.095   2.102   0.148
18812SOL    HW157877   7.003   2.110   0.173
18812SOL    HW257878   7.144   2.149   0.215
18813SOL     OW57879   6.884   2.672   0.047
18813SOL    HW157880   6.926   2.586   0.042
18813SOL    HW257881   6.947   2.732   0.006
18814SOL     OW57882   6.749   3.141   0.851
18814SOL    HW157883   6.696   3.089   0.790
18814SOL    HW257884   6.714   3.230   0.844
18815SOL     OW57885   5.872   2.671   0.945
18815SOL    HW157886   5.956   2.712   0.967
18815SOL    HW257887   5.882   2.579   0.970
18816SOL     OW57888   5.922   2.396   1.007
18816SOL    HW157889   5.901   2.303   0.997
18816SOL    HW257890   6.008   2.406   0.965
18817SOL     OW57891   6.734   2.257   1.667
18817SOL    HW157892   6.685   2.298   1.739
18817SOL    HW257893   6.824   2.289   1.679
18818SOL     OW57894   6.749   2.067   1.476
18818SOL    HW157895   6.740   2.140   1.537
18818SOL    HW257896   6.770   2.108   1.392
18819SOL     OW57897   5.679   3.646   0.944
18819SOL    HW157898   5.645   3.566   0.903
18819SOL    HW257899   5.768   3.654   0.911
18820SOL     OW57900   6.074   3.436   0.911
18820SOL    HW157901   6.152   3.485   0.939
18820SOL    HW257902   6.107   3.375   0.845
18821SOL     OW57903   6.589   2.631   1.232
18821SOL    HW157904   6.623   2.541   1.236
18821SOL    HW257905   6.501   2.621   1.195
18822SOL     OW57906   5.633   2.388   1.133
18822SOL    HW157907   5.700   2.405   1.066
18822SOL    HW257908   5.652   2.300   1.164
18823SOL     OW57909   5.744   2.403   1.700
18823SOL    HW157910   5.811   2.336   1.717
18823SOL    HW257911   5.666   2.353   1.677
18824SOL     OW57912   6.963   2.796   1.654
18824SOL    HW157913   6.991   2.887   1.652
18824SOL    HW257914   6.962   2.768   1.562
18825SOL     OW57915   7.202   2.417   1.152
18825SOL    HW157916   7.208   2.374   1.237
18825SOL    HW257917   7.293   2.425   1.122
18826SOL     OW57918   5.810   3.412   1.723
18826SOL    HW157919   5.804   3.478   1.791
18826SOL    HW257920   5.829   3.330   1.769
18827SOL     OW57921   6.324   2.305   1.265
18827SOL    HW157922   6.263   2.236   1.238
18827SOL    HW257923   6.303   2.379   1.208
18828SOL     OW57924   6.482   3.549   1.495
18828SOL    HW157925   6.477   3.501   1.412
18828SOL    HW257926   6.487   3.641   1.469
18829SOL     OW57927   6.099   2.332   0.183
18829SOL    HW157928   6.125   2.423   0.196
18829SOL    HW257929   6.009   2.337   0.150
18830SOL     OW57930   5.725   2.995   1.479
18830SOL    HW157931   5.730   2.936   1.555
18830SOL    HW257932   5.738   2.937   1.404
18831SOL     OW57933   6.914   2.880   1.187
18831SOL    HW157934   6.990   2.924   1.149
18831SOL    HW257935   6.840   2.936   1.166
18832SOL     OW57936   6.894   2.705   0.323
18832SOL    HW157937   6.820   2.668   0.371
18832SOL    HW257938   6.876   2.684   0.232
18833SOL     OW57939   7.387   3.659   1.170
18833SOL    HW157940   7.444   3.674   1.094
18833SOL    HW257941   7.349   3.573   1.154
18834SOL     OW57942   6.827   3.608   1.115
18834SOL    HW157943   6.911   3.627   1.073
18834SOL    HW257944   6.828   3.513   1.128
18835SOL     OW57945   5.654   3.150   0.997
18835SOL    HW157946   5.650   3.156   1.092
18835SOL    HW257947   5.597   3.076   0.975
18836SOL     OW57948   6.275   3.538   1.735
18836SOL    HW157949   6.214   3.611   1.725
18836SOL    HW257950   6.341   3.552   1.667
18837SOL     OW57951   6.491   1.915   0.077
18837SOL    HW157952   6.519   1.934  -0.013
18837SOL    HW257953   6.528   1.987   0.129
18838SOL     OW57954   7.321   2.021   0.512
18838SOL    HW157955   7.389   1.999   0.449
18838SOL    HW257956   7.295   1.937   0.550
18839SOL     OW57957   6.971   3.427   0.498
18839SOL    HW157958   7.029   3.466   0.433
18839SOL    HW257959   6.921   3.501   0.532
18840SOL     OW57960   5.723   3.648   1.866
18840SOL    HW157961   5.652   3.626   1.925
18840SOL    HW257962   5.785   3.697   1.920
18841SOL     OW57963   6.862   2.791   0.663
18841SOL    HW157964   6.938   2.732   0.657
18841SOL    HW257965   6.889   2.870   0.617
18842SOL     OW57966   6.390   3.137   1.427
18842SOL    HW157967   6.357   3.186   1.503
18842SOL    HW257968   6.332   3.161   1.356
18843SOL     OW57969   6.256   3.453   0.158
18843SOL    HW157970   6.239   3.461   0.064
18843SOL    HW257971   6.209   3.374   0.184
18844SOL     OW57972   7.203   3.590   1.403
18844SOL    HW157973   7.259   3.588   1.326
18844SOL    HW257974   7.188   3.683   1.419
18845SOL     OW57975   7.425   2.027   0.955
18845SOL    HW157976   7.451   1.937   0.936
18845SOL    HW257977   7.337   2.035   0.916
18846SOL     OW57978   5.838   2.181   0.690
18846SOL    HW157979   5.751   2.220   0.685
18846SOL    HW257980   5.849   2.161   0.783
18847SOL     OW57981   6.792   3.460   0.077
18847SOL    HW157982   6.797   3.367   0.099
18847SOL    HW257983   6.705   3.471   0.038
18848SOL     OW57984   6.423   2.871   1.369
18848SOL    HW157985   6.421   2.870   1.274
18848SOL    HW257986   6.407   2.963   1.393
18849SOL     OW57987   6.485   2.816   0.253
18849SOL    HW157988   6.574   2.824   0.219
18849SOL    HW257989   6.469   2.722   0.258
18850SOL     OW57990   7.046   3.453  12.473
18850SOL    HW157991   6.961   3.472  12.512
18850SOL    HW257992   7.098   3.531  12.491
18851SOL     OW57993   5.948   3.171   1.503
18851SOL    HW157994   5.950   3.236   1.432
18851SOL    HW257995   5.879   3.110   1.478
18852SOL     OW57996   7.184   3.116   1.281
18852SOL    HW157997   7.278   3.135   1.285
18852SOL    HW257998   7.142   3.199   1.301
18853SOL     OW57999   6.629   2.958   0.691
18853SOL    HW158000   6.560   2.915   0.741
18853SOL    HW258001   6.694   2.890   0.675
18854SOL     OW58002   6.616   2.093   0.968
18854SOL    HW158003   6.614   2.046   0.885
18854SOL    HW258004   6.599   2.026   1.034
18855SOL     OW58005   6.189   3.362   0.454
18855SOL    HW158006   6.192   3.300   0.380
18855SOL    HW258007   6.098   3.391   0.457
18856SOL     OW58008   7.247   2.221   1.361
18856SOL    HW158009   7.319   2.279   1.386
18856SOL    HW258010   7.287   2.154   1.307
18857SOL     OW58011   5.838   3.178   0.304
18857SOL    HW158012   5.752   3.196   0.266
18857SOL    HW258013   5.838   3.227   0.386
18858SOL     OW58014   5.709   2.829   1.709
18858SOL    HW158015   5.633   2.835   1.767
18858SOL    HW258016   5.784   2.822   1.767
18859SOL     OW58017   6.259   2.052   1.495
18859SOL    HW158018   6.345   2.031   1.459
18859SOL    HW258019   6.277   2.076   1.586
18860SOL     OW58020   7.006   2.718   1.392
18860SOL    HW158021   6.956   2.771   1.329
18860SOL    HW258022   7.096   2.724   1.362
18861SOL     OW58023   5.637   2.005   0.313
18861SOL    HW158024   5.633   2.091   0.273
18861SOL    HW258025   5.724   1.971   0.290
18862SOL     OW58026   6.776   3.191   0.129
18862SOL    HW158027   6.682   3.174   0.119
18862SOL    HW258028   6.792   3.186   0.223
18863SOL     OW58029   6.193   2.702   1.442
18863SOL    HW158030   6.240   2.770   1.393
18863SOL    HW258031   6.239   2.621   1.419
18864SOL     OW58032   7.079   3.642   1.008
18864SOL    HW158033   7.123   3.687   0.936
18864SOL    HW258034   7.131   3.563   1.023
18865SOL     OW58035   6.319   2.404   1.716
18865SOL    HW158036   6.360   2.438   1.796
18865SOL    HW258037   6.321   2.309   1.728
18866SOL     OW58038   7.062   3.052   1.633
18866SOL    HW158039   7.056   3.071   1.726
18866SOL    HW258040   7.153   3.071   1.610
18867SOL     OW58041   5.952   3.607   1.570
18867SOL    HW158042   5.869   3.652   1.554
18867SOL    HW258043   5.927   3.518   1.592
18868SOL     OW58044   7.243   2.747   1.248
18868SOL    HW158045   7.270   2.671   1.196
18868SOL    HW258046   7.233   2.817   1.184
18869SOL     OW58047   6.804   2.171   0.457
18869SOL    HW158048   6.868   2.100   0.450
18869SOL    HW258049   6.832   2.220   0.535
18870SOL     OW58050   6.184   2.592   0.659
18870SOL    HW158051   6.217   2.682   0.652
18870SOL    HW258052   6.110   2.588   0.598
18871SOL     OW58053   7.337   2.244   1.663
18871SOL    HW158054   7.393   2.290   1.600
18871SOL    HW258055   7.285   2.184   1.610
18872SOL     OW58056   7.320   2.806   1.507
18872SOL    HW158057   7.316   2.901   1.518
18872SOL    HW258058   7.306   2.793   1.413
18873SOL     OW58059   6.497   3.216   0.030
18873SOL    HW158060   6.449   3.196   0.111
18873SOL    HW258061   6.495   3.311   0.024
18874SOL     OW58062   6.254   3.645   0.951
18874SOL    HW158063   6.240   3.733   0.915
18874SOL    HW258064   6.347   3.628   0.936
18875SOL     OW58065   6.443   2.832   0.853
18875SOL    HW158066   6.451   2.746   0.893
18875SOL    HW258067   6.416   2.889   0.925
18876SOL     OW58068   6.680   2.847   0.052
18876SOL    HW158069   6.724   2.927   0.022
18876SOL    HW258070   6.750   2.782   0.060
18877SOL     OW58071   7.428   3.434   0.822
18877SOL    HW158072   7.353   3.412   0.765
18877SOL    HW258073   7.399   3.408   0.910
18878SOL     OW58074   5.811   3.165   1.863
18878SOL    HW158075   5.741   3.104   1.841
18878SOL    HW258076   5.811   3.168   1.959
18879SOL     OW58077   5.679   3.089   0.674
18879SOL    HW158078   5.714   3.046   0.752
18879SOL    HW258079   5.736   3.061   0.603
18880SOL     OW58080   6.276   3.270   1.639
18880SOL    HW158081   6.189   3.241   1.663
18880SOL    HW258082   6.279   3.362   1.666
18881SOL     OW58083   7.367   2.021   1.228
18881SOL    HW158084   7.385   1.927   1.231
18881SOL    HW258085   7.387   2.047   1.138
18882SOL     OW58086   6.009   2.302   0.512
18882SOL    HW158087   6.051   2.231   0.463
18882SOL    HW258088   5.958   2.258   0.579
18883SOL     OW58089   5.921   2.411   1.292
18883SOL    HW158090   5.973   2.349   1.344
18883SOL    HW258091   5.934   2.383   1.202
18884SOL     OW58092   6.405   3.419   0.687
18884SOL    HW158093   6.324   3.410   0.637
18884SOL    HW258094   6.394   3.360   0.762
18885SOL     OW58095   7.023   2.074   1.098
18885SOL    HW158096   7.037   1.980   1.114
18885SOL    HW258097   6.988   2.107   1.180
18886SOL     OW58098   6.585   1.880   1.142
18886SOL    HW158099   6.527   1.808   1.119
18886SOL    HW258100   6.673   1.843   1.137
18887SOL     OW58101   6.397   3.174   0.285
18887SOL    HW158102   6.349   3.098   0.317
18887SOL    HW258103   6.454   3.199   0.358
18888SOL     OW58104   6.210   3.423   1.292
18888SOL    HW158105   6.207   3.506   1.339
18888SOL    HW258106   6.299   3.418   1.258
18889SOL     OW58107   6.920   1.849   0.153
18889SOL    HW158108   6.991   1.873   0.093
18889SOL    HW258109   6.860   1.923   0.152
18890SOL     OW58110   6.887   2.318   0.676
18890SOL    HW158111   6.838   2.400   0.673
18890SOL    HW258112   6.871   2.283   0.764
18891SOL     OW58113   7.174   2.066   0.869
18891SOL    HW158114   7.119   2.071   0.947
18891SOL    HW258115   7.166   2.153   0.829
18892SOL     OW58116   5.626   2.938   0.338
18892SOL    HW158117   5.717   2.938   0.306
18892SOL    HW258118   5.611   2.848   0.366
18893SOL     OW58119   6.469   3.530   0.339
18893SOL    HW158120   6.385   3.490   0.317
18893SOL    HW258121   6.447   3.595   0.406
18894SOL     OW58122   5.805   2.492   1.985
18894SOL    HW158123   5.724   2.473   2.031
18894SOL    HW258124   5.786   2.470   1.893
18895SOL     OW58125   5.813   2.148   2.849
18895SOL    HW158126   5.843   2.113   2.933
18895SOL    HW258127   5.722   2.118   2.842
18896SOL     OW58128   5.583   2.254   2.499
18896SOL    HW158129   5.504   2.278   2.547
18896SOL    HW258130   5.558   2.176   2.450
18897SOL     OW58131   6.080   3.161   3.023
18897SOL    HW158132   6.055   3.114   3.103
18897SOL    HW258133   6.128   3.238   3.055
18898SOL     OW58134   6.750   2.542   2.563
18898SOL    HW158135   6.780   2.630   2.540
18898SOL    HW258136   6.690   2.556   2.637
18899SOL     OW58137   7.337   2.460   2.103
18899SOL    HW158138   7.318   2.466   2.009
18899SOL    HW258139   7.319   2.369   2.126
18900SOL     OW58140   6.297   3.007   2.889
18900SOL    HW158141   6.223   3.047   2.934
18900SOL    HW258142   6.357   3.080   2.872
18901SOL     OW58143   6.469   2.621   3.686
18901SOL    HW158144   6.484   2.687   3.753
18901SOL    HW258145   6.487   2.666   3.603
18902SOL     OW58146   6.291   2.882   2.503
18902SOL    HW158147   6.348   2.870   2.579
18902SOL    HW258148   6.216   2.931   2.538
18903SOL     OW58149   6.295   3.014   3.678
18903SOL    HW158150   6.323   3.093   3.726
18903SOL    HW258151   6.209   3.037   3.643
18904SOL     OW58152   7.052   3.347   3.225
18904SOL    HW158153   7.074   3.438   3.246
18904SOL    HW258154   6.983   3.324   3.288
18905SOL     OW58155   6.018   2.248   3.337
18905SOL    HW158156   6.109   2.217   3.338
18905SOL    HW258157   5.975   2.199   3.407
18906SOL     OW58158   7.139   2.326   2.587
18906SOL    HW158159   7.161   2.367   2.503
18906SOL    HW258160   7.224   2.310   2.629
18907SOL     OW58161   5.807   3.585   2.322
18907SOL    HW158162   5.826   3.658   2.381
18907SOL    HW258163   5.889   3.572   2.273
18908SOL     OW58164   6.710   3.219   3.566
18908SOL    HW158165   6.790   3.199   3.615
18908SOL    HW258166   6.661   3.136   3.565
18909SOL     OW58167   5.808   3.296   2.390
18909SOL    HW158168   5.788   3.385   2.418
18909SOL    HW258169   5.767   3.240   2.456
18910SOL     OW58170   5.871   2.959   2.791
18910SOL    HW158171   5.886   2.866   2.805
18910SOL    HW258172   5.777   2.971   2.804
18911SOL     OW58173   6.197   3.636   3.336
18911SOL    HW158174   6.105   3.625   3.360
18911SOL    HW258175   6.212   3.730   3.338
18912SOL     OW58176   6.194   2.826   1.964
18912SOL    HW158177   6.226   2.899   1.912
18912SOL    HW258178   6.271   2.796   2.013
18913SOL     OW58179   7.176   1.987   3.330
18913SOL    HW158180   7.211   2.066   3.290
18913SOL    HW258181   7.144   2.015   3.416
18914SOL     OW58182   5.705   2.513   2.422
18914SOL    HW158183   5.666   2.427   2.442
18914SOL    HW258184   5.697   2.563   2.503
18915SOL     OW58185   7.441   3.613   2.180
18915SOL    HW158186   7.511   3.589   2.240
18915SOL    HW258187   7.455   3.706   2.163
18916SOL     OW58188   7.250   2.753   2.492
18916SOL    HW158189   7.342   2.725   2.490
18916SOL    HW258190   7.244   2.817   2.422
18917SOL     OW58191   7.238   2.966   2.301
18917SOL    HW158192   7.323   2.968   2.258
18917SOL    HW258193   7.245   3.031   2.372
18918SOL     OW58194   5.735   2.557   3.519
18918SOL    HW158195   5.822   2.590   3.498
18918SOL    HW258196   5.676   2.628   3.497
18919SOL     OW58197   6.198   3.258   2.597
18919SOL    HW158198   6.160   3.171   2.600
18919SOL    HW258199   6.183   3.288   2.507
18920SOL     OW58200   6.873   3.121   3.268
18920SOL    HW158201   6.883   3.051   3.203
18920SOL    HW258202   6.939   3.101   3.334
18921SOL     OW58203   6.405   1.876   2.376
18921SOL    HW158204   6.436   1.964   2.354
18921SOL    HW258205   6.310   1.886   2.382
18922SOL     OW58206   5.786   2.849   3.123
18922SOL    HW158207   5.859   2.788   3.109
18922SOL    HW258208   5.708   2.793   3.116
18923SOL     OW58209   7.115   2.866   2.068
18923SOL    HW158210   7.048   2.807   2.102
18923SOL    HW258211   7.161   2.897   2.146
18924SOL     OW58212   6.753   3.672   3.475
18924SOL    HW158213   6.774   3.734   3.406
18924SOL    HW258214   6.786   3.588   3.443
18925SOL     OW58215   5.919   2.189   3.631
18925SOL    HW158216   5.992   2.223   3.683
18925SOL    HW258217   5.848   2.176   3.694
18926SOL     OW58218   7.076   3.229   2.884
18926SOL    HW158219   6.992   3.262   2.916
18926SOL    HW258220   7.087   3.269   2.798
18927SOL     OW58221   7.212   3.648   2.427
18927SOL    HW158222   7.205   3.597   2.346
18927SOL    HW258223   7.200   3.583   2.497
18928SOL     OW58224   6.163   2.633   2.177
18928SOL    HW158225   6.127   2.685   2.105
18928SOL    HW258226   6.087   2.607   2.228
18929SOL     OW58227   6.854   2.212   2.770
18929SOL    HW158228   6.766   2.177   2.778
18929SOL    HW258229   6.906   2.162   2.832
18930SOL     OW58230   7.169   3.546   2.169
18930SOL    HW158231   7.263   3.559   2.160
18930SOL    HW258232   7.139   3.526   2.080
18931SOL     OW58233   6.380   2.472   3.319
18931SOL    HW158234   6.351   2.443   3.405
18931SOL    HW258235   6.342   2.410   3.258
18932SOL     OW58236   6.987   2.338   3.541
18932SOL    HW158237   6.989   2.374   3.629
18932SOL    HW258238   7.027   2.251   3.549
18933SOL     OW58239   6.543   2.760   3.446
18933SOL    HW158240   6.593   2.683   3.420
18933SOL    HW258241   6.491   2.783   3.369
18934SOL     OW58242   6.577   2.259   3.102
18934SOL    HW158243   6.496   2.302   3.129
18934SOL    HW258244   6.559   2.165   3.112
18935SOL     OW58245   6.632   2.559   2.295
18935SOL    HW158246   6.656   2.537   2.385
18935SOL    HW258247   6.555   2.506   2.277
18936SOL     OW58248   5.689   2.684   2.631
18936SOL    HW158249   5.765   2.679   2.690
18936SOL    HW258250   5.631   2.747   2.673
18937SOL     OW58251   5.710   3.728   3.454
18937SOL    HW158252   5.708   3.703   3.546
18937SOL    HW258253   5.621   3.712   3.423
18938SOL     OW58254   6.450   2.212   2.059
18938SOL    HW158255   6.503   2.236   1.983
18938SOL    HW258256   6.391   2.143   2.027
18939SOL     OW58257   7.330   2.448   3.680
18939SOL    HW158258   7.275   2.515   3.639
18939SOL    HW258259   7.321   2.371   3.623
18940SOL     OW58260   6.963   2.999   2.391
18940SOL    HW158261   7.049   2.996   2.347
18940SOL    HW258262   6.915   3.066   2.343
18941SOL     OW58263   6.134   2.039   2.771
18941SOL    HW158264   6.146   2.060   2.864
18941SOL    HW258265   6.124   2.124   2.728
18942SOL     OW58266   6.578   3.301   2.330
18942SOL    HW158267   6.558   3.385   2.287
18942SOL    HW258268   6.569   3.319   2.423
18943SOL     OW58269   5.942   3.662   2.720
18943SOL    HW158270   5.976   3.574   2.737
18943SOL    HW258271   6.010   3.721   2.753
18944SOL     OW58272   7.372   2.931   2.747
18944SOL    HW158273   7.322   2.943   2.666
18944SOL    HW258274   7.305   2.921   2.815
18945SOL     OW58275   6.805   3.413   3.387
18945SOL    HW158276   6.805   3.346   3.456
18945SOL    HW258277   6.750   3.376   3.318
18946SOL     OW58278   5.895   2.806   2.107
18946SOL    HW158279   5.931   2.822   2.020
18946SOL    HW258280   5.856   2.719   2.100
18947SOL     OW58281   7.055   2.616   2.619
18947SOL    HW158282   7.087   2.601   2.707
18947SOL    HW258283   7.123   2.667   2.576
18948SOL     OW58284   6.059   3.129   3.585
18948SOL    HW158285   6.035   3.108   3.495
18948SOL    HW258286   5.977   3.125   3.633
18949SOL     OW58287   6.709   3.648   2.087
18949SOL    HW158288   6.638   3.605   2.134
18949SOL    HW258289   6.738   3.583   2.022
18950SOL     OW58290   5.741   2.112   3.369
18950SOL    HW158291   5.675   2.107   3.300
18950SOL    HW258292   5.745   2.023   3.405
18951SOL     OW58293   7.225   3.253   1.962
18951SOL    HW158294   7.180   3.336   1.942
18951SOL    HW258295   7.162   3.185   1.937
18952SOL     OW58296   6.053   3.595   2.182
18952SOL    HW158297   6.100   3.652   2.244
18952SOL    HW258298   6.121   3.563   2.123
18953SOL     OW58299   6.995   1.968   2.296
18953SOL    HW158300   6.994   1.914   2.217
18953SOL    HW258301   7.085   1.961   2.329
18954SOL     OW58302   5.850   3.667   3.069
18954SOL    HW158303   5.888   3.582   3.092
18954SOL    HW258304   5.779   3.646   3.009
18955SOL     OW58305   6.532   3.560   2.756
18955SOL    HW158306   6.610   3.509   2.778
18955SOL    HW258307   6.490   3.511   2.686
18956SOL     OW58308   5.965   2.545   2.335
18956SOL    HW158309   5.988   2.453   2.352
18956SOL    HW258310   5.872   2.550   2.356
18957SOL     OW58311   7.093   2.079   3.589
18957SOL    HW158312   7.106   2.103   3.681
18957SOL    HW258313   7.032   2.005   3.592
18958SOL     OW58314   6.271   1.985   1.969
18958SOL    HW158315   6.302   1.896   1.987
18958SOL    HW258316   6.176   1.977   1.966
18959SOL     OW58317   6.349   2.150   3.630
18959SOL    HW158318   6.432   2.104   3.618
18959SOL    HW258319   6.306   2.104   3.702
18960SOL     OW58320   6.467   3.390   3.058
18960SOL    HW158321   6.453   3.349   2.972
18960SOL    HW258322   6.535   3.337   3.099
18961SOL     OW58323   6.927   2.446   3.294
18961SOL    HW158324   6.955   2.410   3.379
18961SOL    HW258325   6.966   2.533   3.291
18962SOL     OW58326   6.402   3.259   2.812
18962SOL    HW158327   6.487   3.246   2.769
18962SOL    HW258328   6.339   3.263   2.739
18963SOL     OW58329   6.523   2.354   2.769
18963SOL    HW158330   6.504   2.342   2.676
18963SOL    HW258331   6.546   2.267   2.800
18964SOL     OW58332   6.138   1.927   2.358
18964SOL    HW158333   6.058   1.925   2.411
18964SOL    HW258334   6.127   2.003   2.301
18965SOL     OW58335   7.023   3.071   1.906
18965SOL    HW158336   7.051   2.995   1.957
18965SOL    HW258337   6.937   3.094   1.942
18966SOL     OW58338   6.523   2.121   2.308
18966SOL    HW158339   6.488   2.150   2.224
18966SOL    HW258340   6.614   2.099   2.290
18967SOL     OW58341   6.662   2.540   3.359
18967SOL    HW158342   6.583   2.490   3.336
18967SOL    HW258343   6.734   2.482   3.333
18968SOL     OW58344   6.825   3.428   2.641
18968SOL    HW158345   6.824   3.505   2.584
18968SOL    HW258346   6.919   3.409   2.652
18969SOL     OW58347   6.058   3.020   2.589
18969SOL    HW158348   5.998   2.986   2.655
18969SOL    HW258349   6.016   3.000   2.505
18970SOL     OW58350   6.840   3.658   2.480
18970SOL    HW158351   6.888   3.714   2.419
18970SOL    HW258352   6.765   3.710   2.508
18971SOL     OW58353   6.619   2.394   1.881
18971SOL    HW158354   6.575   2.478   1.870
18971SOL    HW258355   6.674   2.405   1.958
18972SOL     OW58356   5.673   2.405   3.280
18972SOL    HW158357   5.755   2.406   3.230
18972SOL    HW258358   5.629   2.486   3.257
18973SOL     OW58359   6.152   2.080   3.044
18973SOL    HW158360   6.196   2.013   3.097
18973SOL    HW258361   6.060   2.075   3.070
18974SOL     OW58362   6.467   2.324   2.496
18974SOL    HW158363   6.395   2.362   2.445
18974SOL    HW258364   6.490   2.244   2.449
18975SOL     OW58365   6.607   1.892   2.583
18975SOL    HW158366   6.537   1.881   2.518
18975SOL    HW258367   6.587   1.828   2.651
18976SOL     OW58368   7.058   2.974   2.704
18976SOL    HW158369   6.964   2.964   2.690
18976SOL    HW258370   7.087   3.027   2.631
18977SOL     OW58371   7.013   2.434   2.869
18977SOL    HW158372   6.963   2.361   2.907
18977SOL    HW258373   7.092   2.439   2.923
18978SOL     OW58374   7.428   2.672   2.249
18978SOL    HW158375   7.486   2.621   2.306
18978SOL    HW258376   7.397   2.610   2.184
18979SOL     OW58377   6.079   3.282   2.008
18979SOL    HW158378   6.001   3.252   2.055
18979SOL    HW258379   6.079   3.231   1.927
18980SOL     OW58380   7.260   3.129   2.520
18980SOL    HW158381   7.355   3.139   2.528
18980SOL    HW258382   7.225   3.215   2.545
18981SOL     OW58383   6.972   2.451   1.937
18981SOL    HW158384   6.916   2.420   2.009
18981SOL    HW258385   7.061   2.429   1.966
18982SOL     OW58386   6.088   2.137   2.189
18982SOL    HW158387   6.042   2.074   2.134
18982SOL    HW258388   6.091   2.217   2.136
18983SOL     OW58389   7.353   3.109   3.415
18983SOL    HW158390   7.437   3.063   3.415
18983SOL    HW258391   7.375   3.199   3.436
18984SOL     OW58392   6.636   3.258   3.235
18984SOL    HW158393   6.561   3.205   3.260
18984SOL    HW258394   6.710   3.198   3.238
18985SOL     OW58395   7.196   3.500   3.528
18985SOL    HW158396   7.210   3.529   3.438
18985SOL    HW258397   7.231   3.410   3.530
18986SOL     OW58398   6.686   3.128   2.959
18986SOL    HW158399   6.664   3.037   2.978
18986SOL    HW258400   6.668   3.138   2.865
18987SOL     OW58401   7.182   2.935   2.957
18987SOL    HW158402   7.190   3.009   3.017
18987SOL    HW258403   7.130   2.970   2.884
18988SOL     OW58404   6.481   2.022   3.243
18988SOL    HW158405   6.464   1.931   3.269
18988SOL    HW258406   6.571   2.038   3.273
18989SOL     OW58407   6.556   2.993   3.579
18989SOL    HW158408   6.467   2.992   3.614
18989SOL    HW258409   6.561   2.914   3.526
18990SOL     OW58410   6.012   2.680   3.110
18990SOL    HW158411   6.077   2.685   3.179
18990SOL    HW258412   5.971   2.595   3.121
18991SOL     OW58413   6.854   2.262   3.109
18991SOL    HW158414   6.876   2.327   3.175
18991SOL    HW258415   6.758   2.265   3.104
18992SOL     OW58416   5.653   3.452   3.229
18992SOL    HW158417   5.597   3.502   3.169
18992SOL    HW258418   5.742   3.475   3.202
18993SOL     OW58419   5.949   2.967   2.341
18993SOL    HW158420   5.933   3.045   2.287
18993SOL    HW258421   5.937   2.894   2.281
18994SOL     OW58422   6.124   2.391   2.715
18994SOL    HW158423   6.166   2.400   2.630
18994SOL    HW258424   6.191   2.418   2.778
18995SOL     OW58425   6.823   3.201   2.248
18995SOL    HW158426   6.875   3.280   2.264
18995SOL    HW258427   6.737   3.221   2.286
18996SOL     OW58428   6.853   3.337   3.014
18996SOL    HW158429   6.903   3.314   3.092
18996SOL    HW258430   6.789   3.265   3.005
18997SOL     OW58431   7.176   2.469   2.352
18997SOL    HW158432   7.140   2.553   2.382
18997SOL    HW258433   7.234   2.493   2.280
18998SOL     OW58434   5.927   3.411   3.136
18998SOL    HW158435   5.897   3.325   3.166
18998SOL    HW258436   6.022   3.409   3.146
18999SOL     OW58437   6.022   2.593   3.480
18999SOL    HW158438   6.078   2.633   3.413
18999SOL    HW258439   6.069   2.514   3.506
19000SOL     OW58440   7.202   2.653   3.542
19000SOL    HW158441   7.112   2.686   3.548
19000SOL    HW258442   7.232   2.680   3.455
19001SOL     OW58443   6.577   2.005   3.620
19001SOL    HW158444   6.654   2.056   3.595
19001SOL    HW258445   6.602   1.914   3.602
19002SOL     OW58446   6.079   1.911   3.609
19002SOL    HW158447   6.036   1.846   3.553
19002SOL    HW258448   6.026   1.990   3.600
19003SOL     OW58449   6.156   2.752   2.883
19003SOL    HW158450   6.213   2.827   2.899
19003SOL    HW258451   6.118   2.732   2.969
19004SOL     OW58452   6.957   2.696   2.923
19004SOL    HW158453   6.864   2.721   2.925
19004SOL    HW258454   6.955   2.602   2.903
19005SOL     OW58455   6.780   2.390   2.126
19005SOL    HW158456   6.795   2.312   2.181
19005SOL    HW258457   6.738   2.453   2.185
19006SOL     OW58458   5.883   2.057   3.104
19006SOL    HW158459   5.866   2.099   3.189
19006SOL    HW258460   5.856   1.966   3.116
19007SOL     OW58461   5.717   3.195   3.139
19007SOL    HW158462   5.706   3.123   3.201
19007SOL    HW258463   5.665   3.267   3.175
19008SOL     OW58464   6.308   2.473   2.892
19008SOL    HW158465   6.392   2.438   2.862
19008SOL    HW258466   6.327   2.565   2.913
19009SOL     OW58467   7.334   2.822   3.716
19009SOL    HW158468   7.290   2.755   3.663
19009SOL    HW258469   7.278   2.831   3.794
19010SOL     OW58470   5.898   1.925   2.494
19010SOL    HW158471   5.873   2.015   2.513
19010SOL    HW258472   5.907   1.883   2.580
19011SOL     OW58473   7.204   2.230   2.198
19011SOL    HW158474   7.235   2.156   2.251
19011SOL    HW258475   7.174   2.294   2.261
19012SOL     OW58476   6.623   2.610   2.792
19012SOL    HW158477   6.625   2.660   2.874
19012SOL    HW258478   6.591   2.523   2.818
19013SOL     OW58479   6.552   3.437   3.552
19013SOL    HW158480   6.597   3.478   3.478
19013SOL    HW258481   6.599   3.354   3.564
19014SOL     OW58482   7.462   3.382   3.433
19014SOL    HW158483   7.438   3.472   3.455
19014SOL    HW258484   7.541   3.365   3.484
19015SOL     OW58485   5.948   2.798   3.650
19015SOL    HW158486   6.010   2.797   3.723
19015SOL    HW258487   5.974   2.724   3.596
19016SOL     OW58488   7.103   2.095   1.954
19016SOL    HW158489   7.039   2.043   2.002
19016SOL    HW258490   7.148   2.146   2.021
19017SOL     OW58491   6.859   2.697   1.891
19017SOL    HW158492   6.900   2.611   1.897
19017SOL    HW258493   6.894   2.735   1.811
19018SOL     OW58494   6.641   3.216   2.693
19018SOL    HW158495   6.654   3.139   2.638
19018SOL    HW258496   6.713   3.275   2.668
19019SOL     OW58497   5.907   2.677   2.798
19019SOL    HW158498   5.998   2.695   2.821
19019SOL    HW258499   5.891   2.589   2.831
19020SOL     OW58500   5.903   2.400   2.868
19020SOL    HW158501   5.867   2.312   2.859
19020SOL    HW258502   5.981   2.400   2.812
19021SOL     OW58503   6.726   2.243   3.536
19021SOL    HW158504   6.675   2.287   3.604
19021SOL    HW258505   6.813   2.283   3.542
19022SOL     OW58506   6.736   2.075   3.320
19022SOL    HW158507   6.731   2.131   3.398
19022SOL    HW258508   6.801   2.118   3.264
19023SOL     OW58509   5.567   3.161   2.077
19023SOL    HW158510   5.500   3.147   2.011
19023SOL    HW258511   5.586   3.073   2.110
19024SOL     OW58512   5.674   3.652   2.792
19024SOL    HW158513   5.635   3.571   2.758
19024SOL    HW258514   5.764   3.650   2.762
19025SOL     OW58515   6.057   3.399   2.788
19025SOL    HW158516   6.118   3.464   2.822
19025SOL    HW258517   6.105   3.355   2.718
19026SOL     OW58518   5.630   2.401   2.981
19026SOL    HW158519   5.715   2.411   2.939
19026SOL    HW258520   5.616   2.484   3.027
19027SOL     OW58521   6.966   2.799   3.535
19027SOL    HW158522   6.984   2.890   3.561
19027SOL    HW258523   6.881   2.803   3.490
19028SOL     OW58524   6.397   2.441   2.216
19028SOL    HW158525   6.417   2.361   2.167
19028SOL    HW258526   6.310   2.467   2.185
19029SOL     OW58527   7.219   2.492   3.044
19029SOL    HW158528   7.210   2.431   3.118
19029SOL    HW258529   7.306   2.473   3.008
19030SOL     OW58530   5.827   3.405   3.586
19030SOL    HW158531   5.800   3.474   3.647
19030SOL    HW258532   5.830   3.326   3.640
19031SOL     OW58533   6.281   2.321   3.119
19031SOL    HW158534   6.238   2.236   3.103
19031SOL    HW258535   6.273   2.367   3.036
19032SOL     OW58536   6.488   3.552   3.297
19032SOL    HW158537   6.501   3.504   3.215
19032SOL    HW258538   6.501   3.643   3.273
19033SOL     OW58539   6.060   2.376   2.054
19033SOL    HW158540   6.093   2.462   2.081
19033SOL    HW258541   5.970   2.392   2.026
19034SOL     OW58542   5.749   3.003   3.343
19034SOL    HW158543   5.733   2.955   3.424
19034SOL    HW258544   5.755   2.936   3.276
19035SOL     OW58545   6.904   2.912   3.101
19035SOL    HW158546   6.944   2.894   3.016
19035SOL    HW258547   6.811   2.892   3.088
19036SOL     OW58548   6.906   2.713   2.166
19036SOL    HW158549   6.830   2.687   2.217
19036SOL    HW258550   6.878   2.703   2.075
19037SOL     OW58551   7.392   3.587   3.026
19037SOL    HW158552   7.441   3.618   2.950
19037SOL    HW258553   7.353   3.504   2.998
19038SOL     OW58554   6.827   3.608   2.978
19038SOL    HW158555   6.908   3.627   2.930
19038SOL    HW258556   6.828   3.514   2.992
19039SOL     OW58557   5.671   3.142   2.881
19039SOL    HW158558   5.668   3.155   2.975
19039SOL    HW258559   5.583   3.112   2.858
19040SOL     OW58560   7.303   2.025   2.354
19040SOL    HW158561   7.376   2.006   2.296
19040SOL    HW258562   7.288   1.943   2.402
19041SOL     OW58563   6.943   3.437   2.297
19041SOL    HW158564   7.023   3.471   2.256
19041SOL    HW258565   6.926   3.497   2.369
19042SOL     OW58566   5.729   3.636   3.718
19042SOL    HW158567   5.649   3.628   3.769
19042SOL    HW258568   5.788   3.687   3.773
19043SOL     OW58569   6.856   2.790   2.522
19043SOL    HW158570   6.932   2.744   2.558
19043SOL    HW258571   6.893   2.860   2.468
19044SOL     OW58572   6.394   3.145   3.305
19044SOL    HW158573   6.381   3.173   3.396
19044SOL    HW258574   6.309   3.156   3.264
19045SOL     OW58575   6.255   3.492   2.015
19045SOL    HW158576   6.272   3.507   1.922
19045SOL    HW258577   6.202   3.413   2.017
19046SOL     OW58578   7.261   3.592   3.271
19046SOL    HW158579   7.281   3.596   3.177
19046SOL    HW258580   7.231   3.680   3.293
19047SOL     OW58581   7.444   2.047   2.721
19047SOL    HW158582   7.474   1.962   2.753
19047SOL    HW258583   7.352   2.050   2.744
19048SOL     OW58584   5.843   2.182   2.573
19048SOL    HW158585   5.755   2.213   2.550
19048SOL    HW258586   5.841   2.174   2.669
19049SOL     OW58587   6.796   3.466   1.899
19049SOL    HW158588   6.786   3.373   1.922
19049SOL    HW258589   6.734   3.480   1.828
19050SOL     OW58590   6.408   2.869   3.226
19050SOL    HW158591   6.469   2.849   3.156
19050SOL    HW258592   6.422   2.962   3.246
19051SOL     OW58593   6.485   2.768   2.176
19051SOL    HW158594   6.527   2.809   2.100
19051SOL    HW258595   6.548   2.703   2.206
19052SOL     OW58596   7.075   3.500   1.910
19052SOL    HW158597   6.982   3.486   1.894
19052SOL    HW258598   7.114   3.501   1.822
19053SOL     OW58599   5.953   3.181   3.327
19053SOL    HW158600   5.914   3.249   3.382
19053SOL    HW258601   5.887   3.113   3.323
19054SOL     OW58602   7.220   3.131   3.160
19054SOL    HW158603   7.248   3.111   3.249
19054SOL    HW258604   7.147   3.192   3.171
19055SOL     OW58605   6.649   2.972   2.571
19055SOL    HW158606   6.580   2.924   2.617
19055SOL    HW258607   6.714   2.906   2.549
19056SOL     OW58608   6.612   2.089   2.793
19056SOL    HW158609   6.604   2.029   2.719
19056SOL    HW258610   6.607   2.033   2.870
19057SOL     OW58611   6.185   3.357   2.344
19057SOL    HW158612   6.240   3.308   2.282
19057SOL    HW258613   6.115   3.393   2.290
19058SOL     OW58614   7.289   2.308   3.252
19058SOL    HW158615   7.362   2.368   3.264
19058SOL    HW258616   7.323   2.238   3.197
19059SOL     OW58617   5.838   3.200   2.142
19059SOL    HW158618   5.744   3.181   2.132
19059SOL    HW258619   5.845   3.241   2.228
19060SOL     OW58620   5.702   2.927   3.614
19060SOL    HW158621   5.624   2.888   3.654
19060SOL    HW258622   5.774   2.869   3.639
19061SOL     OW58623   6.258   2.126   3.369
19061SOL    HW158624   6.331   2.089   3.320
19061SOL    HW258625   6.287   2.127   3.460
19062SOL     OW58626   5.625   2.197   1.945
19062SOL    HW158627   5.557   2.182   1.879
19062SOL    HW258628   5.705   2.207   1.895
19063SOL     OW58629   7.033   2.717   3.248
19063SOL    HW158630   6.962   2.776   3.222
19063SOL    HW258631   7.076   2.762   3.321
19064SOL     OW58632   5.654   2.015   2.156
19064SOL    HW158633   5.632   2.087   2.097
19064SOL    HW258634   5.745   1.994   2.133
19065SOL     OW58635   6.764   3.193   1.979
19065SOL    HW158636   6.669   3.180   1.980
19065SOL    HW258637   6.789   3.193   2.072
19066SOL     OW58638   6.212   2.688   3.294
19066SOL    HW158639   6.271   2.760   3.273
19066SOL    HW258640   6.269   2.612   3.303
19067SOL     OW58641   7.066   3.663   2.849
19067SOL    HW158642   7.070   3.677   2.754
19067SOL    HW258643   7.109   3.578   2.863
19068SOL     OW58644   6.290   2.420   3.571
19068SOL    HW158645   6.345   2.475   3.627
19068SOL    HW258646   6.312   2.330   3.597
19069SOL     OW58647   7.080   3.064   3.440
19069SOL    HW158648   7.044   3.096   3.523
19069SOL    HW258649   7.175   3.076   3.448
19070SOL     OW58650   5.949   3.598   3.432
19070SOL    HW158651   5.869   3.649   3.417
19070SOL    HW258652   5.919   3.520   3.479
19071SOL     OW58653   6.818   2.179   2.311
19071SOL    HW158654   6.885   2.112   2.294
19071SOL    HW258655   6.789   2.162   2.400
19072SOL     OW58656   6.189   2.601   2.493
19072SOL    HW158657   6.168   2.634   2.580
19072SOL    HW258658   6.105   2.571   2.458
19073SOL     OW58659   7.319   2.233   3.522
19073SOL    HW158660   7.310   2.248   3.428
19073SOL    HW258661   7.254   2.165   3.541
19074SOL     OW58662   7.304   2.806   3.325
19074SOL    HW158663   7.305   2.892   3.366
19074SOL    HW258664   7.394   2.774   3.335
19075SOL     OW58665   6.464   3.232   1.911
19075SOL    HW158666   6.420   3.277   1.984
19075SOL    HW258667   6.484   3.302   1.849
19076SOL     OW58668   6.236   3.623   2.803
19076SOL    HW158669   6.222   3.716   2.783
19076SOL    HW258670   6.330   3.611   2.793
19077SOL     OW58671   6.457   2.834   2.714
19077SOL    HW158672   6.513   2.765   2.749
19077SOL    HW258673   6.423   2.878   2.792
19078SOL     OW58674   6.626   2.836   1.938
19078SOL    HW158675   6.620   2.895   1.863
19078SOL    HW258676   6.711   2.794   1.928
19079SOL     OW58677   7.451   3.412   2.715
19079SOL    HW158678   7.360   3.418   2.685
19079SOL    HW258679   7.456   3.327   2.760
19080SOL     OW58680   5.819   3.157   3.713
19080SOL    HW158681   5.768   3.083   3.680
19080SOL    HW258682   5.805   3.156   3.807
19081SOL     OW58683   5.702   3.089   2.542
19081SOL    HW158684   5.653   3.042   2.610
19081SOL    HW258685   5.739   3.020   2.487
19082SOL     OW58686   6.267   3.303   3.533
19082SOL    HW158687   6.187   3.252   3.542
19082SOL    HW258688   6.316   3.284   3.613
19083SOL     OW58689   6.036   2.297   2.407
19083SOL    HW158690   6.053   2.233   2.338
19083SOL    HW258691   5.974   2.254   2.465
19084SOL     OW58692   7.303   3.336   2.995
19084SOL    HW158693   7.230   3.316   2.937
19084SOL    HW258694   7.298   3.271   3.064
19085SOL     OW58695   5.920   2.425   3.154
19085SOL    HW158696   5.966   2.364   3.212
19085SOL    HW258697   5.932   2.389   3.067
19086SOL     OW58698   6.411   3.448   2.540
19086SOL    HW158699   6.388   3.501   2.464
19086SOL    HW258700   6.340   3.384   2.548
19087SOL     OW58701   7.014   2.098   2.965
19087SOL    HW158702   7.039   2.017   3.010
19087SOL    HW258703   6.962   2.146   3.029
19088SOL     OW58704   6.615   1.894   2.983
19088SOL    HW158705   6.560   1.853   3.050
19088SOL    HW258706   6.683   1.829   2.965
19089SOL     OW58707   6.360   3.215   2.187
19089SOL    HW158708   6.362   3.122   2.166
19089SOL    HW258709   6.441   3.230   2.236
19090SOL     OW58710   6.206   3.407   3.151
19090SOL    HW158711   6.207   3.488   3.202
19090SOL    HW258712   6.294   3.401   3.115
19091SOL     OW58713   6.937   1.884   2.010
19091SOL    HW158714   6.978   1.797   2.013
19091SOL    HW258715   6.847   1.868   2.038
19092SOL     OW58716   7.172   2.070   2.743
19092SOL    HW158717   7.125   2.077   2.826
19092SOL    HW258718   7.123   2.126   2.683
19093SOL     OW58719   5.646   2.922   2.170
19093SOL    HW158720   5.737   2.901   2.149
19093SOL    HW258721   5.607   2.839   2.197
19094SOL     OW58722   6.476   3.528   2.206
19094SOL    HW158723   6.403   3.514   2.146
19094SOL    HW258724   6.450   3.603   2.259
19095SOL     OW58725   5.788   2.521   3.885
19095SOL    HW158726   5.698   2.510   3.918
19095SOL    HW258727   5.797   2.454   3.818
19096SOL     OW58728   5.568   2.250   4.353
19096SOL    HW158729   5.496   2.278   4.409
19096SOL    HW258730   5.539   2.167   4.317
19097SOL     OW58731   6.159   3.166   4.915
19097SOL    HW158732   6.072   3.164   4.875
19097SOL    HW258733   6.170   3.256   4.945
19098SOL     OW58734   7.157   3.376   4.446
19098SOL    HW158735   7.116   3.347   4.528
19098SOL    HW258736   7.084   3.384   4.385
19099SOL     OW58737   6.714   2.556   4.423
19099SOL    HW158738   6.749   2.645   4.427
19099SOL    HW258739   6.661   2.547   4.502
19100SOL     OW58740   7.387   2.458   3.945
19100SOL    HW158741   7.350   2.455   3.856
19100SOL    HW258742   7.338   2.391   3.993
19101SOL     OW58743   6.340   3.014   4.786
19101SOL    HW158744   6.268   3.052   4.837
19101SOL    HW258745   6.381   3.089   4.744
19102SOL     OW58746   6.481   2.634   5.570
19102SOL    HW158747   6.405   2.683   5.600
19102SOL    HW258748   6.492   2.661   5.478
19103SOL     OW58749   6.264   2.865   4.361
19103SOL    HW158750   6.329   2.854   4.430
19103SOL    HW258751   6.195   2.917   4.402
19104SOL     OW58752   6.303   3.018   5.543
19104SOL    HW158753   6.340   3.099   5.579
19104SOL    HW258754   6.220   3.045   5.504
19105SOL     OW58755   5.921   3.281   4.799
19105SOL    HW158756   5.846   3.235   4.760
19105SOL    HW258757   5.957   3.333   4.726
19106SOL     OW58758   7.036   3.358   5.086
19106SOL    HW158759   7.094   3.433   5.094
19106SOL    HW258760   6.962   3.377   5.144
19107SOL     OW58761   6.043   2.255   5.201
19107SOL    HW158762   6.112   2.189   5.203
19107SOL    HW258763   5.963   2.206   5.223
19108SOL     OW58764   7.191   2.316   4.469
19108SOL    HW158765   7.115   2.306   4.411
19108SOL    HW258766   7.157   2.365   4.544
19109SOL     OW58767   5.811   3.578   4.195
19109SOL    HW158768   5.824   3.653   4.253
19109SOL    HW258769   5.891   3.575   4.142
19110SOL     OW58770   6.709   3.186   5.393
19110SOL    HW158771   6.766   3.209   5.466
19110SOL    HW258772   6.651   3.118   5.429
19111SOL     OW58773   5.817   3.299   4.256
19111SOL    HW158774   5.797   3.390   4.277
19111SOL    HW258775   5.769   3.248   4.323
19112SOL     OW58776   5.864   2.949   4.615
19112SOL    HW158777   5.860   2.859   4.648
19112SOL    HW258778   5.806   2.998   4.673
19113SOL     OW58779   6.193   3.647   5.165
19113SOL    HW158780   6.108   3.632   5.207
19113SOL    HW258781   6.215   3.737   5.187
19114SOL     OW58782   6.156   2.844   3.871
19114SOL    HW158783   6.214   2.873   3.801
19114SOL    HW258784   6.196   2.876   3.952
19115SOL     OW58785   7.193   1.998   5.183
19115SOL    HW158786   7.206   2.083   5.141
19115SOL    HW258787   7.153   2.019   5.268
19116SOL     OW58788   5.702   2.522   4.284
19116SOL    HW158789   5.674   2.433   4.307
19116SOL    HW258790   5.696   2.571   4.366
19117SOL     OW58791   7.432   3.609   4.048
19117SOL    HW158792   7.495   3.581   4.115
19117SOL    HW258793   7.454   3.701   4.032
19118SOL     OW58794   7.294   2.797   4.374
19118SOL    HW158795   7.335   2.720   4.335
19118SOL    HW258796   7.240   2.833   4.303
19119SOL     OW58797   7.230   2.970   4.150
19119SOL    HW158798   7.318   2.948   4.121
19119SOL    HW258799   7.242   3.045   4.209
19120SOL     OW58800   5.700   2.607   5.299
19120SOL    HW158801   5.785   2.650   5.304
19120SOL    HW258802   5.638   2.679   5.285
19121SOL     OW58803   6.213   3.256   4.455
19121SOL    HW158804   6.164   3.174   4.466
19121SOL    HW258805   6.195   3.282   4.364
19122SOL     OW58806   6.860   3.070   5.145
19122SOL    HW158807   6.896   3.021   5.071
19122SOL    HW258808   6.932   3.077   5.207
19123SOL     OW58809   6.410   1.869   4.234
19123SOL    HW158810   6.449   1.954   4.214
19123SOL    HW258811   6.316   1.887   4.242
19124SOL     OW58812   5.784   2.836   5.016
19124SOL    HW158813   5.862   2.785   4.994
19124SOL    HW258814   5.712   2.787   4.976
19125SOL     OW58815   7.155   2.825   3.928
19125SOL    HW158816   7.072   2.780   3.946
19125SOL    HW258817   7.169   2.881   4.004
19126SOL     OW58818   6.788   3.693   5.353
19126SOL    HW158819   6.788   3.758   5.282
19126SOL    HW258820   6.814   3.611   5.310
19127SOL     OW58821   5.921   2.110   5.554
19127SOL    HW158822   5.960   2.198   5.562
19127SOL    HW258823   5.830   2.122   5.580
19128SOL     OW58824   7.052   3.266   4.674
19128SOL    HW158825   6.983   3.283   4.739
19128SOL    HW258826   7.032   3.179   4.641
19129SOL     OW58827   7.249   3.604   4.308
19129SOL    HW158828   7.214   3.561   4.230
19129SOL    HW258829   7.226   3.546   4.380
19130SOL     OW58830   6.177   2.567   3.989
19130SOL    HW158831   6.185   2.655   3.953
19130SOL    HW258832   6.116   2.576   4.062
19131SOL     OW58833   6.868   2.233   4.658
19131SOL    HW158834   6.778   2.200   4.662
19131SOL    HW258835   6.917   2.175   4.716
19132SOL     OW58836   7.160   3.601   4.027
19132SOL    HW158837   7.255   3.588   4.028
19132SOL    HW258838   7.132   3.563   3.943
19133SOL     OW58839   6.374   2.481   5.181
19133SOL    HW158840   6.351   2.445   5.267
19133SOL    HW258841   6.345   2.413   5.119
19134SOL     OW58842   6.981   2.344   5.404
19134SOL    HW158843   6.989   2.380   5.493
19134SOL    HW258844   7.027   2.260   5.408
19135SOL     OW58845   6.534   2.736   5.315
19135SOL    HW158846   6.584   2.665   5.275
19135SOL    HW258847   6.470   2.761   5.248
19136SOL     OW58848   6.585   2.275   4.954
19136SOL    HW158849   6.494   2.286   4.983
19136SOL    HW258850   6.577   2.241   4.865
19137SOL     OW58851   6.639   2.567   4.151
19137SOL    HW158852   6.660   2.559   4.244
19137SOL    HW258853   6.558   2.518   4.140
19138SOL     OW58854   5.673   2.701   4.492
19138SOL    HW158855   5.750   2.680   4.545
19138SOL    HW258856   5.630   2.773   4.539
19139SOL     OW58857   5.693   3.677   5.291
19139SOL    HW158858   5.697   3.676   5.386
19139SOL    HW258859   5.602   3.656   5.270
19140SOL     OW58860   6.484   2.207   3.917
19140SOL    HW158861   6.526   2.264   3.853
19140SOL    HW258862   6.488   2.120   3.879
19141SOL     OW58863   7.310   2.446   5.565
19141SOL    HW158864   7.271   2.515   5.512
19141SOL    HW258865   7.319   2.372   5.505
19142SOL     OW58866   6.980   3.013   4.280
19142SOL    HW158867   7.046   2.991   4.214
19142SOL    HW258868   6.921   3.075   4.236
19143SOL     OW58869   6.164   2.046   4.629
19143SOL    HW158870   6.154   2.067   4.722
19143SOL    HW258871   6.142   2.127   4.583
19144SOL     OW58872   6.578   3.310   4.188
19144SOL    HW158873   6.554   3.389   4.141
19144SOL    HW258874   6.550   3.326   4.278
19145SOL     OW58875   5.941   3.673   4.584
19145SOL    HW158876   5.984   3.589   4.598
19145SOL    HW258877   6.003   3.737   4.620
19146SOL     OW58878   7.379   2.957   4.577
19146SOL    HW158879   7.337   2.902   4.511
19146SOL    HW258880   7.321   2.950   4.654
19147SOL     OW58881   6.802   3.417   5.223
19147SOL    HW158882   6.781   3.352   5.290
19147SOL    HW258883   6.718   3.455   5.199
19148SOL     OW58884   5.890   2.817   3.971
19148SOL    HW158885   5.980   2.826   3.937
19148SOL    HW258886   5.866   2.727   3.952
19149SOL     OW58887   7.060   2.619   4.442
19149SOL    HW158888   7.034   2.552   4.506
19149SOL    HW258889   7.135   2.662   4.482
19150SOL     OW58890   6.058   3.104   5.436
19150SOL    HW158891   6.011   3.047   5.375
19150SOL    HW258892   5.991   3.134   5.497
19151SOL     OW58893   6.717   3.634   3.976
19151SOL    HW158894   6.633   3.603   4.009
19151SOL    HW258895   6.739   3.574   3.905
19152SOL     OW58896   5.779   2.163   5.264
19152SOL    HW158897   5.689   2.181   5.238
19152SOL    HW258898   5.773   2.085   5.320
19153SOL     OW58899   7.239   3.280   3.818
19153SOL    HW158900   7.189   3.362   3.815
19153SOL    HW258901   7.177   3.212   3.793
19154SOL     OW58902   6.048   3.604   4.045
19154SOL    HW158903   6.090   3.659   4.112
19154SOL    HW258904   6.121   3.564   3.998
19155SOL     OW58905   5.823   3.675   4.987
19155SOL    HW158906   5.892   3.610   5.001
19155SOL    HW258907   5.787   3.654   4.901
19156SOL     OW58908   6.528   3.562   4.620
19156SOL    HW158909   6.600   3.507   4.653
19156SOL    HW258910   6.488   3.510   4.551
19157SOL     OW58911   5.977   2.560   4.188
19157SOL    HW158912   5.994   2.467   4.201
19157SOL    HW258913   5.885   2.571   4.213
19158SOL     OW58914   7.092   2.084   5.438
19158SOL    HW158915   7.101   2.100   5.532
19158SOL    HW258916   7.026   2.014   5.431
19159SOL     OW58917   6.238   1.975   3.820
19159SOL    HW158918   6.285   1.897   3.848
19159SOL    HW258919   6.181   1.945   3.750
19160SOL     OW58920   6.346   2.135   5.490
19160SOL    HW158921   6.429   2.089   5.484
19160SOL    HW258922   6.296   2.086   5.555
19161SOL     OW58923   6.461   3.377   4.905
19161SOL    HW158924   6.430   3.354   4.817
19161SOL    HW258925   6.527   3.311   4.925
19162SOL     OW58926   6.923   2.448   5.157
19162SOL    HW158927   6.953   2.416   5.242
19162SOL    HW258928   6.959   2.537   5.151
19163SOL     OW58929   6.404   3.259   4.663
19163SOL    HW158930   6.489   3.239   4.624
19163SOL    HW258931   6.341   3.251   4.590
19164SOL     OW58932   6.510   2.358   4.619
19164SOL    HW158933   6.486   2.350   4.526
19164SOL    HW258934   6.540   2.270   4.643
19165SOL     OW58935   6.140   1.924   4.216
19165SOL    HW158936   6.065   1.923   4.276
19165SOL    HW258937   6.123   1.996   4.156
19166SOL     OW58938   5.892   1.930   3.915
19166SOL    HW158939   5.957   1.996   3.939
19166SOL    HW258940   5.927   1.848   3.947
19167SOL     OW58941   6.535   2.114   4.177
19167SOL    HW158942   6.516   2.148   4.089
19167SOL    HW258943   6.630   2.124   4.187
19168SOL     OW58944   6.659   2.537   5.181
19168SOL    HW158945   6.586   2.475   5.177
19168SOL    HW258946   6.737   2.484   5.170
19169SOL     OW58947   6.814   3.427   4.521
19169SOL    HW158948   6.827   3.494   4.455
19169SOL    HW258949   6.871   3.453   4.594
19170SOL     OW58950   6.059   3.029   4.448
19170SOL    HW158951   5.999   3.002   4.518
19170SOL    HW258952   6.012   3.012   4.367
19171SOL     OW58953   6.829   3.666   4.312
19171SOL    HW158954   6.782   3.698   4.235
19171SOL    HW258955   6.785   3.709   4.386
19172SOL     OW58956   6.615   2.388   3.750
19172SOL    HW158957   6.571   2.472   3.734
19172SOL    HW258958   6.672   2.404   3.825
19173SOL     OW58959   5.667   2.424   5.098
19173SOL    HW158960   5.759   2.417   5.075
19173SOL    HW258961   5.665   2.487   5.171
19174SOL     OW58962   6.159   2.082   4.908
19174SOL    HW158963   6.200   2.006   4.948
19174SOL    HW258964   6.068   2.078   4.937
19175SOL     OW58965   6.458   2.321   4.354
19175SOL    HW158966   6.411   2.374   4.290
19175SOL    HW258967   6.480   2.240   4.306
19176SOL     OW58968   6.604   1.918   4.467
19176SOL    HW158969   6.544   1.907   4.393
19176SOL    HW258970   6.584   1.844   4.525
19177SOL     OW58971   7.000   3.018   4.569
19177SOL    HW158972   6.937   2.950   4.593
19177SOL    HW258973   6.997   3.020   4.473
19178SOL     OW58974   7.053   2.452   4.679
19178SOL    HW158975   6.985   2.385   4.688
19178SOL    HW258976   7.103   2.446   4.761
19179SOL     OW58977   7.438   2.671   4.112
19179SOL    HW158978   7.485   2.614   4.173
19179SOL    HW258979   7.399   2.610   4.049
19180SOL     OW58980   6.065   3.285   3.874
19180SOL    HW158981   5.990   3.262   3.928
19180SOL    HW258982   6.062   3.223   3.802
19181SOL     OW58983   7.298   3.170   4.318
19181SOL    HW158984   7.359   3.140   4.385
19181SOL    HW258985   7.241   3.232   4.363
19182SOL     OW58986   6.981   2.413   3.805
19182SOL    HW158987   6.910   2.406   3.869
19182SOL    HW258988   7.041   2.341   3.827
19183SOL     OW58989   6.094   2.108   4.014
19183SOL    HW158990   6.160   2.072   3.954
19183SOL    HW258991   6.077   2.195   3.980
19184SOL     OW58992   7.331   3.099   5.291
19184SOL    HW158993   7.400   3.050   5.337
19184SOL    HW258994   7.353   3.191   5.305
19185SOL     OW58995   7.194   3.484   5.383
19185SOL    HW158996   7.185   3.519   5.294
19185SOL    HW258997   7.276   3.435   5.381
19186SOL     OW58998   6.652   3.101   4.854
19186SOL    HW158999   6.632   3.008   4.841
19186SOL    HW259000   6.660   3.137   4.766
19187SOL     OW59001   7.216   2.961   4.797
19187SOL    HW159002   7.208   3.022   4.870
19187SOL    HW259003   7.129   2.959   4.758
19188SOL     OW59004   6.503   1.958   5.115
19188SOL    HW159005   6.524   1.937   5.024
19188SOL    HW259006   6.584   1.994   5.150
19189SOL     OW59007   6.552   2.973   5.430
19189SOL    HW159008   6.465   2.988   5.468
19189SOL    HW259009   6.548   2.884   5.395
19190SOL     OW59010   6.297   2.928   4.094
19190SOL    HW159011   6.279   2.908   4.186
19190SOL    HW259012   6.371   2.872   4.071
19191SOL     OW59013   6.007   2.679   4.977
19191SOL    HW159014   6.070   2.684   5.050
19191SOL    HW259015   5.973   2.590   4.981
19192SOL     OW59016   6.850   2.235   5.003
19192SOL    HW159017   6.881   2.313   5.049
19192SOL    HW259018   6.759   2.254   4.981
19193SOL     OW59019   5.658   3.440   5.050
19193SOL    HW159020   5.597   3.483   4.990
19193SOL    HW259021   5.703   3.512   5.094
19194SOL     OW59022   5.921   2.978   4.217
19194SOL    HW159023   5.908   3.042   4.147
19194SOL    HW259024   5.919   2.894   4.172
19195SOL     OW59025   6.145   2.390   4.567
19195SOL    HW159026   6.162   2.454   4.498
19195SOL    HW259027   6.208   2.412   4.636
19196SOL     OW59028   6.841   3.214   4.151
19196SOL    HW159029   6.884   3.294   4.182
19196SOL    HW259030   6.748   3.233   4.160
19197SOL     OW59031   6.866   3.309   4.873
19197SOL    HW159032   6.920   3.314   4.952
19197SOL    HW259033   6.807   3.235   4.888
19198SOL     OW59034   7.166   2.518   4.201
19198SOL    HW159035   7.123   2.538   4.285
19198SOL    HW259036   7.115   2.567   4.136
19199SOL     OW59037   5.946   3.352   5.058
19199SOL    HW159038   5.927   3.331   4.966
19199SOL    HW259039   6.038   3.379   5.057
19200SOL     OW59040   5.986   2.633   5.356
19200SOL    HW159041   6.056   2.658   5.295
19200SOL    HW259042   5.992   2.537   5.361
19201SOL     OW59043   7.204   2.653   5.416
19201SOL    HW159044   7.114   2.683   5.404
19201SOL    HW259045   7.251   2.687   5.340
19202SOL     OW59046   6.585   2.011   5.483
19202SOL    HW159047   6.643   2.082   5.455
19202SOL    HW259048   6.633   1.931   5.462
19203SOL     OW59049   6.083   1.903   5.470
19203SOL    HW159050   6.034   1.847   5.410
19203SOL    HW259051   6.024   1.976   5.488
19204SOL     OW59052   6.152   2.743   4.752
19204SOL    HW159053   6.200   2.822   4.776
19204SOL    HW259054   6.104   2.719   4.831
19205SOL     OW59055   6.995   2.720   4.750
19205SOL    HW159056   6.901   2.731   4.733
19205SOL    HW259057   7.012   2.627   4.730
19206SOL     OW59058   6.775   2.394   3.984
19206SOL    HW159059   6.789   2.316   4.037
19206SOL    HW259060   6.734   2.457   4.043
19207SOL     OW59061   5.902   2.050   4.996
19207SOL    HW159062   5.835   2.072   5.060
19207SOL    HW259063   5.863   2.071   4.911
19208SOL     OW59064   5.639   3.176   5.011
19208SOL    HW159065   5.551   3.144   5.030
19208SOL    HW259066   5.630   3.271   5.003
19209SOL     OW59067   6.312   2.483   4.767
19209SOL    HW159068   6.393   2.459   4.721
19209SOL    HW259069   6.300   2.576   4.747
19210SOL     OW59070   7.330   2.837   5.576
19210SOL    HW159071   7.292   2.764   5.529
19210SOL    HW259072   7.265   2.858   5.644
19211SOL     OW59073   5.896   1.931   4.344
19211SOL    HW159074   5.870   2.020   4.368
19211SOL    HW259075   5.904   1.885   4.427
19212SOL     OW59076   7.221   2.268   4.083
19212SOL    HW159077   7.183   2.192   4.127
19212SOL    HW259078   7.202   2.341   4.141
19213SOL     OW59079   6.589   3.447   5.440
19213SOL    HW159080   6.561   3.485   5.357
19213SOL    HW259081   6.554   3.358   5.439
19214SOL     OW59082   7.434   3.353   5.327
19214SOL    HW159083   7.453   3.388   5.240
19214SOL    HW259084   7.514   3.370   5.378
19215SOL     OW59085   5.906   2.769   5.588
19215SOL    HW159086   5.988   2.793   5.632
19215SOL    HW259087   5.933   2.714   5.515
19216SOL     OW59088   7.107   2.159   3.850
19216SOL    HW159089   7.052   2.083   3.868
19216SOL    HW259090   7.148   2.180   3.934
19217SOL     OW59091   6.876   2.672   3.766
19217SOL    HW159092   6.913   2.584   3.775
19217SOL    HW259093   6.919   2.710   3.690
19218SOL     OW59094   6.657   3.200   4.588
19218SOL    HW159095   6.663   3.125   4.530
19218SOL    HW259096   6.719   3.264   4.552
19219SOL     OW59097   5.891   2.671   4.661
19219SOL    HW159098   5.984   2.693   4.669
19219SOL    HW259099   5.885   2.581   4.694
19220SOL     OW59100   5.935   2.407   4.738
19220SOL    HW159101   5.888   2.323   4.732
19220SOL    HW259102   6.007   2.399   4.676
19221SOL     OW59103   6.722   2.244   5.404
19221SOL    HW159104   6.672   2.294   5.469
19221SOL    HW259105   6.808   2.286   5.402
19222SOL     OW59106   6.745   2.064   5.196
19222SOL    HW159107   6.732   2.130   5.264
19222SOL    HW259108   6.787   2.111   5.124
19223SOL     OW59109   5.578   3.178   3.947
19223SOL    HW159110   5.507   3.180   3.883
19223SOL    HW259111   5.587   3.086   3.970
19224SOL     OW59112   5.672   3.645   4.644
19224SOL    HW159113   5.641   3.562   4.610
19224SOL    HW259114   5.764   3.650   4.617
19225SOL     OW59115   6.078   3.437   4.624
19225SOL    HW159116   6.147   3.499   4.648
19225SOL    HW259117   6.123   3.371   4.570
19226SOL     OW59118   6.566   2.728   4.994
19226SOL    HW159119   6.599   2.648   5.035
19226SOL    HW259120   6.603   2.728   4.906
19227SOL     OW59121   5.596   2.403   4.826
19227SOL    HW159122   5.649   2.334   4.786
19227SOL    HW259123   5.632   2.413   4.915
19228SOL     OW59124   5.786   2.387   5.451
19228SOL    HW159125   5.800   2.319   5.385
19228SOL    HW259126   5.739   2.457   5.404
19229SOL     OW59127   6.964   2.794   5.390
19229SOL    HW159128   6.988   2.886   5.379
19229SOL    HW259129   6.956   2.761   5.301
19230SOL     OW59130   6.411   2.432   4.082
19230SOL    HW159131   6.418   2.354   4.027
19230SOL    HW259132   6.331   2.475   4.050
19231SOL     OW59133   7.217   2.464   4.903
19231SOL    HW159134   7.212   2.398   4.972
19231SOL    HW259135   7.305   2.453   4.867
19232SOL     OW59136   5.890   3.412   5.475
19232SOL    HW159137   5.837   3.481   5.517
19232SOL    HW259138   5.852   3.330   5.507
19233SOL     OW59139   6.309   2.309   4.979
19233SOL    HW159140   6.252   2.234   4.960
19233SOL    HW259141   6.296   2.368   4.905
19234SOL     OW59142   6.548   3.525   5.172
19234SOL    HW159143   6.503   3.489   5.096
19234SOL    HW259144   6.531   3.619   5.167
19235SOL     OW59145   6.030   2.349   3.897
19235SOL    HW159146   6.101   2.412   3.906
19235SOL    HW259147   5.956   2.387   3.945
19236SOL     OW59148   5.817   3.012   5.226
19236SOL    HW159149   5.768   2.969   5.296
19236SOL    HW259150   5.805   2.955   5.150
19237SOL     OW59151   6.911   2.905   4.932
19237SOL    HW159152   6.961   2.845   4.876
19237SOL    HW259153   6.824   2.908   4.892
19238SOL     OW59154   6.917   2.712   4.039
19238SOL    HW159155   6.845   2.690   4.097
19238SOL    HW259156   6.883   2.698   3.951
19239SOL     OW59157   7.308   3.590   4.850
19239SOL    HW159158   7.389   3.627   4.815
19239SOL    HW259159   7.314   3.497   4.832
19240SOL     OW59160   6.823   3.583   4.813
19240SOL    HW159161   6.909   3.611   4.784
19240SOL    HW259162   6.836   3.492   4.843
19241SOL     OW59163   5.696   3.118   4.750
19241SOL    HW159164   5.680   3.129   4.843
19241SOL    HW259165   5.609   3.100   4.713
19242SOL     OW59166   6.248   3.536   5.452
19242SOL    HW159167   6.187   3.606   5.476
19242SOL    HW259168   6.290   3.568   5.372
19243SOL     OW59169   7.381   2.022   4.271
19243SOL    HW159170   7.409   2.025   4.180
19243SOL    HW259171   7.287   2.009   4.267
19244SOL     OW59172   6.982   3.452   4.228
19244SOL    HW159173   7.014   3.480   4.142
19244SOL    HW259174   6.927   3.525   4.258
19245SOL     OW59175   5.751   3.650   5.552
19245SOL    HW159176   5.694   3.590   5.602
19245SOL    HW259177   5.786   3.710   5.618
19246SOL     OW59178   6.856   2.793   4.381
19246SOL    HW159179   6.927   2.731   4.398
19246SOL    HW259180   6.897   2.866   4.335
19247SOL     OW59181   6.423   3.171   5.143
19247SOL    HW159182   6.373   3.202   5.219
19247SOL    HW259183   6.363   3.183   5.069
19248SOL     OW59184   6.252   3.479   3.893
19248SOL    HW159185   6.323   3.434   3.846
19248SOL    HW259186   6.179   3.417   3.890
19249SOL     OW59187   7.204   3.577   5.109
19249SOL    HW159188   7.239   3.586   5.021
19249SOL    HW259189   7.200   3.666   5.144
19250SOL     OW59190   7.438   2.025   4.678
19250SOL    HW159191   7.457   1.934   4.655
19250SOL    HW259192   7.349   2.040   4.646
19251SOL     OW59193   5.835   2.188   4.417
19251SOL    HW159194   5.744   2.215   4.402
19251SOL    HW259195   5.841   2.174   4.511
19252SOL     OW59196   6.788   3.471   3.767
19252SOL    HW159197   6.766   3.381   3.792
19252SOL    HW259198   6.741   3.485   3.685
19253SOL     OW59199   6.387   2.874   5.119
19253SOL    HW159200   6.442   2.821   5.061
19253SOL    HW259201   6.365   2.951   5.066
19254SOL     OW59202   6.499   2.773   4.013
19254SOL    HW159203   6.561   2.798   3.944
19254SOL    HW259204   6.546   2.707   4.064
19255SOL     OW59205   7.071   3.519   3.779
19255SOL    HW159206   6.985   3.477   3.770
19255SOL    HW259207   7.107   3.517   3.690
19256SOL     OW59208   7.200   3.150   5.006
19256SOL    HW159209   7.253   3.129   5.083
19256SOL    HW259210   7.137   3.215   5.037
19257SOL     OW59211   6.647   2.978   4.431
19257SOL    HW159212   6.572   2.935   4.473
19257SOL    HW259213   6.712   2.909   4.421
19258SOL     OW59214   6.619   2.102   4.685
19258SOL    HW159215   6.613   2.052   4.603
19258SOL    HW259216   6.607   2.036   4.754
19259SOL     OW59217   6.194   3.351   4.197
19259SOL    HW159218   6.233   3.295   4.129
19259SOL    HW259219   6.105   3.367   4.166
19260SOL     OW59220   7.307   2.254   5.098
19260SOL    HW159221   7.373   2.323   5.100
19260SOL    HW259222   7.346   2.185   5.044
19261SOL     OW59223   5.841   3.204   4.009
19261SOL    HW159224   5.748   3.195   3.991
19261SOL    HW259225   5.845   3.240   4.098
19262SOL     OW59226   5.702   2.920   5.464
19262SOL    HW159227   5.623   2.881   5.501
19262SOL    HW259228   5.774   2.868   5.500
19263SOL     OW59229   6.263   2.057   5.224
19263SOL    HW159230   6.347   2.032   5.185
19263SOL    HW259231   6.286   2.085   5.313
19264SOL     OW59232   5.665   2.257   3.738
19264SOL    HW159233   5.633   2.178   3.780
19264SOL    HW259234   5.596   2.322   3.751
19265SOL     OW59235   7.008   2.721   5.128
19265SOL    HW159236   6.952   2.770   5.068
19265SOL    HW259237   7.094   2.720   5.085
19266SOL     OW59238   5.652   2.015   4.022
19266SOL    HW159239   5.672   2.099   4.063
19266SOL    HW259240   5.736   1.983   3.991
19267SOL     OW59241   6.692   3.225   3.869
19267SOL    HW159242   6.653   3.139   3.885
19267SOL    HW259243   6.785   3.213   3.889
19268SOL     OW59244   6.193   2.686   5.176
19268SOL    HW159245   6.251   2.761   5.161
19268SOL    HW259246   6.252   2.610   5.175
19269SOL     OW59247   7.073   3.641   4.703
19269SOL    HW159248   7.094   3.722   4.658
19269SOL    HW259249   7.148   3.624   4.760
19270SOL     OW59250   6.320   2.404   5.434
19270SOL    HW159251   6.352   2.444   5.515
19270SOL    HW259252   6.321   2.310   5.452
19271SOL     OW59253   7.059   3.055   5.345
19271SOL    HW159254   7.045   3.076   5.437
19271SOL    HW259255   7.151   3.075   5.329
19272SOL     OW59256   5.954   3.601   5.290
19272SOL    HW159257   5.864   3.633   5.282
19272SOL    HW259258   5.948   3.525   5.347
19273SOL     OW59259   7.245   2.734   4.980
19273SOL    HW159260   7.237   2.646   4.945
19273SOL    HW259261   7.237   2.792   4.904
19274SOL     OW59262   6.812   2.195   4.179
19274SOL    HW159263   6.880   2.128   4.170
19274SOL    HW259264   6.837   2.243   4.258
19275SOL     OW59265   6.182   2.593   4.379
19275SOL    HW159266   6.215   2.683   4.374
19275SOL    HW259267   6.108   2.591   4.318
19276SOL     OW59268   7.327   2.230   5.396
19276SOL    HW159269   7.350   2.229   5.303
19276SOL    HW259270   7.251   2.172   5.402
19277SOL     OW59271   7.345   2.800   5.226
19277SOL    HW159272   7.322   2.893   5.232
19277SOL    HW259273   7.319   2.775   5.138
19278SOL     OW59274   6.402   3.261   3.773
19278SOL    HW159275   6.385   3.235   3.863
19278SOL    HW259276   6.497   3.270   3.768
19279SOL     OW59277   6.251   3.645   4.655
19279SOL    HW159278   6.230   3.738   4.647
19279SOL    HW259279   6.347   3.642   4.653
19280SOL     OW59280   6.437   2.857   4.575
19280SOL    HW159281   6.513   2.814   4.614
19280SOL    HW259282   6.393   2.899   4.649
19281SOL     OW59283   6.653   2.835   3.800
19281SOL    HW159284   6.653   2.897   3.727
19281SOL    HW259285   6.733   2.784   3.788
19282SOL     OW59286   7.432   3.404   4.562
19282SOL    HW159287   7.348   3.404   4.516
19282SOL    HW259288   7.413   3.360   4.645
19283SOL     OW59289   5.813   3.163   5.563
19283SOL    HW159290   5.760   3.089   5.532
19283SOL    HW259291   5.782   3.179   5.652
19284SOL     OW59292   5.686   3.085   4.396
19284SOL    HW159293   5.665   3.044   4.479
19284SOL    HW259294   5.757   3.033   4.360
19285SOL     OW59295   6.269   3.269   5.348
19285SOL    HW159296   6.192   3.218   5.373
19285SOL    HW259297   6.254   3.355   5.388
19286SOL     OW59298   7.401   2.049   4.948
19286SOL    HW159299   7.376   1.959   4.968
19286SOL    HW259300   7.413   2.050   4.853
19287SOL     OW59301   6.000   2.296   4.224
19287SOL    HW159302   6.050   2.220   4.194
19287SOL    HW259303   5.953   2.265   4.301
19288SOL     OW59304   7.294   3.322   4.794
19288SOL    HW159305   7.208   3.306   4.754
19288SOL    HW259306   7.295   3.266   4.871
19289SOL     OW59307   5.926   2.422   5.018
19289SOL    HW159308   5.977   2.361   5.071
19289SOL    HW259309   5.939   2.393   4.928
19290SOL     OW59310   6.419   3.439   4.398
19290SOL    HW159311   6.377   3.500   4.338
19290SOL    HW259312   6.352   3.374   4.418
19291SOL     OW59313   7.009   2.085   4.837
19291SOL    HW159314   7.004   1.993   4.865
19291SOL    HW259315   6.961   2.133   4.905
19292SOL     OW59316   6.592   1.882   4.859
19292SOL    HW159317   6.532   1.815   4.825
19292SOL    HW259318   6.678   1.839   4.858
19293SOL     OW59319   6.374   3.185   4.030
19293SOL    HW159320   6.346   3.097   4.054
19293SOL    HW259321   6.448   3.204   4.086
19294SOL     OW59322   6.210   3.422   5.010
19294SOL    HW159323   6.209   3.503   5.062
19294SOL    HW259324   6.297   3.420   4.971
19295SOL     OW59325   6.947   1.929   3.830
19295SOL    HW159326   6.975   1.840   3.807
19295SOL    HW259327   6.870   1.916   3.886
19296SOL     OW59328   6.894   2.343   4.406
19296SOL    HW159329   6.830   2.414   4.408
19296SOL    HW259330   6.881   2.297   4.489
19297SOL     OW59331   7.178   2.052   4.617
19297SOL    HW159332   7.117   2.076   4.686
19297SOL    HW259333   7.160   2.113   4.546
19298SOL     OW59334   5.636   2.920   4.023
19298SOL    HW159335   5.728   2.904   4.002
19298SOL    HW259336   5.602   2.834   4.049
19299SOL     OW59337   6.474   3.538   4.066
19299SOL    HW159338   6.391   3.514   4.025
19299SOL    HW259339   6.451   3.605   4.130
19300SOL     OW59340   5.780   2.494   5.707
19300SOL    HW159341   5.703   2.453   5.748
19300SOL    HW259342   5.785   2.453   5.621
19301SOL     OW59343   5.810   2.145   6.578
19301SOL    HW159344   5.834   2.116   6.666
19301SOL    HW259345   5.719   2.118   6.567
19302SOL     OW59346   5.585   2.248   6.231
19302SOL    HW159347   5.503   2.281   6.269
19302SOL    HW259348   5.559   2.169   6.184
19303SOL     OW59349   6.165   3.158   6.779
19303SOL    HW159350   6.080   3.158   6.737
19303SOL    HW259351   6.176   3.247   6.812
19304SOL     OW59352   7.123   3.380   6.297
19304SOL    HW159353   7.052   3.383   6.361
19304SOL    HW259354   7.079   3.389   6.212
19305SOL     OW59355   6.729   2.570   6.276
19305SOL    HW159356   6.791   2.621   6.327
19305SOL    HW259357   6.655   2.555   6.335
19306SOL     OW59358   7.331   2.467   5.838
19306SOL    HW159359   7.323   2.458   5.743
19306SOL    HW259360   7.306   2.382   5.873
19307SOL     OW59361   6.355   3.011   6.649
19307SOL    HW159362   6.281   3.038   6.702
19307SOL    HW259363   6.380   3.090   6.600
19308SOL     OW59364   6.455   2.621   7.409
19308SOL    HW159365   6.416   2.687   7.465
19308SOL    HW259366   6.481   2.668   7.330
19309SOL     OW59367   6.279   2.855   6.233
19309SOL    HW159368   6.343   2.851   6.304
19309SOL    HW259369   6.210   2.912   6.266
19310SOL     OW59370   6.302   3.020   7.400
19310SOL    HW159371   6.341   3.100   7.434
19310SOL    HW259372   6.218   3.047   7.363
19311SOL     OW59373   5.940   3.262   6.650
19311SOL    HW159374   5.853   3.233   6.624
19311SOL    HW259375   5.963   3.329   6.586
19312SOL     OW59376   7.054   3.365   6.976
19312SOL    HW159377   7.069   3.458   6.957
19312SOL    HW259378   6.969   3.362   7.019
19313SOL     OW59379   6.030   2.219   7.130
19313SOL    HW159380   6.120   2.194   7.110
19313SOL    HW259381   5.977   2.177   7.062
19314SOL     OW59382   7.205   2.306   6.317
19314SOL    HW159383   7.173   2.290   6.228
19314SOL    HW259384   7.132   2.347   6.362
19315SOL     OW59385   6.724   3.207   7.293
19315SOL    HW159386   6.762   3.207   7.381
19315SOL    HW259387   6.672   3.127   7.289
19316SOL     OW59388   5.837   3.263   6.129
19316SOL    HW159389   5.846   3.358   6.127
19316SOL    HW259390   5.766   3.246   6.191
19317SOL     OW59391   5.872   2.947   6.474
19317SOL    HW159392   5.852   2.858   6.501
19317SOL    HW259393   5.810   3.001   6.523
19318SOL     OW59394   6.216   3.627   7.049
19318SOL    HW159395   6.124   3.616   7.073
19318SOL    HW259396   6.234   3.719   7.064
19319SOL     OW59397   6.174   2.833   5.718
19319SOL    HW159398   6.218   2.890   5.654
19319SOL    HW259399   6.198   2.870   5.803
19320SOL     OW59400   7.197   1.978   7.038
19320SOL    HW159401   7.157   2.011   6.958
19320SOL    HW259402   7.166   2.037   7.107
19321SOL     OW59403   5.718   2.509   6.156
19321SOL    HW159404   5.673   2.428   6.176
19321SOL    HW259405   5.700   2.566   6.231
19322SOL     OW59406   7.428   3.617   5.916
19322SOL    HW159407   7.497   3.595   5.978
19322SOL    HW259408   7.446   3.708   5.892
19323SOL     OW59409   5.634   3.447   5.687
19323SOL    HW159410   5.596   3.362   5.708
19323SOL    HW259411   5.615   3.501   5.764
19324SOL     OW59412   7.313   2.800   6.231
19324SOL    HW159413   7.328   2.709   6.205
19324SOL    HW259414   7.263   2.838   6.159
19325SOL     OW59415   7.210   2.959   6.019
19325SOL    HW159416   7.296   2.963   5.977
19325SOL    HW259417   7.215   3.021   6.092
19326SOL     OW59418   5.734   2.598   7.177
19326SOL    HW159419   5.812   2.649   7.156
19326SOL    HW259420   5.664   2.663   7.185
19327SOL     OW59421   6.215   3.260   6.316
19327SOL    HW159422   6.170   3.177   6.330
19327SOL    HW259423   6.184   3.291   6.230
19328SOL     OW59424   6.875   3.112   6.992
19328SOL    HW159425   6.896   3.038   6.936
19328SOL    HW259426   6.927   3.097   7.071
19329SOL     OW59427   6.408   1.871   6.131
19329SOL    HW159428   6.448   1.946   6.088
19329SOL    HW259429   6.315   1.891   6.134
19330SOL     OW59430   5.767   2.806   6.863
19330SOL    HW159431   5.830   2.770   6.801
19330SOL    HW259432   5.682   2.793   6.821
19331SOL     OW59433   7.102   2.869   5.771
19331SOL    HW159434   7.069   2.780   5.757
19331SOL    HW259435   7.147   2.864   5.856
19332SOL     OW59436   6.815   3.689   7.210
19332SOL    HW159437   6.793   3.752   7.141
19332SOL    HW259438   6.795   3.604   7.172
19333SOL     OW59439   5.905   2.107   7.394
19333SOL    HW159440   5.944   2.194   7.388
19333SOL    HW259441   5.849   2.100   7.317
19334SOL     OW59442   7.064   3.255   6.555
19334SOL    HW159443   6.990   3.288   6.607
19334SOL    HW259444   7.034   3.170   6.522
19335SOL     OW59445   7.274   3.602   6.177
19335SOL    HW159446   7.257   3.585   6.084
19335SOL    HW259447   7.210   3.550   6.224
19336SOL     OW59448   6.177   2.578   5.856
19336SOL    HW159449   6.173   2.662   5.810
19336SOL    HW259450   6.113   2.585   5.926
19337SOL     OW59451   7.167   3.531   5.895
19337SOL    HW159452   7.257   3.564   5.884
19337SOL    HW259453   7.135   3.519   5.805
19338SOL     OW59454   6.388   2.481   7.030
19338SOL    HW159455   6.354   2.457   7.116
19338SOL    HW259456   6.350   2.417   6.970
19339SOL     OW59457   6.973   2.347   7.262
19339SOL    HW159458   6.977   2.384   7.351
19339SOL    HW259459   7.028   2.268   7.267
19340SOL     OW59460   6.541   2.746   7.171
19340SOL    HW159461   6.591   2.675   7.131
19340SOL    HW259462   6.494   2.786   7.098
19341SOL     OW59463   6.558   2.257   6.834
19341SOL    HW159464   6.464   2.275   6.839
19341SOL    HW259465   6.571   2.225   6.745
19342SOL     OW59466   6.647   2.566   6.008
19342SOL    HW159467   6.662   2.557   6.102
19342SOL    HW259468   6.563   2.522   5.992
19343SOL     OW59469   5.676   2.682   6.356
19343SOL    HW159470   5.746   2.681   6.422
19343SOL    HW259471   5.619   2.754   6.384
19344SOL     OW59472   5.721   3.736   7.152
19344SOL    HW159473   5.706   3.709   7.243
19344SOL    HW259474   5.668   3.676   7.101
19345SOL     OW59475   6.473   2.211   5.786
19345SOL    HW159476   6.522   2.255   5.716
19345SOL    HW259477   6.429   2.138   5.742
19346SOL     OW59478   7.303   2.436   7.410
19346SOL    HW159479   7.262   2.514   7.373
19346SOL    HW259480   7.293   2.368   7.343
19347SOL     OW59481   6.127   2.014   6.483
19347SOL    HW159482   6.131   2.070   6.560
19347SOL    HW259483   6.122   2.075   6.409
19348SOL     OW59484   6.598   3.314   6.064
19348SOL    HW159485   6.570   3.381   6.002
19348SOL    HW259486   6.553   3.337   6.145
19349SOL     OW59487   5.928   3.671   6.489
19349SOL    HW159488   5.973   3.587   6.483
19349SOL    HW259489   5.940   3.711   6.403
19350SOL     OW59490   7.398   2.927   6.456
19350SOL    HW159491   7.358   2.888   6.378
19350SOL    HW259492   7.331   2.918   6.524
19351SOL     OW59493   6.810   3.400   7.096
19351SOL    HW159494   6.790   3.328   7.156
19351SOL    HW259495   6.726   3.421   7.055
19352SOL     OW59496   7.046   2.654   6.334
19352SOL    HW159497   7.055   2.595   6.409
19352SOL    HW259498   7.104   2.616   6.268
19353SOL     OW59499   6.053   3.123   7.323
19353SOL    HW159500   6.025   3.127   7.231
19353SOL    HW259501   5.972   3.129   7.373
19354SOL     OW59502   6.728   3.631   5.819
19354SOL    HW159503   6.645   3.601   5.858
19354SOL    HW259504   6.743   3.571   5.746
19355SOL     OW59505   5.753   2.106   7.159
19355SOL    HW159506   5.681   2.163   7.133
19355SOL    HW259507   5.794   2.080   7.076
19356SOL     OW59508   7.211   3.241   5.689
19356SOL    HW159509   7.177   3.328   5.671
19356SOL    HW259510   7.143   3.182   5.657
19357SOL     OW59511   6.117   3.642   5.853
19357SOL    HW159512   6.043   3.619   5.909
19357SOL    HW259513   6.192   3.601   5.896
19358SOL     OW59514   6.991   1.981   6.025
19358SOL    HW159515   6.983   1.947   5.936
19358SOL    HW259516   7.065   2.042   6.022
19359SOL     OW59517   5.874   3.673   6.812
19359SOL    HW159518   5.869   3.593   6.865
19359SOL    HW259519   5.830   3.650   6.730
19360SOL     OW59520   6.548   3.540   6.479
19360SOL    HW159521   6.522   3.489   6.556
19360SOL    HW259522   6.505   3.497   6.405
19361SOL     OW59523   5.982   2.553   6.056
19361SOL    HW159524   6.002   2.461   6.070
19361SOL    HW259525   5.890   2.561   6.083
19362SOL     OW59526   7.118   2.103   7.305
19362SOL    HW159527   7.126   2.114   7.399
19362SOL    HW259528   7.050   2.037   7.293
19363SOL     OW59529   6.227   1.970   5.691
19363SOL    HW159530   6.227   1.893   5.748
19363SOL    HW259531   6.179   1.942   5.614
19364SOL     OW59532   6.359   2.149   7.338
19364SOL    HW159533   6.438   2.094   7.346
19364SOL    HW259534   6.320   2.148   7.425
19365SOL     OW59535   6.491   3.401   6.738
19365SOL    HW159536   6.449   3.341   6.676
19365SOL    HW259537   6.537   3.344   6.799
19366SOL     OW59538   6.960   2.452   7.004
19366SOL    HW159539   6.963   2.428   7.096
19366SOL    HW259540   6.964   2.547   7.003
19367SOL     OW59541   6.411   3.250   6.522
19367SOL    HW159542   6.491   3.238   6.471
19367SOL    HW259543   6.342   3.256   6.457
19368SOL     OW59544   6.519   2.390   6.477
19368SOL    HW159545   6.493   2.369   6.387
19368SOL    HW259546   6.531   2.305   6.519
19369SOL     OW59547   6.154   1.970   6.128
19369SOL    HW159548   6.068   1.930   6.141
19369SOL    HW259549   6.146   2.018   6.046
19370SOL     OW59550   7.004   3.074   5.614
19370SOL    HW159551   7.031   2.997   5.665
19370SOL    HW259552   6.915   3.093   5.645
19371SOL     OW59553   5.874   1.911   5.768
19371SOL    HW159554   5.931   1.973   5.722
19371SOL    HW259555   5.934   1.848   5.807
19372SOL     OW59556   6.535   2.112   6.042
19372SOL    HW159557   6.507   2.141   5.955
19372SOL    HW259558   6.629   2.129   6.044
19373SOL     OW59559   6.658   2.529   7.039
19373SOL    HW159560   6.570   2.492   7.038
19373SOL    HW259561   6.714   2.458   7.009
19374SOL     OW59562   6.846   3.427   6.378
19374SOL    HW159563   6.846   3.494   6.309
19374SOL    HW259564   6.787   3.463   6.445
19375SOL     OW59565   6.083   3.020   6.325
19375SOL    HW159566   6.013   2.999   6.387
19375SOL    HW259567   6.041   3.013   6.239
19376SOL     OW59568   6.853   3.645   6.204
19376SOL    HW159569   6.897   3.708   6.146
19376SOL    HW259570   6.779   3.693   6.240
19377SOL     OW59571   6.615   2.394   5.614
19377SOL    HW159572   6.573   2.479   5.602
19377SOL    HW259573   6.673   2.407   5.690
19378SOL     OW59574   5.677   2.414   6.983
19378SOL    HW159575   5.767   2.415   6.950
19378SOL    HW259576   5.672   2.490   7.041
19379SOL     OW59577   6.159   2.092   6.753
19379SOL    HW159578   6.196   2.006   6.776
19379SOL    HW259579   6.071   2.091   6.789
19380SOL     OW59580   6.465   2.327   6.218
19380SOL    HW159581   6.398   2.372   6.167
19380SOL    HW259582   6.482   2.247   6.169
19381SOL     OW59583   6.625   1.891   6.312
19381SOL    HW159584   6.558   1.904   6.245
19381SOL    HW259585   6.582   1.840   6.380
19382SOL     OW59586   7.030   3.006   6.457
19382SOL    HW159587   6.954   2.948   6.463
19382SOL    HW259588   7.063   2.992   6.369
19383SOL     OW59589   7.059   2.495   6.556
19383SOL    HW159590   7.011   2.412   6.560
19383SOL    HW259591   7.123   2.488   6.626
19384SOL     OW59592   7.437   2.678   5.970
19384SOL    HW159593   7.498   2.629   6.024
19384SOL    HW259594   7.398   2.613   5.912
19385SOL     OW59595   6.072   3.298   5.745
19385SOL    HW159596   6.005   3.252   5.796
19385SOL    HW259597   6.022   3.343   5.677
19386SOL     OW59598   7.244   3.132   6.246
19386SOL    HW159599   7.338   3.133   6.225
19386SOL    HW259600   7.211   3.216   6.214
19387SOL     OW59601   6.987   2.426   5.669
19387SOL    HW159602   6.916   2.407   5.730
19387SOL    HW259603   7.055   2.363   5.691
19388SOL     OW59604   6.124   2.130   5.899
19388SOL    HW159605   6.161   2.076   5.829
19388SOL    HW259606   6.088   2.206   5.853
19389SOL     OW59607   7.335   3.090   7.172
19389SOL    HW159608   7.422   3.073   7.136
19389SOL    HW259609   7.347   3.086   7.267
19390SOL     OW59610   6.622   3.216   6.909
19390SOL    HW159611   6.545   3.186   6.956
19390SOL    HW259612   6.696   3.179   6.957
19391SOL     OW59613   7.224   3.457   7.231
19391SOL    HW159614   7.207   3.511   7.154
19391SOL    HW259615   7.162   3.384   7.223
19392SOL     OW59616   6.726   3.086   6.680
19392SOL    HW159617   6.657   3.107   6.743
19392SOL    HW259618   6.689   3.109   6.595
19393SOL     OW59619   7.219   2.963   6.666
19393SOL    HW159620   7.206   3.023   6.740
19393SOL    HW259621   7.137   2.969   6.616
19394SOL     OW59622   6.529   1.924   6.982
19394SOL    HW159623   6.537   1.919   6.887
19394SOL    HW259624   6.600   1.982   7.010
19395SOL     OW59625   6.569   2.978   7.314
19395SOL    HW159626   6.478   2.996   7.336
19395SOL    HW259627   6.565   2.900   7.259
19396SOL     OW59628   6.292   2.919   5.955
19396SOL    HW159629   6.270   2.899   6.047
19396SOL    HW259630   6.376   2.875   5.941
19397SOL     OW59631   6.027   2.655   6.822
19397SOL    HW159632   6.077   2.681   6.900
19397SOL    HW259633   5.984   2.573   6.847
19398SOL     OW59634   6.866   2.218   6.895
19398SOL    HW159635   6.899   2.304   6.920
19398SOL    HW259636   6.858   2.223   6.799
19399SOL     OW59637   5.686   3.486   6.976
19399SOL    HW159638   5.629   3.464   6.903
19399SOL    HW259639   5.768   3.440   6.957
19400SOL     OW59640   5.968   2.994   6.083
19400SOL    HW159641   5.922   3.076   6.066
19400SOL    HW259642   5.914   2.927   6.043
19401SOL     OW59643   6.136   2.399   6.452
19401SOL    HW159644   6.149   2.454   6.375
19401SOL    HW259645   6.203   2.427   6.514
19402SOL     OW59646   6.833   3.191   5.999
19402SOL    HW159647   6.892   3.265   6.015
19402SOL    HW259648   6.747   3.223   6.026
19403SOL     OW59649   6.872   3.317   6.737
19403SOL    HW159650   6.894   3.301   6.829
19403SOL    HW259651   6.809   3.249   6.715
19404SOL     OW59652   7.170   2.548   6.105
19404SOL    HW159653   7.101   2.483   6.091
19404SOL    HW259654   7.238   2.524   6.042
19405SOL     OW59655   5.935   3.391   6.898
19405SOL    HW159656   5.908   3.337   6.824
19405SOL    HW259657   6.030   3.402   6.886
19406SOL     OW59658   6.023   2.605   7.196
19406SOL    HW159659   6.082   2.651   7.137
19406SOL    HW259660   6.049   2.514   7.189
19407SOL     OW59661   7.202   2.646   7.281
19407SOL    HW159662   7.114   2.684   7.272
19407SOL    HW259663   7.250   2.679   7.205
19408SOL     OW59664   6.590   2.002   7.373
19408SOL    HW159665   6.643   2.076   7.343
19408SOL    HW259666   6.632   1.925   7.336
19409SOL     OW59667   6.070   1.892   7.349
19409SOL    HW159668   6.030   1.844   7.276
19409SOL    HW259669   6.023   1.976   7.351
19410SOL     OW59670   6.179   2.733   6.613
19410SOL    HW159671   6.168   2.828   6.602
19410SOL    HW259672   6.121   2.711   6.686
19411SOL     OW59673   6.906   2.717   6.615
19411SOL    HW159674   6.817   2.688   6.595
19411SOL    HW259675   6.961   2.641   6.595
19412SOL     OW59676   6.783   2.389   5.847
19412SOL    HW159677   6.793   2.309   5.898
19412SOL    HW259678   6.736   2.448   5.905
19413SOL     OW59679   5.727   3.172   6.876
19413SOL    HW159680   5.682   3.125   6.947
19413SOL    HW259681   5.661   3.231   6.841
19414SOL     OW59682   6.319   2.500   6.645
19414SOL    HW159683   6.387   2.488   6.579
19414SOL    HW259684   6.281   2.586   6.625
19415SOL     OW59685   7.326   2.834   7.443
19415SOL    HW159686   7.282   2.765   7.393
19415SOL    HW259687   7.271   2.847   7.520
19416SOL     OW59688   5.884   1.921   6.210
19416SOL    HW159689   5.864   2.014   6.225
19416SOL    HW259690   5.890   1.883   6.298
19417SOL     OW59691   6.638   2.625   6.551
19417SOL    HW159692   6.615   2.640   6.642
19417SOL    HW259693   6.604   2.537   6.532
19418SOL     OW59694   6.584   3.442   7.315
19418SOL    HW159695   6.553   3.477   7.231
19418SOL    HW259696   6.621   3.356   7.293
19419SOL     OW59697   5.953   2.738   7.424
19419SOL    HW159698   6.033   2.787   7.442
19419SOL    HW259699   5.970   2.693   7.341
19420SOL     OW59700   7.093   2.142   5.706
19420SOL    HW159701   7.035   2.070   5.729
19420SOL    HW259702   7.140   2.162   5.788
19421SOL     OW59703   6.907   2.691   5.643
19421SOL    HW159704   6.933   2.599   5.642
19421SOL    HW259705   6.924   2.721   5.554
19422SOL     OW59706   6.667   3.199   6.429
19422SOL    HW159707   6.667   3.124   6.369
19422SOL    HW259708   6.728   3.262   6.389
19423SOL     OW59709   5.890   2.668   6.532
19423SOL    HW159710   5.984   2.681   6.520
19423SOL    HW259711   5.882   2.576   6.558
19424SOL     OW59712   5.907   2.396   6.592
19424SOL    HW159713   5.867   2.310   6.580
19424SOL    HW259714   5.985   2.395   6.537
19425SOL     OW59715   6.719   2.232   7.290
19425SOL    HW159716   6.667   2.292   7.344
19425SOL    HW259717   6.799   2.281   7.270
19426SOL     OW59718   6.754   2.057   7.077
19426SOL    HW159719   6.732   2.123   7.143
19426SOL    HW259720   6.789   2.107   7.004
19427SOL     OW59721   5.591   3.166   5.754
19427SOL    HW159722   5.506   3.192   5.718
19427SOL    HW259723   5.574   3.082   5.797
19428SOL     OW59724   5.658   3.662   6.515
19428SOL    HW159725   5.628   3.579   6.478
19428SOL    HW259726   5.753   3.660   6.505
19429SOL     OW59727   6.083   3.442   6.487
19429SOL    HW159728   6.152   3.505   6.509
19429SOL    HW259729   6.124   3.381   6.426
19430SOL     OW59730   6.561   2.647   6.805
19430SOL    HW159731   6.609   2.622   6.884
19430SOL    HW259732   6.474   2.607   6.817
19431SOL     OW59733   5.602   2.377   6.718
19431SOL    HW159734   5.668   2.408   6.656
19431SOL    HW259735   5.637   2.402   6.804
19432SOL     OW59736   5.812   2.370   7.288
19432SOL    HW159737   5.860   2.318   7.224
19432SOL    HW259738   5.791   2.451   7.243
19433SOL     OW59739   6.972   2.787   7.243
19433SOL    HW159740   6.976   2.883   7.242
19433SOL    HW259741   6.965   2.763   7.151
19434SOL     OW59742   6.415   2.446   5.934
19434SOL    HW159743   6.417   2.363   5.887
19434SOL    HW259744   6.332   2.486   5.910
19435SOL     OW59745   7.239   2.471   6.766
19435SOL    HW159746   7.194   2.417   6.831
19435SOL    HW259747   7.305   2.413   6.729
19436SOL     OW59748   5.848   3.414   7.318
19436SOL    HW159749   5.807   3.479   7.375
19436SOL    HW259750   5.838   3.332   7.366
19437SOL     OW59751   6.290   2.314   6.842
19437SOL    HW159752   6.238   2.240   6.812
19437SOL    HW259753   6.284   2.379   6.772
19438SOL     OW59754   6.544   3.537   7.050
19438SOL    HW159755   6.484   3.493   6.990
19438SOL    HW259756   6.524   3.630   7.040
19439SOL     OW59757   6.035   2.354   5.763
19439SOL    HW159758   6.093   2.426   5.788
19439SOL    HW259759   5.948   2.394   5.760
19440SOL     OW59760   5.758   2.972   7.077
19440SOL    HW159761   5.684   2.931   7.122
19440SOL    HW259762   5.769   2.921   6.997
19441SOL     OW59763   6.909   2.915   6.796
19441SOL    HW159764   6.913   2.842   6.734
19441SOL    HW259765   6.843   2.974   6.759
19442SOL     OW59766   6.842   2.741   5.913
19442SOL    HW159767   6.774   2.679   5.940
19442SOL    HW259768   6.859   2.720   5.821
19443SOL     OW59769   7.393   3.596   6.755
19443SOL    HW159770   7.433   3.629   6.674
19443SOL    HW259771   7.345   3.518   6.727
19444SOL     OW59772   6.851   3.597   6.701
19444SOL    HW159773   6.927   3.604   6.644
19444SOL    HW259774   6.842   3.504   6.719
19445SOL     OW59775   5.704   3.103   6.611
19445SOL    HW159776   5.715   3.112   6.706
19445SOL    HW259777   5.622   3.149   6.592
19446SOL     OW59778   6.255   3.544   7.323
19446SOL    HW159779   6.186   3.609   7.341
19446SOL    HW259780   6.280   3.562   7.232
19447SOL     OW59781   7.383   1.978   6.175
19447SOL    HW159782   7.339   2.026   6.105
19447SOL    HW259783   7.338   1.894   6.178
19448SOL     OW59784   6.985   3.426   6.067
19448SOL    HW159785   7.040   3.463   5.999
19448SOL    HW259786   6.925   3.496   6.092
19449SOL     OW59787   5.726   3.657   7.420
19449SOL    HW159788   5.675   3.590   7.466
19449SOL    HW259789   5.758   3.715   7.490
19450SOL     OW59790   6.909   2.819   6.174
19450SOL    HW159791   6.961   2.777   6.242
19450SOL    HW259792   6.881   2.748   6.117
19451SOL     OW59793   6.373   3.146   7.003
19451SOL    HW159794   6.344   3.189   7.084
19451SOL    HW259795   6.300   3.156   6.943
19452SOL     OW59796   6.307   3.446   5.716
19452SOL    HW159797   6.284   3.488   5.633
19452SOL    HW259798   6.231   3.393   5.738
19453SOL     OW59799   7.255   3.599   7.002
19453SOL    HW159800   7.292   3.603   6.914
19453SOL    HW259801   7.226   3.689   7.020
19454SOL     OW59802   7.443   2.043   6.526
19454SOL    HW159803   7.463   1.954   6.497
19454SOL    HW259804   7.355   2.060   6.492
19455SOL     OW59805   5.843   2.178   6.298
19455SOL    HW159806   5.758   2.211   6.272
19455SOL    HW259807   5.839   2.172   6.393
19456SOL     OW59808   6.802   3.458   5.613
19456SOL    HW159809   6.785   3.369   5.643
19456SOL    HW259810   6.733   3.476   5.549
19457SOL     OW59811   6.414   2.878   6.964
19457SOL    HW159812   6.426   2.875   6.869
19457SOL    HW259813   6.398   2.970   6.983
19458SOL     OW59814   6.531   2.806   5.897
19458SOL    HW159815   6.580   2.825   5.816
19458SOL    HW259816   6.551   2.714   5.916
19459SOL     OW59817   7.078   3.486   5.633
19459SOL    HW159818   6.984   3.480   5.619
19459SOL    HW259819   7.115   3.494   5.545
19460SOL     OW59820   5.961   3.161   7.076
19460SOL    HW159821   5.936   3.233   7.017
19460SOL    HW259822   5.889   3.098   7.068
19461SOL     OW59823   7.207   3.155   6.882
19461SOL    HW159824   7.242   3.120   6.964
19461SOL    HW259825   7.140   3.218   6.909
19462SOL     OW59826   6.657   2.965   6.292
19462SOL    HW159827   6.582   2.932   6.341
19462SOL    HW259828   6.688   2.890   6.241
19463SOL     OW59829   6.570   2.124   6.580
19463SOL    HW159830   6.626   2.106   6.504
19463SOL    HW259831   6.576   2.044   6.633
19464SOL     OW59832   6.165   3.372   6.069
19464SOL    HW159833   6.151   3.326   5.986
19464SOL    HW259834   6.088   3.428   6.079
19465SOL     OW59835   7.334   2.256   6.965
19465SOL    HW159836   7.398   2.324   6.946
19465SOL    HW259837   7.348   2.189   6.898
19466SOL     OW59838   5.840   3.203   5.868
19466SOL    HW159839   5.748   3.205   5.843
19466SOL    HW259840   5.842   3.237   5.957
19467SOL     OW59841   5.744   2.923   7.413
19467SOL    HW159842   5.671   2.898   7.357
19467SOL    HW259843   5.806   2.851   7.405
19468SOL     OW59844   6.282   2.038   7.090
19468SOL    HW159845   6.366   2.028   7.044
19468SOL    HW259846   6.304   2.085   7.170
19469SOL     OW59847   5.662   2.186   5.621
19469SOL    HW159848   5.570   2.163   5.621
19469SOL    HW259849   5.668   2.264   5.566
19470SOL     OW59850   7.012   2.731   6.980
19470SOL    HW159851   6.959   2.788   6.925
19470SOL    HW259852   7.097   2.728   6.937
19471SOL     OW59853   5.649   2.015   5.889
19471SOL    HW159854   5.631   2.095   5.840
19471SOL    HW259855   5.732   1.983   5.855
19472SOL     OW59856   6.751   3.199   5.698
19472SOL    HW159857   6.657   3.194   5.679
19472SOL    HW259858   6.756   3.204   5.794
19473SOL     OW59859   6.214   2.695   7.023
19473SOL    HW159860   6.267   2.773   7.008
19473SOL    HW259861   6.277   2.623   7.023
19474SOL     OW59862   7.102   3.639   6.560
19474SOL    HW159863   7.090   3.674   6.471
19474SOL    HW259864   7.128   3.715   6.612
19475SOL     OW59865   6.304   2.422   7.277
19475SOL    HW159866   6.345   2.483   7.339
19475SOL    HW259867   6.328   2.335   7.309
19476SOL     OW59868   7.054   3.059   7.203
19476SOL    HW159869   7.041   3.062   7.298
19476SOL    HW259870   7.148   3.075   7.191
19477SOL     OW59871   5.966   3.604   7.156
19477SOL    HW159872   5.888   3.652   7.129
19477SOL    HW259873   5.933   3.523   7.195
19478SOL     OW59874   7.256   2.738   6.841
19478SOL    HW159875   7.250   2.651   6.802
19478SOL    HW259876   7.242   2.798   6.768
19479SOL     OW59877   6.806   2.189   6.046
19479SOL    HW159878   6.865   2.114   6.035
19479SOL    HW259879   6.840   2.234   6.124
19480SOL     OW59880   6.178   2.592   6.256
19480SOL    HW159881   6.211   2.681   6.242
19480SOL    HW259882   6.109   2.582   6.191
19481SOL     OW59883   7.349   2.240   7.228
19481SOL    HW159884   7.335   2.250   7.134
19481SOL    HW259885   7.282   2.178   7.256
19482SOL     OW59886   7.356   2.773   7.093
19482SOL    HW159887   7.336   2.865   7.110
19482SOL    HW259888   7.328   2.758   7.003
19483SOL     OW59889   6.478   3.234   5.638
19483SOL    HW159890   6.449   3.202   5.723
19483SOL    HW259891   6.440   3.322   5.631
19484SOL     OW59892   6.267   3.643   6.527
19484SOL    HW159893   6.217   3.724   6.516
19484SOL    HW259894   6.355   3.665   6.496
19485SOL     OW59895   6.465   2.848   6.448
19485SOL    HW159896   6.505   2.770   6.487
19485SOL    HW259897   6.419   2.890   6.520
19486SOL     OW59898   6.691   2.874   5.678
19486SOL    HW159899   6.645   2.902   5.599
19486SOL    HW259900   6.750   2.805   5.648
19487SOL     OW59901   5.815   3.175   7.455
19487SOL    HW159902   5.788   3.088   7.427
19487SOL    HW259903   5.750   3.200   7.521
19488SOL     OW59904   5.677   3.066   6.275
19488SOL    HW159905   5.616   3.012   6.325
19488SOL    HW259906   5.763   3.045   6.312
19489SOL     OW59907   6.269   3.278   7.219
19489SOL    HW159908   6.186   3.233   7.238
19489SOL    HW259909   6.257   3.366   7.257
19490SOL     OW59910   7.420   2.052   6.802
19490SOL    HW159911   7.392   1.972   6.846
19490SOL    HW259912   7.379   2.048   6.716
19491SOL     OW59913   6.027   2.296   6.113
19491SOL    HW159914   6.056   2.224   6.057
19491SOL    HW259915   5.970   2.254   6.177
19492SOL     OW59916   7.277   3.356   6.697
19492SOL    HW159917   7.183   3.358   6.681
19492SOL    HW259918   7.289   3.288   6.763
19493SOL     OW59919   5.921   2.395   6.862
19493SOL    HW159920   5.923   2.301   6.878
19493SOL    HW259921   5.920   2.403   6.767
19494SOL     OW59922   6.426   3.438   6.255
19494SOL    HW159923   6.396   3.510   6.200
19494SOL    HW259924   6.349   3.382   6.265
19495SOL     OW59925   7.079   2.027   6.795
19495SOL    HW159926   6.993   1.989   6.813
19495SOL    HW259927   7.061   2.099   6.734
19496SOL     OW59928   6.593   1.864   6.713
19496SOL    HW159929   6.555   1.813   6.642
19496SOL    HW259930   6.682   1.832   6.721
19497SOL     OW59931   6.399   3.161   5.880
19497SOL    HW159932   6.347   3.084   5.903
19497SOL    HW259933   6.421   3.201   5.964
19498SOL     OW59934   6.219   3.413   6.871
19498SOL    HW159935   6.216   3.484   6.935
19498SOL    HW259936   6.283   3.442   6.806
19499SOL     OW59937   6.944   1.910   5.759
19499SOL    HW159938   6.978   1.843   5.700
19499SOL    HW259939   6.857   1.878   5.783
19500SOL     OW59940   6.893   2.329   6.276
19500SOL    HW159941   6.827   2.399   6.280
19500SOL    HW259942   6.889   2.288   6.362
19501SOL     OW59943   7.179   2.067   6.464
19501SOL    HW159944   7.100   2.100   6.506
19501SOL    HW259945   7.195   2.128   6.392
19502SOL     OW59946   5.672   2.916   5.878
19502SOL    HW159947   5.694   2.988   5.936
19502SOL    HW259948   5.590   2.881   5.913
19503SOL     OW59949   6.493   3.517   5.914
19503SOL    HW159950   6.424   3.497   5.851
19503SOL    HW259951   6.455   3.586   5.969
19504SOL     OW59952   5.800   2.459   7.560
19504SOL    HW159953   5.802   2.539   7.612
19504SOL    HW259954   5.840   2.484   7.476
19505SOL     OW59955   5.570   2.247   8.106
19505SOL    HW159956   5.486   2.285   8.135
19505SOL    HW259957   5.546   2.163   8.067
19506SOL     OW59958   6.154   3.150   8.636
19506SOL    HW159959   6.077   3.137   8.581
19506SOL    HW259960   6.160   3.245   8.647
19507SOL     OW59961   7.109   3.423   8.147
19507SOL    HW159962   7.088   3.375   8.227
19507SOL    HW259963   7.065   3.375   8.077
19508SOL     OW59964   6.699   2.575   8.136
19508SOL    HW159965   6.760   2.648   8.132
19508SOL    HW259966   6.657   2.585   8.222
19509SOL     OW59967   7.383   2.445   7.668
19509SOL    HW159968   7.337   2.457   7.584
19509SOL    HW259969   7.319   2.399   7.723
19510SOL     OW59970   6.379   3.024   8.526
19510SOL    HW159971   6.296   3.041   8.571
19510SOL    HW259972   6.389   3.099   8.467
19511SOL     OW59973   6.533   2.624   9.290
19511SOL    HW159974   6.464   2.669   9.338
19511SOL    HW259975   6.524   2.655   9.200
19512SOL     OW59976   6.273   2.850   8.097
19512SOL    HW159977   6.338   2.852   8.167
19512SOL    HW259978   6.202   2.907   8.128
19513SOL     OW59979   6.286   3.021   9.267
19513SOL    HW159980   6.321   3.107   9.293
19513SOL    HW259981   6.202   3.041   9.227
19514SOL     OW59982   5.895   3.292   8.493
19514SOL    HW159983   5.826   3.225   8.491
19514SOL    HW259984   5.886   3.339   8.410
19515SOL     OW59985   7.046   3.353   8.819
19515SOL    HW159986   7.102   3.430   8.815
19515SOL    HW259987   6.980   3.375   8.885
19516SOL     OW59988   6.024   2.293   8.949
19516SOL    HW159989   6.100   2.254   8.904
19516SOL    HW259990   5.971   2.218   8.974
19517SOL     OW59991   7.181   2.295   8.186
19517SOL    HW159992   7.100   2.283   8.137
19517SOL    HW259993   7.179   2.387   8.213
19518SOL     OW59994   5.837   3.598   7.930
19518SOL    HW159995   5.759   3.618   7.878
19518SOL    HW259996   5.897   3.559   7.867
19519SOL     OW59997   6.722   3.200   9.145
19519SOL    HW159998   6.784   3.174   9.213
19519SOL    HW259999   6.672   3.120   9.127
19520SOL     OW60000   5.861   3.365   8.116
19520SOL    HW160001   5.833   3.409   8.035
19520SOL    HW260002   5.810   3.284   8.118
19521SOL     OW60003   5.892   2.949   8.414
19521SOL    HW160004   5.853   2.864   8.393
19521SOL    HW260005   5.818   3.008   8.425
19522SOL     OW60006   6.184   3.657   8.880
19522SOL    HW160007   6.097   3.647   8.918
19522SOL    HW260008   6.206   3.749   8.894
19523SOL     OW60009   6.211   2.825   7.574
19523SOL    HW160010   6.242   2.887   7.508
19523SOL    HW260011   6.224   2.870   7.658
19524SOL     OW60012   7.178   2.001   8.901
19524SOL    HW160013   7.210   2.083   8.862
19524SOL    HW260014   7.163   2.022   8.993
19525SOL     OW60015   5.719   2.494   8.021
19525SOL    HW160016   5.660   2.419   8.026
19525SOL    HW260017   5.695   2.548   8.096
19526SOL     OW60018   7.438   3.614   7.787
19526SOL    HW160019   7.516   3.590   7.837
19526SOL    HW260020   7.454   3.704   7.759
19527SOL     OW60021   5.636   3.460   7.578
19527SOL    HW160022   5.602   3.372   7.591
19527SOL    HW260023   5.615   3.506   7.659
19528SOL     OW60024   7.325   2.812   8.085
19528SOL    HW160025   7.288   2.723   8.083
19528SOL    HW260026   7.282   2.857   8.013
19529SOL     OW60027   7.240   2.987   7.877
19529SOL    HW160028   7.328   2.981   7.838
19529SOL    HW260029   7.248   3.058   7.941
19530SOL     OW60030   5.721   2.663   8.988
19530SOL    HW160031   5.811   2.638   9.010
19530SOL    HW260032   5.727   2.704   8.902
19531SOL     OW60033   6.181   3.241   8.188
19531SOL    HW160034   6.140   3.156   8.202
19531SOL    HW260035   6.180   3.253   8.093
19532SOL     OW60036   6.861   3.089   8.875
19532SOL    HW160037   6.884   3.025   8.808
19532SOL    HW260038   6.936   3.088   8.935
19533SOL     OW60039   6.405   1.864   7.972
19533SOL    HW160040   6.448   1.943   7.940
19533SOL    HW260041   6.312   1.888   7.975
19534SOL     OW60042   5.751   2.788   8.746
19534SOL    HW160043   5.836   2.760   8.712
19534SOL    HW260044   5.700   2.810   8.668
19535SOL     OW60045   7.135   2.852   7.656
19535SOL    HW160046   7.062   2.798   7.686
19535SOL    HW260047   7.167   2.897   7.734
19536SOL     OW60048   6.742   3.664   9.076
19536SOL    HW160049   6.784   3.728   9.019
19536SOL    HW260050   6.768   3.579   9.040
19537SOL     OW60051   6.992   3.290   8.355
19537SOL    HW160052   6.967   3.301   8.447
19537SOL    HW260053   7.009   3.196   8.346
19538SOL     OW60054   7.226   3.630   8.011
19538SOL    HW160055   7.290   3.585   7.957
19538SOL    HW260056   7.201   3.565   8.077
19539SOL     OW60057   6.182   2.580   7.717
19539SOL    HW160058   6.188   2.660   7.665
19539SOL    HW260059   6.117   2.601   7.784
19540SOL     OW60060   6.866   2.208   8.363
19540SOL    HW160061   6.776   2.182   8.381
19540SOL    HW260062   6.917   2.171   8.435
19541SOL     OW60063   7.173   3.554   7.730
19541SOL    HW160064   7.269   3.559   7.727
19541SOL    HW260065   7.148   3.531   7.641
19542SOL     OW60066   6.356   2.486   8.902
19542SOL    HW160067   6.351   2.461   8.995
19542SOL    HW260068   6.386   2.406   8.858
19543SOL     OW60069   6.994   2.335   9.111
19543SOL    HW160070   7.055   2.381   9.168
19543SOL    HW260071   7.033   2.248   9.099
19544SOL     OW60072   6.535   2.737   9.036
19544SOL    HW160073   6.583   2.663   8.996
19544SOL    HW260074   6.486   2.775   8.964
19545SOL     OW60075   6.639   2.549   7.869
19545SOL    HW160076   6.655   2.554   7.964
19545SOL    HW260077   6.552   2.510   7.862
19546SOL     OW60078   5.657   2.638   8.250
19546SOL    HW160079   5.743   2.669   8.280
19546SOL    HW260080   5.606   2.718   8.240
19547SOL     OW60081   5.699   3.733   9.010
19547SOL    HW160082   5.683   3.706   9.101
19547SOL    HW260083   5.619   3.708   8.964
19548SOL     OW60084   6.492   2.191   7.629
19548SOL    HW160085   6.519   2.270   7.582
19548SOL    HW260086   6.538   2.120   7.584
19549SOL     OW60087   6.993   2.993   8.018
19549SOL    HW160088   7.062   2.988   7.951
19549SOL    HW260089   6.928   3.052   7.980
19550SOL     OW60090   6.123   2.027   8.342
19550SOL    HW160091   6.134   2.057   8.432
19550SOL    HW260092   6.137   2.105   8.289
19551SOL     OW60093   6.621   3.398   7.968
19551SOL    HW160094   6.566   3.435   7.899
19551SOL    HW260095   6.609   3.303   7.961
19552SOL     OW60096   5.953   3.598   8.263
19552SOL    HW160097   5.898   3.555   8.198
19552SOL    HW260098   5.956   3.690   8.235
19553SOL     OW60099   7.410   2.916   8.317
19553SOL    HW160100   7.362   2.887   8.240
19553SOL    HW260101   7.344   2.927   8.385
19554SOL     OW60102   6.806   3.406   8.971
19554SOL    HW160103   6.798   3.330   9.028
19554SOL    HW260104   6.755   3.382   8.893
19555SOL     OW60105   5.862   2.707   7.687
19555SOL    HW160106   5.887   2.780   7.744
19555SOL    HW260107   5.888   2.736   7.599
19556SOL     OW60108   6.026   3.112   9.197
19556SOL    HW160109   6.013   3.131   9.104
19556SOL    HW260110   5.939   3.117   9.236
19557SOL     OW60111   6.725   3.622   7.738
19557SOL    HW160112   6.633   3.599   7.754
19557SOL    HW260113   6.744   3.586   7.652
19558SOL     OW60114   5.781   2.121   8.952
19558SOL    HW160115   5.699   2.168   8.964
19558SOL    HW260116   5.809   2.098   9.041
19559SOL     OW60117   7.220   3.244   7.508
19559SOL    HW160118   7.164   3.320   7.520
19559SOL    HW260119   7.159   3.170   7.499
19560SOL     OW60120   6.077   3.580   7.772
19560SOL    HW160121   6.110   3.660   7.813
19560SOL    HW260122   6.138   3.564   7.699
19561SOL     OW60123   6.984   1.962   7.894
19561SOL    HW160124   6.981   1.940   7.801
19561SOL    HW260125   7.078   1.964   7.915
19562SOL     OW60126   5.860   3.653   8.654
19562SOL    HW160127   5.889   3.565   8.677
19562SOL    HW260128   5.801   3.640   8.579
19563SOL     OW60129   6.541   3.556   8.335
19563SOL    HW160130   6.629   3.518   8.326
19563SOL    HW260131   6.485   3.500   8.281
19564SOL     OW60132   6.001   2.541   7.937
19564SOL    HW160133   6.010   2.446   7.949
19564SOL    HW260134   5.907   2.557   7.937
19565SOL     OW60135   7.106   2.084   9.155
19565SOL    HW160136   7.142   2.124   9.234
19565SOL    HW260137   7.025   2.041   9.184
19566SOL     OW60138   6.202   1.932   7.582
19566SOL    HW160139   6.295   1.925   7.561
19566SOL    HW260140   6.157   1.919   7.498
19567SOL     OW60141   6.361   2.144   9.269
19567SOL    HW160142   6.427   2.087   9.230
19567SOL    HW260143   6.277   2.108   9.238
19568SOL     OW60144   6.459   3.385   8.646
19568SOL    HW160145   6.449   3.356   8.555
19568SOL    HW260146   6.536   3.339   8.678
19569SOL     OW60147   6.923   2.463   8.877
19569SOL    HW160148   6.964   2.425   8.955
19569SOL    HW260149   6.970   2.545   8.863
19570SOL     OW60150   6.393   3.262   8.383
19570SOL    HW160151   6.479   3.244   8.345
19570SOL    HW260152   6.333   3.252   8.309
19571SOL     OW60153   6.510   2.367   8.350
19571SOL    HW160154   6.487   2.357   8.258
19571SOL    HW260155   6.547   2.282   8.375
19572SOL     OW60156   6.139   1.930   7.956
19572SOL    HW160157   6.055   1.932   8.003
19572SOL    HW260158   6.136   2.006   7.898
19573SOL     OW60159   7.039   3.039   7.472
19573SOL    HW160160   7.058   2.968   7.534
19573SOL    HW260161   6.975   3.094   7.518
19574SOL     OW60162   5.869   1.945   7.612
19574SOL    HW160163   5.883   2.009   7.542
19574SOL    HW260164   5.956   1.907   7.627
19575SOL     OW60165   6.527   2.102   7.897
19575SOL    HW160166   6.500   2.137   7.812
19575SOL    HW260167   6.620   2.122   7.902
19576SOL     OW60168   6.664   2.526   8.921
19576SOL    HW160169   6.618   2.442   8.918
19576SOL    HW260170   6.755   2.504   8.903
19577SOL     OW60171   6.787   3.451   8.255
19577SOL    HW160172   6.802   3.445   8.161
19577SOL    HW260173   6.863   3.408   8.294
19578SOL     OW60174   6.065   2.997   8.206
19578SOL    HW160175   6.002   2.985   8.277
19578SOL    HW260176   6.014   2.988   8.126
19579SOL     OW60177   6.837   3.737   7.986
19579SOL    HW160178   6.768   3.705   7.928
19579SOL    HW260179   6.797   3.734   8.073
19580SOL     OW60180   6.599   2.399   7.481
19580SOL    HW160181   6.554   2.479   7.456
19580SOL    HW260182   6.665   2.427   7.545
19581SOL     OW60183   5.675   2.433   8.836
19581SOL    HW160184   5.766   2.426   8.809
19581SOL    HW260185   5.672   2.510   8.893
19582SOL     OW60186   6.140   2.063   8.614
19582SOL    HW160187   6.183   2.019   8.687
19582SOL    HW260188   6.049   2.072   8.642
19583SOL     OW60189   6.442   2.308   8.087
19583SOL    HW160190   6.404   2.371   8.026
19583SOL    HW260191   6.471   2.235   8.032
19584SOL     OW60192   6.601   1.911   8.199
19584SOL    HW160193   6.547   1.922   8.121
19584SOL    HW260194   6.572   1.828   8.237
19585SOL     OW60195   7.029   3.018   8.304
19585SOL    HW160196   6.961   2.950   8.305
19585SOL    HW260197   7.056   3.024   8.213
19586SOL     OW60198   7.006   2.442   8.510
19586SOL    HW160199   6.979   2.417   8.422
19586SOL    HW260200   7.095   2.476   8.499
19587SOL     OW60201   7.458   2.668   7.816
19587SOL    HW160202   7.497   2.624   7.892
19587SOL    HW260203   7.420   2.598   7.764
19588SOL     OW60204   6.075   3.289   7.604
19588SOL    HW160205   6.003   3.278   7.666
19588SOL    HW260206   6.046   3.242   7.526
19589SOL     OW60207   7.280   3.172   8.077
19589SOL    HW160208   7.370   3.143   8.096
19589SOL    HW260209   7.270   3.252   8.129
19590SOL     OW60210   6.980   2.425   7.524
19590SOL    HW160211   6.910   2.413   7.588
19590SOL    HW260212   7.056   2.381   7.563
19591SOL     OW60213   6.114   2.120   7.767
19591SOL    HW160214   6.148   2.064   7.697
19591SOL    HW260215   6.090   2.201   7.723
19592SOL     OW60216   7.338   3.100   9.042
19592SOL    HW160217   7.422   3.068   9.008
19592SOL    HW260218   7.353   3.194   9.055
19593SOL     OW60219   6.642   3.244   8.811
19593SOL    HW160220   6.563   3.194   8.834
19593SOL    HW260221   6.714   3.184   8.827
19594SOL     OW60222   7.198   3.478   9.108
19594SOL    HW160223   7.185   3.519   9.022
19594SOL    HW260224   7.282   3.432   9.099
19595SOL     OW60225   6.715   3.090   8.551
19595SOL    HW160226   6.628   3.058   8.575
19595SOL    HW260227   6.705   3.121   8.461
19596SOL     OW60228   7.208   2.951   8.517
19596SOL    HW160229   7.186   3.008   8.590
19596SOL    HW260230   7.141   2.970   8.451
19597SOL     OW60231   6.514   1.930   8.827
19597SOL    HW160232   6.541   1.917   8.736
19597SOL    HW260233   6.541   2.019   8.848
19598SOL     OW60234   6.557   2.967   9.183
19598SOL    HW160235   6.463   2.980   9.196
19598SOL    HW260236   6.563   2.894   9.122
19599SOL     OW60237   6.300   2.929   7.821
19599SOL    HW160238   6.272   2.901   7.908
19599SOL    HW260239   6.377   2.876   7.802
19600SOL     OW60240   5.997   2.680   8.700
19600SOL    HW160241   6.070   2.693   8.760
19600SOL    HW260242   5.974   2.588   8.709
19601SOL     OW60243   6.856   2.222   8.745
19601SOL    HW160244   6.891   2.309   8.763
19601SOL    HW260245   6.761   2.232   8.751
19602SOL     OW60246   5.657   3.429   8.802
19602SOL    HW160247   5.605   3.485   8.744
19602SOL    HW260248   5.748   3.446   8.778
19603SOL     OW60249   6.126   2.400   8.337
19603SOL    HW160250   6.135   2.456   8.260
19603SOL    HW260251   6.201   2.422   8.392
19604SOL     OW60252   6.830   3.177   7.909
19604SOL    HW160253   6.872   3.263   7.916
19604SOL    HW260254   6.814   3.166   7.815
19605SOL     OW60255   6.873   3.326   8.602
19605SOL    HW160256   6.932   3.319   8.676
19605SOL    HW260257   6.818   3.248   8.606
19606SOL     OW60258   7.168   2.493   7.921
19606SOL    HW160259   7.141   2.512   8.011
19606SOL    HW260260   7.139   2.569   7.871
19607SOL     OW60261   5.937   3.393   8.740
19607SOL    HW160262   5.919   3.352   8.655
19607SOL    HW260263   6.032   3.405   8.741
19608SOL     OW60264   5.987   2.613   9.041
19608SOL    HW160265   6.063   2.643   8.991
19608SOL    HW260266   6.003   2.519   9.054
19609SOL     OW60267   7.171   2.698   9.137
19609SOL    HW160268   7.092   2.716   9.086
19609SOL    HW260269   7.239   2.685   9.072
19610SOL     OW60270   6.580   1.979   9.209
19610SOL    HW160271   6.630   2.056   9.182
19610SOL    HW260272   6.623   1.906   9.165
19611SOL     OW60273   6.097   1.888   9.193
19611SOL    HW160274   6.052   1.833   9.129
19611SOL    HW260275   6.038   1.962   9.207
19612SOL     OW60276   6.191   2.734   8.496
19612SOL    HW160277   6.188   2.809   8.436
19612SOL    HW260278   6.115   2.747   8.554
19613SOL     OW60279   6.932   2.708   8.487
19613SOL    HW160280   6.957   2.705   8.394
19613SOL    HW260281   6.943   2.618   8.517
19614SOL     OW60282   6.786   2.384   7.710
19614SOL    HW160283   6.789   2.306   7.765
19614SOL    HW260284   6.743   2.450   7.764
19615SOL     OW60285   5.867   2.068   8.693
19615SOL    HW160286   5.841   2.091   8.782
19615SOL    HW260287   5.866   1.972   8.691
19616SOL     OW60288   5.660   3.164   8.738
19616SOL    HW160289   5.680   3.129   8.824
19616SOL    HW260290   5.643   3.257   8.753
19617SOL     OW60291   6.321   2.492   8.520
19617SOL    HW160292   6.392   2.474   8.459
19617SOL    HW260293   6.295   2.582   8.502
19618SOL     OW60294   7.339   2.822   9.314
19618SOL    HW160295   7.300   2.752   9.262
19618SOL    HW260296   7.277   2.894   9.308
19619SOL     OW60297   5.887   1.916   8.076
19619SOL    HW160298   5.859   2.006   8.089
19619SOL    HW260299   5.902   1.883   8.165
19620SOL     OW60300   7.213   2.249   7.806
19620SOL    HW160301   7.238   2.182   7.871
19620SOL    HW260302   7.188   2.325   7.859
19621SOL     OW60303   6.591   2.624   8.401
19621SOL    HW160304   6.609   2.637   8.493
19621SOL    HW260305   6.578   2.529   8.392
19622SOL     OW60306   6.558   3.412   9.179
19622SOL    HW160307   6.540   3.460   9.098
19622SOL    HW260308   6.614   3.340   9.152
19623SOL     OW60309   7.442   3.361   9.052
19623SOL    HW160310   7.460   3.390   8.963
19623SOL    HW260311   7.526   3.372   9.098
19624SOL     OW60312   5.869   2.814   9.193
19624SOL    HW160313   5.919   2.830   9.273
19624SOL    HW260314   5.913   2.740   9.152
19625SOL     OW60315   7.123   2.132   7.574
19625SOL    HW160316   7.057   2.067   7.599
19625SOL    HW260317   7.152   2.170   7.657
19626SOL     OW60318   6.876   2.682   7.477
19626SOL    HW160319   6.917   2.596   7.480
19626SOL    HW260320   6.905   2.720   7.394
19627SOL     OW60321   6.644   3.198   8.305
19627SOL    HW160322   6.648   3.120   8.249
19627SOL    HW260323   6.697   3.263   8.258
19628SOL     OW60324   5.916   2.657   8.367
19628SOL    HW160325   5.973   2.677   8.293
19628SOL    HW260326   5.974   2.616   8.432
19629SOL     OW60327   5.878   2.316   8.401
19629SOL    HW160328   5.835   2.397   8.374
19629SOL    HW260329   5.971   2.331   8.384
19630SOL     OW60330   6.719   2.310   9.167
19630SOL    HW160331   6.663   2.288   9.093
19630SOL    HW260332   6.808   2.301   9.133
19631SOL     OW60333   6.802   2.040   8.970
19631SOL    HW160334   6.723   2.093   8.957
19631SOL    HW260335   6.863   2.069   8.902
19632SOL     OW60336   5.619   3.182   7.650
19632SOL    HW160337   5.530   3.195   7.617
19632SOL    HW260338   5.618   3.093   7.686
19633SOL     OW60339   5.713   3.629   8.414
19633SOL    HW160340   5.656   3.565   8.371
19633SOL    HW260341   5.793   3.631   8.362
19634SOL     OW60342   6.556   2.644   8.685
19634SOL    HW160343   6.609   2.614   8.759
19634SOL    HW260344   6.476   2.592   8.690
19635SOL     OW60345   5.627   2.385   8.565
19635SOL    HW160346   5.625   2.461   8.508
19635SOL    HW260347   5.643   2.421   8.653
19636SOL     OW60348   5.802   2.403   9.190
19636SOL    HW160349   5.836   2.314   9.198
19636SOL    HW260350   5.732   2.397   9.126
19637SOL     OW60351   6.915   2.822   9.100
19637SOL    HW160352   6.958   2.907   9.092
19637SOL    HW260353   6.916   2.786   9.011
19638SOL     OW60354   6.394   2.430   7.821
19638SOL    HW160355   6.391   2.360   7.756
19638SOL    HW260356   6.325   2.490   7.795
19639SOL     OW60357   7.257   2.490   8.641
19639SOL    HW160358   7.207   2.414   8.673
19639SOL    HW260359   7.334   2.452   8.599
19640SOL     OW60360   5.914   3.422   9.222
19640SOL    HW160361   5.855   3.492   9.249
19640SOL    HW260362   5.866   3.341   9.240
19641SOL     OW60363   6.194   2.324   8.693
19641SOL    HW160364   6.210   2.241   8.649
19641SOL    HW260365   6.244   2.388   8.642
19642SOL     OW60366   6.477   3.533   8.939
19642SOL    HW160367   6.483   3.485   8.857
19642SOL    HW260368   6.493   3.625   8.915
19643SOL     OW60369   6.045   2.349   7.650
19643SOL    HW160370   6.096   2.429   7.665
19643SOL    HW260371   5.958   2.381   7.626
19644SOL     OW60372   5.779   2.979   8.936
19644SOL    HW160373   5.847   2.929   8.981
19644SOL    HW260374   5.757   2.926   8.859
19645SOL     OW60375   6.886   2.901   8.670
19645SOL    HW160376   6.905   2.834   8.605
19645SOL    HW260377   6.833   2.966   8.624
19646SOL     OW60378   6.917   2.713   7.750
19646SOL    HW160379   6.840   2.700   7.805
19646SOL    HW260380   6.885   2.708   7.660
19647SOL     OW60381   7.383   3.601   8.629
19647SOL    HW160382   7.434   3.633   8.555
19647SOL    HW260383   7.339   3.523   8.597
19648SOL     OW60384   6.833   3.601   8.576
19648SOL    HW160385   6.915   3.626   8.533
19648SOL    HW260386   6.838   3.506   8.584
19649SOL     OW60387   5.687   3.116   8.470
19649SOL    HW160388   5.650   3.133   8.557
19649SOL    HW260389   5.611   3.102   8.414
19650SOL     OW60390   6.269   3.561   9.174
19650SOL    HW160391   6.221   3.638   9.144
19650SOL    HW260392   6.340   3.552   9.109
19651SOL     OW60393   7.312   2.025   7.955
19651SOL    HW160394   7.383   2.003   7.895
19651SOL    HW260395   7.289   1.942   7.997
19652SOL     OW60396   6.935   3.440   7.885
19652SOL    HW160397   6.972   3.397   7.809
19652SOL    HW260398   6.841   3.447   7.866
19653SOL     OW60399   5.734   3.635   9.276
19653SOL    HW160400   5.682   3.572   9.326
19653SOL    HW260401   5.753   3.705   9.339
19654SOL     OW60402   6.866   2.791   8.139
19654SOL    HW160403   6.936   2.727   8.157
19654SOL    HW260404   6.909   2.858   8.087
19655SOL     OW60405   6.390   3.139   8.864
19655SOL    HW160406   6.354   3.178   8.944
19655SOL    HW260407   6.323   3.156   8.798
19656SOL     OW60408   6.273   3.470   7.591
19656SOL    HW160409   6.272   3.496   7.499
19656SOL    HW260410   6.201   3.406   7.597
19657SOL     OW60411   7.202   3.584   8.845
19657SOL    HW160412   7.260   3.589   8.769
19657SOL    HW260413   7.183   3.675   8.867
19658SOL     OW60414   7.433   2.034   8.407
19658SOL    HW160415   7.453   1.945   8.379
19658SOL    HW260416   7.345   2.050   8.374
19659SOL     OW60417   5.826   2.169   8.149
19659SOL    HW160418   5.737   2.199   8.131
19659SOL    HW260419   5.859   2.228   8.217
19660SOL     OW60420   6.785   3.519   7.494
19660SOL    HW160421   6.800   3.430   7.525
19660SOL    HW260422   6.717   3.510   7.427
19661SOL     OW60423   6.410   2.864   8.828
19661SOL    HW160424   6.449   2.839   8.745
19661SOL    HW260425   6.412   2.960   8.828
19662SOL     OW60426   6.514   2.778   7.762
19662SOL    HW160427   6.563   2.806   7.684
19662SOL    HW260428   6.562   2.702   7.795
19663SOL     OW60429   7.076   3.517   7.484
19663SOL    HW160430   6.983   3.493   7.480
19663SOL    HW260431   7.106   3.515   7.394
19664SOL     OW60432   5.967   3.193   8.942
19664SOL    HW160433   5.952   3.264   8.879
19664SOL    HW260434   5.901   3.128   8.922
19665SOL     OW60435   7.175   3.122   8.731
19665SOL    HW160436   7.267   3.137   8.755
19665SOL    HW260437   7.129   3.198   8.766
19666SOL     OW60438   6.648   2.967   8.175
19666SOL    HW160439   6.571   2.915   8.199
19666SOL    HW260440   6.712   2.902   8.147
19667SOL     OW60441   6.612   2.104   8.404
19667SOL    HW160442   6.613   2.050   8.324
19667SOL    HW260443   6.602   2.041   8.475
19668SOL     OW60444   6.201   3.358   7.936
19668SOL    HW160445   6.252   3.301   7.879
19668SOL    HW260446   6.131   3.391   7.880
19669SOL     OW60447   7.312   2.230   8.806
19669SOL    HW160448   7.371   2.305   8.814
19669SOL    HW260449   7.360   2.168   8.751
19670SOL     OW60450   5.865   3.244   7.782
19670SOL    HW160451   5.779   3.236   7.741
19670SOL    HW260452   5.876   3.162   7.830
19671SOL     OW60453   6.263   2.054   8.920
19671SOL    HW160454   6.351   2.043   8.882
19671SOL    HW260455   6.271   2.129   8.978
19672SOL     OW60456   7.014   2.733   8.854
19672SOL    HW160457   6.959   2.785   8.795
19672SOL    HW260458   7.101   2.734   8.813
19673SOL     OW60459   5.649   2.017   7.759
19673SOL    HW160460   5.632   2.107   7.732
19673SOL    HW260461   5.729   1.993   7.714
19674SOL     OW60462   6.197   2.700   8.885
19674SOL    HW160463   6.259   2.770   8.868
19674SOL    HW260464   6.251   2.620   8.887
19675SOL     OW60465   7.077   3.667   8.457
19675SOL    HW160466   7.092   3.685   8.364
19675SOL    HW260467   7.132   3.591   8.476
19676SOL     OW60468   6.326   2.408   9.164
19676SOL    HW160469   6.305   2.458   9.243
19676SOL    HW260470   6.344   2.319   9.195
19677SOL     OW60471   7.062   3.056   9.075
19677SOL    HW160472   7.060   3.077   9.169
19677SOL    HW260473   7.152   3.074   9.049
19678SOL     OW60474   5.955   3.621   9.021
19678SOL    HW160475   5.870   3.656   8.995
19678SOL    HW260476   5.933   3.538   9.065
19679SOL     OW60477   7.251   2.751   8.712
19679SOL    HW160478   7.254   2.663   8.676
19679SOL    HW260479   7.239   2.808   8.635
19680SOL     OW60480   6.795   2.170   7.900
19680SOL    HW160481   6.859   2.098   7.896
19680SOL    HW260482   6.825   2.223   7.974
19681SOL     OW60483   6.151   2.607   8.152
19681SOL    HW160484   6.205   2.682   8.128
19681SOL    HW260485   6.102   2.585   8.073
19682SOL     OW60486   7.410   2.206   9.065
19682SOL    HW160487   7.351   2.210   8.989
19682SOL    HW260488   7.362   2.250   9.135
19683SOL     OW60489   7.363   2.799   8.954
19683SOL    HW160490   7.328   2.887   8.973
19683SOL    HW260491   7.335   2.782   8.864
19684SOL     OW60492   6.428   3.248   7.499
19684SOL    HW160493   6.371   3.305   7.550
19684SOL    HW260494   6.465   3.306   7.432
19685SOL     OW60495   6.255   3.632   8.362
19685SOL    HW160496   6.231   3.725   8.356
19685SOL    HW260497   6.351   3.632   8.363
19686SOL     OW60498   6.442   2.839   8.315
19686SOL    HW160499   6.492   2.762   8.341
19686SOL    HW260500   6.424   2.885   8.398
19687SOL     OW60501   6.658   2.840   7.543
19687SOL    HW160502   6.634   2.900   7.472
19687SOL    HW260503   6.731   2.789   7.508
19688SOL     OW60504   5.779   3.173   9.286
19688SOL    HW160505   5.713   3.145   9.223
19688SOL    HW260506   5.733   3.177   9.369
19689SOL     OW60507   5.686   3.117   8.128
19689SOL    HW160508   5.649   3.043   8.177
19689SOL    HW260509   5.744   3.076   8.064
19690SOL     OW60510   6.218   3.286   9.046
19690SOL    HW160511   6.143   3.236   9.015
19690SOL    HW260512   6.231   3.353   8.979
19691SOL     OW60513   7.453   2.024   8.676
19691SOL    HW160514   7.412   1.938   8.690
19691SOL    HW260515   7.437   2.043   8.584
19692SOL     OW60516   6.031   2.275   7.988
19692SOL    HW160517   6.059   2.224   7.912
19692SOL    HW260518   5.953   2.229   8.020
19693SOL     OW60519   7.256   3.375   8.556
19693SOL    HW160520   7.303   3.369   8.473
19693SOL    HW260521   7.269   3.289   8.597
19694SOL     OW60522   5.925   2.416   8.731
19694SOL    HW160523   5.967   2.382   8.809
19694SOL    HW260524   5.977   2.382   8.658
19695SOL     OW60525   6.362   3.480   8.122
19695SOL    HW160526   6.413   3.544   8.073
19695SOL    HW260527   6.329   3.420   8.055
19696SOL     OW60528   7.011   2.085   8.567
19696SOL    HW160529   7.039   2.010   8.619
19696SOL    HW260530   6.962   2.140   8.628
19697SOL     OW60531   6.593   1.860   8.567
19697SOL    HW160532   6.557   1.803   8.500
19697SOL    HW260533   6.684   1.830   8.579
19698SOL     OW60534   6.376   3.194   7.799
19698SOL    HW160535   6.336   3.108   7.806
19698SOL    HW260536   6.434   3.187   7.723
19699SOL     OW60537   6.213   3.415   8.758
19699SOL    HW160538   6.210   3.504   8.792
19699SOL    HW260539   6.296   3.409   8.712
19700SOL     OW60540   6.949   1.915   7.623
19700SOL    HW160541   6.981   1.844   7.568
19700SOL    HW260542   6.859   1.891   7.644
19701SOL     OW60543   6.893   2.308   8.113
19701SOL    HW160544   6.876   2.402   8.122
19701SOL    HW260545   6.881   2.273   8.201
19702SOL     OW60546   7.171   2.059   8.338
19702SOL    HW160547   7.110   2.082   8.408
19702SOL    HW260548   7.171   2.135   8.280
19703SOL     OW60549   5.626   2.943   7.787
19703SOL    HW160550   5.710   2.949   7.833
19703SOL    HW260551   5.618   2.850   7.763
19704SOL     OW60552   6.466   3.540   7.784
19704SOL    HW160553   6.408   3.507   7.716
19704SOL    HW260554   6.415   3.608   7.828
19705SOL     OW60555   5.821   2.507   9.443
19705SOL    HW160556   5.737   2.478   9.478
19705SOL    HW260557   5.819   2.480   9.351
19706SOL     OW60558   5.799   2.144  10.275
19706SOL    HW160559   5.827   2.116  10.362
19706SOL    HW260560   5.709   2.114  10.267
19707SOL     OW60561   5.581   2.253   9.943
19707SOL    HW160562   5.502   2.277   9.992
19707SOL    HW260563   5.556   2.178   9.890
19708SOL     OW60564   6.147   3.176  10.485
19708SOL    HW160565   6.060   3.183  10.445
19708SOL    HW260566   6.162   3.261  10.525
19709SOL     OW60567   7.082   3.316   9.970
19709SOL    HW160568   7.086   3.336  10.063
19709SOL    HW260569   7.079   3.401   9.927
19710SOL     OW60570   6.721   2.560   9.999
19710SOL    HW160571   6.772   2.633  10.035
19710SOL    HW260572   6.642   2.558  10.053
19711SOL     OW60573   7.328   2.464   9.571
19711SOL    HW160574   7.310   2.460   9.477
19711SOL    HW260575   7.321   2.373   9.601
19712SOL     OW60576   6.338   3.062  10.336
19712SOL    HW160577   6.269   3.099  10.390
19712SOL    HW260578   6.365   2.982  10.382
19713SOL     OW60579   6.472   2.618  11.139
19713SOL    HW160580   6.472   2.693  11.198
19713SOL    HW260581   6.495   2.654  11.054
19714SOL     OW60582   6.291   2.916   9.974
19714SOL    HW160583   6.307   2.822   9.980
19714SOL    HW260584   6.197   2.926   9.992
19715SOL     OW60585   6.303   3.024  11.120
19715SOL    HW160586   6.356   3.094  11.157
19715SOL    HW260587   6.244   3.067  11.059
19716SOL     OW60588   5.915   3.293  10.365
19716SOL    HW160589   5.835   3.279  10.315
19716SOL    HW260590   5.971   3.346  10.307
19717SOL     OW60591   7.052   3.362  10.678
19717SOL    HW160592   7.103   3.443  10.683
19717SOL    HW260593   6.983   3.373  10.743
19718SOL     OW60594   6.042   2.261  10.795
19718SOL    HW160595   6.116   2.200  10.795
19718SOL    HW260596   5.966   2.206  10.816
19719SOL     OW60597   7.198   2.301  10.055
19719SOL    HW160598   7.158   2.332   9.974
19719SOL    HW260599   7.182   2.371  10.118
19720SOL     OW60600   5.860   3.566   9.775
19720SOL    HW160601   5.861   3.648   9.825
19720SOL    HW260602   5.792   3.580   9.709
19721SOL     OW60603   6.721   3.208  11.011
19721SOL    HW160604   6.756   3.200  11.099
19721SOL    HW260605   6.669   3.128  10.998
19722SOL     OW60606   5.810   3.310   9.869
19722SOL    HW160607   5.827   3.402   9.848
19722SOL    HW260608   5.769   3.313   9.956
19723SOL     OW60609   5.857   2.946  10.217
19723SOL    HW160610   5.849   2.854  10.244
19723SOL    HW260611   5.784   2.989  10.262
19724SOL     OW60612   6.180   3.660  10.733
19724SOL    HW160613   6.099   3.635  10.779
19724SOL    HW260614   6.199   3.748  10.764
19725SOL     OW60615   6.158   2.851   9.464
19725SOL    HW160616   6.201   2.892   9.388
19725SOL    HW260617   6.201   2.889   9.540
19726SOL     OW60618   7.188   1.984  10.772
19726SOL    HW160619   7.127   2.044  10.729
19726SOL    HW260620   7.172   1.999  10.866
19727SOL     OW60621   5.708   2.505   9.873
19727SOL    HW160622   5.671   2.418   9.890
19727SOL    HW260623   5.698   2.552   9.956
19728SOL     OW60624   7.431   3.611   9.650
19728SOL    HW160625   7.506   3.588   9.704
19728SOL    HW260626   7.446   3.703   9.626
19729SOL     OW60627   5.630   3.449   9.435
19729SOL    HW160628   5.599   3.360   9.450
19729SOL    HW260629   5.612   3.495   9.517
19730SOL     OW60630   7.273   2.757   9.946
19730SOL    HW160631   7.361   2.723   9.963
19730SOL    HW260632   7.282   2.807   9.865
19731SOL     OW60633   7.233   2.984   9.750
19731SOL    HW160634   7.319   2.985   9.708
19731SOL    HW260635   7.248   3.026   9.835
19732SOL     OW60636   5.704   2.603  10.893
19732SOL    HW160637   5.795   2.633  10.888
19732SOL    HW260638   5.652   2.680  10.870
19733SOL     OW60639   6.204   3.234  10.033
19733SOL    HW160640   6.139   3.165  10.043
19733SOL    HW260641   6.184   3.274   9.949
19734SOL     OW60642   6.871   3.093  10.728
19734SOL    HW160643   6.902   3.024  10.669
19734SOL    HW260644   6.928   3.086  10.805
19735SOL     OW60645   6.413   1.873   9.854
19735SOL    HW160646   6.449   1.950   9.810
19735SOL    HW260647   6.318   1.886   9.853
19736SOL     OW60648   5.770   2.818  10.613
19736SOL    HW160649   5.852   2.775  10.590
19736SOL    HW260650   5.712   2.799  10.539
19737SOL     OW60651   7.089   2.859   9.531
19737SOL    HW160652   7.085   2.773   9.488
19737SOL    HW260653   7.182   2.870   9.555
19738SOL     OW60654   6.809   3.701  10.857
19738SOL    HW160655   6.863   3.629  10.825
19738SOL    HW260656   6.735   3.658  10.900
19739SOL     OW60657   5.934   2.104  11.147
19739SOL    HW160658   5.964   2.191  11.122
19739SOL    HW260659   5.842   2.116  11.169
19740SOL     OW60660   7.005   3.301  10.239
19740SOL    HW160661   6.978   3.311  10.330
19740SOL    HW260662   7.019   3.206  10.229
19741SOL     OW60663   7.244   3.604   9.910
19741SOL    HW160664   7.246   3.557   9.827
19741SOL    HW260665   7.289   3.547   9.972
19742SOL     OW60666   6.183   2.594   9.587
19742SOL    HW160667   6.175   2.678   9.542
19742SOL    HW260668   6.116   2.596   9.655
19743SOL     OW60669   6.862   2.215  10.244
19743SOL    HW160670   6.778   2.167  10.243
19743SOL    HW260671   6.912   2.172  10.313
19744SOL     OW60672   7.170   3.521   9.622
19744SOL    HW160673   7.261   3.552   9.620
19744SOL    HW260674   7.145   3.512   9.530
19745SOL     OW60675   6.341   2.493  10.747
19745SOL    HW160676   6.336   2.460  10.837
19745SOL    HW260677   6.330   2.415  10.693
19746SOL     OW60678   7.005   2.333  10.983
19746SOL    HW160679   6.992   2.381  11.065
19746SOL    HW260680   7.037   2.247  11.011
19747SOL     OW60681   6.549   2.725  10.893
19747SOL    HW160682   6.616   2.666  10.859
19747SOL    HW260683   6.481   2.727  10.826
19748SOL     OW60684   6.588   2.279  10.539
19748SOL    HW160685   6.605   2.353  10.598
19748SOL    HW260686   6.495   2.259  10.551
19749SOL     OW60687   6.638   2.568   9.730
19749SOL    HW160688   6.650   2.560   9.825
19749SOL    HW260689   6.553   2.527   9.713
19750SOL     OW60690   5.665   2.702  10.073
19750SOL    HW160691   5.746   2.689  10.122
19750SOL    HW260692   5.610   2.754  10.131
19751SOL     OW60693   5.710   3.737  10.895
19751SOL    HW160694   5.714   3.716  10.989
19751SOL    HW260695   5.629   3.696  10.865
19752SOL     OW60696   6.473   2.179   9.523
19752SOL    HW160697   6.538   2.247   9.505
19752SOL    HW260698   6.430   2.164   9.439
19753SOL     OW60699   7.300   2.424  11.128
19753SOL    HW160700   7.261   2.501  11.088
19753SOL    HW260701   7.318   2.365  11.055
19754SOL     OW60702   6.139   2.039  10.217
19754SOL    HW160703   6.142   2.060  10.310
19754SOL    HW260704   6.131   2.123  10.173
19755SOL     OW60705   6.599   3.299   9.786
19755SOL    HW160706   6.569   3.372   9.733
19755SOL    HW260707   6.568   3.319   9.874
19756SOL     OW60708   5.938   3.679  10.177
19756SOL    HW160709   5.972   3.590  10.182
19756SOL    HW260710   6.012   3.734  10.202
19757SOL     OW60711   7.385   2.882  10.194
19757SOL    HW160712   7.339   2.917  10.118
19757SOL    HW260713   7.334   2.911  10.269
19758SOL     OW60714   6.821   3.399  10.821
19758SOL    HW160715   6.809   3.335  10.892
19758SOL    HW260716   6.758   3.371  10.754
19759SOL     OW60717   5.895   2.809   9.553
19759SOL    HW160718   5.984   2.824   9.519
19759SOL    HW260719   5.880   2.715   9.542
19760SOL     OW60720   7.048   2.636  10.039
19760SOL    HW160721   7.053   2.581  10.117
19760SOL    HW260722   7.135   2.674  10.031
19761SOL     OW60723   5.964   3.088  11.094
19761SOL    HW160724   5.961   3.127  11.007
19761SOL    HW260725   5.975   2.995  11.079
19762SOL     OW60726   6.721   3.593   9.601
19762SOL    HW160727   6.628   3.572   9.612
19762SOL    HW260728   6.743   3.559   9.514
19763SOL     OW60729   5.781   2.149  10.849
19763SOL    HW160730   5.792   2.134  10.755
19763SOL    HW260731   5.756   2.063  10.884
19764SOL     OW60732   7.223   3.239   9.421
19764SOL    HW160733   7.188   3.326   9.401
19764SOL    HW260734   7.156   3.179   9.388
19765SOL     OW60735   6.132   3.602   9.598
19765SOL    HW160736   6.106   3.640   9.682
19765SOL    HW260737   6.164   3.676   9.547
19766SOL     OW60738   6.981   1.960   9.754
19766SOL    HW160739   6.972   1.932   9.662
19766SOL    HW260740   7.076   1.965   9.767
19767SOL     OW60741   5.856   3.663  10.524
19767SOL    HW160742   5.893   3.586  10.567
19767SOL    HW260743   5.815   3.629  10.445
19768SOL     OW60744   6.549   3.560  10.194
19768SOL    HW160745   6.634   3.516  10.200
19768SOL    HW260746   6.499   3.508  10.132
19769SOL     OW60747   5.970   2.557   9.760
19769SOL    HW160748   6.006   2.474   9.792
19769SOL    HW260749   5.878   2.554   9.785
19770SOL     OW60750   7.111   2.068  11.027
19770SOL    HW160751   7.125   2.087  11.120
19770SOL    HW260752   7.029   2.018  11.025
19771SOL     OW60753   6.194   1.926   9.447
19771SOL    HW160754   6.288   1.930   9.429
19771SOL    HW260755   6.154   1.913   9.361
19772SOL     OW60756   6.346   2.139  11.071
19772SOL    HW160757   6.429   2.091  11.064
19772SOL    HW260758   6.299   2.096  11.143
19773SOL     OW60759   6.480   3.407  10.538
19773SOL    HW160760   6.490   3.393  10.444
19773SOL    HW260761   6.537   3.342  10.578
19774SOL     OW60762   7.054   2.435  10.728
19774SOL    HW160763   7.044   2.401  10.817
19774SOL    HW260764   6.976   2.488  10.714
19775SOL     OW60765   6.544   2.400  10.222
19775SOL    HW160766   6.508   2.372  10.138
19775SOL    HW260767   6.576   2.319  10.262
19776SOL     OW60768   6.145   1.923   9.811
19776SOL    HW160769   6.063   1.923   9.860
19776SOL    HW260770   6.140   2.000   9.755
19777SOL     OW60771   7.020   3.067   9.351
19777SOL    HW160772   7.028   2.985   9.399
19777SOL    HW260773   6.935   3.102   9.376
19778SOL     OW60774   5.869   1.926   9.506
19778SOL    HW160775   5.877   1.988   9.433
19778SOL    HW260776   5.957   1.892   9.518
19779SOL     OW60777   6.553   2.086   9.770
19779SOL    HW160778   6.515   2.113   9.686
19779SOL    HW260779   6.641   2.124   9.770
19780SOL     OW60780   6.782   3.412  10.126
19780SOL    HW160781   6.820   3.421  10.039
19780SOL    HW260782   6.854   3.385  10.182
19781SOL     OW60783   6.042   3.015  10.034
19781SOL    HW160784   5.977   2.994  10.100
19781SOL    HW260785   5.997   3.002   9.951
19782SOL     OW60786   5.667   2.425  10.689
19782SOL    HW160787   5.759   2.413  10.669
19782SOL    HW260788   5.666   2.488  10.761
19783SOL     OW60789   6.150   2.075  10.489
19783SOL    HW160790   6.194   2.023  10.557
19783SOL    HW260791   6.058   2.073  10.513
19784SOL     OW60792   6.449   2.320   9.977
19784SOL    HW160793   6.410   2.408   9.974
19784SOL    HW260794   6.442   2.288   9.887
19785SOL     OW60795   7.041   3.030  10.182
19785SOL    HW160796   6.987   2.955  10.157
19785SOL    HW260797   7.102   3.040  10.109
19786SOL     OW60798   7.049   2.472  10.265
19786SOL    HW160799   6.988   2.400  10.279
19786SOL    HW260800   7.103   2.474  10.344
19787SOL     OW60801   7.428   2.679   9.701
19787SOL    HW160802   7.488   2.631   9.758
19787SOL    HW260803   7.394   2.613   9.641
19788SOL     OW60804   6.059   3.257   9.445
19788SOL    HW160805   5.997   3.257   9.517
19788SOL    HW260806   6.037   3.179   9.394
19789SOL     OW60807   7.250   3.096   9.996
19789SOL    HW160808   7.344   3.108  10.002
19789SOL    HW260809   7.214   3.184   9.992
19790SOL     OW60810   6.982   2.453   9.394
19790SOL    HW160811   6.963   2.375   9.446
19790SOL    HW260812   7.071   2.439   9.361
19791SOL     OW60813   6.120   2.124   9.631
19791SOL    HW160814   6.145   2.064   9.560
19791SOL    HW260815   6.096   2.205   9.586
19792SOL     OW60816   7.328   3.106  10.864
19792SOL    HW160817   7.415   3.068  10.849
19792SOL    HW260818   7.346   3.194  10.898
19793SOL     OW60819   6.639   3.216  10.657
19793SOL    HW160820   6.564   3.180  10.704
19793SOL    HW260821   6.715   3.169  10.694
19794SOL     OW60822   7.199   3.499  10.970
19794SOL    HW160823   7.191   3.530  10.880
19794SOL    HW260824   7.276   3.443  10.969
19795SOL     OW60825   6.724   3.088  10.420
19795SOL    HW160826   6.669   3.118  10.492
19795SOL    HW260827   6.665   3.085  10.345
19796SOL     OW60828   7.211   2.958  10.393
19796SOL    HW160829   7.204   3.021  10.464
19796SOL    HW260830   7.137   2.977  10.336
19797SOL     OW60831   6.492   1.977  10.707
19797SOL    HW160832   6.505   1.883  10.716
19797SOL    HW260833   6.578   2.015  10.725
19798SOL     OW60834   6.572   2.971  11.021
19798SOL    HW160835   6.481   2.987  11.048
19798SOL    HW260836   6.568   2.890  10.970
19799SOL     OW60837   6.302   2.941   9.681
19799SOL    HW160838   6.288   2.921   9.774
19799SOL    HW260839   6.375   2.884   9.656
19800SOL     OW60840   5.999   2.678  10.559
19800SOL    HW160841   6.063   2.693  10.629
19800SOL    HW260842   5.971   2.587  10.571
19801SOL     OW60843   6.853   2.244  10.587
19801SOL    HW160844   6.869   2.325  10.634
19801SOL    HW260845   6.762   2.251  10.556
19802SOL     OW60846   5.660   3.439  10.677
19802SOL    HW160847   5.622   3.498  10.612
19802SOL    HW260848   5.753   3.437  10.656
19803SOL     OW60849   5.928   2.983   9.786
19803SOL    HW160850   5.917   3.056   9.725
19803SOL    HW260851   5.924   2.905   9.730
19804SOL     OW60852   6.135   2.378  10.171
19804SOL    HW160853   6.159   2.421  10.089
19804SOL    HW260854   6.197   2.413  10.236
19805SOL     OW60855   6.858   3.188   9.718
19805SOL    HW160856   6.905   3.270   9.734
19805SOL    HW260857   6.769   3.205   9.750
19806SOL     OW60858   6.872   3.331  10.474
19806SOL    HW160859   6.932   3.330  10.548
19806SOL    HW260860   6.828   3.246  10.477
19807SOL     OW60861   7.167   2.462   9.816
19807SOL    HW160862   7.131   2.540   9.858
19807SOL    HW260863   7.217   2.496   9.742
19808SOL     OW60864   5.928   3.397  10.613
19808SOL    HW160865   5.913   3.351  10.530
19808SOL    HW260866   6.023   3.407  10.618
19809SOL     OW60867   5.988   2.612  10.911
19809SOL    HW160868   6.056   2.650  10.856
19809SOL    HW260869   6.015   2.520  10.921
19810SOL     OW60870   7.200   2.647  11.001
19810SOL    HW160871   7.110   2.678  10.996
19810SOL    HW260872   7.241   2.678  10.920
19811SOL     OW60873   6.583   2.003  11.066
19811SOL    HW160874   6.644   2.074  11.047
19811SOL    HW260875   6.632   1.923  11.048
19812SOL     OW60876   6.088   1.892  11.062
19812SOL    HW160877   6.041   1.843  10.995
19812SOL    HW260878   6.032   1.967  11.081
19813SOL     OW60879   6.165   2.739  10.351
19813SOL    HW160880   6.158   2.834  10.342
19813SOL    HW260881   6.107   2.717  10.424
19814SOL     OW60882   6.911   2.719  10.320
19814SOL    HW160883   6.820   2.691  10.313
19814SOL    HW260884   6.962   2.639  10.309
19815SOL     OW60885   6.733   2.378   9.548
19815SOL    HW160886   6.771   2.306   9.598
19815SOL    HW260887   6.707   2.442   9.615
19816SOL     OW60888   5.648   3.174  10.586
19816SOL    HW160889   5.676   3.121  10.661
19816SOL    HW260890   5.638   3.262  10.622
19817SOL     OW60891   6.304   2.493  10.355
19817SOL    HW160892   6.381   2.489  10.299
19817SOL    HW260893   6.270   2.581  10.344
19818SOL     OW60894   7.330   2.831  11.164
19818SOL    HW160895   7.289   2.761  11.113
19818SOL    HW260896   7.269   2.847  11.236
19819SOL     OW60897   5.894   1.914   9.932
19819SOL    HW160898   5.870   2.006   9.945
19819SOL    HW260899   5.911   1.881  10.020
19820SOL     OW60900   7.189   2.227   9.672
19820SOL    HW160901   7.231   2.160   9.726
19820SOL    HW260902   7.169   2.297   9.734
19821SOL     OW60903   6.648   2.638  10.297
19821SOL    HW160904   6.618   2.648  10.387
19821SOL    HW260905   6.613   2.553  10.270
19822SOL     OW60906   6.595   3.455  11.024
19822SOL    HW160907   6.557   3.484  10.941
19822SOL    HW260908   6.621   3.364  11.007
19823SOL     OW60909   7.441   3.358  10.924
19823SOL    HW160910   7.464   3.388  10.837
19823SOL    HW260911   7.521   3.369  10.976
19824SOL     OW60912   5.972   2.816  11.090
19824SOL    HW160913   6.042   2.805  11.154
19824SOL    HW260914   5.981   2.740  11.032
19825SOL     OW60915   7.061   2.133   9.441
19825SOL    HW160916   7.030   2.054   9.484
19825SOL    HW260917   7.122   2.172   9.503
19826SOL     OW60918   6.860   2.684   9.329
19826SOL    HW160919   6.928   2.617   9.341
19826SOL    HW260920   6.884   2.728   9.247
19827SOL     OW60921   6.598   3.196  10.146
19827SOL    HW160922   6.644   3.126  10.098
19827SOL    HW260923   6.659   3.269  10.146
19828SOL     OW60924   5.885   2.665  10.242
19828SOL    HW160925   5.979   2.681  10.235
19828SOL    HW260926   5.878   2.577  10.277
19829SOL     OW60927   5.900   2.392  10.310
19829SOL    HW160928   5.864   2.304  10.297
19829SOL    HW260929   5.983   2.391  10.262
19830SOL     OW60930   6.729   2.232  11.000
19830SOL    HW160931   6.676   2.283  11.061
19830SOL    HW260932   6.797   2.292  10.972
19831SOL     OW60933   6.750   2.070  10.779
19831SOL    HW160934   6.734   2.128  10.854
19831SOL    HW260935   6.785   2.128  10.711
19832SOL     OW60936   5.613   3.168   9.504
19832SOL    HW160937   5.524   3.184   9.474
19832SOL    HW260938   5.611   3.078   9.538
19833SOL     OW60939   5.677   3.624  10.252
19833SOL    HW160940   5.660   3.536  10.217
19833SOL    HW260941   5.763   3.647  10.217
19834SOL     OW60942   6.084   3.440  10.209
19834SOL    HW160943   6.156   3.503  10.223
19834SOL    HW260944   6.122   3.374  10.152
19835SOL     OW60945   6.544   2.666  10.548
19835SOL    HW160946   6.617   2.630  10.598
19835SOL    HW260947   6.470   2.610  10.570
19836SOL     OW60948   5.626   2.428  10.416
19836SOL    HW160949   5.710   2.413  10.372
19836SOL    HW260950   5.646   2.423  10.510
19837SOL     OW60951   5.760   2.370  11.035
19837SOL    HW160952   5.769   2.303  10.967
19837SOL    HW260953   5.738   2.450  10.987
19838SOL     OW60954   6.962   2.795  10.984
19838SOL    HW160955   6.982   2.888  10.975
19838SOL    HW260956   6.956   2.763  10.895
19839SOL     OW60957   6.411   2.443   9.642
19839SOL    HW160958   6.377   2.357   9.620
19839SOL    HW260959   6.337   2.503   9.632
19840SOL     OW60960   7.205   2.482  10.487
19840SOL    HW160961   7.174   2.464  10.576
19840SOL    HW260962   7.294   2.447  10.484
19841SOL     OW60963   5.837   3.419  11.044
19841SOL    HW160964   5.802   3.494  11.093
19841SOL    HW260965   5.889   3.371  11.108
19842SOL     OW60966   6.309   2.299  10.552
19842SOL    HW160967   6.246   2.230  10.532
19842SOL    HW260968   6.296   2.365  10.483
19843SOL     OW60969   6.498   3.557  10.786
19843SOL    HW160970   6.486   3.509  10.704
19843SOL    HW260971   6.490   3.649  10.762
19844SOL     OW60972   6.060   2.359   9.511
19844SOL    HW160973   6.107   2.439   9.534
19844SOL    HW260974   5.973   2.389   9.484
19845SOL     OW60975   5.732   3.010  10.801
19845SOL    HW160976   5.732   2.965  10.885
19845SOL    HW260977   5.745   2.940  10.736
19846SOL     OW60978   6.910   2.909  10.518
19846SOL    HW160979   6.919   2.840  10.452
19846SOL    HW260980   6.848   2.970  10.479
19847SOL     OW60981   6.844   2.742   9.668
19847SOL    HW160982   6.777   2.677   9.689
19847SOL    HW260983   6.859   2.731   9.574
19848SOL     OW60984   7.384   3.602  10.491
19848SOL    HW160985   7.437   3.624  10.414
19848SOL    HW260986   7.338   3.522  10.466
19849SOL     OW60987   6.830   3.601  10.418
19849SOL    HW160988   6.912   3.625  10.375
19849SOL    HW260989   6.840   3.509  10.440
19850SOL     OW60990   5.647   3.076  10.330
19850SOL    HW160991   5.640   3.107  10.420
19850SOL    HW260992   5.642   3.155  10.277
19851SOL     OW60993   6.261   3.532  11.025
19851SOL    HW160994   6.206   3.609  11.033
19851SOL    HW260995   6.323   3.554  10.955
19852SOL     OW60996   7.301   2.026   9.818
19852SOL    HW160997   7.369   2.009   9.753
19852SOL    HW260998   7.290   1.942   9.863
19853SOL     OW60999   6.935   3.468   9.749
19853SOL    HW161000   7.021   3.484   9.711
19853SOL    HW261001   6.874   3.514   9.692
19854SOL     OW61002   5.735   3.657  11.154
19854SOL    HW161003   5.683   3.592  11.201
19854SOL    HW261004   5.781   3.705  11.222
19855SOL     OW61005   6.891   2.823   9.922
19855SOL    HW161006   6.945   2.760   9.970
19855SOL    HW261007   6.867   2.777   9.841
19856SOL     OW61008   6.390   3.140  10.740
19856SOL    HW161009   6.356   3.177  10.821
19856SOL    HW261010   6.314   3.135  10.682
19857SOL     OW61011   7.197   3.600  10.708
19857SOL    HW161012   7.256   3.602  10.633
19857SOL    HW261013   7.171   3.692  10.721
19858SOL     OW61014   7.417   2.016  10.311
19858SOL    HW161015   7.454   1.940  10.267
19858SOL    HW261016   7.337   2.035  10.263
19859SOL     OW61017   5.840   2.171  10.005
19859SOL    HW161018   5.755   2.209   9.982
19859SOL    HW261019   5.839   2.168  10.101
19860SOL     OW61020   6.783   3.474   9.360
19860SOL    HW161021   6.784   3.378   9.361
19860SOL    HW261022   6.731   3.497   9.283
19861SOL     OW61023   6.393   2.865  10.674
19861SOL    HW161024   6.465   2.825  10.624
19861SOL    HW261025   6.427   2.951  10.699
19862SOL     OW61026   6.511   2.794   9.598
19862SOL    HW161027   6.579   2.823   9.537
19862SOL    HW261028   6.551   2.719   9.643
19863SOL     OW61029   7.087   3.474   9.357
19863SOL    HW161030   6.995   3.497   9.345
19863SOL    HW261031   7.126   3.485   9.271
19864SOL     OW61032   5.952   3.187  10.830
19864SOL    HW161033   5.940   3.257  10.766
19864SOL    HW261034   5.883   3.124  10.810
19865SOL     OW61035   7.191   3.146  10.590
19865SOL    HW161036   7.246   3.124  10.666
19865SOL    HW261037   7.132   3.214  10.623
19866SOL     OW61038   6.660   2.969  10.015
19866SOL    HW161039   6.606   2.906  10.063
19866SOL    HW261040   6.732   2.917   9.980
19867SOL     OW61041   6.591   2.045  10.221
19867SOL    HW161042   6.516   2.098  10.247
19867SOL    HW261043   6.600   1.980  10.292
19868SOL     OW61044   6.196   3.361   9.788
19868SOL    HW161045   6.232   3.304   9.720
19868SOL    HW261046   6.124   3.407   9.745
19869SOL     OW61047   7.351   2.208  10.646
19869SOL    HW161048   7.412   2.279  10.667
19869SOL    HW261049   7.274   2.253  10.610
19870SOL     OW61050   5.859   3.203   9.629
19870SOL    HW161051   5.772   3.200   9.587
19870SOL    HW261052   5.843   3.244   9.714
19871SOL     OW61053   5.700   2.910  11.079
19871SOL    HW161054   5.614   2.875  11.102
19871SOL    HW261055   5.759   2.835  11.081
19872SOL     OW61056   6.256   2.066  10.809
19872SOL    HW161057   6.340   2.046  10.768
19872SOL    HW261058   6.277   2.093  10.898
19873SOL     OW61059   5.623   2.195   9.394
19873SOL    HW161060   5.570   2.218   9.318
19873SOL    HW261061   5.708   2.171   9.357
19874SOL     OW61062   7.042   2.770  10.723
19874SOL    HW161063   6.977   2.804  10.661
19874SOL    HW261064   7.119   2.752  10.669
19875SOL     OW61065   5.631   2.019   9.609
19875SOL    HW161066   5.611   2.088   9.546
19875SOL    HW261067   5.721   1.993   9.588
19876SOL     OW61068   6.780   3.174   9.437
19876SOL    HW161069   6.716   3.103   9.437
19876SOL    HW261070   6.794   3.193   9.529
19877SOL     OW61071   6.186   2.709  10.751
19877SOL    HW161072   6.247   2.779  10.728
19877SOL    HW261073   6.240   2.630  10.751
19878SOL     OW61074   7.072   3.653  10.292
19878SOL    HW161075   7.112   3.719  10.236
19878SOL    HW261076   7.132   3.578  10.288
19879SOL     OW61077   6.311   2.416  11.008
19879SOL    HW161078   6.359   2.470  11.071
19879SOL    HW261079   6.326   2.326  11.038
19880SOL     OW61080   7.054   3.059  10.941
19880SOL    HW161081   7.044   3.076  11.035
19880SOL    HW261082   7.146   3.076  10.923
19881SOL     OW61083   5.951   3.605  10.870
19881SOL    HW161084   5.869   3.652  10.857
19881SOL    HW261085   5.925   3.525  10.915
19882SOL     OW61086   7.268   2.746  10.560
19882SOL    HW161087   7.248   2.664  10.514
19882SOL    HW261088   7.251   2.815  10.495
19883SOL     OW61089   6.808   2.184   9.760
19883SOL    HW161090   6.875   2.117   9.751
19883SOL    HW261091   6.834   2.235   9.837
19884SOL     OW61092   7.340   2.217  10.938
19884SOL    HW161093   7.322   2.213  10.844
19884SOL    HW261094   7.269   2.166  10.977
19885SOL     OW61095   7.357   2.794  10.815
19885SOL    HW161096   7.314   2.876  10.837
19885SOL    HW261097   7.334   2.778  10.723
19886SOL     OW61098   6.375   3.277   9.340
19886SOL    HW161099   6.407   3.267   9.429
19886SOL    HW261100   6.446   3.323   9.294
19887SOL     OW61101   6.266   3.640  10.231
19887SOL    HW161102   6.238   3.731  10.221
19887SOL    HW261103   6.362   3.644  10.226
19888SOL     OW61104   6.492   2.844  10.195
19888SOL    HW161105   6.552   2.785  10.240
19888SOL    HW261106   6.428   2.786  10.154
19889SOL     OW61107   6.692   2.889   9.407
19889SOL    HW161108   6.643   2.916   9.329
19889SOL    HW261109   6.749   2.818   9.376
19890SOL     OW61110   5.691   3.016   9.953
19890SOL    HW161111   5.708   3.062  10.035
19890SOL    HW261112   5.762   3.044   9.895
19891SOL     OW61113   6.234   3.257  10.937
19891SOL    HW161114   6.141   3.255  10.915
19891SOL    HW261115   6.246   3.341  10.981
19892SOL     OW61116   6.033   2.303   9.846
19892SOL    HW161117   6.054   2.239   9.778
19892SOL    HW261118   5.970   2.258   9.903
19893SOL     OW61119   7.269   3.372  10.422
19893SOL    HW161120   7.289   3.356  10.330
19893SOL    HW261121   7.252   3.285  10.458
19894SOL     OW61122   5.928   2.419  10.605
19894SOL    HW161123   5.975   2.363  10.667
19894SOL    HW261124   5.932   2.372  10.522
19895SOL     OW61125   6.421   3.441   9.981
19895SOL    HW161126   6.401   3.514   9.923
19895SOL    HW261127   6.343   3.386   9.978
19896SOL     OW61128   7.011   2.087  10.439
19896SOL    HW161129   6.983   1.998  10.462
19896SOL    HW261130   6.964   2.143  10.499
19897SOL     OW61131   6.595   1.848  10.413
19897SOL    HW161132   6.558   1.833  10.500
19897SOL    HW261133   6.682   1.809  10.416
19898SOL     OW61134   6.374   3.204   9.630
19898SOL    HW161135   6.337   3.115   9.635
19898SOL    HW261136   6.451   3.201   9.686
19899SOL     OW61137   6.206   3.422  10.599
19899SOL    HW161138   6.201   3.506  10.645
19899SOL    HW261139   6.299   3.413  10.576
19900SOL     OW61140   6.924   1.894   9.496
19900SOL    HW161141   6.948   1.882   9.404
19900SOL    HW261142   6.846   1.840   9.507
19901SOL     OW61143   6.869   2.320   9.986
19901SOL    HW161144   6.824   2.404   9.992
19901SOL    HW261145   6.874   2.289  10.077
19902SOL     OW61146   7.174   2.060  10.203
19902SOL    HW161147   7.113   2.089  10.271
19902SOL    HW261148   7.175   2.132  10.140
19903SOL     OW61149   5.641   2.918   9.611
19903SOL    HW161150   5.731   2.897   9.585
19903SOL    HW261151   5.600   2.833   9.625
19904SOL     OW61152   6.460   3.517   9.670
19904SOL    HW161153   6.378   3.475   9.646
19904SOL    HW261154   6.434   3.596   9.719
19905SOL     OW61155   5.799   2.495  11.293
19905SOL    HW161156   5.714   2.486  11.337
19905SOL    HW261157   5.785   2.459  11.206
19906SOL     OW61158   5.809   2.159  12.164
19906SOL    HW161159   5.831   2.146  12.257
19906SOL    HW261160   5.723   2.118  12.155
19907SOL     OW61161   5.591   2.263  11.809
19907SOL    HW161162   5.520   2.292  11.866
19907SOL    HW261163   5.556   2.187  11.763
19908SOL     OW61164   6.111   3.086  12.348
19908SOL    HW161165   6.050   3.137  12.294
19908SOL    HW261166   6.135   3.146  12.418
19909SOL     OW61167   7.166   3.379  11.883
19909SOL    HW161168   7.121   3.358  11.965
19909SOL    HW261169   7.096   3.386  11.818
19910SOL     OW61170   6.740   2.594  11.869
19910SOL    HW161171   6.825   2.564  11.902
19910SOL    HW261172   6.687   2.606  11.947
19911SOL     OW61173   7.389   2.453  11.383
19911SOL    HW161174   7.355   2.448  11.294
19911SOL    HW261175   7.337   2.390  11.432
19912SOL     OW61176   6.333   2.996  12.205
19912SOL    HW161177   6.264   3.029  12.263
19912SOL    HW261178   6.370   3.074  12.165
19913SOL     OW61179   6.271   2.857  11.830
19913SOL    HW161180   6.342   2.852  11.895
19913SOL    HW261181   6.207   2.917  11.869
19914SOL     OW61182   5.939   3.264  12.216
19914SOL    HW161183   5.852   3.265  12.175
19914SOL    HW261184   5.989   3.330  12.168
19915SOL     OW61185   7.194   2.362  11.884
19915SOL    HW161186   7.125   2.297  11.871
19915SOL    HW261187   7.203   2.369  11.979
19916SOL     OW61188   5.804   3.582  11.646
19916SOL    HW161189   5.824   3.657  11.702
19916SOL    HW261190   5.882   3.571  11.591
19917SOL     OW61191   5.814   3.297  11.684
19917SOL    HW161192   5.801   3.391  11.700
19917SOL    HW261193   5.767   3.254  11.755
19918SOL     OW61194   5.851   2.934  12.084
19918SOL    HW161195   5.880   2.844  12.098
19918SOL    HW261196   5.781   2.946  12.148
19919SOL     OW61197   6.166   2.852  11.296
19919SOL    HW161198   6.218   2.907  11.239
19919SOL    HW261199   6.199   2.870  11.384
19920SOL     OW61200   5.716   2.506  11.729
19920SOL    HW161201   5.670   2.424  11.746
19920SOL    HW261202   5.708   2.556  11.811
19921SOL     OW61203   7.432   3.615  11.496
19921SOL    HW161204   7.496   3.588  11.561
19921SOL    HW261205   7.450   3.708  11.482
19922SOL     OW61206   5.624   3.452  11.288
19922SOL    HW161207   5.586   3.365  11.296
19922SOL    HW261208   5.599   3.496  11.370
19923SOL     OW61209   7.263   2.755  11.813
19923SOL    HW161210   7.352   2.732  11.839
19923SOL    HW261211   7.274   2.812  11.736
19924SOL     OW61212   7.241   2.961  11.603
19924SOL    HW161213   7.329   2.958  11.564
19924SOL    HW261214   7.248   3.025  11.674
19925SOL     OW61215   5.774   2.578   0.224
19925SOL    HW161216   5.786   2.566   0.318
19925SOL    HW261217   5.699   2.637   0.216
19926SOL     OW61218   6.201   3.252  11.907
19926SOL    HW161219   6.154   3.169  11.917
19926SOL    HW261220   6.180   3.281  11.818
19927SOL     OW61221   6.424   1.882  11.705
19927SOL    HW161222   6.460   1.965  11.674
19927SOL    HW261223   6.331   1.898  11.716
19928SOL     OW61224   5.759   2.837  12.392
19928SOL    HW161225   5.820   2.784  12.442
19928SOL    HW261226   5.674   2.795  12.405
19929SOL     OW61227   7.128   2.869  11.365
19929SOL    HW161228   7.072   2.794  11.384
19929SOL    HW261229   7.161   2.896  11.451
19930SOL     OW61230   7.026   3.289  12.095
19930SOL    HW161231   6.974   3.303  12.175
19930SOL    HW261232   7.024   3.194  12.081
19931SOL     OW61233   7.238   3.623  11.748
19931SOL    HW161234   7.212   3.581  11.666
19931SOL    HW261235   7.229   3.554  11.814
19932SOL     OW61236   6.197   2.587  11.437
19932SOL    HW161237   6.217   2.663  11.383
19932SOL    HW261238   6.158   2.624  11.517
19933SOL     OW61239   6.887   2.217  12.113
19933SOL    HW161240   6.796   2.188  12.122
19933SOL    HW261241   6.938   2.151  12.159
19934SOL     OW61242   7.163   3.543  11.482
19934SOL    HW161243   7.256   3.568  11.477
19934SOL    HW261244   7.139   3.525  11.391
19935SOL     OW61245   6.536   2.194  12.430
19935SOL    HW161246   6.575   2.276  12.460
19935SOL    HW261247   6.451   2.219  12.396
19936SOL     OW61248   6.643   2.562  11.602
19936SOL    HW161249   6.656   2.559  11.697
19936SOL    HW261250   6.559   2.517  11.588
19937SOL     OW61251   5.697   2.661  11.948
19937SOL    HW161252   5.758   2.663  12.022
19937SOL    HW261253   5.630   2.725  11.970
19938SOL     OW61254   6.475   2.217  11.373
19938SOL    HW161255   6.523   2.268  11.308
19938SOL    HW261256   6.445   2.139  11.325
19939SOL     OW61257   6.966   2.979  11.704
19939SOL    HW161258   7.054   2.985  11.668
19939SOL    HW261259   6.920   3.053  11.666
19940SOL     OW61260   6.157   2.071  12.066
19940SOL    HW161261   6.148   2.073  12.161
19940SOL    HW261262   6.164   2.164  12.041
19941SOL     OW61263   6.614   3.290  11.689
19941SOL    HW161264   6.548   3.284  11.620
19941SOL    HW261265   6.575   3.348  11.754
19942SOL     OW61266   5.944   3.678  12.032
19942SOL    HW161267   5.987   3.593  12.045
19942SOL    HW261268   6.005   3.742  12.066
19943SOL     OW61269   7.370   2.925  12.043
19943SOL    HW161270   7.304   2.910  11.975
19943SOL    HW261271   7.321   2.930  12.125
19944SOL     OW61272   5.903   2.847  11.386
19944SOL    HW161273   5.995   2.840  11.361
19944SOL    HW261274   5.874   2.756  11.397
19945SOL     OW61275   7.023   2.648  11.887
19945SOL    HW161276   7.037   2.584  11.957
19945SOL    HW261277   7.110   2.681  11.867
19946SOL     OW61278   6.720   3.666  11.359
19946SOL    HW161279   6.642   3.647  11.410
19946SOL    HW261280   6.744   3.583  11.318
19947SOL     OW61281   7.215   3.253  11.259
19947SOL    HW161282   7.171   3.337  11.250
19947SOL    HW261283   7.146   3.188  11.243
19948SOL     OW61284   6.038   3.592  11.496
19948SOL    HW161285   6.091   3.646  11.555
19948SOL    HW261286   6.100   3.565  11.427
19949SOL     OW61287   6.983   1.965  11.609
19949SOL    HW161288   6.982   1.937  11.517
19949SOL    HW261289   7.075   1.979  11.628
19950SOL     OW61290   5.872   3.610  12.413
19950SOL    HW161291   5.877   3.656  12.496
19950SOL    HW261292   5.787   3.635  12.377
19951SOL     OW61293   6.531   3.564  12.076
19951SOL    HW161294   6.612   3.516  12.095
19951SOL    HW261295   6.488   3.511  12.009
19952SOL     OW61296   5.971   2.565  11.634
19952SOL    HW161297   5.976   2.493  11.572
19952SOL    HW261298   5.884   2.556  11.673
19953SOL     OW61299   6.233   1.985  11.278
19953SOL    HW161300   6.260   1.909  11.330
19953SOL    HW261301   6.181   1.948  11.207
19954SOL     OW61302   6.405   3.228  12.096
19954SOL    HW161303   6.492   3.230  12.056
19954SOL    HW261304   6.345   3.248  12.024
19955SOL     OW61305   6.522   2.371  12.069
19955SOL    HW161306   6.494   2.358  11.979
19955SOL    HW261307   6.550   2.284  12.099
19956SOL     OW61308   6.146   1.924  11.710
19956SOL    HW161309   6.103   1.859  11.767
19956SOL    HW261310   6.134   1.891  11.622
19957SOL     OW61311   7.014   3.072  11.215
19957SOL    HW161312   7.044   2.996  11.264
19957SOL    HW261313   6.927   3.091  11.252
19958SOL     OW61314   5.882   1.916  11.350
19958SOL    HW161315   5.930   1.977  11.294
19958SOL    HW261316   5.950   1.870  11.399
19959SOL     OW61317   6.537   2.119  11.625
19959SOL    HW161318   6.513   2.151  11.538
19959SOL    HW261319   6.632   2.128  11.629
19960SOL     OW61320   6.795   3.437  11.975
19960SOL    HW161321   6.815   3.502  11.908
19960SOL    HW261322   6.876   3.427  12.025
19961SOL     OW61323   6.052   3.014  11.910
19961SOL    HW161324   5.991   2.996  11.980
19961SOL    HW261325   6.002   3.002  11.829
19962SOL     OW61326   6.847   3.649  11.784
19962SOL    HW161327   6.894   3.716  11.735
19962SOL    HW261328   6.774   3.696  11.825
19963SOL     OW61329   6.609   2.386  11.200
19963SOL    HW161330   6.567   2.470  11.180
19963SOL    HW261331   6.673   2.408  11.268
19964SOL     OW61332   6.129   2.050  12.342
19964SOL    HW161333   6.120   1.955  12.352
19964SOL    HW261334   6.048   2.086  12.378
19965SOL     OW61335   6.470   2.329  11.800
19965SOL    HW161336   6.427   2.378  11.731
19965SOL    HW261337   6.488   2.244  11.762
19966SOL     OW61338   6.611   1.904  11.916
19966SOL    HW161339   6.549   1.896  11.844
19966SOL    HW261340   6.588   1.833  11.975
19967SOL     OW61341   7.009   3.021  12.034
19967SOL    HW161342   6.980   2.935  12.063
19967SOL    HW261343   7.028   3.010  11.941
19968SOL     OW61344   7.031   2.474  12.131
19968SOL    HW161345   6.984   2.391  12.138
19968SOL    HW261346   7.098   2.468  12.199
19969SOL     OW61347   7.426   2.667  11.549
19969SOL    HW161348   7.481   2.623  11.615
19969SOL    HW261349   7.408   2.600  11.484
19970SOL     OW61350   6.028   3.292  11.267
19970SOL    HW161351   5.980   3.265  11.346
19970SOL    HW261352   6.035   3.213  11.215
19971SOL     OW61353   7.269   3.129  11.807
19971SOL    HW161354   7.362   3.125  11.831
19971SOL    HW261355   7.240   3.215  11.838
19972SOL     OW61356   6.977   2.433  11.245
19972SOL    HW161357   6.910   2.409  11.310
19972SOL    HW261358   7.058   2.398  11.280
19973SOL     OW61359   6.081   2.141  11.509
19973SOL    HW161360   6.132   2.093  11.444
19973SOL    HW261361   6.059   2.224  11.466
19974SOL     OW61362   6.682   3.094  12.290
19974SOL    HW161363   6.606   3.122  12.342
19974SOL    HW261364   6.664   3.127  12.202
19975SOL     OW61365   7.225   2.966  12.273
19975SOL    HW161366   7.262   3.010  12.349
19975SOL    HW261367   7.132   2.987  12.276
19976SOL     OW61368   6.256   2.857  11.552
19976SOL    HW161369   6.260   2.869  11.647
19976SOL    HW261370   6.346   2.839  11.526
19977SOL     OW61371   6.020   2.665  -0.019
19977SOL    HW161372   6.060   2.645   0.066
19977SOL    HW261373   5.961   2.591  -0.036
19978SOL     OW61374   6.849   2.232  12.441
19978SOL    HW161375   6.902   2.302  12.479
19978SOL    HW261376   6.766   2.275  12.419
19979SOL     OW61377   5.909   2.977  11.670
19979SOL    HW161378   5.947   3.048  11.618
19979SOL    HW261379   5.937   2.897  11.625
19980SOL     OW61380   6.161   2.388  12.022
19980SOL    HW161381   6.159   2.452  11.951
19980SOL    HW261382   6.215   2.429  12.090
19981SOL     OW61383   6.847   3.208  11.578
19981SOL    HW161384   6.904   3.280  11.604
19981SOL    HW261385   6.762   3.230  11.617
19982SOL     OW61386   6.866   3.310  12.311
19982SOL    HW161387   6.925   3.318  12.386
19982SOL    HW261388   6.813   3.233  12.330
19983SOL     OW61389   7.173   2.495  11.635
19983SOL    HW161390   7.166   2.470  11.728
19983SOL    HW261391   7.223   2.576  11.636
19984SOL     OW61392   5.996   3.370  12.462
19984SOL    HW161393   5.966   3.327  12.382
19984SOL    HW261394   5.958   3.458  12.458
19985SOL     OW61395   6.896   2.723  12.157
19985SOL    HW161396   6.808   2.685  12.158
19985SOL    HW261397   6.955   2.647  12.158
19986SOL     OW61398   6.781   2.385  11.433
19986SOL    HW161399   6.795   2.305  11.484
19986SOL    HW261400   6.737   2.445  11.493
19987SOL     OW61401   5.680   3.174  12.448
19987SOL    HW161402   5.742   3.127  12.504
19987SOL    HW261403   5.667   3.258  12.491
19988SOL     OW61404   6.331   2.529  12.201
19988SOL    HW161405   6.393   2.465  12.165
19988SOL    HW261406   6.381   2.574  12.269
19989SOL     OW61407   5.858   1.938  11.799
19989SOL    HW161408   5.774   1.979  11.822
19989SOL    HW261409   5.884   1.891  11.878
19990SOL     OW61410   7.217   2.259  11.504
19990SOL    HW161411   7.228   2.186  11.563
19990SOL    HW261412   7.189   2.332  11.559
19991SOL     OW61413   6.632   2.612  12.139
19991SOL    HW161414   6.603   2.628  12.229
19991SOL    HW261415   6.598   2.524  12.119
19992SOL     OW61416   7.120   2.125  11.287
19992SOL    HW161417   7.056   2.063  11.321
19992SOL    HW261418   7.154   2.170  11.365
19993SOL     OW61419   6.895   2.698  11.232
19993SOL    HW161420   6.922   2.607  11.230
19993SOL    HW261421   6.916   2.732  11.146
19994SOL     OW61422   6.665   3.198  12.018
19994SOL    HW161423   6.701   3.139  11.952
19994SOL    HW261424   6.711   3.281  12.003
19995SOL     OW61425   5.931   2.676  12.116
19995SOL    HW161426   5.996   2.656  12.049
19995SOL    HW261427   5.913   2.592  12.158
19996SOL     OW61428   5.920   2.407  12.152
19996SOL    HW161429   5.884   2.319  12.168
19996SOL    HW261430   6.002   2.391  12.104
19997SOL     OW61431   6.774   2.075   0.154
19997SOL    HW161432   6.719   2.130   0.209
19997SOL    HW261433   6.786   2.124   0.073
19998SOL     OW61434   5.582   3.162  11.332
19998SOL    HW161435   5.497   3.189  11.298
19998SOL    HW261436   5.561   3.094  11.397
19999SOL     OW61437   5.683   3.637  12.114
19999SOL    HW161438   5.654   3.556  12.071
19999SOL    HW261439   5.775   3.645  12.089
20000SOL     OW61440   6.086   3.442  12.074
20000SOL    HW161441   6.152   3.507  12.095
20000SOL    HW261442   6.131   3.379  12.017
20001SOL     OW61443   6.523   2.656  12.393
20001SOL    HW161444   6.597   2.699  12.434
20001SOL    HW261445   6.468   2.627  12.466
20002SOL     OW61446   5.642   2.436  12.295
20002SOL    HW161447   5.684   2.384  12.227
20002SOL    HW261448   5.711   2.453  12.359
20003SOL     OW61449   6.410   2.434  11.540
20003SOL    HW161450   6.419   2.358  11.483
20003SOL    HW261451   6.336   2.483  11.503
20004SOL     OW61452   7.234   2.460  12.319
20004SOL    HW161453   7.231   2.411  12.401
20004SOL    HW261454   7.325   2.452  12.290
20005SOL     OW61455   6.294   2.293  12.377
20005SOL    HW161456   6.222   2.232  12.392
20005SOL    HW261457   6.251   2.379  12.370
20006SOL     OW61458   6.519   3.494   0.047
20006SOL    HW161459   6.479   3.572   0.009
20006SOL    HW261460   6.490   3.494   0.138
20007SOL     OW61461   6.020   2.382  11.406
20007SOL    HW161462   6.088   2.449  11.397
20007SOL    HW261463   5.943   2.419  11.362
20008SOL     OW61464   6.888   2.914  12.351
20008SOL    HW161465   6.891   2.848  12.282
20008SOL    HW261466   6.820   2.975  12.323
20009SOL     OW61467   6.854   2.719  11.523
20009SOL    HW161468   6.784   2.655  11.535
20009SOL    HW261469   6.865   2.723  11.428
20010SOL     OW61470   7.338   3.622  12.292
20010SOL    HW161471   7.410   3.638  12.231
20010SOL    HW261472   7.329   3.527  12.294
20011SOL     OW61473   6.830   3.589  12.268
20011SOL    HW161474   6.913   3.615  12.229
20011SOL    HW261475   6.840   3.496  12.287
20012SOL     OW61476   7.257   2.025  11.638
20012SOL    HW161477   7.348   1.998  11.623
20012SOL    HW261478   7.242   2.008  11.731
20013SOL     OW61479   6.986   3.432  11.667
20013SOL    HW161480   7.038   3.473  11.598
20013SOL    HW261481   6.929   3.502  11.700
20014SOL     OW61482   6.226   3.525  11.307
20014SOL    HW161483   6.238   3.512  11.213
20014SOL    HW261484   6.248   3.441  11.346
20015SOL     OW61485   7.207   3.667   0.033
20015SOL    HW161486   7.262   3.645  -0.043
20015SOL    HW261487   7.266   3.657   0.108
20016SOL     OW61488   7.426   2.019  12.147
20016SOL    HW161489   7.464   1.933  12.129
20016SOL    HW261490   7.350   2.024  12.088
20017SOL     OW61491   5.852   2.213  11.884
20017SOL    HW161492   5.763   2.241  11.861
20017SOL    HW261493   5.849   2.200  11.979
20018SOL     OW61494   6.804   3.451  11.205
20018SOL    HW161495   6.790   3.365  11.245
20018SOL    HW261496   6.732   3.461  11.142
20019SOL     OW61497   6.377   2.892   0.004
20019SOL    HW161498   6.449   2.894  -0.059
20019SOL    HW261499   6.421   2.879   0.089
20020SOL     OW61500   6.502   2.779  11.468
20020SOL    HW161501   6.558   2.812  11.398
20020SOL    HW261502   6.554   2.710  11.509
20021SOL     OW61503   7.076   3.503  11.218
20021SOL    HW161504   6.983   3.483  11.205
20021SOL    HW261505   7.113   3.505  11.130
20022SOL     OW61506   6.671   2.898  11.834
20022SOL    HW161507   6.613   2.877  11.907
20022SOL    HW261508   6.618   2.953  11.776
20023SOL     OW61509   6.625   2.113  12.117
20023SOL    HW161510   6.622   2.046  12.049
20023SOL    HW261511   6.606   2.066  12.198
20024SOL     OW61512   6.168   3.348  11.661
20024SOL    HW161513   6.239   3.320  11.602
20024SOL    HW261514   6.107   3.394  11.604
20025SOL     OW61515   7.350   2.289   0.033
20025SOL    HW161516   7.445   2.285   0.026
20025SOL    HW261517   7.320   2.202   0.006
20026SOL     OW61518   5.833   3.191  11.440
20026SOL    HW161519   5.746   3.219  11.412
20026SOL    HW261520   5.843   3.226  11.528
20027SOL     OW61521   5.673   2.178  11.211
20027SOL    HW161522   5.579   2.168  11.203
20027SOL    HW261523   5.694   2.255  11.158
20028SOL     OW61524   5.664   2.024  11.469
20028SOL    HW161525   5.650   2.101  11.414
20028SOL    HW261526   5.744   1.985  11.435
20029SOL     OW61527   6.762   3.195  11.307
20029SOL    HW161528   6.668   3.176  11.312
20029SOL    HW261529   6.791   3.196  11.398
20030SOL     OW61530   7.077   3.654  12.158
20030SOL    HW161531   7.104   3.725  12.101
20030SOL    HW261532   7.158   3.628  12.203
20031SOL     OW61533   7.255   2.723  12.423
20031SOL    HW161534   7.243   2.640  12.377
20031SOL    HW261535   7.242   2.790  12.355
20032SOL     OW61536   6.811   2.181  11.623
20032SOL    HW161537   6.866   2.102  11.618
20032SOL    HW261538   6.840   2.224  11.703
20033SOL     OW61539   6.147   2.603  11.848
20033SOL    HW161540   6.195   2.684  11.834
20033SOL    HW261541   6.088   2.596  11.772
20034SOL     OW61542   7.402   2.765   0.147
20034SOL    HW161543   7.388   2.858   0.163
20034SOL    HW261544   7.343   2.743   0.075
20035SOL     OW61545   6.457   3.239  11.183
20035SOL    HW161546   6.435   3.248  11.275
20035SOL    HW261547   6.469   3.329  11.152
20036SOL     OW61548   6.254   3.652  12.099
20036SOL    HW161549   6.234   3.745  12.087
20036SOL    HW261550   6.350   3.648  12.101
20037SOL     OW61551   6.477   2.838  12.026
20037SOL    HW161552   6.510   2.760  12.071
20037SOL    HW261553   6.430   2.887  12.094
20038SOL     OW61554   6.658   2.842  11.255
20038SOL    HW161555   6.644   2.897  11.177
20038SOL    HW261556   6.740   2.796  11.238
20039SOL     OW61557   7.440   3.412  12.011
20039SOL    HW161558   7.349   3.403  11.980
20039SOL    HW261559   7.446   3.351  12.084
20040SOL     OW61560   5.689   3.095  11.841
20040SOL    HW161561   5.677   3.047  11.923
20040SOL    HW261562   5.752   3.043  11.791
20041SOL     OW61563   7.388   2.030  12.426
20041SOL    HW161564   7.481   2.024  12.449
20041SOL    HW261565   7.387   2.031  12.330
20042SOL     OW61566   7.304   3.356  12.275
20042SOL    HW161567   7.217   3.320  12.288
20042SOL    HW261568   7.360   3.310  12.338
20043SOL     OW61569   6.422   3.449  11.847
20043SOL    HW161570   6.399   3.523  11.792
20043SOL    HW261571   6.347   3.389  11.839
20044SOL     OW61572   6.993   2.046  12.309
20044SOL    HW161573   7.078   2.043  12.353
20044SOL    HW261574   6.939   2.104  12.363
20045SOL     OW61575   6.597   1.871  12.296
20045SOL    HW161576   6.558   1.811  12.232
20045SOL    HW261577   6.687   1.839  12.308
20046SOL     OW61578   6.943   1.915  11.337
20046SOL    HW161579   6.961   1.852  11.267
20046SOL    HW261580   6.855   1.891  11.368
20047SOL     OW61581   6.872   2.311  11.858
20047SOL    HW161582   6.786   2.351  11.870
20047SOL    HW261583   6.891   2.268  11.941
20048SOL     OW61584   5.641   2.932  11.477
20048SOL    HW161585   5.716   2.943  11.535
20048SOL    HW261586   5.618   2.839  11.483
20049SOL     OW61587   6.497   3.583  11.482
20049SOL    HW161588   6.463   3.493  11.476
20049SOL    HW261589   6.460   3.617  11.564
20050SOL     OW61590   5.863   4.326   0.037
20050SOL    HW161591   5.830   4.380   0.109
20050SOL    HW261592   5.786   4.277   0.007
20051SOL     OW61593   5.792   4.029   0.998
20051SOL    HW161594   5.828   3.992   1.078
20051SOL    HW261595   5.713   3.978   0.981
20052SOL     OW61596   5.585   4.106   0.638
20052SOL    HW161597   5.500   4.122   0.679
20052SOL    HW261598   5.568   4.035   0.575
20053SOL     OW61599   6.121   5.016   1.193
20053SOL    HW161600   6.067   5.043   1.119
20053SOL    HW261601   6.170   5.095   1.218
20054SOL     OW61602   7.187   5.245   0.729
20054SOL    HW161603   7.127   5.230   0.802
20054SOL    HW261604   7.134   5.234   0.650
20055SOL     OW61605   7.319   4.313   0.248
20055SOL    HW161606   7.327   4.281   0.158
20055SOL    HW261607   7.276   4.242   0.295
20056SOL     OW61608   6.311   4.859   1.043
20056SOL    HW161609   6.248   4.894   1.106
20056SOL    HW261610   6.351   4.936   1.003
20057SOL     OW61611   6.463   4.483   1.823
20057SOL    HW161612   6.464   4.553   1.888
20057SOL    HW261613   6.485   4.525   1.740
20058SOL     OW61614   6.281   4.720   0.658
20058SOL    HW161615   6.329   4.704   0.740
20058SOL    HW261616   6.206   4.773   0.684
20059SOL     OW61617   6.308   4.874   1.818
20059SOL    HW161618   6.350   4.953   1.851
20059SOL    HW261619   6.232   4.906   1.768
20060SOL     OW61620   5.910   5.142   1.062
20060SOL    HW161621   5.830   5.134   1.009
20060SOL    HW261622   5.965   5.202   1.013
20061SOL     OW61623   6.988   5.257   1.422
20061SOL    HW161624   7.040   5.330   1.387
20061SOL    HW261625   7.043   5.220   1.492
20062SOL     OW61626   5.992   4.156   1.544
20062SOL    HW161627   6.068   4.174   1.489
20062SOL    HW261628   5.997   4.062   1.562
20063SOL     OW61629   7.190   4.171   0.751
20063SOL    HW161630   7.116   4.188   0.692
20063SOL    HW261631   7.176   4.231   0.824
20064SOL     OW61632   5.810   5.442   0.474
20064SOL    HW161633   5.829   5.507   0.541
20064SOL    HW261634   5.889   5.438   0.420
20065SOL     OW61635   6.728   5.073   1.674
20065SOL    HW161636   6.782   5.066   1.753
20065SOL    HW261637   6.677   4.992   1.673
20066SOL     OW61638   5.781   5.179   0.549
20066SOL    HW161639   5.791   5.273   0.535
20066SOL    HW261640   5.746   5.172   0.638
20067SOL     OW61641   5.843   4.816   0.879
20067SOL    HW161642   5.845   4.725   0.909
20067SOL    HW261643   5.788   4.862   0.943
20068SOL     OW61644   6.216   5.481   1.460
20068SOL    HW161645   6.124   5.483   1.484
20068SOL    HW261646   6.245   5.572   1.470
20069SOL     OW61647   6.173   4.690   0.143
20069SOL    HW161648   6.239   4.700   0.075
20069SOL    HW261649   6.206   4.742   0.216
20070SOL     OW61650   7.180   3.858   1.460
20070SOL    HW161651   7.197   3.941   1.415
20070SOL    HW261652   7.159   3.883   1.550
20071SOL     OW61653   5.700   4.376   0.559
20071SOL    HW161654   5.670   4.288   0.579
20071SOL    HW261655   5.686   4.425   0.640
20072SOL     OW61656   7.457   5.463   0.304
20072SOL    HW161657   7.506   5.436   0.381
20072SOL    HW261658   7.475   5.556   0.296
20073SOL     OW61659   5.614   5.243   0.135
20073SOL    HW161660   5.525   5.209   0.128
20073SOL    HW261661   5.605   5.321   0.191
20074SOL     OW61662   7.310   4.610   0.564
20074SOL    HW161663   7.351   4.633   0.648
20074SOL    HW261664   7.273   4.693   0.532
20075SOL     OW61665   7.224   4.845   0.450
20075SOL    HW161666   7.312   4.846   0.412
20075SOL    HW261667   7.224   4.918   0.512
20076SOL     OW61668   5.729   4.435   1.549
20076SOL    HW161669   5.809   4.486   1.562
20076SOL    HW261670   5.659   4.500   1.547
20077SOL     OW61671   6.204   5.108   0.714
20077SOL    HW161672   6.156   5.026   0.722
20077SOL    HW261673   6.185   5.138   0.625
20078SOL     OW61674   6.893   4.962   1.414
20078SOL    HW161675   6.910   4.885   1.358
20078SOL    HW261676   6.943   4.945   1.494
20079SOL     OW61677   6.416   3.744   0.507
20079SOL    HW161678   6.444   3.835   0.493
20079SOL    HW261679   6.321   3.750   0.520
20080SOL     OW61680   5.781   4.688   1.286
20080SOL    HW161681   5.860   4.637   1.268
20080SOL    HW261682   5.733   4.689   1.203
20081SOL     OW61683   7.096   4.734   0.232
20081SOL    HW161684   7.029   4.674   0.263
20081SOL    HW261685   7.125   4.781   0.311
20082SOL     OW61686   6.775   5.506   1.548
20082SOL    HW161687   6.820   5.589   1.532
20082SOL    HW261688   6.684   5.523   1.526
20083SOL     OW61689   5.926   3.970   1.826
20083SOL    HW161690   5.968   4.053   1.849
20083SOL    HW261691   5.833   3.984   1.847
20084SOL     OW61692   7.055   5.148   0.957
20084SOL    HW161693   6.989   5.164   1.024
20084SOL    HW261694   7.038   5.058   0.928
20085SOL     OW61695   7.245   5.488   0.588
20085SOL    HW161696   7.204   5.462   0.506
20085SOL    HW261697   7.231   5.414   0.647
20086SOL     OW61698   6.166   4.451   0.282
20086SOL    HW161699   6.173   4.535   0.237
20086SOL    HW261700   6.099   4.465   0.349
20087SOL     OW61701   6.865   4.084   0.933
20087SOL    HW161702   6.776   4.048   0.942
20087SOL    HW261703   6.918   4.032   0.992
20088SOL     OW61704   7.172   5.455   0.321
20088SOL    HW161705   7.265   5.435   0.310
20088SOL    HW261706   7.131   5.371   0.340
20089SOL     OW61707   6.391   4.343   1.467
20089SOL    HW161708   6.360   4.319   1.554
20089SOL    HW261709   6.338   4.290   1.407
20090SOL     OW61710   6.970   4.196   1.677
20090SOL    HW161711   6.991   4.258   1.746
20090SOL    HW261712   7.036   4.127   1.686
20091SOL     OW61713   6.534   4.612   1.590
20091SOL    HW161714   6.592   4.549   1.548
20091SOL    HW261715   6.482   4.648   1.519
20092SOL     OW61716   6.568   4.139   1.231
20092SOL    HW161717   6.483   4.158   1.270
20092SOL    HW261718   6.549   4.075   1.162
20093SOL     OW61719   6.625   4.393   0.400
20093SOL    HW161720   6.622   4.398   0.496
20093SOL    HW261721   6.541   4.355   0.375
20094SOL     OW61722   5.661   4.544   0.777
20094SOL    HW161723   5.746   4.539   0.822
20094SOL    HW261724   5.614   4.613   0.822
20095SOL     OW61725   5.699   5.540   1.568
20095SOL    HW161726   5.701   5.539   1.663
20095SOL    HW261727   5.678   5.630   1.545
20096SOL     OW61728   6.495   4.059   0.201
20096SOL    HW161729   6.484   4.143   0.157
20096SOL    HW261730   6.438   3.999   0.153
20097SOL     OW61731   7.341   4.288   1.826
20097SOL    HW161732   7.296   4.362   1.784
20097SOL    HW261733   7.345   4.221   1.758
20098SOL     OW61734   6.944   4.833   0.536
20098SOL    HW161735   7.034   4.854   0.510
20098SOL    HW261736   6.891   4.899   0.490
20099SOL     OW61737   6.125   3.891   0.880
20099SOL    HW161738   6.131   3.907   0.975
20099SOL    HW261739   6.122   3.979   0.842
20100SOL     OW61740   6.565   5.155   0.478
20100SOL    HW161741   6.535   5.228   0.424
20100SOL    HW261742   6.546   5.183   0.568
20101SOL     OW61743   7.337   4.733   0.833
20101SOL    HW161744   7.325   4.816   0.786
20101SOL    HW261745   7.308   4.752   0.922
20102SOL     OW61746   5.915   4.704   0.266
20102SOL    HW161747   5.988   4.710   0.204
20102SOL    HW261748   5.868   4.625   0.239
20103SOL     OW61749   7.079   4.471   0.731
20103SOL    HW161750   7.065   4.424   0.814
20103SOL    HW261751   7.157   4.524   0.747
20104SOL     OW61752   6.057   4.986   1.737
20104SOL    HW161753   5.963   4.975   1.724
20104SOL    HW261754   6.065   5.027   1.823
20105SOL     OW61755   6.678   5.506   0.243
20105SOL    HW161756   6.685   5.496   0.338
20105SOL    HW261757   6.742   5.444   0.207
20106SOL     OW61758   5.733   4.001   1.520
20106SOL    HW161759   5.644   4.017   1.552
20106SOL    HW261760   5.754   3.914   1.553
20107SOL     OW61761   7.244   5.136   0.045
20107SOL    HW161762   7.175   5.200   0.032
20107SOL    HW261763   7.198   5.055   0.069
20108SOL     OW61764   6.042   5.451   0.326
20108SOL    HW161765   6.087   5.510   0.387
20108SOL    HW261766   6.112   5.418   0.269
20109SOL     OW61767   7.000   3.824   0.444
20109SOL    HW161768   7.004   3.788   0.356
20109SOL    HW261769   7.089   3.815   0.477
20110SOL     OW61770   5.862   5.503   1.211
20110SOL    HW161771   5.952   5.504   1.244
20110SOL    HW261772   5.871   5.493   1.116
20111SOL     OW61773   6.565   5.412   0.901
20111SOL    HW161774   6.647   5.372   0.870
20111SOL    HW261775   6.497   5.374   0.845
20112SOL     OW61776   5.973   4.413   0.484
20112SOL    HW161777   5.996   4.320   0.493
20112SOL    HW261778   5.885   4.419   0.520
20113SOL     OW61779   7.113   3.946   1.723
20113SOL    HW161780   7.118   3.966   1.816
20113SOL    HW261781   7.042   3.882   1.716
20114SOL     OW61782   6.225   3.839   0.093
20114SOL    HW161783   6.315   3.808   0.097
20114SOL    HW261784   6.173   3.767   0.128
20115SOL     OW61785   6.350   4.015   1.767
20115SOL    HW161786   6.430   3.963   1.757
20115SOL    HW261787   6.303   3.971   1.839
20116SOL     OW61788   6.464   5.221   1.202
20116SOL    HW161789   6.448   5.209   1.109
20116SOL    HW261790   6.558   5.208   1.212
20117SOL     OW61791   6.913   4.306   1.428
20117SOL    HW161792   6.950   4.284   1.514
20117SOL    HW261793   6.952   4.391   1.406
20118SOL     OW61794   6.416   5.093   0.951
20118SOL    HW161795   6.485   5.116   0.889
20118SOL    HW261796   6.339   5.142   0.922
20119SOL     OW61797   6.528   4.231   0.898
20119SOL    HW161798   6.506   4.227   0.805
20119SOL    HW261799   6.553   4.142   0.922
20120SOL     OW61800   6.144   3.786   0.505
20120SOL    HW161801   6.063   3.782   0.556
20120SOL    HW261802   6.133   3.861   0.447
20121SOL     OW61803   7.048   4.942   0.054
20121SOL    HW161804   7.056   4.866   0.111
20121SOL    HW261805   6.961   4.976   0.072
20122SOL     OW61806   5.906   3.767   0.129
20122SOL    HW161807   5.851   3.822   0.185
20122SOL    HW261808   5.959   3.717   0.191
20123SOL     OW61809   6.532   3.994   0.467
20123SOL    HW161810   6.514   4.017   0.376
20123SOL    HW261811   6.627   3.990   0.473
20124SOL     OW61812   6.663   4.420   1.445
20124SOL    HW161813   6.596   4.352   1.456
20124SOL    HW261814   6.746   4.372   1.443
20125SOL     OW61815   6.802   5.309   0.796
20125SOL    HW161816   6.806   5.365   0.720
20125SOL    HW261817   6.878   5.334   0.849
20126SOL     OW61818   6.060   4.869   0.719
20126SOL    HW161819   5.992   4.855   0.786
20126SOL    HW261820   6.013   4.865   0.636
20127SOL     OW61821   6.817   5.531   0.628
20127SOL    HW161822   6.880   5.579   0.575
20127SOL    HW261823   6.761   5.598   0.667
20128SOL     OW61824   6.622   4.281   0.078
20128SOL    HW161825   6.591   4.338   0.008
20128SOL    HW261826   6.672   4.338   0.136
20129SOL     OW61827   6.148   3.924   1.144
20129SOL    HW161828   6.177   3.855   1.203
20129SOL    HW261829   6.161   4.005   1.194
20130SOL     OW61830   6.470   4.213   0.630
20130SOL    HW161831   6.400   4.253   0.580
20130SOL    HW261832   6.487   4.130   0.585
20131SOL     OW61833   6.610   3.773   0.724
20131SOL    HW161834   6.546   3.761   0.654
20131SOL    HW261835   6.590   3.704   0.787
20132SOL     OW61836   7.031   4.891   0.864
20132SOL    HW161837   6.962   4.830   0.838
20132SOL    HW261838   7.080   4.908   0.784
20133SOL     OW61839   7.052   4.322   0.961
20133SOL    HW161840   6.988   4.252   0.977
20133SOL    HW261841   7.106   4.323   1.040
20134SOL     OW61842   6.066   5.124   0.176
20134SOL    HW161843   6.003   5.078   0.231
20134SOL    HW261844   6.012   5.167   0.109
20135SOL     OW61845   7.265   4.975   0.694
20135SOL    HW161846   7.360   4.975   0.682
20135SOL    HW261847   7.239   5.067   0.690
20136SOL     OW61848   6.995   4.284   0.079
20136SOL    HW161849   6.943   4.291   0.159
20136SOL    HW261850   7.045   4.204   0.090
20137SOL     OW61851   6.125   3.988   0.318
20137SOL    HW161852   6.154   3.935   0.244
20137SOL    HW261853   6.095   4.070   0.278
20138SOL     OW61854   7.316   4.980   1.555
20138SOL    HW161855   7.373   4.907   1.580
20138SOL    HW261856   7.364   5.058   1.584
20139SOL     OW61857   6.666   5.099   1.374
20139SOL    HW161858   6.586   5.054   1.399
20139SOL    HW261859   6.736   5.035   1.390
20140SOL     OW61860   7.186   5.327   1.640
20140SOL    HW161861   7.186   5.381   1.561
20140SOL    HW261862   7.273   5.286   1.640
20141SOL     OW61863   6.715   4.946   1.101
20141SOL    HW161864   6.626   4.950   1.137
20141SOL    HW261865   6.707   4.985   1.014
20142SOL     OW61866   7.214   4.822   1.071
20142SOL    HW161867   7.211   4.885   1.143
20142SOL    HW261868   7.140   4.845   1.015
20143SOL     OW61869   6.508   3.815   1.391
20143SOL    HW161870   6.527   3.794   1.299
20143SOL    HW261871   6.589   3.852   1.424
20144SOL     OW61872   6.575   4.847   1.719
20144SOL    HW161873   6.484   4.859   1.747
20144SOL    HW261874   6.574   4.766   1.668
20145SOL     OW61875   6.299   4.791   0.377
20145SOL    HW161876   6.278   4.773   0.468
20145SOL    HW261877   6.380   4.744   0.360
20146SOL     OW61878   6.012   4.544   1.257
20146SOL    HW161879   6.083   4.550   1.321
20146SOL    HW261880   5.987   4.452   1.256
20147SOL     OW61881   6.841   4.093   1.277
20147SOL    HW161882   6.874   4.169   1.325
20147SOL    HW261883   6.751   4.116   1.255
20148SOL     OW61884   5.655   5.306   1.336
20148SOL    HW161885   5.602   5.363   1.280
20148SOL    HW261886   5.741   5.348   1.339
20149SOL     OW61887   5.916   4.859   0.488
20149SOL    HW161888   5.906   4.938   0.436
20149SOL    HW261889   5.923   4.788   0.424
20150SOL     OW61890   6.137   4.276   0.871
20150SOL    HW161891   6.151   4.333   0.795
20150SOL    HW261892   6.224   4.244   0.893
20151SOL     OW61893   6.796   5.027   0.396
20151SOL    HW161894   6.870   5.085   0.413
20151SOL    HW261895   6.719   5.076   0.426
20152SOL     OW61896   6.878   5.174   1.163
20152SOL    HW161897   6.908   5.180   1.254
20152SOL    HW261898   6.821   5.098   1.161
20153SOL     OW61899   7.140   4.351   0.486
20153SOL    HW161900   7.126   4.398   0.568
20153SOL    HW261901   7.089   4.399   0.421
20154SOL     OW61902   5.942   5.224   1.323
20154SOL    HW161903   5.912   5.232   1.233
20154SOL    HW261904   6.029   5.264   1.324
20155SOL     OW61905   6.016   4.459   1.608
20155SOL    HW161906   6.076   4.504   1.549
20155SOL    HW261907   6.064   4.381   1.636
20156SOL     OW61908   6.579   3.863   1.761
20156SOL    HW161909   6.637   3.935   1.735
20156SOL    HW261910   6.625   3.784   1.732
20157SOL     OW61911   6.075   3.749   1.766
20157SOL    HW161912   6.034   3.700   1.695
20157SOL    HW261913   6.021   3.828   1.774
20158SOL     OW61914   6.140   4.612   1.021
20158SOL    HW161915   6.190   4.693   1.029
20158SOL    HW261916   6.101   4.599   1.108
20159SOL     OW61917   6.916   4.582   1.015
20159SOL    HW161918   6.836   4.531   1.025
20159SOL    HW261919   6.986   4.517   1.020
20160SOL     OW61920   6.810   4.224   0.283
20160SOL    HW161921   6.826   4.160   0.351
20160SOL    HW261922   6.760   4.293   0.326
20161SOL     OW61923   5.828   3.931   1.252
20161SOL    HW161924   5.809   3.940   1.346
20161SOL    HW261925   5.852   3.839   1.241
20162SOL     OW61926   5.654   5.038   1.298
20162SOL    HW161927   5.652   5.005   1.388
20162SOL    HW261928   5.652   5.133   1.307
20163SOL     OW61929   6.376   4.451   1.034
20163SOL    HW161930   6.390   4.357   1.018
20163SOL    HW261931   6.281   4.462   1.030
20164SOL     OW61932   7.329   4.699   1.851
20164SOL    HW161933   7.287   4.638   1.791
20164SOL    HW261934   7.265   4.711   1.922
20165SOL     OW61935   5.901   3.789   0.630
20165SOL    HW161936   5.875   3.878   0.653
20165SOL    HW261937   5.908   3.744   0.714
20166SOL     OW61938   7.207   4.099   0.381
20166SOL    HW161939   7.236   4.030   0.440
20166SOL    HW261940   7.180   4.170   0.439
20167SOL     OW61941   6.670   4.463   0.981
20167SOL    HW161942   6.635   4.491   1.065
20167SOL    HW261943   6.629   4.379   0.963
20168SOL     OW61944   6.589   5.306   1.716
20168SOL    HW161945   6.531   5.336   1.646
20168SOL    HW261946   6.589   5.210   1.708
20169SOL     OW61947   7.442   5.224   1.599
20169SOL    HW161948   7.457   5.258   1.511
20169SOL    HW261949   7.525   5.239   1.645
20170SOL     OW61950   5.931   4.644   1.797
20170SOL    HW161951   6.007   4.667   1.852
20170SOL    HW261952   5.965   4.578   1.737
20171SOL     OW61953   7.070   4.033   0.149
20171SOL    HW161954   7.030   3.947   0.159
20171SOL    HW261955   7.124   4.044   0.228
20172SOL     OW61956   6.861   4.523   0.029
20172SOL    HW161957   6.928   4.456   0.023
20172SOL    HW261958   6.894   4.596  -0.024
20173SOL     OW61959   6.693   5.062   0.855
20173SOL    HW161960   6.705   5.007   0.778
20173SOL    HW261961   6.733   5.146   0.832
20174SOL     OW61962   5.885   4.542   0.940
20174SOL    HW161963   5.977   4.566   0.947
20174SOL    HW261964   5.883   4.448   0.959
20175SOL     OW61965   5.899   4.275   0.997
20175SOL    HW161966   5.865   4.186   0.986
20175SOL    HW261967   5.984   4.273   0.954
20176SOL     OW61968   6.717   4.093   1.690
20176SOL    HW161969   6.670   4.150   1.751
20176SOL    HW261970   6.804   4.133   1.683
20177SOL     OW61971   6.748   3.919   1.475
20177SOL    HW161972   6.736   3.984   1.544
20177SOL    HW261973   6.790   3.968   1.404
20178SOL     OW61974   5.640   5.496   0.926
20178SOL    HW161975   5.614   5.418   0.877
20178SOL    HW261976   5.736   5.496   0.922
20179SOL     OW61977   6.158   5.226   0.956
20179SOL    HW161978   6.133   5.318   0.956
20179SOL    HW261979   6.155   5.200   0.864
20180SOL     OW61980   6.570   4.550   1.223
20180SOL    HW161981   6.608   4.509   1.301
20180SOL    HW261982   6.490   4.499   1.207
20181SOL     OW61983   5.629   4.241   1.157
20181SOL    HW161984   5.652   4.163   1.106
20181SOL    HW261985   5.690   4.308   1.128
20182SOL     OW61986   5.797   4.250   1.745
20182SOL    HW161987   5.878   4.227   1.700
20182SOL    HW261988   5.764   4.326   1.697
20183SOL     OW61989   6.931   4.681   1.665
20183SOL    HW161990   6.968   4.767   1.647
20183SOL    HW261991   7.002   4.620   1.647
20184SOL     OW61992   6.380   4.295   0.350
20184SOL    HW161993   6.348   4.211   0.317
20184SOL    HW261994   6.310   4.357   0.328
20185SOL     OW61995   7.219   4.331   1.174
20185SOL    HW161996   7.208   4.281   1.255
20185SOL    HW261997   7.309   4.311   1.146
20186SOL     OW61998   5.846   5.271   1.719
20186SOL    HW161999   5.815   5.345   1.769
20186SOL    HW262000   5.826   5.194   1.773
20187SOL     OW62001   6.539   5.362   1.444
20187SOL    HW162002   6.494   5.321   1.371
20187SOL    HW262003   6.530   5.456   1.429
20188SOL     OW62004   6.066   4.215   0.188
20188SOL    HW162005   6.106   4.297   0.217
20188SOL    HW262006   5.997   4.242   0.128
20189SOL     OW62007   5.805   4.868   1.485
20189SOL    HW162008   5.769   4.839   1.568
20189SOL    HW262009   5.783   4.798   1.423
20190SOL     OW62010   6.912   4.780   1.210
20190SOL    HW162011   6.926   4.712   1.144
20190SOL    HW262012   6.845   4.836   1.173
20191SOL     OW62013   6.899   4.554   0.303
20191SOL    HW162014   6.819   4.577   0.350
20191SOL    HW262015   6.873   4.549   0.211
20192SOL     OW62016   7.363   5.453   1.160
20192SOL    HW162017   7.430   5.481   1.097
20192SOL    HW262018   7.335   5.367   1.128
20193SOL     OW62019   6.837   5.450   1.122
20193SOL    HW162020   6.913   5.479   1.072
20193SOL    HW262021   6.847   5.356   1.129
20194SOL     OW62022   5.674   4.949   1.042
20194SOL    HW162023   5.665   4.983   1.131
20194SOL    HW262024   5.593   4.976   0.998
20195SOL     OW62025   6.246   5.394   1.722
20195SOL    HW162026   6.192   5.467   1.754
20195SOL    HW262027   6.267   5.418   1.632
20196SOL     OW62028   6.499   3.785   0.077
20196SOL    HW162029   6.540   3.787  -0.009
20196SOL    HW262030   6.565   3.747   0.135
20197SOL     OW62031   7.311   3.882   0.518
20197SOL    HW162032   7.376   3.855   0.453
20197SOL    HW262033   7.286   3.800   0.561
20198SOL     OW62034   5.737   5.491   1.845
20198SOL    HW162035   5.674   5.444   1.900
20198SOL    HW262036   5.785   5.547   1.905
20199SOL     OW62037   6.852   4.610   0.665
20199SOL    HW162038   6.931   4.558   0.677
20199SOL    HW262039   6.879   4.684   0.611
20200SOL     OW62040   6.401   5.015   1.411
20200SOL    HW162041   6.357   5.045   1.490
20200SOL    HW262042   6.383   5.083   1.346
20201SOL     OW62043   6.238   5.339   0.171
20201SOL    HW162044   6.315   5.330   0.115
20201SOL    HW262045   6.196   5.253   0.169
20202SOL     OW62046   7.192   5.451   1.388
20202SOL    HW162047   7.247   5.455   1.309
20202SOL    HW262048   7.184   5.542   1.416
20203SOL     OW62049   7.437   3.901   0.958
20203SOL    HW162050   7.464   3.811   0.938
20203SOL    HW262051   7.346   3.906   0.927
20204SOL     OW62052   5.842   4.043   0.718
20204SOL    HW162053   5.754   4.070   0.691
20204SOL    HW262054   5.837   4.039   0.813
20205SOL     OW62055   6.782   5.319   0.064
20205SOL    HW162056   6.784   5.226   0.087
20205SOL    HW262057   6.696   5.333   0.026
20206SOL     OW62058   6.403   4.737   1.380
20206SOL    HW162059   6.462   4.716   1.308
20206SOL    HW262060   6.405   4.833   1.385
20207SOL     OW62061   6.531   4.656   0.342
20207SOL    HW162062   6.574   4.690   0.263
20207SOL    HW262063   6.556   4.564   0.345
20208SOL     OW62064   7.039   5.297  -0.018
20208SOL    HW162065   6.956   5.318   0.025
20208SOL    HW262066   7.094   5.375  -0.004
20209SOL     OW62067   7.197   5.016   1.280
20209SOL    HW162068   7.254   4.996   1.354
20209SOL    HW262069   7.113   5.037   1.319
20210SOL     OW62070   6.625   4.825   0.690
20210SOL    HW162071   6.534   4.850   0.702
20210SOL    HW262072   6.643   4.841   0.597
20211SOL     OW62073   6.613   3.960   0.949
20211SOL    HW162074   6.609   3.910   0.868
20211SOL    HW262075   6.606   3.895   1.019
20212SOL     OW62076   6.176   5.198   0.463
20212SOL    HW162077   6.221   5.156   0.389
20212SOL    HW262078   6.111   5.255   0.422
20213SOL     OW62079   7.314   4.115   1.382
20213SOL    HW162080   7.383   4.181   1.380
20213SOL    HW262081   7.346   4.046   1.323
20214SOL     OW62082   5.828   5.062   0.313
20214SOL    HW162083   5.770   5.107   0.252
20214SOL    HW262084   5.813   5.104   0.398
20215SOL     OW62085   5.697   4.783   1.728
20215SOL    HW162086   5.622   4.743   1.772
20215SOL    HW262087   5.772   4.733   1.760
20216SOL     OW62088   6.270   3.889   1.523
20216SOL    HW162089   6.351   3.881   1.472
20216SOL    HW262090   6.293   3.950   1.593
20217SOL     OW62091   7.009   4.550   1.356
20217SOL    HW162092   6.976   4.636   1.330
20217SOL    HW262093   7.082   4.569   1.415
20218SOL     OW62094   5.726   3.931   0.260
20218SOL    HW162095   5.657   3.995   0.278
20218SOL    HW262096   5.683   3.846   0.270
20219SOL     OW62097   6.777   5.048   0.116
20219SOL    HW162098   6.686   5.027   0.094
20219SOL    HW262099   6.783   5.032   0.210
20220SOL     OW62100   6.211   4.554   1.439
20220SOL    HW162101   6.268   4.629   1.424
20220SOL    HW262102   6.271   4.479   1.445
20221SOL     OW62103   7.063   5.507   0.976
20221SOL    HW162104   7.061   5.583   0.917
20221SOL    HW262105   7.154   5.502   1.005
20222SOL     OW62106   6.286   4.286   1.712
20222SOL    HW162107   6.340   4.343   1.767
20222SOL    HW262108   6.311   4.197   1.738
20223SOL     OW62109   7.057   4.929   1.630
20223SOL    HW162110   7.054   4.939   1.725
20223SOL    HW262111   7.149   4.944   1.607
20224SOL     OW62112   5.960   5.461   1.549
20224SOL    HW162113   5.875   5.499   1.529
20224SOL    HW262114   5.941   5.381   1.598
20225SOL     OW62115   7.294   4.611   1.249
20225SOL    HW162116   7.252   4.528   1.227
20225SOL    HW262117   7.260   4.673   1.185
20226SOL     OW62118   6.813   4.021   0.459
20226SOL    HW162119   6.875   3.949   0.451
20226SOL    HW262120   6.839   4.066   0.539
20227SOL     OW62121   6.185   4.452   0.665
20227SOL    HW162122   6.218   4.542   0.653
20227SOL    HW262123   6.114   4.444   0.601
20228SOL     OW62124   7.345   4.075   1.651
20228SOL    HW162125   7.328   4.100   1.560
20228SOL    HW262126   7.269   4.022   1.675
20229SOL     OW62127   7.392   4.674   1.500
20229SOL    HW162128   7.324   4.634   1.554
20229SOL    HW262129   7.363   4.660   1.410
20230SOL     OW62130   6.490   5.106   0.048
20230SOL    HW162131   6.433   5.083   0.121
20230SOL    HW262132   6.483   5.201   0.041
20231SOL     OW62133   6.257   5.517   0.936
20231SOL    HW162134   6.161   5.518   0.933
20231SOL    HW262135   6.281   5.609   0.931
20232SOL     OW62136   6.453   4.672   0.893
20232SOL    HW162137   6.429   4.591   0.937
20232SOL    HW262138   6.412   4.741   0.945
20233SOL     OW62139   6.659   4.731   0.115
20233SOL    HW162140   6.581   4.742   0.062
20233SOL    HW262141   6.732   4.743   0.054
20234SOL     OW62142   7.437   5.267   0.853
20234SOL    HW162143   7.364   5.272   0.791
20234SOL    HW262144   7.398   5.236   0.934
20235SOL     OW62145   5.795   5.037   1.853
20235SOL    HW162146   5.735   4.965   1.836
20235SOL    HW262147   5.811   5.035   1.947
20236SOL     OW62148   5.670   4.924   0.676
20236SOL    HW162149   5.717   4.885   0.749
20236SOL    HW262150   5.734   4.927   0.605
20237SOL     OW62151   6.259   5.129   1.617
20237SOL    HW162152   6.181   5.085   1.653
20237SOL    HW262153   6.256   5.217   1.654
20238SOL     OW62154   7.424   3.921   1.235
20238SOL    HW162155   7.404   3.827   1.243
20238SOL    HW262156   7.426   3.936   1.141
20239SOL     OW62157   6.022   4.154   0.533
20239SOL    HW162158   6.049   4.084   0.473
20239SOL    HW262159   5.966   4.109   0.597
20240SOL     OW62160   7.293   5.197   1.080
20240SOL    HW162161   7.210   5.188   1.034
20240SOL    HW262162   7.285   5.138   1.156
20241SOL     OW62163   5.919   4.281   1.265
20241SOL    HW162164   6.007   4.247   1.282
20241SOL    HW262165   5.909   4.276   1.170
20242SOL     OW62166   6.425   5.287   0.691
20242SOL    HW162167   6.404   5.366   0.641
20242SOL    HW262168   6.343   5.238   0.694
20243SOL     OW62169   7.015   3.946   1.110
20243SOL    HW162170   7.023   3.854   1.136
20243SOL    HW262171   6.966   3.987   1.181
20244SOL     OW62172   6.595   3.749   1.131
20244SOL    HW162173   6.538   3.684   1.091
20244SOL    HW262174   6.680   3.707   1.136
20245SOL     OW62175   6.365   5.054   0.296
20245SOL    HW162176   6.335   4.965   0.313
20245SOL    HW262177   6.435   5.069   0.359
20246SOL     OW62178   6.211   5.266   1.298
20246SOL    HW162179   6.217   5.343   1.355
20246SOL    HW262180   6.288   5.273   1.241
20247SOL     OW62181   6.923   3.800   0.161
20247SOL    HW162182   6.969   3.736   0.107
20247SOL    HW262183   6.845   3.753   0.191
20248SOL     OW62184   6.891   4.166   0.677
20248SOL    HW162185   6.842   4.248   0.688
20248SOL    HW262186   6.888   4.124   0.763
20249SOL     OW62187   7.179   3.921   0.883
20249SOL    HW162188   7.119   3.934   0.956
20249SOL    HW262189   7.172   4.001   0.831
20250SOL     OW62190   5.596   4.817   0.361
20250SOL    HW162191   5.686   4.844   0.342
20250SOL    HW262192   5.600   4.722   0.367
20251SOL     OW62193   6.444   5.367   0.362
20251SOL    HW162194   6.363   5.363   0.311
20251SOL    HW262195   6.435   5.447   0.415
20252SOL     OW62196   5.802   4.350   2.006
20252SOL    HW162197   5.712   4.350   2.037
20252SOL    HW262198   5.796   4.325   1.914
20253SOL     OW62199   5.813   4.022   2.856
20253SOL    HW162200   5.843   3.991   2.941
20253SOL    HW262201   5.728   3.980   2.843
20254SOL     OW62202   5.581   4.114   2.516
20254SOL    HW162203   5.502   4.142   2.562
20254SOL    HW262204   5.554   4.036   2.468
20255SOL     OW62205   6.159   5.030   3.061
20255SOL    HW162206   6.091   5.026   2.993
20255SOL    HW262207   6.130   5.100   3.120
20256SOL     OW62208   6.724   4.413   2.564
20256SOL    HW162209   6.769   4.494   2.539
20256SOL    HW262210   6.674   4.436   2.642
20257SOL     OW62211   7.344   4.323   2.097
20257SOL    HW162212   7.333   4.321   2.002
20257SOL    HW262213   7.312   4.238   2.127
20258SOL     OW62214   6.323   4.854   2.918
20258SOL    HW162215   6.261   4.896   2.977
20258SOL    HW262216   6.364   4.927   2.870
20259SOL     OW62217   6.459   4.483   3.691
20259SOL    HW162218   6.462   4.543   3.766
20259SOL    HW262219   6.485   4.536   3.616
20260SOL     OW62220   6.269   4.710   2.510
20260SOL    HW162221   6.337   4.710   2.577
20260SOL    HW262222   6.201   4.768   2.544
20261SOL     OW62223   6.302   4.877   3.680
20261SOL    HW162224   6.350   4.951   3.716
20261SOL    HW262225   6.218   4.914   3.651
20262SOL     OW62226   5.933   5.119   2.917
20262SOL    HW162227   5.845   5.103   2.883
20262SOL    HW262228   5.968   5.189   2.862
20263SOL     OW62229   7.055   5.232   3.219
20263SOL    HW162230   7.103   5.313   3.233
20263SOL    HW262231   6.982   5.236   3.280
20264SOL     OW62232   6.030   4.108   3.356
20264SOL    HW162233   6.103   4.048   3.374
20264SOL    HW262234   5.953   4.062   3.389
20265SOL     OW62235   7.168   4.191   2.597
20265SOL    HW162236   7.171   4.230   2.510
20265SOL    HW262237   7.195   4.261   2.656
20266SOL     OW62238   5.805   5.433   2.320
20266SOL    HW162239   5.817   5.507   2.380
20266SOL    HW262240   5.887   5.428   2.271
20267SOL     OW62241   6.723   5.070   3.550
20267SOL    HW162242   6.761   5.067   3.638
20267SOL    HW262243   6.670   4.990   3.545
20268SOL     OW62244   5.811   5.162   2.388
20268SOL    HW162245   5.805   5.258   2.389
20268SOL    HW262246   5.758   5.135   2.463
20269SOL     OW62247   5.851   4.811   2.773
20269SOL    HW162248   5.820   4.743   2.832
20269SOL    HW262249   5.803   4.890   2.800
20270SOL     OW62250   6.235   5.491   3.323
20270SOL    HW162251   6.146   5.474   3.354
20270SOL    HW262252   6.245   5.586   3.329
20271SOL     OW62253   6.160   4.714   2.003
20271SOL    HW162254   6.211   4.756   1.934
20271SOL    HW262255   6.200   4.744   2.085
20272SOL     OW62256   7.189   3.846   3.330
20272SOL    HW162257   7.207   3.928   3.285
20272SOL    HW262258   7.168   3.873   3.420
20273SOL     OW62259   5.709   4.376   2.427
20273SOL    HW162260   5.669   4.292   2.448
20273SOL    HW262261   5.697   4.429   2.506
20274SOL     OW62262   7.426   5.484   2.210
20274SOL    HW162263   7.506   5.467   2.259
20274SOL    HW262264   7.435   5.575   2.180
20275SOL     OW62265   5.583   5.312   1.997
20275SOL    HW162266   5.587   5.216   1.999
20275SOL    HW262267   5.630   5.339   2.076
20276SOL     OW62268   7.274   4.650   2.508
20276SOL    HW162269   7.346   4.597   2.472
20276SOL    HW262270   7.248   4.708   2.437
20277SOL     OW62271   7.238   4.837   2.302
20277SOL    HW162272   7.322   4.829   2.257
20277SOL    HW262273   7.248   4.913   2.359
20278SOL     OW62274   5.696   4.465   3.426
20278SOL    HW162275   5.779   4.506   3.451
20278SOL    HW262276   5.634   4.538   3.418
20279SOL     OW62277   6.183   5.113   2.599
20279SOL    HW162278   6.141   5.027   2.605
20279SOL    HW262279   6.171   5.140   2.508
20280SOL     OW62280   6.863   4.973   3.265
20280SOL    HW162281   6.897   4.891   3.229
20280SOL    HW262282   6.910   4.984   3.347
20281SOL     OW62283   6.410   3.739   2.377
20281SOL    HW162284   6.448   3.822   2.350
20281SOL    HW262285   6.316   3.755   2.380
20282SOL     OW62286   5.767   4.687   3.142
20282SOL    HW162287   5.843   4.630   3.130
20282SOL    HW262288   5.691   4.630   3.130
20283SOL     OW62289   7.122   4.731   2.064
20283SOL    HW162290   7.056   4.668   2.091
20283SOL    HW262291   7.159   4.763   2.147
20284SOL     OW62292   6.732   5.538   3.458
20284SOL    HW162293   6.756   5.618   3.410
20284SOL    HW262294   6.802   5.476   3.437
20285SOL     OW62295   5.935   3.984   3.674
20285SOL    HW162296   5.970   4.064   3.713
20285SOL    HW262297   5.842   3.985   3.699
20286SOL     OW62298   7.062   5.146   2.784
20286SOL    HW162299   6.993   5.164   2.847
20286SOL    HW262300   7.041   5.059   2.749
20287SOL     OW62301   7.221   5.409   2.454
20287SOL    HW162302   7.184   5.465   2.386
20287SOL    HW262303   7.289   5.359   2.409
20288SOL     OW62304   6.182   4.439   2.134
20288SOL    HW162305   6.186   4.524   2.089
20288SOL    HW262306   6.117   4.452   2.203
20289SOL     OW62307   7.163   5.375   2.168
20289SOL    HW162308   7.247   5.420   2.165
20289SOL    HW262309   7.135   5.370   2.077
20290SOL     OW62310   6.380   4.339   3.301
20290SOL    HW162311   6.357   4.317   3.391
20290SOL    HW262312   6.340   4.270   3.249
20291SOL     OW62313   6.971   4.208   3.543
20291SOL    HW162314   6.949   4.290   3.586
20291SOL    HW262315   7.036   4.168   3.601
20292SOL     OW62316   6.535   4.612   3.448
20292SOL    HW162317   6.597   4.549   3.412
20292SOL    HW262318   6.487   4.645   3.372
20293SOL     OW62319   6.576   4.133   3.090
20293SOL    HW162320   6.528   4.195   3.144
20293SOL    HW262321   6.509   4.073   3.057
20294SOL     OW62322   6.640   4.419   2.288
20294SOL    HW162323   6.655   4.411   2.382
20294SOL    HW262324   6.555   4.377   2.274
20295SOL     OW62325   5.684   4.529   2.649
20295SOL    HW162326   5.761   4.542   2.705
20295SOL    HW262327   5.625   4.601   2.673
20296SOL     OW62328   5.663   5.617   3.459
20296SOL    HW162329   5.689   5.589   3.547
20296SOL    HW262330   5.686   5.542   3.403
20297SOL     OW62331   6.489   4.076   2.057
20297SOL    HW162332   6.529   4.142   2.000
20297SOL    HW262333   6.492   3.995   2.006
20298SOL     OW62334   7.302   4.270   3.682
20298SOL    HW162335   7.265   4.350   3.644
20298SOL    HW262336   7.331   4.219   3.607
20299SOL     OW62337   6.971   4.873   2.414
20299SOL    HW162338   7.048   4.862   2.358
20299SOL    HW262339   6.914   4.933   2.366
20300SOL     OW62340   6.141   3.886   2.765
20300SOL    HW162341   6.139   3.918   2.855
20300SOL    HW262342   6.139   3.964   2.710
20301SOL     OW62343   6.575   5.155   2.325
20301SOL    HW162344   6.559   5.228   2.265
20301SOL    HW262345   6.552   5.190   2.411
20302SOL     OW62346   5.926   5.539   2.730
20302SOL    HW162347   5.973   5.459   2.752
20302SOL    HW262348   5.989   5.609   2.748
20303SOL     OW62349   7.382   4.790   2.724
20303SOL    HW162350   7.332   4.751   2.652
20303SOL    HW262351   7.319   4.796   2.796
20304SOL     OW62352   6.816   5.266   3.363
20304SOL    HW162353   6.806   5.196   3.427
20304SOL    HW262354   6.727   5.287   3.335
20305SOL     OW62355   5.900   4.691   2.120
20305SOL    HW162356   5.984   4.708   2.077
20305SOL    HW262357   5.872   4.606   2.086
20306SOL     OW62358   7.069   4.483   2.592
20306SOL    HW162359   7.069   4.456   2.684
20306SOL    HW262360   7.145   4.541   2.585
20307SOL     OW62361   6.032   4.959   3.633
20307SOL    HW162362   6.002   4.988   3.547
20307SOL    HW262363   6.004   4.868   3.638
20308SOL     OW62364   6.745   5.482   2.116
20308SOL    HW162365   6.659   5.476   2.158
20308SOL    HW262366   6.738   5.426   2.039
20309SOL     OW62367   5.762   4.003   3.387
20309SOL    HW162368   5.675   4.035   3.408
20309SOL    HW262369   5.763   3.912   3.418
20310SOL     OW62370   7.240   5.111   1.965
20310SOL    HW162371   7.194   5.194   1.949
20310SOL    HW262372   7.176   5.044   1.940
20311SOL     OW62373   6.063   5.428   2.187
20311SOL    HW162374   6.085   5.500   2.246
20311SOL    HW262375   6.133   5.429   2.121
20312SOL     OW62376   6.984   3.828   2.305
20312SOL    HW162377   6.975   3.803   2.213
20312SOL    HW262378   7.070   3.795   2.331
20313SOL     OW62379   6.527   5.411   2.782
20313SOL    HW162380   6.615   5.375   2.788
20313SOL    HW262381   6.484   5.359   2.714
20314SOL     OW62382   5.985   4.414   2.333
20314SOL    HW162383   6.000   4.321   2.346
20314SOL    HW262384   5.891   4.426   2.347
20315SOL     OW62385   7.132   3.936   3.589
20315SOL    HW162386   7.152   3.946   3.682
20315SOL    HW262387   7.046   3.893   3.587
20316SOL     OW62388   6.236   3.838   1.965
20316SOL    HW162389   6.302   3.770   1.978
20316SOL    HW262390   6.180   3.804   1.895
20317SOL     OW62391   6.345   3.998   3.612
20317SOL    HW162392   6.427   3.948   3.611
20317SOL    HW262393   6.299   3.967   3.690
20318SOL     OW62394   6.921   4.285   3.283
20318SOL    HW162395   6.952   4.267   3.372
20318SOL    HW262396   6.957   4.372   3.262
20319SOL     OW62397   6.414   5.109   2.841
20319SOL    HW162398   6.493   5.105   2.788
20319SOL    HW262399   6.345   5.136   2.780
20320SOL     OW62400   6.526   4.225   2.758
20320SOL    HW162401   6.502   4.221   2.665
20320SOL    HW262402   6.522   4.134   2.788
20321SOL     OW62403   6.142   3.789   2.355
20321SOL    HW162404   6.062   3.789   2.408
20321SOL    HW262405   6.132   3.864   2.297
20322SOL     OW62406   7.030   4.938   1.904
20322SOL    HW162407   7.054   4.859   1.952
20322SOL    HW262408   6.942   4.960   1.935
20323SOL     OW62409   5.882   3.774   2.052
20323SOL    HW162410   5.939   3.838   2.010
20323SOL    HW262411   5.941   3.713   2.094
20324SOL     OW62412   6.528   3.980   2.313
20324SOL    HW162413   6.504   4.014   2.226
20324SOL    HW262414   6.623   3.990   2.318
20325SOL     OW62415   6.668   4.410   3.311
20325SOL    HW162416   6.603   4.351   3.350
20325SOL    HW262417   6.752   4.365   3.324
20326SOL     OW62418   6.803   5.325   2.670
20326SOL    HW162419   6.767   5.388   2.609
20326SOL    HW262420   6.809   5.372   2.753
20327SOL     OW62421   6.056   4.863   2.596
20327SOL    HW162422   5.990   4.847   2.663
20327SOL    HW262423   6.008   4.856   2.513
20328SOL     OW62424   6.873   5.545   2.502
20328SOL    HW162425   6.914   5.594   2.430
20328SOL    HW262426   6.790   5.590   2.517
20329SOL     OW62427   6.609   4.259   1.891
20329SOL    HW162428   6.564   4.340   1.866
20329SOL    HW262429   6.681   4.287   1.946
20330SOL     OW62430   5.683   4.298   3.215
20330SOL    HW162431   5.777   4.280   3.212
20330SOL    HW262432   5.672   4.355   3.292
20331SOL     OW62433   6.139   3.954   3.034
20331SOL    HW162434   6.185   3.890   3.088
20331SOL    HW262435   6.048   3.949   3.065
20332SOL     OW62436   6.455   4.181   2.497
20332SOL    HW162437   6.412   4.239   2.434
20332SOL    HW262438   6.476   4.102   2.447
20333SOL     OW62439   6.593   3.777   2.599
20333SOL    HW162440   6.535   3.766   2.524
20333SOL    HW262441   6.578   3.700   2.653
20334SOL     OW62442   7.015   4.887   2.695
20334SOL    HW162443   6.947   4.825   2.724
20334SOL    HW262444   7.005   4.890   2.600
20335SOL     OW62445   7.066   4.349   2.846
20335SOL    HW162446   7.041   4.257   2.848
20335SOL    HW262447   7.125   4.360   2.921
20336SOL     OW62448   7.421   4.527   2.262
20336SOL    HW162449   7.484   4.475   2.312
20336SOL    HW262450   7.392   4.468   2.192
20337SOL     OW62451   6.060   5.130   1.971
20337SOL    HW162452   6.013   5.096   2.047
20337SOL    HW262453   6.008   5.204   1.942
20338SOL     OW62454   7.286   5.018   2.502
20338SOL    HW162455   7.380   5.002   2.511
20338SOL    HW262456   7.251   5.009   2.590
20339SOL     OW62457   6.984   4.291   1.945
20339SOL    HW162458   6.917   4.277   2.011
20339SOL    HW262459   7.049   4.222   1.962
20340SOL     OW62460   6.111   3.986   2.170
20340SOL    HW162461   6.164   3.943   2.103
20340SOL    HW262462   6.084   4.068   2.130
20341SOL     OW62463   7.335   4.962   3.475
20341SOL    HW162464   7.396   4.901   3.517
20341SOL    HW262465   7.310   5.022   3.545
20342SOL     OW62466   6.618   5.070   3.171
20342SOL    HW162467   6.553   5.041   3.235
20342SOL    HW262468   6.702   5.052   3.212
20343SOL     OW62469   7.192   5.348   3.518
20343SOL    HW162470   7.191   5.390   3.432
20343SOL    HW262471   7.279   5.309   3.524
20344SOL     OW62472   6.738   4.937   2.961
20344SOL    HW162473   6.676   4.971   3.025
20344SOL    HW262474   6.708   4.973   2.877
20345SOL     OW62475   7.211   4.836   2.937
20345SOL    HW162476   7.199   4.888   3.016
20345SOL    HW262477   7.127   4.842   2.892
20346SOL     OW62478   6.510   3.824   3.240
20346SOL    HW162479   6.537   3.803   3.151
20346SOL    HW262480   6.588   3.863   3.280
20347SOL     OW62481   6.567   4.847   3.576
20347SOL    HW162482   6.478   4.862   3.609
20347SOL    HW262483   6.562   4.764   3.529
20348SOL     OW62484   6.295   4.780   2.236
20348SOL    HW162485   6.281   4.758   2.328
20348SOL    HW262486   6.372   4.730   2.211
20349SOL     OW62487   5.993   4.526   3.103
20349SOL    HW162488   6.057   4.550   3.170
20349SOL    HW262489   5.973   4.433   3.120
20350SOL     OW62490   6.841   4.134   3.074
20350SOL    HW162491   6.880   4.189   3.142
20350SOL    HW262492   6.747   4.137   3.092
20351SOL     OW62493   5.632   5.304   3.212
20351SOL    HW162494   5.568   5.340   3.151
20351SOL    HW262495   5.710   5.357   3.199
20352SOL     OW62496   5.915   4.844   2.360
20352SOL    HW162497   5.923   4.927   2.311
20352SOL    HW262498   5.915   4.777   2.292
20353SOL     OW62499   6.085   4.262   2.733
20353SOL    HW162500   6.110   4.314   2.656
20353SOL    HW262501   6.157   4.276   2.795
20354SOL     OW62502   6.829   5.070   2.266
20354SOL    HW162503   6.879   5.147   2.291
20354SOL    HW262504   6.739   5.090   2.291
20355SOL     OW62505   6.894   5.177   3.002
20355SOL    HW162506   6.942   5.186   3.084
20355SOL    HW262507   6.845   5.095   3.011
20356SOL     OW62508   7.165   4.332   2.364
20356SOL    HW162509   7.112   4.399   2.407
20356SOL    HW262510   7.205   4.378   2.290
20357SOL     OW62511   5.974   5.212   3.173
20357SOL    HW162512   5.941   5.179   3.089
20357SOL    HW262513   5.946   5.303   3.175
20358SOL     OW62514   6.004   4.483   3.469
20358SOL    HW162515   6.074   4.507   3.408
20358SOL    HW262516   6.029   4.395   3.500
20359SOL     OW62517   7.196   4.488   3.565
20359SOL    HW162518   7.104   4.500   3.587
20359SOL    HW262519   7.211   4.545   3.489
20360SOL     OW62520   6.579   3.855   3.604
20360SOL    HW162521   6.637   3.931   3.594
20360SOL    HW262522   6.632   3.780   3.577
20361SOL     OW62523   6.085   3.765   3.611
20361SOL    HW162524   6.033   3.707   3.557
20361SOL    HW262525   6.029   3.841   3.627
20362SOL     OW62526   6.187   4.597   2.905
20362SOL    HW162527   6.217   4.687   2.899
20362SOL    HW262528   6.126   4.596   2.978
20363SOL     OW62529   6.920   4.588   2.869
20363SOL    HW162530   6.832   4.566   2.840
20363SOL    HW262531   6.965   4.504   2.874
20364SOL     OW62532   6.789   4.247   2.132
20364SOL    HW162533   6.791   4.168   2.186
20364SOL    HW262534   6.742   4.311   2.185
20365SOL     OW62535   5.881   3.935   3.112
20365SOL    HW162536   5.829   3.962   3.188
20365SOL    HW262537   5.866   3.841   3.105
20366SOL     OW62538   5.670   5.044   3.128
20366SOL    HW162539   5.687   4.990   3.205
20366SOL    HW262540   5.657   5.132   3.164
20367SOL     OW62541   6.289   4.341   2.897
20367SOL    HW162542   6.371   4.337   2.848
20367SOL    HW262543   6.264   4.434   2.895
20368SOL     OW62544   7.315   4.700   3.706
20368SOL    HW162545   7.281   4.618   3.671
20368SOL    HW262546   7.263   4.716   3.785
20369SOL     OW62547   5.899   3.792   2.485
20369SOL    HW162548   5.872   3.880   2.512
20369SOL    HW262549   5.907   3.744   2.567
20370SOL     OW62550   7.218   4.099   2.219
20370SOL    HW162551   7.251   4.029   2.276
20370SOL    HW262552   7.188   4.167   2.279
20371SOL     OW62553   6.618   4.477   2.821
20371SOL    HW162554   6.603   4.493   2.914
20371SOL    HW262555   6.588   4.386   2.808
20372SOL     OW62556   6.567   5.292   3.590
20372SOL    HW162557   6.549   5.335   3.507
20372SOL    HW262558   6.607   5.208   3.565
20373SOL     OW62559   7.459   5.256   3.460
20373SOL    HW162560   7.465   5.347   3.430
20373SOL    HW262561   7.535   5.245   3.517
20374SOL     OW62562   5.970   4.684   3.651
20374SOL    HW162563   6.029   4.665   3.724
20374SOL    HW262564   5.983   4.612   3.590
20375SOL     OW62565   7.105   4.003   1.988
20375SOL    HW162566   7.047   3.931   2.013
20375SOL    HW262567   7.146   4.031   2.070
20376SOL     OW62568   6.881   4.549   1.897
20376SOL    HW162569   6.932   4.468   1.893
20376SOL    HW262570   6.900   4.594   1.815
20377SOL     OW62571   6.664   5.066   2.730
20377SOL    HW162572   6.661   4.995   2.666
20377SOL    HW262573   6.709   5.137   2.684
20378SOL     OW62574   5.910   4.493   2.827
20378SOL    HW162575   5.990   4.526   2.785
20378SOL    HW262576   5.921   4.515   2.920
20379SOL     OW62577   6.722   4.092   3.551
20379SOL    HW162578   6.671   4.146   3.612
20379SOL    HW262579   6.808   4.133   3.549
20380SOL     OW62580   6.747   3.933   3.328
20380SOL    HW162581   6.733   3.987   3.407
20380SOL    HW262582   6.800   3.989   3.271
20381SOL     OW62583   5.576   5.041   2.061
20381SOL    HW162584   5.487   5.052   2.029
20381SOL    HW262585   5.579   4.951   2.095
20382SOL     OW62586   5.655   5.508   2.789
20382SOL    HW162587   5.635   5.426   2.744
20382SOL    HW262588   5.749   5.520   2.777
20383SOL     OW62589   6.080   5.302   2.775
20383SOL    HW162590   6.146   5.371   2.786
20383SOL    HW262591   6.116   5.245   2.707
20384SOL     OW62592   6.552   4.502   3.083
20384SOL    HW162593   6.613   4.482   3.153
20384SOL    HW262594   6.465   4.485   3.121
20385SOL     OW62595   5.686   4.265   2.943
20385SOL    HW162596   5.638   4.182   2.948
20385SOL    HW262597   5.673   4.304   3.030
20386SOL     OW62598   5.766   4.252   3.598
20386SOL    HW162599   5.789   4.187   3.532
20386SOL    HW262600   5.711   4.315   3.553
20387SOL     OW62601   7.016   4.696   3.449
20387SOL    HW162602   6.998   4.752   3.524
20387SOL    HW262603   6.958   4.620   3.461
20388SOL     OW62604   6.402   4.293   2.233
20388SOL    HW162605   6.411   4.221   2.170
20388SOL    HW262606   6.329   4.345   2.199
20389SOL     OW62607   7.240   4.345   3.049
20389SOL    HW162608   7.229   4.285   3.122
20389SOL    HW262609   7.326   4.324   3.013
20390SOL     OW62610   5.822   5.294   3.588
20390SOL    HW162611   5.794   5.375   3.633
20390SOL    HW262612   5.849   5.236   3.659
20391SOL     OW62613   6.294   4.169   3.108
20391SOL    HW162614   6.234   4.098   3.088
20391SOL    HW262615   6.284   4.230   3.035
20392SOL     OW62616   6.511   5.391   3.316
20392SOL    HW162617   6.420   5.419   3.307
20392SOL    HW262618   6.561   5.472   3.326
20393SOL     OW62619   6.039   4.216   2.046
20393SOL    HW162620   6.102   4.286   2.066
20393SOL    HW262621   5.954   4.261   2.041
20394SOL     OW62622   5.736   4.875   3.340
20394SOL    HW162623   5.725   4.824   3.421
20394SOL    HW262624   5.744   4.809   3.271
20395SOL     OW62625   6.929   4.774   3.066
20395SOL    HW162626   6.934   4.705   3.000
20395SOL    HW262627   6.859   4.832   3.035
20396SOL     OW62628   6.910   4.575   2.168
20396SOL    HW162629   6.830   4.548   2.213
20396SOL    HW262630   6.891   4.563   2.075
20397SOL     OW62631   7.362   5.459   3.011
20397SOL    HW162632   7.427   5.491   2.949
20397SOL    HW262633   7.339   5.372   2.980
20398SOL     OW62634   6.814   5.431   2.923
20398SOL    HW162635   6.889   5.489   2.938
20398SOL    HW262636   6.841   5.347   2.962
20399SOL     OW62637   5.675   4.995   2.866
20399SOL    HW162638   5.672   5.013   2.960
20399SOL    HW262639   5.589   4.959   2.846
20400SOL     OW62640   6.251   5.402   3.610
20400SOL    HW162641   6.181   5.467   3.614
20400SOL    HW262642   6.306   5.430   3.537
20401SOL     OW62643   7.333   3.896   2.369
20401SOL    HW162644   7.399   3.872   2.303
20401SOL    HW262645   7.300   3.812   2.401
20402SOL     OW62646   6.961   5.306   2.345
20402SOL    HW162647   7.033   5.320   2.282
20402SOL    HW262648   6.896   5.372   2.321
20403SOL     OW62649   5.739   5.526   3.711
20403SOL    HW162650   5.689   5.462   3.762
20403SOL    HW262651   5.788   5.576   3.776
20404SOL     OW62652   6.858   4.646   2.520
20404SOL    HW162653   6.935   4.592   2.540
20404SOL    HW262654   6.893   4.720   2.470
20405SOL     OW62655   6.364   5.016   3.264
20405SOL    HW162656   6.342   5.055   3.349
20405SOL    HW262657   6.279   5.004   3.221
20406SOL     OW62658   6.257   5.325   1.993
20406SOL    HW162659   6.261   5.353   1.902
20406SOL    HW262660   6.205   5.244   1.991
20407SOL     OW62661   7.211   5.455   3.251
20407SOL    HW162662   7.265   5.464   3.173
20407SOL    HW262663   7.196   5.545   3.280
20408SOL     OW62664   7.435   3.892   2.825
20408SOL    HW162665   7.462   3.803   2.799
20408SOL    HW262666   7.351   3.905   2.781
20409SOL     OW62667   5.838   4.047   2.585
20409SOL    HW162668   5.749   4.069   2.559
20409SOL    HW262669   5.831   4.020   2.676
20410SOL     OW62670   6.807   5.318   1.886
20410SOL    HW162671   6.792   5.231   1.922
20410SOL    HW262672   6.732   5.333   1.829
20411SOL     OW62673   6.406   4.736   3.234
20411SOL    HW162674   6.445   4.736   3.147
20411SOL    HW262675   6.399   4.829   3.257
20412SOL     OW62676   6.508   4.636   2.158
20412SOL    HW162677   6.562   4.667   2.086
20412SOL    HW262678   6.560   4.567   2.199
20413SOL     OW62679   7.085   5.339   1.901
20413SOL    HW162680   6.990   5.336   1.895
20413SOL    HW262681   7.116   5.343   1.810
20414SOL     OW62682   5.967   5.029   3.379
20414SOL    HW162683   5.969   5.098   3.313
20414SOL    HW262684   5.888   4.979   3.359
20415SOL     OW62685   7.237   5.034   3.189
20415SOL    HW162686   7.210   4.969   3.254
20415SOL    HW262687   7.171   5.103   3.195
20416SOL     OW62688   6.655   4.835   2.588
20416SOL    HW162689   6.577   4.787   2.618
20416SOL    HW262690   6.710   4.768   2.548
20417SOL     OW62691   6.607   3.947   2.817
20417SOL    HW162692   6.596   3.901   2.734
20417SOL    HW262693   6.592   3.880   2.884
20418SOL     OW62694   6.182   5.197   2.341
20418SOL    HW162695   6.236   5.162   2.270
20418SOL    HW262696   6.144   5.277   2.305
20419SOL     OW62697   7.308   4.119   3.222
20419SOL    HW162698   7.385   4.175   3.230
20419SOL    HW262699   7.339   4.044   3.171
20420SOL     OW62700   5.840   5.068   2.139
20420SOL    HW162701   5.745   5.060   2.124
20420SOL    HW262702   5.847   5.107   2.226
20421SOL     OW62703   5.706   4.783   3.629
20421SOL    HW162704   5.622   4.740   3.648
20421SOL    HW262705   5.771   4.713   3.633
20422SOL     OW62706   6.266   3.907   3.357
20422SOL    HW162707   6.352   3.893   3.319
20422SOL    HW262708   6.283   3.943   3.444
20423SOL     OW62709   5.662   4.049   1.890
20423SOL    HW162710   5.577   4.037   1.849
20423SOL    HW262711   5.697   4.128   1.850
20424SOL     OW62712   7.007   4.533   3.203
20424SOL    HW162713   6.957   4.612   3.182
20424SOL    HW262714   7.094   4.565   3.228
20425SOL     OW62715   5.636   3.870   2.148
20425SOL    HW162716   5.627   3.941   2.085
20425SOL    HW262717   5.726   3.839   2.137
20426SOL     OW62718   6.767   5.058   1.980
20426SOL    HW162719   6.674   5.036   1.974
20426SOL    HW262720   6.786   5.056   2.074
20427SOL     OW62721   6.203   4.550   3.281
20427SOL    HW162722   6.260   4.627   3.277
20427SOL    HW262723   6.263   4.476   3.294
20428SOL     OW62724   7.102   5.499   2.763
20428SOL    HW162725   7.112   5.592   2.741
20428SOL    HW262726   7.155   5.487   2.842
20429SOL     OW62727   6.312   4.285   3.554
20429SOL    HW162728   6.349   4.345   3.618
20429SOL    HW262729   6.319   4.199   3.595
20430SOL     OW62730   7.042   4.986   3.488
20430SOL    HW162731   7.015   4.983   3.580
20430SOL    HW262732   7.128   4.944   3.487
20431SOL     OW62733   5.980   5.461   3.430
20431SOL    HW162734   5.937   5.478   3.347
20431SOL    HW262735   5.928   5.391   3.470
20432SOL     OW62736   7.278   4.616   3.113
20432SOL    HW162737   7.260   4.527   3.083
20432SOL    HW262738   7.252   4.672   3.040
20433SOL     OW62739   6.801   4.036   2.329
20433SOL    HW162740   6.862   3.965   2.310
20433SOL    HW262741   6.823   4.064   2.417
20434SOL     OW62742   6.153   4.456   2.548
20434SOL    HW162743   6.202   4.537   2.535
20434SOL    HW262744   6.100   4.446   2.469
20435SOL     OW62745   7.349   4.079   3.488
20435SOL    HW162746   7.318   4.101   3.400
20435SOL    HW262747   7.277   4.027   3.526
20436SOL     OW62748   7.349   4.650   3.372
20436SOL    HW162749   7.303   4.730   3.398
20436SOL    HW262750   7.328   4.639   3.280
20437SOL     OW62751   6.448   5.094   1.916
20437SOL    HW162752   6.415   5.087   2.006
20437SOL    HW262753   6.452   5.189   1.900
20438SOL     OW62754   6.251   5.507   2.806
20438SOL    HW162755   6.213   5.593   2.786
20438SOL    HW262756   6.342   5.513   2.778
20439SOL     OW62757   6.456   4.694   2.720
20439SOL    HW162758   6.506   4.622   2.757
20439SOL    HW262759   6.413   4.735   2.795
20440SOL     OW62760   6.657   4.702   1.944
20440SOL    HW162761   6.645   4.761   1.870
20440SOL    HW262762   6.736   4.653   1.922
20441SOL     OW62763   7.454   5.267   2.717
20441SOL    HW162764   7.386   5.271   2.649
20441SOL    HW262765   7.407   5.235   2.795
20442SOL     OW62766   5.677   4.945   2.534
20442SOL    HW162767   5.678   4.894   2.615
20442SOL    HW262768   5.748   4.908   2.482
20443SOL     OW62769   6.256   5.140   3.482
20443SOL    HW162770   6.165   5.111   3.495
20443SOL    HW262771   6.263   5.220   3.534
20444SOL     OW62772   7.392   3.898   3.093
20444SOL    HW162773   7.398   3.803   3.105
20444SOL    HW262774   7.408   3.911   2.999
20445SOL     OW62775   6.016   4.154   2.392
20445SOL    HW162776   6.046   4.086   2.331
20445SOL    HW262777   5.962   4.107   2.456
20446SOL     OW62778   7.286   5.206   2.929
20446SOL    HW162779   7.205   5.187   2.881
20446SOL    HW262780   7.279   5.154   3.009
20447SOL     OW62781   5.954   4.261   3.151
20447SOL    HW162782   5.985   4.226   3.234
20447SOL    HW262783   5.966   4.188   3.089
20448SOL     OW62784   6.429   5.249   2.585
20448SOL    HW162785   6.445   5.322   2.525
20448SOL    HW262786   6.344   5.214   2.559
20449SOL     OW62787   6.988   3.943   2.918
20449SOL    HW162788   7.014   3.851   2.924
20449SOL    HW262789   6.988   3.974   3.009
20450SOL     OW62790   6.590   3.735   2.991
20450SOL    HW162791   6.539   3.668   2.946
20450SOL    HW262792   6.678   3.698   2.997
20451SOL     OW62793   6.361   5.046   2.174
20451SOL    HW162794   6.337   4.957   2.197
20451SOL    HW262795   6.436   5.066   2.231
20452SOL     OW62796   6.259   5.328   3.103
20452SOL    HW162797   6.243   5.381   3.181
20452SOL    HW262798   6.191   5.356   3.041
20453SOL     OW62799   6.949   3.775   2.036
20453SOL    HW162800   6.987   3.701   1.987
20453SOL    HW262801   6.857   3.749   2.050
20454SOL     OW62802   6.865   4.184   2.651
20454SOL    HW162803   6.812   4.254   2.613
20454SOL    HW262804   6.951   4.195   2.611
20455SOL     OW62805   7.192   3.949   2.726
20455SOL    HW162806   7.117   3.948   2.786
20455SOL    HW262807   7.175   4.024   2.669
20456SOL     OW62808   5.628   4.791   2.166
20456SOL    HW162809   5.722   4.785   2.150
20456SOL    HW262810   5.603   4.703   2.193
20457SOL     OW62811   6.489   5.344   2.136
20457SOL    HW162812   6.404   5.350   2.093
20457SOL    HW262813   6.480   5.397   2.215
20458SOL     OW62814   5.804   4.359   3.853
20458SOL    HW162815   5.720   4.349   3.898
20458SOL    HW262816   5.788   4.327   3.764
20459SOL     OW62817   5.796   4.010   4.705
20459SOL    HW162818   5.778   4.050   4.790
20459SOL    HW262819   5.715   3.965   4.682
20460SOL     OW62820   5.574   4.113   4.360
20460SOL    HW162821   5.498   4.148   4.406
20460SOL    HW262822   5.543   4.031   4.322
20461SOL     OW62823   6.166   5.024   4.901
20461SOL    HW162824   6.076   5.024   4.868
20461SOL    HW262825   6.178   5.112   4.938
20462SOL     OW62826   7.160   5.281   4.450
20462SOL    HW162827   7.120   5.243   4.528
20462SOL    HW262828   7.125   5.230   4.377
20463SOL     OW62829   6.712   4.419   4.418
20463SOL    HW162830   6.762   4.499   4.404
20463SOL    HW262831   6.664   4.434   4.499
20464SOL     OW62832   7.382   4.325   3.934
20464SOL    HW162833   7.347   4.308   3.846
20464SOL    HW262834   7.312   4.298   3.993
20465SOL     OW62835   6.348   4.866   4.782
20465SOL    HW162836   6.276   4.906   4.831
20465SOL    HW262837   6.389   4.939   4.736
20466SOL     OW62838   6.451   4.497   5.581
20466SOL    HW162839   6.388   4.544   5.635
20466SOL    HW262840   6.465   4.554   5.505
20467SOL     OW62841   6.273   4.717   4.366
20467SOL    HW162842   6.339   4.709   4.435
20467SOL    HW262843   6.205   4.771   4.405
20468SOL     OW62844   6.320   4.869   5.496
20468SOL    HW162845   6.314   4.962   5.517
20468SOL    HW262846   6.229   4.839   5.492
20469SOL     OW62847   5.929   5.124   4.783
20469SOL    HW162848   5.842   5.089   4.762
20469SOL    HW262849   5.939   5.199   4.724
20470SOL     OW62850   7.046   5.221   5.081
20470SOL    HW162851   7.091   5.305   5.093
20470SOL    HW262852   6.980   5.220   5.150
20471SOL     OW62853   6.020   4.044   5.138
20471SOL    HW162854   6.093   4.018   5.194
20471SOL    HW262855   5.943   4.040   5.196
20472SOL     OW62856   7.189   4.165   4.474
20472SOL    HW162857   7.109   4.192   4.428
20472SOL    HW262858   7.197   4.228   4.546
20473SOL     OW62859   5.816   5.425   4.198
20473SOL    HW162860   5.824   5.502   4.255
20473SOL    HW262861   5.891   5.432   4.138
20474SOL     OW62862   6.725   5.051   5.427
20474SOL    HW162863   6.745   5.051   5.520
20474SOL    HW262864   6.676   4.970   5.413
20475SOL     OW62865   5.827   5.143   4.238
20475SOL    HW162866   5.809   5.236   4.249
20475SOL    HW262867   5.776   5.100   4.308
20476SOL     OW62868   5.866   4.813   4.620
20476SOL    HW162869   5.848   4.728   4.660
20476SOL    HW262870   5.803   4.873   4.662
20477SOL     OW62871   6.199   5.485   5.176
20477SOL    HW162872   6.110   5.468   5.204
20477SOL    HW262873   6.209   5.580   5.183
20478SOL     OW62874   6.164   4.711   3.870
20478SOL    HW162875   6.217   4.751   3.801
20478SOL    HW262876   6.205   4.740   3.952
20479SOL     OW62877   7.206   3.825   5.211
20479SOL    HW162878   7.192   3.909   5.168
20479SOL    HW262879   7.184   3.840   5.303
20480SOL     OW62880   5.710   4.381   4.288
20480SOL    HW162881   5.668   4.298   4.312
20480SOL    HW262882   5.698   4.437   4.365
20481SOL     OW62883   7.426   5.475   4.043
20481SOL    HW162884   7.482   5.451   4.117
20481SOL    HW262885   7.442   5.569   4.031
20482SOL     OW62886   5.640   5.306   3.845
20482SOL    HW162887   5.583   5.229   3.849
20482SOL    HW262888   5.612   5.361   3.918
20483SOL     OW62889   7.271   4.610   4.349
20483SOL    HW162890   7.364   4.600   4.366
20483SOL    HW262891   7.265   4.677   4.281
20484SOL     OW62892   7.260   4.820   4.147
20484SOL    HW162893   7.349   4.825   4.113
20484SOL    HW262894   7.253   4.894   4.207
20485SOL     OW62895   5.701   4.494   5.306
20485SOL    HW162896   5.759   4.547   5.360
20485SOL    HW262897   5.632   4.555   5.279
20486SOL     OW62898   6.215   5.110   4.469
20486SOL    HW162899   6.167   5.028   4.481
20486SOL    HW262900   6.192   5.137   4.380
20487SOL     OW62901   6.866   4.963   5.145
20487SOL    HW162902   6.888   4.891   5.085
20487SOL    HW262903   6.927   4.951   5.218
20488SOL     OW62904   6.409   3.737   4.242
20488SOL    HW162905   6.447   3.822   4.218
20488SOL    HW262906   6.315   3.754   4.248
20489SOL     OW62907   5.763   4.693   4.998
20489SOL    HW162908   5.829   4.629   4.974
20489SOL    HW262909   5.680   4.653   4.971
20490SOL     OW62910   7.129   4.731   3.919
20490SOL    HW162911   7.063   4.666   3.943
20490SOL    HW262912   7.166   4.760   4.002
20491SOL     OW62913   6.811   5.534   5.322
20491SOL    HW162914   6.806   5.618   5.277
20491SOL    HW262915   6.736   5.484   5.287
20492SOL     OW62916   5.921   3.990   5.516
20492SOL    HW162917   5.960   4.069   5.552
20492SOL    HW262918   5.837   3.982   5.560
20493SOL     OW62919   7.038   5.179   4.669
20493SOL    HW162920   6.976   5.175   4.742
20493SOL    HW262921   7.046   5.088   4.638
20494SOL     OW62922   7.242   5.492   4.293
20494SOL    HW162923   7.216   5.451   4.210
20494SOL    HW262924   7.221   5.427   4.360
20495SOL     OW62925   6.177   4.430   3.998
20495SOL    HW162926   6.189   4.519   3.965
20495SOL    HW262927   6.113   4.439   4.068
20496SOL     OW62928   6.869   4.085   4.663
20496SOL    HW162929   6.780   4.052   4.672
20496SOL    HW262930   6.922   4.030   4.721
20497SOL     OW62931   7.162   5.400   4.032
20497SOL    HW162932   7.254   5.425   4.023
20497SOL    HW262933   7.133   5.381   3.943
20498SOL     OW62934   6.426   4.328   5.201
20498SOL    HW162935   6.383   4.309   5.285
20498SOL    HW262936   6.363   4.299   5.135
20499SOL     OW62937   6.968   4.194   5.394
20499SOL    HW162938   6.981   4.229   5.483
20499SOL    HW262939   7.054   4.161   5.369
20500SOL     OW62940   6.521   4.593   5.286
20500SOL    HW162941   6.469   4.514   5.269
20500SOL    HW262942   6.503   4.650   5.210
20501SOL     OW62943   6.585   4.158   4.979
20501SOL    HW162944   6.491   4.168   4.993
20501SOL    HW262945   6.592   4.107   4.898
20502SOL     OW62946   6.634   4.421   4.145
20502SOL    HW162947   6.656   4.419   4.239
20502SOL    HW262948   6.550   4.375   4.140
20503SOL     OW62949   5.679   4.561   4.489
20503SOL    HW162950   5.754   4.550   4.547
20503SOL    HW262951   5.628   4.632   4.529
20504SOL     OW62952   5.709   5.598   5.294
20504SOL    HW162953   5.700   5.572   5.385
20504SOL    HW262954   5.629   5.566   5.251
20505SOL     OW62955   6.488   4.078   3.920
20505SOL    HW162956   6.528   4.142   3.862
20505SOL    HW262957   6.492   3.996   3.871
20506SOL     OW62958   7.294   4.287   5.549
20506SOL    HW162959   7.258   4.364   5.505
20506SOL    HW262960   7.317   4.227   5.478
20507SOL     OW62961   6.936   4.840   4.206
20507SOL    HW162962   7.016   4.869   4.250
20507SOL    HW262963   6.898   4.921   4.171
20508SOL     OW62964   6.145   3.903   4.639
20508SOL    HW162965   6.137   3.931   4.730
20508SOL    HW262966   6.139   3.984   4.589
20509SOL     OW62967   6.579   5.166   4.182
20509SOL    HW162968   6.551   5.248   4.140
20509SOL    HW262969   6.560   5.178   4.275
20510SOL     OW62970   5.929   5.535   4.574
20510SOL    HW162971   5.975   5.461   4.614
20510SOL    HW262972   5.928   5.602   4.642
20511SOL     OW62973   7.382   4.786   4.588
20511SOL    HW162974   7.301   4.789   4.537
20511SOL    HW262975   7.353   4.775   4.678
20512SOL     OW62976   6.833   5.237   5.257
20512SOL    HW162977   6.804   5.159   5.304
20512SOL    HW262978   6.767   5.250   5.189
20513SOL     OW62979   5.898   4.702   3.957
20513SOL    HW162980   5.990   4.703   3.932
20513SOL    HW262981   5.875   4.610   3.962
20514SOL     OW62982   7.062   4.458   4.433
20514SOL    HW162983   7.068   4.428   4.523
20514SOL    HW262984   7.139   4.514   4.421
20515SOL     OW62985   6.059   5.010   5.473
20515SOL    HW162986   6.033   5.009   5.381
20515SOL    HW262987   5.985   4.970   5.519
20516SOL     OW62988   6.713   5.501   3.953
20516SOL    HW162989   6.635   5.467   3.997
20516SOL    HW262990   6.735   5.434   3.888
20517SOL     OW62991   5.757   4.005   5.264
20517SOL    HW162992   5.676   4.056   5.274
20517SOL    HW262993   5.790   3.996   5.353
20518SOL     OW62994   7.224   5.094   3.777
20518SOL    HW162995   7.183   5.180   3.786
20518SOL    HW262996   7.151   5.032   3.780
20519SOL     OW62997   6.048   5.458   4.040
20519SOL    HW162998   6.090   5.515   4.105
20519SOL    HW262999   6.120   5.424   3.988
20520SOL     OW63000   5.880   5.513   4.939
20520SOL    HW163001   5.911   5.471   5.019
20520SOL    HW263002   5.799   5.467   4.917
20521SOL     OW63003   6.562   5.398   4.614
20521SOL    HW163004   6.652   5.368   4.606
20521SOL    HW263005   6.515   5.325   4.654
20522SOL     OW63006   5.977   4.420   4.191
20522SOL    HW163007   5.996   4.327   4.207
20522SOL    HW263008   5.886   4.430   4.218
20523SOL     OW63009   7.131   3.928   5.459
20523SOL    HW163010   7.136   3.953   5.551
20523SOL    HW263011   7.038   3.913   5.443
20524SOL     OW63012   6.238   3.841   3.822
20524SOL    HW163013   6.273   3.761   3.862
20524SOL    HW263014   6.181   3.810   3.751
20525SOL     OW63015   6.349   3.992   5.486
20525SOL    HW163016   6.430   3.942   5.478
20525SOL    HW263017   6.300   3.948   5.556
20526SOL     OW63018   6.480   5.267   4.915
20526SOL    HW163019   6.454   5.220   4.836
20526SOL    HW263020   6.540   5.208   4.960
20527SOL     OW63021   6.883   4.330   5.158
20527SOL    HW163022   6.938   4.286   5.223
20527SOL    HW263023   6.929   4.412   5.139
20528SOL     OW63024   6.417   5.152   4.665
20528SOL    HW163025   6.494   5.111   4.624
20528SOL    HW263026   6.344   5.125   4.610
20529SOL     OW63027   6.529   4.222   4.625
20529SOL    HW163028   6.498   4.214   4.535
20529SOL    HW263029   6.550   4.133   4.652
20530SOL     OW63030   6.141   3.792   4.218
20530SOL    HW163031   6.065   3.791   4.276
20530SOL    HW263032   6.128   3.867   4.161
20531SOL     OW63033   7.008   4.921   3.758
20531SOL    HW163034   7.043   4.849   3.811
20531SOL    HW263035   6.926   4.945   3.800
20532SOL     OW63036   5.884   3.773   3.902
20532SOL    HW163037   5.939   3.851   3.900
20532SOL    HW263038   5.935   3.709   3.952
20533SOL     OW63039   6.532   3.976   4.175
20533SOL    HW163040   6.508   4.018   4.093
20533SOL    HW263041   6.626   3.993   4.184
20534SOL     OW63042   6.809   5.294   4.530
20534SOL    HW163043   6.838   5.348   4.455
20534SOL    HW263044   6.890   5.269   4.573
20535SOL     OW63045   6.071   4.879   4.459
20535SOL    HW163046   6.006   4.860   4.526
20535SOL    HW263047   6.024   4.864   4.376
20536SOL     OW63048   6.873   5.516   4.337
20536SOL    HW163049   6.903   5.576   4.269
20536SOL    HW263050   6.865   5.571   4.415
20537SOL     OW63051   6.609   4.254   3.743
20537SOL    HW163052   6.564   4.337   3.724
20537SOL    HW263053   6.681   4.279   3.801
20538SOL     OW63054   5.682   4.295   5.122
20538SOL    HW163055   5.773   4.299   5.094
20538SOL    HW263056   5.673   4.367   5.185
20539SOL     OW63057   6.147   3.957   4.913
20539SOL    HW163058   6.182   3.875   4.949
20539SOL    HW263059   6.088   3.989   4.981
20540SOL     OW63060   6.452   4.178   4.367
20540SOL    HW163061   6.400   4.238   4.314
20540SOL    HW263062   6.468   4.103   4.309
20541SOL     OW63063   6.610   3.772   4.467
20541SOL    HW163064   6.542   3.770   4.400
20541SOL    HW263065   6.586   3.701   4.527
20542SOL     OW63066   7.058   4.334   4.686
20542SOL    HW163067   6.998   4.261   4.701
20542SOL    HW263068   7.117   4.333   4.761
20543SOL     OW63069   7.448   4.544   4.082
20543SOL    HW163070   7.476   4.495   4.159
20543SOL    HW263071   7.422   4.477   4.018
20544SOL     OW63072   6.070   5.138   3.858
20544SOL    HW163073   5.993   5.119   3.911
20544SOL    HW263074   6.066   5.075   3.786
20545SOL     OW63075   7.268   5.013   4.333
20545SOL    HW163076   7.356   5.006   4.370
20545SOL    HW263077   7.210   4.985   4.404
20546SOL     OW63078   7.012   4.222   3.846
20546SOL    HW163079   6.930   4.228   3.895
20546SOL    HW263080   7.026   4.311   3.813
20547SOL     OW63081   6.099   3.981   4.023
20547SOL    HW163082   6.160   3.946   3.957
20547SOL    HW263083   6.073   4.066   3.988
20548SOL     OW63084   7.329   4.979   5.280
20548SOL    HW163085   7.414   4.937   5.263
20548SOL    HW263086   7.352   5.066   5.312
20549SOL     OW63087   6.628   5.087   5.066
20549SOL    HW163088   6.551   5.051   5.111
20549SOL    HW263089   6.702   5.038   5.102
20550SOL     OW63090   7.165   5.343   5.367
20550SOL    HW163091   7.177   5.385   5.282
20550SOL    HW263092   7.249   5.301   5.386
20551SOL     OW63093   6.724   4.949   4.830
20551SOL    HW163094   6.649   4.969   4.885
20551SOL    HW263095   6.694   4.969   4.741
20552SOL     OW63096   7.229   4.809   4.816
20552SOL    HW163097   7.214   4.876   4.883
20552SOL    HW263098   7.169   4.833   4.745
20553SOL     OW63099   6.519   3.802   5.118
20553SOL    HW163100   6.540   3.791   5.025
20553SOL    HW263101   6.594   3.848   5.155
20554SOL     OW63102   6.579   4.818   5.439
20554SOL    HW163103   6.488   4.839   5.463
20554SOL    HW263104   6.572   4.739   5.386
20555SOL     OW63105   6.302   4.783   4.096
20555SOL    HW163106   6.287   4.764   4.189
20555SOL    HW263107   6.376   4.728   4.071
20556SOL     OW63108   6.005   4.532   4.963
20556SOL    HW163109   6.073   4.550   5.028
20556SOL    HW263110   5.969   4.447   4.988
20557SOL     OW63111   6.855   4.085   4.993
20557SOL    HW163112   6.918   4.145   5.034
20557SOL    HW263113   6.776   4.137   4.982
20558SOL     OW63114   5.683   5.314   4.998
20558SOL    HW163115   5.609   5.357   5.042
20558SOL    HW263116   5.749   5.305   5.067
20559SOL     OW63117   5.943   4.838   4.222
20559SOL    HW163118   5.906   4.917   4.183
20559SOL    HW263119   5.940   4.773   4.151
20560SOL     OW63120   6.149   4.239   4.571
20560SOL    HW163121   6.159   4.301   4.499
20560SOL    HW263122   6.205   4.273   4.640
20561SOL     OW63123   6.829   5.083   4.099
20561SOL    HW163124   6.885   5.151   4.136
20561SOL    HW263125   6.743   5.100   4.137
20562SOL     OW63126   6.867   5.186   4.875
20562SOL    HW163127   6.923   5.182   4.952
20562SOL    HW263128   6.817   5.104   4.877
20563SOL     OW63129   7.163   4.340   4.186
20563SOL    HW163130   7.104   4.368   4.256
20563SOL    HW263131   7.225   4.412   4.177
20564SOL     OW63132   5.951   5.221   5.041
20564SOL    HW163133   5.920   5.188   4.957
20564SOL    HW263134   6.040   5.252   5.025
20565SOL     OW63135   6.056   4.459   5.301
20565SOL    HW163136   6.023   4.533   5.352
20565SOL    HW263137   6.062   4.388   5.364
20566SOL     OW63138   7.201   4.507   5.419
20566SOL    HW163139   7.115   4.547   5.410
20566SOL    HW263140   7.252   4.542   5.346
20567SOL     OW63141   6.582   3.856   5.463
20567SOL    HW163142   6.650   3.924   5.457
20567SOL    HW263143   6.629   3.774   5.447
20568SOL     OW63144   6.077   3.767   5.472
20568SOL    HW163145   6.025   3.713   5.413
20568SOL    HW263146   6.022   3.842   5.491
20569SOL     OW63147   6.165   4.600   4.755
20569SOL    HW163148   6.180   4.695   4.761
20569SOL    HW263149   6.106   4.581   4.829
20570SOL     OW63150   6.930   4.580   4.757
20570SOL    HW163151   6.938   4.631   4.676
20570SOL    HW263152   6.972   4.497   4.737
20571SOL     OW63153   6.774   4.245   3.984
20571SOL    HW163154   6.775   4.173   4.046
20571SOL    HW263155   6.736   4.318   4.032
20572SOL     OW63156   5.682   5.033   4.986
20572SOL    HW163157   5.690   4.992   5.073
20572SOL    HW263158   5.664   5.125   5.005
20573SOL     OW63159   6.299   4.360   4.768
20573SOL    HW163160   6.380   4.369   4.718
20573SOL    HW263161   6.259   4.447   4.763
20574SOL     OW63162   7.326   4.690   5.587
20574SOL    HW163163   7.289   4.619   5.534
20574SOL    HW263164   7.262   4.703   5.657
20575SOL     OW63165   5.899   3.792   4.346
20575SOL    HW163166   5.868   3.880   4.366
20575SOL    HW263167   5.906   3.748   4.431
20576SOL     OW63168   7.119   4.066   4.150
20576SOL    HW163169   7.192   4.044   4.208
20576SOL    HW263170   7.118   4.161   4.147
20577SOL     OW63171   6.589   4.477   4.686
20577SOL    HW163172   6.630   4.484   4.772
20577SOL    HW263173   6.576   4.383   4.673
20578SOL     OW63174   6.591   5.309   5.433
20578SOL    HW163175   6.553   5.343   5.352
20578SOL    HW263176   6.589   5.214   5.422
20579SOL     OW63177   7.423   5.235   5.341
20579SOL    HW163178   7.447   5.260   5.252
20579SOL    HW263179   7.504   5.240   5.391
20580SOL     OW63180   7.128   3.970   3.863
20580SOL    HW163181   7.040   3.932   3.863
20580SOL    HW263182   7.113   4.064   3.873
20581SOL     OW63183   6.648   5.053   4.574
20581SOL    HW163184   6.656   4.978   4.515
20581SOL    HW263185   6.717   5.113   4.546
20582SOL     OW63186   5.897   4.524   4.656
20582SOL    HW163187   5.987   4.554   4.666
20582SOL    HW263188   5.896   4.438   4.699
20583SOL     OW63189   5.933   4.252   4.732
20583SOL    HW163190   5.879   4.175   4.712
20583SOL    HW263191   6.007   4.246   4.672
20584SOL     OW63192   6.702   4.165   5.353
20584SOL    HW163193   6.657   4.190   5.434
20584SOL    HW263194   6.795   4.175   5.374
20585SOL     OW63195   6.752   3.928   5.198
20585SOL    HW163196   6.732   4.004   5.253
20585SOL    HW263197   6.802   3.965   5.125
20586SOL     OW63198   5.558   5.035   3.907
20586SOL    HW163199   5.479   5.060   3.859
20586SOL    HW263200   5.526   5.002   3.991
20587SOL     OW63201   5.664   5.495   4.650
20587SOL    HW163202   5.634   5.413   4.611
20587SOL    HW263203   5.753   5.506   4.617
20588SOL     OW63204   6.088   5.314   4.624
20588SOL    HW163205   6.165   5.370   4.633
20588SOL    HW263206   6.121   5.234   4.582
20589SOL     OW63207   6.588   4.483   5.000
20589SOL    HW163208   6.604   4.577   5.013
20589SOL    HW263209   6.493   4.475   5.001
20590SOL     OW63210   5.665   4.211   4.858
20590SOL    HW163211   5.665   4.287   4.800
20590SOL    HW263212   5.652   4.248   4.945
20591SOL     OW63213   5.758   4.260   5.462
20591SOL    HW163214   5.806   4.272   5.380
20591SOL    HW263215   5.681   4.316   5.453
20592SOL     OW63216   6.972   4.654   5.378
20592SOL    HW163217   6.987   4.749   5.372
20592SOL    HW263218   6.966   4.625   5.287
20593SOL     OW63219   6.401   4.290   4.092
20593SOL    HW163220   6.407   4.217   4.030
20593SOL    HW263221   6.323   4.338   4.065
20594SOL     OW63222   7.232   4.329   4.893
20594SOL    HW163223   7.209   4.269   4.964
20594SOL    HW263224   7.321   4.304   4.868
20595SOL     OW63225   5.825   5.271   5.437
20595SOL    HW163226   5.798   5.332   5.507
20595SOL    HW263227   5.824   5.185   5.479
20596SOL     OW63228   6.314   4.188   4.979
20596SOL    HW163229   6.254   4.115   4.963
20596SOL    HW263230   6.296   4.250   4.908
20597SOL     OW63231   6.543   5.412   5.184
20597SOL    HW163232   6.503   5.363   5.112
20597SOL    HW263233   6.513   5.502   5.171
20598SOL     OW63234   6.037   4.214   3.891
20598SOL    HW163235   6.098   4.281   3.923
20598SOL    HW263236   5.952   4.258   3.888
20599SOL     OW63237   5.753   4.874   5.204
20599SOL    HW163238   5.732   4.828   5.285
20599SOL    HW263239   5.749   4.807   5.136
20600SOL     OW63240   6.891   4.767   4.949
20600SOL    HW163241   6.912   4.701   4.883
20600SOL    HW263242   6.837   4.831   4.903
20601SOL     OW63243   6.932   4.560   3.997
20601SOL    HW163244   6.867   4.570   4.066
20601SOL    HW263245   6.882   4.529   3.921
20602SOL     OW63246   7.379   5.453   4.899
20602SOL    HW163247   7.432   5.480   4.824
20602SOL    HW263248   7.338   5.371   4.871
20603SOL     OW63249   6.832   5.462   4.838
20603SOL    HW163250   6.914   5.482   4.794
20603SOL    HW263251   6.834   5.367   4.852
20604SOL     OW63252   5.686   4.985   4.728
20604SOL    HW163253   5.688   4.990   4.824
20604SOL    HW263254   5.595   5.005   4.705
20605SOL     OW63255   6.262   5.407   5.453
20605SOL    HW163256   6.215   5.488   5.471
20605SOL    HW263257   6.281   5.411   5.359
20606SOL     OW63258   7.306   3.855   4.217
20606SOL    HW163259   7.392   3.854   4.175
20606SOL    HW263260   7.303   3.774   4.268
20607SOL     OW63261   6.971   5.293   4.202
20607SOL    HW163262   7.036   5.329   4.141
20607SOL    HW263263   6.933   5.370   4.245
20608SOL     OW63264   5.717   5.524   5.559
20608SOL    HW163265   5.673   5.451   5.603
20608SOL    HW263266   5.764   5.570   5.628
20609SOL     OW63267   6.855   4.642   4.373
20609SOL    HW163268   6.935   4.594   4.393
20609SOL    HW263269   6.884   4.713   4.316
20610SOL     OW63270   6.376   5.003   5.152
20610SOL    HW163271   6.353   5.041   5.237
20610SOL    HW263272   6.295   5.010   5.101
20611SOL     OW63273   6.254   5.343   3.883
20611SOL    HW163274   6.266   5.365   3.790
20611SOL    HW263275   6.198   5.266   3.883
20612SOL     OW63276   7.198   5.458   5.122
20612SOL    HW163277   7.255   5.453   5.046
20612SOL    HW263278   7.188   5.552   5.139
20613SOL     OW63279   7.435   3.895   4.665
20613SOL    HW163280   7.455   3.802   4.666
20613SOL    HW263281   7.343   3.900   4.643
20614SOL     OW63282   5.833   4.043   4.429
20614SOL    HW163283   5.746   4.075   4.407
20614SOL    HW263284   5.833   4.036   4.525
20615SOL     OW63285   6.795   5.322   3.755
20615SOL    HW163286   6.783   5.232   3.786
20615SOL    HW263287   6.722   5.336   3.695
20616SOL     OW63288   6.465   4.754   5.065
20616SOL    HW163289   6.415   4.754   4.984
20616SOL    HW263290   6.441   4.837   5.108
20617SOL     OW63291   6.503   4.627   3.998
20617SOL    HW163292   6.569   4.659   3.937
20617SOL    HW263293   6.549   4.564   4.053
20618SOL     OW63294   7.074   5.343   3.770
20618SOL    HW163295   6.979   5.336   3.759
20618SOL    HW263296   7.108   5.353   3.681
20619SOL     OW63297   5.986   5.015   5.215
20619SOL    HW163298   5.967   5.092   5.161
20619SOL    HW263299   5.907   4.961   5.210
20620SOL     OW63300   7.198   5.007   5.007
20620SOL    HW163301   7.248   4.987   5.086
20620SOL    HW263302   7.135   5.074   5.035
20621SOL     OW63303   6.644   4.829   4.426
20621SOL    HW163304   6.576   4.776   4.468
20621SOL    HW263305   6.715   4.767   4.408
20622SOL     OW63306   6.619   3.961   4.688
20622SOL    HW163307   6.614   3.913   4.605
20622SOL    HW263308   6.609   3.894   4.755
20623SOL     OW63309   6.198   5.218   4.197
20623SOL    HW163310   6.232   5.163   4.126
20623SOL    HW263311   6.110   5.242   4.168
20624SOL     OW63312   5.826   5.062   3.982
20624SOL    HW163313   5.742   5.101   3.958
20624SOL    HW263314   5.840   5.089   4.073
20625SOL     OW63315   5.700   4.783   5.463
20625SOL    HW163316   5.625   4.745   5.508
20625SOL    HW263317   5.776   4.735   5.497
20626SOL     OW63318   6.274   3.906   5.224
20626SOL    HW163319   6.360   3.883   5.191
20626SOL    HW263320   6.290   3.942   5.311
20627SOL     OW63321   5.672   4.036   3.751
20627SOL    HW163322   5.577   4.025   3.760
20627SOL    HW263323   5.683   4.122   3.710
20628SOL     OW63324   6.998   4.579   5.118
20628SOL    HW163325   6.952   4.644   5.064
20628SOL    HW263326   7.086   4.576   5.082
20629SOL     OW63327   5.638   3.855   4.018
20629SOL    HW163328   5.624   3.948   3.999
20629SOL    HW263329   5.725   3.836   3.984
20630SOL     OW63330   6.761   5.057   3.835
20630SOL    HW163331   6.671   5.025   3.841
20630SOL    HW263332   6.790   5.063   3.927
20631SOL     OW63333   6.233   4.554   5.123
20631SOL    HW163334   6.248   4.639   5.165
20631SOL    HW263335   6.176   4.507   5.184
20632SOL     OW63336   7.072   5.523   4.716
20632SOL    HW163337   7.109   5.586   4.654
20632SOL    HW263338   7.130   5.447   4.711
20633SOL     OW63339   6.315   4.268   5.434
20633SOL    HW163340   6.321   4.323   5.512
20633SOL    HW263341   6.322   4.178   5.467
20634SOL     OW63342   7.058   4.922   5.352
20634SOL    HW163343   7.049   4.931   5.447
20634SOL    HW263344   7.151   4.936   5.335
20635SOL     OW63345   5.941   5.448   5.249
20635SOL    HW163346   5.873   5.514   5.263
20635SOL    HW263347   5.917   5.376   5.307
20636SOL     OW63348   7.240   4.593   4.991
20636SOL    HW163349   7.247   4.509   4.946
20636SOL    HW263350   7.245   4.658   4.922
20637SOL     OW63351   6.815   4.051   4.181
20637SOL    HW163352   6.908   4.050   4.159
20637SOL    HW263353   6.812   4.093   4.267
20638SOL     OW63354   6.184   4.447   4.385
20638SOL    HW163355   6.217   4.537   4.381
20638SOL    HW263356   6.108   4.447   4.327
20639SOL     OW63357   7.340   4.081   5.367
20639SOL    HW163358   7.311   4.107   5.279
20639SOL    HW263359   7.274   4.020   5.397
20640SOL     OW63360   7.349   4.644   5.235
20640SOL    HW163361   7.345   4.739   5.241
20640SOL    HW263362   7.321   4.624   5.146
20641SOL     OW63363   6.450   5.086   3.773
20641SOL    HW163364   6.415   5.096   3.862
20641SOL    HW263365   6.461   5.176   3.741
20642SOL     OW63366   6.279   5.540   4.631
20642SOL    HW163367   6.230   5.621   4.618
20642SOL    HW263368   6.280   5.528   4.726
20643SOL     OW63369   6.454   4.696   4.579
20643SOL    HW163370   6.498   4.619   4.615
20643SOL    HW263371   6.412   4.737   4.654
20644SOL     OW63372   6.673   4.693   3.792
20644SOL    HW163373   6.654   4.757   3.724
20644SOL    HW263374   6.741   4.638   3.754
20645SOL     OW63375   7.435   5.277   4.565
20645SOL    HW163376   7.352   5.267   4.518
20645SOL    HW263377   7.440   5.199   4.621
20646SOL     OW63378   5.790   5.023   5.567
20646SOL    HW163379   5.759   4.946   5.519
20646SOL    HW263380   5.727   5.034   5.638
20647SOL     OW63381   5.692   4.940   4.401
20647SOL    HW163382   5.644   4.914   4.479
20647SOL    HW263383   5.769   4.883   4.400
20648SOL     OW63384   6.284   5.138   5.381
20648SOL    HW163385   6.203   5.091   5.400
20648SOL    HW263386   6.266   5.228   5.407
20649SOL     OW63387   7.445   3.866   4.957
20649SOL    HW163388   7.382   3.905   5.018
20649SOL    HW263389   7.434   3.915   4.876
20650SOL     OW63390   6.013   4.159   4.245
20650SOL    HW163391   6.038   4.081   4.195
20650SOL    HW263392   5.959   4.125   4.317
20651SOL     OW63393   7.269   5.219   4.826
20651SOL    HW163394   7.194   5.198   4.771
20651SOL    HW263395   7.279   5.143   4.883
20652SOL     OW63396   5.930   4.276   5.010
20652SOL    HW163397   5.971   4.199   5.049
20652SOL    HW263398   5.930   4.258   4.916
20653SOL     OW63399   6.387   5.306   4.370
20653SOL    HW163400   6.331   5.293   4.294
20653SOL    HW263401   6.358   5.241   4.433
20654SOL     OW63402   7.030   3.947   4.843
20654SOL    HW163403   7.104   3.932   4.902
20654SOL    HW263404   6.964   3.990   4.898
20655SOL     OW63405   6.599   3.738   4.856
20655SOL    HW163406   6.541   3.675   4.813
20655SOL    HW263407   6.685   3.697   4.854
20656SOL     OW63408   6.366   5.051   4.036
20656SOL    HW163409   6.342   4.960   4.056
20656SOL    HW263410   6.443   5.067   4.091
20657SOL     OW63411   6.219   5.279   4.999
20657SOL    HW163412   6.210   5.352   5.061
20657SOL    HW263413   6.311   5.283   4.972
20658SOL     OW63414   6.944   3.772   3.918
20658SOL    HW163415   6.972   3.700   3.862
20658SOL    HW263416   6.855   3.747   3.946
20659SOL     OW63417   6.872   4.187   4.409
20659SOL    HW163418   6.823   4.269   4.413
20659SOL    HW263419   6.870   4.154   4.499
20660SOL     OW63420   7.166   3.912   4.608
20660SOL    HW163421   7.114   3.931   4.686
20660SOL    HW263422   7.163   3.993   4.557
20661SOL     OW63423   5.637   4.779   4.038
20661SOL    HW163424   5.723   4.768   4.078
20661SOL    HW263425   5.596   4.693   4.044
20662SOL     OW63426   6.475   5.393   4.061
20662SOL    HW163427   6.398   5.375   4.006
20662SOL    HW263428   6.445   5.462   4.121
20663SOL     OW63429   5.798   4.319   5.736
20663SOL    HW163430   5.708   4.319   5.770
20663SOL    HW263431   5.787   4.319   5.641
20664SOL     OW63432   5.811   4.013   6.587
20664SOL    HW163433   5.834   3.977   6.673
20664SOL    HW263434   5.725   3.975   6.568
20665SOL     OW63435   5.585   4.097   6.227
20665SOL    HW163436   5.502   4.131   6.261
20665SOL    HW263437   5.561   4.016   6.182
20666SOL     OW63438   6.164   5.020   6.778
20666SOL    HW163439   6.075   5.010   6.744
20666SOL    HW263440   6.170   5.113   6.801
20667SOL     OW63441   7.147   5.233   6.296
20667SOL    HW163442   7.099   5.207   6.375
20667SOL    HW263443   7.080   5.241   6.229
20668SOL     OW63444   6.675   4.486   6.259
20668SOL    HW163445   6.747   4.549   6.267
20668SOL    HW263446   6.651   4.466   6.350
20669SOL     OW63447   7.386   4.327   5.800
20669SOL    HW163448   7.351   4.315   5.712
20669SOL    HW263449   7.333   4.269   5.855
20670SOL     OW63450   6.368   4.881   6.673
20670SOL    HW163451   6.291   4.928   6.705
20670SOL    HW263452   6.403   4.936   6.602
20671SOL     OW63453   6.480   4.547   7.469
20671SOL    HW163454   6.390   4.569   7.493
20671SOL    HW263455   6.474   4.513   7.380
20672SOL     OW63456   6.277   4.728   6.223
20672SOL    HW163457   6.337   4.718   6.297
20672SOL    HW263458   6.203   4.776   6.259
20673SOL     OW63459   6.301   4.884   7.400
20673SOL    HW163460   6.344   4.968   7.387
20673SOL    HW263461   6.211   4.899   7.371
20674SOL     OW63462   5.917   5.138   6.658
20674SOL    HW163463   5.838   5.083   6.652
20674SOL    HW263464   5.923   5.180   6.573
20675SOL     OW63465   7.035   5.236   6.951
20675SOL    HW163466   7.090   5.313   6.963
20675SOL    HW263467   6.965   5.246   7.015
20676SOL     OW63468   7.258   4.207   6.355
20676SOL    HW163469   7.175   4.183   6.313
20676SOL    HW263470   7.233   4.250   6.436
20677SOL     OW63471   5.804   5.444   6.050
20677SOL    HW163472   5.851   5.523   6.079
20677SOL    HW263473   5.860   5.408   5.981
20678SOL     OW63474   6.717   5.058   7.278
20678SOL    HW163475   6.754   5.049   7.366
20678SOL    HW263476   6.667   4.978   7.265
20679SOL     OW63477   5.837   5.175   6.153
20679SOL    HW163478   5.780   5.252   6.146
20679SOL    HW263479   5.784   5.110   6.198
20680SOL     OW63480   5.868   4.798   6.499
20680SOL    HW163481   5.810   4.727   6.472
20680SOL    HW263482   5.810   4.866   6.534
20681SOL     OW63483   6.201   5.502   7.028
20681SOL    HW163484   6.112   5.488   7.061
20681SOL    HW263485   6.218   5.595   7.042
20682SOL     OW63486   6.243   4.638   5.706
20682SOL    HW163487   6.167   4.649   5.649
20682SOL    HW263488   6.242   4.715   5.762
20683SOL     OW63489   7.186   3.852   7.056
20683SOL    HW163490   7.190   3.927   6.997
20683SOL    HW263491   7.147   3.887   7.137
20684SOL     OW63492   5.660   4.371   6.192
20684SOL    HW163493   5.669   4.278   6.171
20684SOL    HW263494   5.566   4.388   6.183
20685SOL     OW63495   7.434   5.472   5.916
20685SOL    HW163496   7.507   5.448   5.974
20685SOL    HW263497   7.444   5.566   5.903
20686SOL     OW63498   5.642   5.313   5.706
20686SOL    HW163499   5.615   5.222   5.719
20686SOL    HW263500   5.601   5.360   5.779
20687SOL     OW63501   7.311   4.667   6.231
20687SOL    HW163502   7.355   4.593   6.189
20687SOL    HW263503   7.258   4.706   6.161
20688SOL     OW63504   7.230   4.832   6.010
20688SOL    HW163505   7.319   4.828   5.974
20688SOL    HW263506   7.237   4.893   6.083
20689SOL     OW63507   5.696   4.477   7.163
20689SOL    HW163508   5.753   4.534   7.215
20689SOL    HW263509   5.621   4.533   7.141
20690SOL     OW63510   6.196   5.099   6.314
20690SOL    HW163511   6.148   5.017   6.321
20690SOL    HW263512   6.185   5.126   6.223
20691SOL     OW63513   6.868   4.959   7.003
20691SOL    HW163514   6.897   4.891   6.942
20691SOL    HW263515   6.928   4.951   7.078
20692SOL     OW63516   6.422   3.721   6.101
20692SOL    HW163517   6.465   3.803   6.075
20692SOL    HW263518   6.330   3.745   6.109
20693SOL     OW63519   5.771   4.676   6.883
20693SOL    HW163520   5.843   4.627   6.845
20693SOL    HW263521   5.692   4.637   6.845
20694SOL     OW63522   7.118   4.724   5.783
20694SOL    HW163523   7.048   4.666   5.813
20694SOL    HW263524   7.156   4.758   5.864
20695SOL     OW63525   6.787   5.542   7.219
20695SOL    HW163526   6.780   5.603   7.146
20695SOL    HW263527   6.790   5.456   7.179
20696SOL     OW63528   5.934   3.974   7.426
20696SOL    HW163529   5.969   4.042   7.368
20696SOL    HW263530   5.842   3.997   7.438
20697SOL     OW63531   7.065   5.119   6.543
20697SOL    HW163532   6.993   5.149   6.598
20697SOL    HW263533   7.033   5.038   6.502
20698SOL     OW63534   7.259   5.459   6.179
20698SOL    HW163535   7.239   5.438   6.087
20698SOL    HW263536   7.220   5.388   6.229
20699SOL     OW63537   6.183   4.426   5.869
20699SOL    HW163538   6.200   4.502   5.814
20699SOL    HW263539   6.111   4.454   5.927
20700SOL     OW63540   6.882   4.126   6.565
20700SOL    HW163541   6.883   4.138   6.470
20700SOL    HW263542   6.847   4.037   6.577
20701SOL     OW63543   7.180   5.376   5.912
20701SOL    HW163544   7.265   5.417   5.902
20701SOL    HW263545   7.172   5.317   5.837
20702SOL     OW63546   6.358   4.342   7.042
20702SOL    HW163547   6.309   4.304   7.115
20702SOL    HW263548   6.347   4.279   6.970
20703SOL     OW63549   6.979   4.212   7.258
20703SOL    HW163550   6.984   4.253   7.345
20703SOL    HW263551   7.031   4.132   7.267
20704SOL     OW63552   6.535   4.606   7.155
20704SOL    HW163553   6.600   4.544   7.122
20704SOL    HW263554   6.454   4.582   7.111
20705SOL     OW63555   6.594   4.130   6.805
20705SOL    HW163556   6.502   4.138   6.829
20705SOL    HW263557   6.592   4.086   6.719
20706SOL     OW63558   6.643   4.425   5.996
20706SOL    HW163559   6.653   4.440   6.090
20706SOL    HW263560   6.559   4.380   5.987
20707SOL     OW63561   5.708   4.575   6.394
20707SOL    HW163562   5.706   4.554   6.301
20707SOL    HW263563   5.634   4.634   6.408
20708SOL     OW63564   5.709   5.595   7.164
20708SOL    HW163565   5.718   5.549   7.248
20708SOL    HW263566   5.647   5.542   7.114
20709SOL     OW63567   6.471   4.078   5.788
20709SOL    HW163568   6.517   4.129   5.722
20709SOL    HW263569   6.431   4.006   5.740
20710SOL     OW63570   7.296   4.304   7.439
20710SOL    HW163571   7.260   4.380   7.394
20710SOL    HW263572   7.323   4.245   7.369
20711SOL     OW63573   6.969   4.872   6.125
20711SOL    HW163574   7.042   4.853   6.065
20711SOL    HW263575   6.912   4.931   6.075
20712SOL     OW63576   6.182   3.903   6.488
20712SOL    HW163577   6.151   3.943   6.569
20712SOL    HW263578   6.112   3.920   6.425
20713SOL     OW63579   6.592   5.179   6.058
20713SOL    HW163580   6.555   5.248   6.002
20713SOL    HW263581   6.551   5.194   6.143
20714SOL     OW63582   5.943   5.506   6.431
20714SOL    HW163583   5.927   5.419   6.393
20714SOL    HW263584   5.917   5.567   6.363
20715SOL     OW63585   7.391   4.782   6.461
20715SOL    HW163586   7.358   4.750   6.378
20715SOL    HW263587   7.314   4.784   6.518
20716SOL     OW63588   6.807   5.265   7.104
20716SOL    HW163589   6.798   5.187   7.159
20716SOL    HW263590   6.739   5.256   7.037
20717SOL     OW63591   5.898   4.670   5.835
20717SOL    HW163592   5.928   4.674   5.744
20717SOL    HW263593   5.844   4.591   5.839
20718SOL     OW63594   7.042   4.457   6.287
20718SOL    HW163595   7.001   4.371   6.288
20718SOL    HW263596   7.110   4.453   6.354
20719SOL     OW63597   6.059   4.975   7.320
20719SOL    HW163598   6.025   4.985   7.232
20719SOL    HW263599   5.982   4.979   7.376
20720SOL     OW63600   6.718   5.475   5.827
20720SOL    HW163601   6.634   5.449   5.863
20720SOL    HW263602   6.731   5.418   5.751
20721SOL     OW63603   5.757   4.001   7.078
20721SOL    HW163604   5.667   4.031   7.061
20721SOL    HW263605   5.745   3.912   7.111
20722SOL     OW63606   7.210   5.118   5.691
20722SOL    HW163607   7.231   5.146   5.602
20722SOL    HW263608   7.141   5.053   5.680
20723SOL     OW63609   6.057   5.457   5.906
20723SOL    HW163610   6.108   5.516   5.961
20723SOL    HW263611   6.120   5.420   5.844
20724SOL     OW63612   6.984   3.816   6.030
20724SOL    HW163613   6.978   3.797   5.936
20724SOL    HW263614   7.056   3.879   6.037
20725SOL     OW63615   5.860   5.507   6.814
20725SOL    HW163616   5.877   5.429   6.868
20725SOL    HW263617   5.778   5.488   6.769
20726SOL     OW63618   6.524   5.419   6.481
20726SOL    HW163619   6.603   5.366   6.490
20726SOL    HW263620   6.474   5.375   6.413
20727SOL     OW63621   5.978   4.417   6.075
20727SOL    HW163622   5.993   4.323   6.084
20727SOL    HW263623   5.883   4.425   6.069
20728SOL     OW63624   7.093   3.954   7.307
20728SOL    HW163625   7.100   3.966   7.401
20728SOL    HW263626   7.016   3.898   7.296
20729SOL     OW63627   6.229   3.835   5.687
20729SOL    HW163628   6.210   3.767   5.751
20729SOL    HW263629   6.177   3.812   5.611
20730SOL     OW63630   6.375   4.011   7.384
20730SOL    HW163631   6.437   3.942   7.359
20730SOL    HW263632   6.299   3.996   7.328
20731SOL     OW63633   6.474   5.252   6.780
20731SOL    HW163634   6.460   5.214   6.694
20731SOL    HW263635   6.536   5.193   6.823
20732SOL     OW63636   6.922   4.318   7.013
20732SOL    HW163637   6.952   4.290   7.099
20732SOL    HW263638   6.957   4.407   7.003
20733SOL     OW63639   6.394   5.120   6.521
20733SOL    HW163640   6.482   5.109   6.484
20733SOL    HW263641   6.336   5.107   6.446
20734SOL     OW63642   6.504   4.234   6.489
20734SOL    HW163643   6.483   4.226   6.396
20734SOL    HW263644   6.534   4.146   6.514
20735SOL     OW63645   6.172   3.814   6.101
20735SOL    HW163646   6.095   3.794   6.155
20735SOL    HW263647   6.138   3.865   6.028
20736SOL     OW63648   7.018   4.930   5.627
20736SOL    HW163649   7.046   4.851   5.674
20736SOL    HW263650   6.927   4.943   5.654
20737SOL     OW63651   5.881   3.792   5.760
20737SOL    HW163652   5.938   3.863   5.789
20737SOL    HW263653   5.918   3.714   5.801
20738SOL     OW63654   6.533   3.972   6.043
20738SOL    HW163655   6.504   4.008   5.960
20738SOL    HW263656   6.626   3.995   6.047
20739SOL     OW63657   6.658   4.401   7.020
20739SOL    HW163658   6.599   4.327   7.031
20739SOL    HW263659   6.745   4.362   7.011
20740SOL     OW63660   6.800   5.306   6.388
20740SOL    HW163661   6.811   5.363   6.312
20740SOL    HW263662   6.860   5.343   6.453
20741SOL     OW63663   6.056   4.865   6.313
20741SOL    HW163664   5.990   4.844   6.379
20741SOL    HW263665   6.012   4.854   6.229
20742SOL     OW63666   6.849   5.520   6.206
20742SOL    HW163667   6.901   5.579   6.151
20742SOL    HW263668   6.776   5.574   6.236
20743SOL     OW63669   6.608   4.263   5.604
20743SOL    HW163670   6.558   4.345   5.600
20743SOL    HW263671   6.669   4.276   5.677
20744SOL     OW63672   5.676   4.321   6.936
20744SOL    HW163673   5.767   4.291   6.936
20744SOL    HW263674   5.667   4.371   7.017
20745SOL     OW63675   6.146   3.960   6.769
20745SOL    HW163676   6.173   3.868   6.777
20745SOL    HW263677   6.054   3.960   6.798
20746SOL     OW63678   6.439   4.183   6.227
20746SOL    HW163679   6.413   4.241   6.156
20746SOL    HW263680   6.464   4.101   6.184
20747SOL     OW63681   6.622   3.761   6.329
20747SOL    HW163682   6.554   3.765   6.262
20747SOL    HW263683   6.596   3.688   6.385
20748SOL     OW63684   7.014   4.880   6.425
20748SOL    HW163685   6.946   4.812   6.417
20748SOL    HW263686   7.044   4.894   6.335
20749SOL     OW63687   7.061   4.341   6.571
20749SOL    HW163688   6.998   4.268   6.565
20749SOL    HW263689   7.111   4.323   6.651
20750SOL     OW63690   7.433   4.535   5.976
20750SOL    HW163691   7.489   4.481   6.032
20750SOL    HW263692   7.407   4.475   5.905
20751SOL     OW63693   6.077   5.145   5.732
20751SOL    HW163694   6.006   5.112   5.787
20751SOL    HW263695   6.062   5.104   5.646
20752SOL     OW63696   7.260   4.991   6.224
20752SOL    HW163697   7.353   4.994   6.245
20752SOL    HW263698   7.229   5.079   6.243
20753SOL     OW63699   6.980   4.291   5.653
20753SOL    HW163700   6.914   4.272   5.720
20753SOL    HW263701   7.061   4.254   5.687
20754SOL     OW63702   6.091   3.979   5.886
20754SOL    HW163703   6.152   3.941   5.822
20754SOL    HW263704   6.070   4.065   5.851
20755SOL     OW63705   7.315   4.994   7.149
20755SOL    HW163706   7.382   4.925   7.144
20755SOL    HW263707   7.364   5.072   7.175
20756SOL     OW63708   6.630   5.080   6.929
20756SOL    HW163709   6.554   5.036   6.967
20756SOL    HW263710   6.706   5.033   6.964
20757SOL     OW63711   7.202   5.360   7.246
20757SOL    HW163712   7.187   5.392   7.157
20757SOL    HW263713   7.283   5.309   7.240
20758SOL     OW63714   6.730   4.949   6.689
20758SOL    HW163715   6.656   4.965   6.747
20758SOL    HW263716   6.700   4.976   6.603
20759SOL     OW63717   7.192   4.847   6.644
20759SOL    HW163718   7.153   4.853   6.731
20759SOL    HW263719   7.117   4.834   6.585
20760SOL     OW63720   6.520   3.812   6.976
20760SOL    HW163721   6.537   3.798   6.883
20760SOL    HW263722   6.599   3.855   7.008
20761SOL     OW63723   6.563   4.828   7.311
20761SOL    HW163724   6.472   4.834   7.340
20761SOL    HW263725   6.564   4.753   7.251
20762SOL     OW63726   6.305   4.799   5.953
20762SOL    HW163727   6.281   4.771   6.042
20762SOL    HW263728   6.383   4.748   5.932
20763SOL     OW63729   6.003   4.521   6.826
20763SOL    HW163730   6.069   4.533   6.894
20763SOL    HW263731   5.974   4.431   6.836
20764SOL     OW63732   6.864   4.089   6.874
20764SOL    HW163733   6.892   4.172   6.913
20764SOL    HW263734   6.781   4.110   6.832
20765SOL     OW63735   5.650   5.318   6.930
20765SOL    HW163736   5.559   5.344   6.913
20765SOL    HW263737   5.653   5.300   7.024
20766SOL     OW63738   5.945   4.837   6.062
20766SOL    HW163739   5.930   4.914   6.007
20766SOL    HW263740   5.942   4.763   6.001
20767SOL     OW63741   6.186   4.282   6.454
20767SOL    HW163742   6.174   4.350   6.388
20767SOL    HW263743   6.242   4.217   6.412
20768SOL     OW63744   6.834   5.076   5.983
20768SOL    HW163745   6.889   5.149   6.013
20768SOL    HW263746   6.746   5.099   6.012
20769SOL     OW63747   6.878   5.185   6.728
20769SOL    HW163748   6.922   5.187   6.813
20769SOL    HW263749   6.822   5.107   6.732
20770SOL     OW63750   7.171   4.349   6.040
20770SOL    HW163751   7.112   4.354   6.115
20770SOL    HW263752   7.169   4.437   6.002
20771SOL     OW63753   5.954   5.248   6.911
20771SOL    HW163754   5.916   5.209   6.832
20771SOL    HW263755   6.046   5.264   6.888
20772SOL     OW63756   6.019   4.490   7.186
20772SOL    HW163757   5.953   4.479   7.117
20772SOL    HW263758   6.047   4.401   7.207
20773SOL     OW63759   7.197   4.520   7.303
20773SOL    HW163760   7.111   4.560   7.287
20773SOL    HW263761   7.251   4.550   7.230
20774SOL     OW63762   6.599   3.847   7.350
20774SOL    HW163763   6.650   3.922   7.320
20774SOL    HW263764   6.649   3.771   7.319
20775SOL     OW63765   6.071   3.749   7.361
20775SOL    HW163766   6.030   3.704   7.287
20775SOL    HW263767   6.022   3.831   7.368
20776SOL     OW63768   6.177   4.640   6.651
20776SOL    HW163769   6.142   4.666   6.566
20776SOL    HW263770   6.103   4.597   6.695
20777SOL     OW63771   6.937   4.585   6.602
20777SOL    HW163772   6.866   4.579   6.538
20777SOL    HW263773   6.983   4.501   6.594
20778SOL     OW63774   6.783   4.246   5.841
20778SOL    HW163775   6.791   4.169   5.897
20778SOL    HW263776   6.741   4.312   5.896
20779SOL     OW63777   5.888   3.940   6.844
20779SOL    HW163778   5.840   3.964   6.923
20779SOL    HW263779   5.878   3.845   6.837
20780SOL     OW63780   5.680   5.049   6.857
20780SOL    HW163781   5.685   4.997   6.937
20780SOL    HW263782   5.670   5.139   6.888
20781SOL     OW63783   6.354   4.385   6.668
20781SOL    HW163784   6.400   4.328   6.605
20781SOL    HW263785   6.275   4.412   6.622
20782SOL     OW63786   7.333   4.677   7.496
20782SOL    HW163787   7.319   4.616   7.424
20782SOL    HW263788   7.246   4.691   7.533
20783SOL     OW63789   5.935   3.798   6.245
20783SOL    HW163790   5.861   3.858   6.237
20783SOL    HW263791   5.912   3.723   6.190
20784SOL     OW63792   7.200   4.088   5.959
20784SOL    HW163793   7.239   4.039   6.031
20784SOL    HW263794   7.177   4.173   5.997
20785SOL     OW63795   6.616   4.481   6.536
20785SOL    HW163796   6.626   4.488   6.631
20785SOL    HW263797   6.584   4.392   6.522
20786SOL     OW63798   6.573   5.290   7.306
20786SOL    HW163799   6.549   5.335   7.225
20786SOL    HW263800   6.613   5.208   7.276
20787SOL     OW63801   7.444   5.239   7.192
20787SOL    HW163802   7.461   5.256   7.099
20787SOL    HW263803   7.529   5.250   7.234
20788SOL     OW63804   5.961   4.640   7.424
20788SOL    HW163805   6.050   4.654   7.459
20788SOL    HW263806   5.975   4.586   7.346
20789SOL     OW63807   7.112   3.998   5.718
20789SOL    HW163808   7.046   3.934   5.743
20789SOL    HW263809   7.145   4.032   5.801
20790SOL     OW63810   6.875   4.547   5.613
20790SOL    HW163811   6.914   4.459   5.616
20790SOL    HW263812   6.907   4.583   5.530
20791SOL     OW63813   6.652   5.072   6.451
20791SOL    HW163814   6.654   4.997   6.390
20791SOL    HW263815   6.709   5.137   6.411
20792SOL     OW63816   5.939   4.257   6.572
20792SOL    HW163817   5.912   4.165   6.580
20792SOL    HW263818   6.028   4.253   6.537
20793SOL     OW63819   6.729   4.090   7.276
20793SOL    HW163820   6.677   4.140   7.339
20793SOL    HW263821   6.808   4.142   7.263
20794SOL     OW63822   6.760   3.918   7.061
20794SOL    HW163823   6.741   3.982   7.131
20794SOL    HW263824   6.798   3.971   6.991
20795SOL     OW63825   5.604   5.040   5.774
20795SOL    HW163826   5.515   5.057   5.744
20795SOL    HW263827   5.600   4.954   5.814
20796SOL     OW63828   5.676   5.502   6.547
20796SOL    HW163829   5.641   5.428   6.498
20796SOL    HW263830   5.769   5.505   6.523
20797SOL     OW63831   6.179   5.315   6.488
20797SOL    HW163832   6.232   5.264   6.549
20797SOL    HW263833   6.161   5.255   6.415
20798SOL     OW63834   6.508   4.542   6.831
20798SOL    HW163835   6.566   4.499   6.894
20798SOL    HW263836   6.463   4.470   6.787
20799SOL     OW63837   5.644   4.273   6.666
20799SOL    HW163838   5.620   4.181   6.669
20799SOL    HW263839   5.636   4.303   6.757
20800SOL     OW63840   5.784   4.247   7.315
20800SOL    HW163841   5.834   4.198   7.249
20800SOL    HW263842   5.727   4.305   7.265
20801SOL     OW63843   6.966   4.659   7.247
20801SOL    HW163844   6.990   4.751   7.236
20801SOL    HW263845   6.961   4.625   7.157
20802SOL     OW63846   6.405   4.294   5.963
20802SOL    HW163847   6.410   4.219   5.903
20802SOL    HW263848   6.327   4.341   5.936
20803SOL     OW63849   7.233   4.318   6.784
20803SOL    HW163850   7.219   4.251   6.852
20803SOL    HW263851   7.318   4.296   6.746
20804SOL     OW63852   5.922   5.276   7.379
20804SOL    HW163853   5.871   5.356   7.391
20804SOL    HW263854   5.860   5.214   7.340
20805SOL     OW63855   6.319   4.164   6.838
20805SOL    HW163856   6.257   4.093   6.821
20805SOL    HW263857   6.301   4.229   6.771
20806SOL     OW63858   6.514   5.403   7.058
20806SOL    HW163859   6.493   5.357   6.977
20806SOL    HW263860   6.502   5.495   7.037
20807SOL     OW63861   6.047   4.213   5.757
20807SOL    HW163862   6.100   4.285   5.790
20807SOL    HW263863   5.958   4.249   5.753
20808SOL     OW63864   5.734   4.870   7.070
20808SOL    HW163865   5.730   4.821   7.153
20808SOL    HW263866   5.744   4.802   7.003
20809SOL     OW63867   6.916   4.774   6.794
20809SOL    HW163868   6.926   4.704   6.730
20809SOL    HW263869   6.849   4.832   6.757
20810SOL     OW63870   6.907   4.577   5.889
20810SOL    HW163871   6.835   4.544   5.941
20810SOL    HW263872   6.878   4.567   5.798
20811SOL     OW63873   7.367   5.450   6.743
20811SOL    HW163874   7.428   5.504   6.692
20811SOL    HW263875   7.321   5.399   6.677
20812SOL     OW63876   6.837   5.458   6.691
20812SOL    HW163877   6.922   5.481   6.653
20812SOL    HW263878   6.843   5.364   6.709
20813SOL     OW63879   5.690   4.988   6.595
20813SOL    HW163880   5.667   5.002   6.687
20813SOL    HW263881   5.614   4.945   6.557
20814SOL     OW63882   6.264   5.398   7.324
20814SOL    HW163883   6.181   5.443   7.311
20814SOL    HW263884   6.315   5.419   7.245
20815SOL     OW63885   7.342   3.886   6.108
20815SOL    HW163886   7.395   3.873   6.029
20815SOL    HW263887   7.317   3.797   6.135
20816SOL     OW63888   6.979   5.296   6.085
20816SOL    HW163889   7.039   5.329   6.018
20816SOL    HW263890   6.924   5.371   6.107
20817SOL     OW63891   5.749   5.524   7.444
20817SOL    HW163892   5.712   5.441   7.474
20817SOL    HW263893   5.673   5.583   7.440
20818SOL     OW63894   6.876   4.672   6.283
20818SOL    HW163895   6.938   4.599   6.278
20818SOL    HW263896   6.905   4.734   6.217
20819SOL     OW63897   6.376   4.986   6.998
20819SOL    HW163898   6.351   5.023   7.082
20819SOL    HW263899   6.299   4.999   6.942
20820SOL     OW63900   6.257   5.348   5.736
20820SOL    HW163901   6.262   5.369   5.643
20820SOL    HW263902   6.200   5.271   5.740
20821SOL     OW63903   7.207   5.449   6.978
20821SOL    HW163904   7.261   5.450   6.899
20821SOL    HW263905   7.191   5.541   6.998
20822SOL     OW63906   7.418   3.891   6.557
20822SOL    HW163907   7.436   3.805   6.518
20822SOL    HW263908   7.332   3.915   6.522
20823SOL     OW63909   5.835   4.081   6.319
20823SOL    HW163910   5.746   4.082   6.285
20823SOL    HW263911   5.828   4.042   6.406
20824SOL     OW63912   6.795   5.317   5.603
20824SOL    HW163913   6.792   5.233   5.649
20824SOL    HW263914   6.713   5.321   5.554
20825SOL     OW63915   6.532   4.666   5.900
20825SOL    HW163916   6.584   4.691   5.823
20825SOL    HW263917   6.568   4.581   5.926
20826SOL     OW63918   5.966   5.024   7.076
20826SOL    HW163919   5.952   5.103   7.024
20826SOL    HW263920   5.885   4.974   7.066
20827SOL     OW63921   7.196   5.038   6.864
20827SOL    HW163922   7.242   5.003   6.940
20827SOL    HW263923   7.131   5.099   6.901
20828SOL     OW63924   6.644   4.842   6.314
20828SOL    HW163925   6.568   4.789   6.336
20828SOL    HW263926   6.707   4.779   6.279
20829SOL     OW63927   6.592   3.971   6.564
20829SOL    HW163928   6.599   3.934   6.476
20829SOL    HW263929   6.587   3.894   6.621
20830SOL     OW63930   6.202   5.219   6.066
20830SOL    HW163931   6.247   5.166   6.000
20830SOL    HW263932   6.119   5.242   6.025
20831SOL     OW63933   7.320   4.113   6.980
20831SOL    HW163934   7.388   4.180   6.975
20831SOL    HW263935   7.351   4.043   6.922
20832SOL     OW63936   5.869   5.064   5.903
20832SOL    HW163937   5.783   5.061   5.861
20832SOL    HW263938   5.854   5.107   5.987
20833SOL     OW63939   5.715   4.757   7.323
20833SOL    HW163940   5.631   4.733   7.362
20833SOL    HW263941   5.780   4.710   7.376
20834SOL     OW63942   6.265   3.895   7.113
20834SOL    HW163943   6.342   3.909   7.057
20834SOL    HW263944   6.218   3.978   7.109
20835SOL     OW63945   5.666   4.034   5.607
20835SOL    HW163946   5.574   4.016   5.587
20835SOL    HW263947   5.681   4.122   5.572
20836SOL     OW63948   7.002   4.584   6.985
20836SOL    HW163949   6.953   4.642   6.927
20836SOL    HW263950   7.091   4.584   6.950
20837SOL     OW63951   5.647   3.875   5.879
20837SOL    HW163952   5.622   3.956   5.834
20837SOL    HW263953   5.729   3.849   5.838
20838SOL     OW63954   6.761   5.065   5.706
20838SOL    HW163955   6.665   5.063   5.702
20838SOL    HW263956   6.782   5.050   5.798
20839SOL     OW63957   6.236   4.581   7.000
20839SOL    HW163958   6.178   4.591   7.075
20839SOL    HW263959   6.274   4.494   7.010
20840SOL     OW63960   7.079   5.518   6.562
20840SOL    HW163961   7.065   5.558   6.476
20840SOL    HW263962   7.157   5.561   6.597
20841SOL     OW63963   6.367   4.285   7.357
20841SOL    HW163964   6.278   4.299   7.323
20841SOL    HW263965   6.376   4.190   7.362
20842SOL     OW63966   7.055   4.920   7.212
20842SOL    HW163967   7.052   4.938   7.306
20842SOL    HW263968   7.146   4.939   7.187
20843SOL     OW63969   5.961   5.470   7.153
20843SOL    HW163970   5.878   5.510   7.127
20843SOL    HW263971   5.939   5.378   7.170
20844SOL     OW63972   7.239   4.590   6.838
20844SOL    HW163973   7.239   4.497   6.815
20844SOL    HW263974   7.244   4.636   6.754
20845SOL     OW63975   6.803   4.040   6.036
20845SOL    HW163976   6.851   3.957   6.034
20845SOL    HW263977   6.841   4.088   6.110
20846SOL     OW63978   6.166   4.475   6.266
20846SOL    HW163979   6.211   4.554   6.234
20846SOL    HW263980   6.101   4.456   6.198
20847SOL     OW63981   7.340   4.072   7.255
20847SOL    HW163982   7.334   4.095   7.162
20847SOL    HW263983   7.260   4.023   7.273
20848SOL     OW63984   7.316   4.673   7.094
20848SOL    HW163985   7.395   4.624   7.117
20848SOL    HW263986   7.301   4.652   7.002
20849SOL     OW63987   6.492   5.122   5.664
20849SOL    HW163988   6.431   5.102   5.735
20849SOL    HW263989   6.443   5.178   5.605
20850SOL     OW63990   6.446   4.694   6.444
20850SOL    HW163991   6.496   4.616   6.465
20850SOL    HW263992   6.404   4.719   6.526
20851SOL     OW63993   6.687   4.735   5.683
20851SOL    HW163994   6.646   4.769   5.603
20851SOL    HW263995   6.746   4.666   5.652
20852SOL     OW63996   7.365   5.237   6.492
20852SOL    HW163997   7.316   5.260   6.413
20852SOL    HW263998   7.441   5.188   6.460
20853SOL     OW63999   5.813   4.989   7.444
20853SOL    HW164000   5.774   4.922   7.388
20853SOL    HW264001   5.740   5.021   7.498
20854SOL     OW64002   5.693   4.961   6.254
20854SOL    HW164003   5.646   4.910   6.320
20854SOL    HW264004   5.709   4.900   6.182
20855SOL     OW64005   6.282   5.121   7.231
20855SOL    HW164006   6.197   5.080   7.249
20855SOL    HW264007   6.270   5.213   7.256
20856SOL     OW64008   7.410   3.904   6.830
20856SOL    HW164009   7.400   3.809   6.837
20856SOL    HW264010   7.412   3.921   6.736
20857SOL     OW64011   6.015   4.154   6.120
20857SOL    HW164012   6.038   4.079   6.066
20857SOL    HW264013   5.959   4.118   6.189
20858SOL     OW64014   5.948   4.264   6.904
20858SOL    HW164015   5.988   4.215   6.975
20858SOL    HW264016   5.938   4.201   6.833
20859SOL     OW64017   6.407   5.318   6.252
20859SOL    HW164018   6.404   5.389   6.188
20859SOL    HW264019   6.336   5.259   6.227
20860SOL     OW64020   7.025   3.907   6.731
20860SOL    HW164021   6.974   3.836   6.771
20860SOL    HW264022   6.985   3.987   6.764
20861SOL     OW64023   6.604   3.737   6.720
20861SOL    HW164024   6.544   3.669   6.690
20861SOL    HW264025   6.690   3.696   6.717
20862SOL     OW64026   6.363   5.060   5.905
20862SOL    HW164027   6.325   4.972   5.909
20862SOL    HW264028   6.447   5.052   5.951
20863SOL     OW64029   6.217   5.289   6.854
20863SOL    HW164030   6.216   5.363   6.915
20863SOL    HW264031   6.309   5.279   6.830
20864SOL     OW64032   6.945   3.780   5.759
20864SOL    HW164033   6.975   3.719   5.691
20864SOL    HW264034   6.859   3.746   5.784
20865SOL     OW64035   7.158   3.924   6.478
20865SOL    HW164036   7.103   3.942   6.555
20865SOL    HW264037   7.121   3.980   6.410
20866SOL     OW64038   5.646   4.800   5.907
20866SOL    HW164039   5.735   4.790   5.874
20866SOL    HW264040   5.615   4.710   5.919
20867SOL     OW64041   6.470   5.389   5.923
20867SOL    HW164042   6.399   5.365   5.863
20867SOL    HW264043   6.434   5.462   5.974
20868SOL     OW64044   5.814   4.344   7.573
20868SOL    HW164045   5.722   4.339   7.599
20868SOL    HW264046   5.814   4.317   7.481
20869SOL     OW64047   5.806   4.016   8.443
20869SOL    HW164048   5.833   3.978   8.527
20869SOL    HW264049   5.719   3.979   8.427
20870SOL     OW64050   5.584   4.118   8.095
20870SOL    HW164051   5.498   4.147   8.126
20870SOL    HW264052   5.568   4.031   8.059
20871SOL     OW64053   6.179   5.013   8.652
20871SOL    HW164054   6.107   4.960   8.618
20871SOL    HW264055   6.148   5.104   8.644
20872SOL     OW64056   7.156   5.241   8.142
20872SOL    HW164057   7.126   5.223   8.231
20872SOL    HW264058   7.076   5.246   8.090
20873SOL     OW64059   6.734   4.409   8.145
20873SOL    HW164060   6.743   4.490   8.094
20873SOL    HW264061   6.643   4.408   8.173
20874SOL     OW64062   7.369   4.321   7.706
20874SOL    HW164063   7.347   4.334   7.614
20874SOL    HW264064   7.332   4.236   7.728
20875SOL     OW64065   6.426   4.880   8.528
20875SOL    HW164066   6.357   4.822   8.560
20875SOL    HW264067   6.380   4.960   8.502
20876SOL     OW64068   6.429   4.533   9.294
20876SOL    HW164069   6.344   4.576   9.301
20876SOL    HW264070   6.457   4.549   9.203
20877SOL     OW64071   6.282   4.736   8.090
20877SOL    HW164072   6.336   4.726   8.168
20877SOL    HW264073   6.206   4.787   8.120
20878SOL     OW64074   6.300   4.892   9.265
20878SOL    HW164075   6.343   4.973   9.291
20878SOL    HW264076   6.216   4.920   9.228
20879SOL     OW64077   5.908   5.158   8.513
20879SOL    HW164078   5.837   5.108   8.473
20879SOL    HW264079   5.954   5.198   8.440
20880SOL     OW64080   7.054   5.221   8.810
20880SOL    HW164081   7.102   5.304   8.802
20880SOL    HW264082   7.023   5.220   8.901
20881SOL     OW64083   6.024   4.107   8.924
20881SOL    HW164084   6.090   4.038   8.923
20881SOL    HW264085   5.942   4.061   8.942
20882SOL     OW64086   7.171   4.209   8.196
20882SOL    HW164087   7.087   4.196   8.152
20882SOL    HW264088   7.232   4.231   8.125
20883SOL     OW64089   5.764   5.433   7.929
20883SOL    HW164090   5.808   5.511   7.964
20883SOL    HW264091   5.805   5.418   7.844
20884SOL     OW64092   6.671   5.073   9.150
20884SOL    HW164093   6.724   5.080   9.230
20884SOL    HW264094   6.638   4.983   9.152
20885SOL     OW64095   5.845   5.176   8.010
20885SOL    HW164096   5.794   5.257   8.004
20885SOL    HW264097   5.789   5.115   8.057
20886SOL     OW64098   5.878   4.829   8.363
20886SOL    HW164099   5.870   4.736   8.385
20886SOL    HW264100   5.790   4.864   8.372
20887SOL     OW64101   6.200   5.514   8.905
20887SOL    HW164102   6.109   5.500   8.933
20887SOL    HW264103   6.213   5.608   8.914
20888SOL     OW64104   6.211   4.689   7.568
20888SOL    HW164105   6.244   4.753   7.506
20888SOL    HW264106   6.221   4.731   7.654
20889SOL     OW64107   7.166   3.845   8.920
20889SOL    HW164108   7.197   3.930   8.889
20889SOL    HW264109   7.140   3.860   9.011
20890SOL     OW64110   5.713   4.363   8.013
20890SOL    HW164111   5.667   4.279   8.015
20890SOL    HW264112   5.695   4.402   8.099
20891SOL     OW64113   7.428   5.480   7.876
20891SOL    HW164114   7.519   5.458   7.898
20891SOL    HW264115   7.436   5.547   7.809
20892SOL     OW64116   5.658   5.322   7.601
20892SOL    HW164117   5.638   5.235   7.567
20892SOL    HW264118   5.578   5.349   7.648
20893SOL     OW64119   7.271   4.640   8.110
20893SOL    HW164120   7.355   4.596   8.097
20893SOL    HW264121   7.255   4.686   8.028
20894SOL     OW64122   7.240   4.804   7.887
20894SOL    HW164123   7.320   4.807   7.834
20894SOL    HW264124   7.251   4.875   7.950
20895SOL     OW64125   5.686   4.440   8.965
20895SOL    HW164126   5.774   4.473   8.980
20895SOL    HW264127   5.629   4.516   8.975
20896SOL     OW64128   6.199   5.124   8.176
20896SOL    HW164129   6.158   5.038   8.185
20896SOL    HW264130   6.173   5.154   8.089
20897SOL     OW64131   6.872   4.969   8.881
20897SOL    HW164132   6.889   4.900   8.816
20897SOL    HW264133   6.937   4.953   8.950
20898SOL     OW64134   6.411   3.750   7.992
20898SOL    HW164135   6.445   3.829   7.949
20898SOL    HW264136   6.316   3.758   7.987
20899SOL     OW64137   5.755   4.694   8.738
20899SOL    HW164138   5.838   4.647   8.734
20899SOL    HW264139   5.717   4.683   8.650
20900SOL     OW64140   7.107   4.724   7.654
20900SOL    HW164141   7.035   4.665   7.677
20900SOL    HW264142   7.146   4.746   7.738
20901SOL     OW64143   6.753   5.534   9.083
20901SOL    HW164144   6.762   5.602   9.016
20901SOL    HW264145   6.772   5.452   9.036
20902SOL     OW64146   5.915   3.976   9.300
20902SOL    HW164147   5.943   4.064   9.274
20902SOL    HW264148   5.820   3.983   9.312
20903SOL     OW64149   7.055   5.148   8.386
20903SOL    HW164150   6.986   5.166   8.450
20903SOL    HW264151   7.035   5.060   8.353
20904SOL     OW64152   6.182   4.456   7.729
20904SOL    HW164153   6.176   4.531   7.669
20904SOL    HW264154   6.106   4.467   7.788
20905SOL     OW64155   6.854   4.078   8.398
20905SOL    HW164156   6.772   4.029   8.402
20905SOL    HW264157   6.918   4.021   8.440
20906SOL     OW64158   7.192   5.409   7.705
20906SOL    HW164159   7.277   5.423   7.663
20906SOL    HW264160   7.133   5.391   7.632
20907SOL     OW64161   6.404   4.323   8.896
20907SOL    HW164162   6.380   4.301   8.986
20907SOL    HW264163   6.363   4.255   8.843
20908SOL     OW64164   6.966   4.204   9.127
20908SOL    HW164165   6.982   4.253   9.208
20908SOL    HW264166   7.011   4.121   9.141
20909SOL     OW64167   6.532   4.612   9.045
20909SOL    HW164168   6.585   4.540   9.010
20909SOL    HW264169   6.496   4.655   8.968
20910SOL     OW64170   6.642   4.397   7.870
20910SOL    HW164171   6.645   4.357   7.956
20910SOL    HW264172   6.556   4.373   7.835
20911SOL     OW64173   5.669   4.496   8.253
20911SOL    HW164174   5.738   4.555   8.284
20911SOL    HW264175   5.606   4.554   8.211
20912SOL     OW64176   5.710   5.596   9.024
20912SOL    HW164177   5.707   5.572   9.117
20912SOL    HW264178   5.627   5.564   8.989
20913SOL     OW64179   6.475   4.081   7.643
20913SOL    HW164180   6.536   4.130   7.589
20913SOL    HW264181   6.417   4.038   7.581
20914SOL     OW64182   7.308   4.310   9.283
20914SOL    HW164183   7.272   4.382   9.231
20914SOL    HW264184   7.319   4.239   9.219
20915SOL     OW64185   6.965   4.861   7.998
20915SOL    HW164186   7.035   4.838   7.936
20915SOL    HW264187   6.911   4.923   7.949
20916SOL     OW64188   6.178   3.898   8.341
20916SOL    HW164189   6.128   3.940   8.412
20916SOL    HW264190   6.132   3.924   8.261
20917SOL     OW64191   6.612   5.197   7.931
20917SOL    HW164192   6.570   5.254   7.867
20917SOL    HW264193   6.554   5.198   8.007
20918SOL     OW64194   5.943   5.546   8.302
20918SOL    HW164195   5.987   5.462   8.315
20918SOL    HW264196   6.009   5.611   8.324
20919SOL     OW64197   7.364   4.775   8.343
20919SOL    HW164198   7.325   4.754   8.258
20919SOL    HW264199   7.292   4.764   8.405
20920SOL     OW64200   6.793   5.273   8.978
20920SOL    HW164201   6.801   5.184   9.012
20920SOL    HW264202   6.780   5.262   8.884
20921SOL     OW64203   5.889   4.666   7.699
20921SOL    HW164204   5.914   4.675   7.607
20921SOL    HW264205   5.846   4.581   7.704
20922SOL     OW64206   7.083   4.475   8.219
20922SOL    HW164207   7.119   4.387   8.223
20922SOL    HW264208   7.154   4.528   8.182
20923SOL     OW64209   6.054   5.003   9.188
20923SOL    HW164210   6.029   5.013   9.096
20923SOL    HW264211   5.973   4.978   9.233
20924SOL     OW64212   6.730   5.480   7.699
20924SOL    HW164213   6.644   5.454   7.730
20924SOL    HW264214   6.744   5.427   7.619
20925SOL     OW64215   5.762   4.010   8.978
20925SOL    HW164216   5.681   4.042   8.939
20925SOL    HW264217   5.747   3.916   8.992
20926SOL     OW64218   7.205   5.119   7.560
20926SOL    HW164219   7.170   5.196   7.516
20926SOL    HW264220   7.145   5.048   7.535
20927SOL     OW64221   6.132   5.480   7.821
20927SOL    HW164222   6.134   5.397   7.868
20927SOL    HW264223   6.160   5.458   7.732
20928SOL     OW64224   5.842   5.509   8.667
20928SOL    HW164225   5.884   5.430   8.701
20928SOL    HW264226   5.817   5.485   8.577
20929SOL     OW64227   6.524   5.423   8.335
20929SOL    HW164228   6.595   5.365   8.362
20929SOL    HW264229   6.480   5.375   8.265
20930SOL     OW64230   5.987   4.411   7.939
20930SOL    HW164231   6.011   4.318   7.942
20930SOL    HW264232   5.891   4.411   7.948
20931SOL     OW64233   6.221   3.802   7.585
20931SOL    HW164234   6.308   3.777   7.552
20931SOL    HW264235   6.163   3.794   7.509
20932SOL     OW64236   6.350   4.000   9.205
20932SOL    HW164237   6.427   3.943   9.202
20932SOL    HW264238   6.281   3.945   9.243
20933SOL     OW64239   6.460   5.256   8.638
20933SOL    HW164240   6.432   5.226   8.552
20933SOL    HW264241   6.527   5.192   8.665
20934SOL     OW64242   6.919   4.310   8.877
20934SOL    HW164243   6.949   4.276   8.961
20934SOL    HW264244   6.957   4.398   8.871
20935SOL     OW64245   6.397   5.133   8.395
20935SOL    HW164246   6.481   5.109   8.355
20935SOL    HW264247   6.334   5.126   8.324
20936SOL     OW64248   6.548   4.201   8.322
20936SOL    HW164249   6.505   4.214   8.237
20936SOL    HW264250   6.591   4.116   8.314
20937SOL     OW64251   6.145   3.789   7.961
20937SOL    HW164252   6.060   3.788   8.006
20937SOL    HW264253   6.137   3.861   7.898
20938SOL     OW64254   7.018   4.931   7.491
20938SOL    HW164255   7.042   4.850   7.537
20938SOL    HW264256   6.924   4.938   7.504
20939SOL     OW64257   5.879   3.787   7.632
20939SOL    HW164258   5.915   3.847   7.567
20939SOL    HW264259   5.943   3.717   7.638
20940SOL     OW64260   6.527   3.987   7.900
20940SOL    HW164261   6.497   4.011   7.812
20940SOL    HW264262   6.621   4.001   7.899
20941SOL     OW64263   6.664   4.406   8.936
20941SOL    HW164264   6.588   4.351   8.914
20941SOL    HW264265   6.739   4.355   8.906
20942SOL     OW64266   6.815   5.301   8.242
20942SOL    HW164267   6.815   5.368   8.173
20942SOL    HW264268   6.874   5.336   8.309
20943SOL     OW64269   6.064   4.885   8.169
20943SOL    HW164270   5.999   4.866   8.237
20943SOL    HW264271   6.018   4.869   8.087
20944SOL     OW64272   6.848   5.519   8.067
20944SOL    HW164273   6.892   5.580   8.009
20944SOL    HW264274   6.770   5.565   8.098
20945SOL     OW64275   6.611   4.262   7.469
20945SOL    HW164276   6.526   4.279   7.429
20945SOL    HW264277   6.642   4.348   7.497
20946SOL     OW64278   6.135   3.944   8.629
20946SOL    HW164279   6.158   3.851   8.624
20946SOL    HW264280   6.044   3.945   8.657
20947SOL     OW64281   6.463   4.205   8.066
20947SOL    HW164282   6.403   4.253   8.010
20947SOL    HW264283   6.478   4.122   8.020
20948SOL     OW64284   6.580   3.796   8.209
20948SOL    HW164285   6.524   3.790   8.132
20948SOL    HW264286   6.573   3.710   8.250
20949SOL     OW64287   7.026   4.892   8.292
20949SOL    HW164288   6.944   4.846   8.272
20949SOL    HW264289   7.072   4.897   8.208
20950SOL     OW64290   6.997   4.330   8.469
20950SOL    HW164291   6.991   4.239   8.442
20950SOL    HW264292   7.076   4.334   8.523
20951SOL     OW64293   6.064   5.166   7.598
20951SOL    HW164294   6.003   5.110   7.646
20951SOL    HW264295   6.020   5.184   7.515
20952SOL     OW64296   7.267   4.981   8.095
20952SOL    HW164297   7.361   4.972   8.113
20952SOL    HW264298   7.246   5.070   8.121
20953SOL     OW64299   6.988   4.294   7.519
20953SOL    HW164300   6.926   4.276   7.590
20953SOL    HW264301   7.063   4.239   7.538
20954SOL     OW64302   6.127   3.985   7.776
20954SOL    HW164303   6.157   3.929   7.704
20954SOL    HW264304   6.092   4.063   7.733
20955SOL     OW64305   7.338   4.952   9.046
20955SOL    HW164306   7.416   4.907   9.079
20955SOL    HW264307   7.363   5.043   9.038
20956SOL     OW64308   6.633   5.084   8.820
20956SOL    HW164309   6.566   5.019   8.797
20956SOL    HW264310   6.713   5.033   8.831
20957SOL     OW64311   7.190   5.339   9.092
20957SOL    HW164312   7.187   5.391   9.012
20957SOL    HW264313   7.275   5.294   9.088
20958SOL     OW64314   6.701   4.939   8.550
20958SOL    HW164315   6.615   4.899   8.562
20958SOL    HW264316   6.695   4.984   8.465
20959SOL     OW64317   7.152   4.806   8.526
20959SOL    HW164318   7.170   4.878   8.586
20959SOL    HW264319   7.112   4.847   8.450
20960SOL     OW64320   6.497   3.833   8.822
20960SOL    HW164321   6.521   3.792   8.738
20960SOL    HW264322   6.580   3.865   8.857
20961SOL     OW64323   6.561   4.830   9.197
20961SOL    HW164324   6.467   4.843   9.213
20961SOL    HW264325   6.565   4.756   9.136
20962SOL     OW64326   6.301   4.791   7.816
20962SOL    HW164327   6.281   4.767   7.906
20962SOL    HW264328   6.384   4.747   7.797
20963SOL     OW64329   5.981   4.550   8.731
20963SOL    HW164330   6.067   4.556   8.689
20963SOL    HW264331   5.962   4.457   8.734
20964SOL     OW64332   6.825   4.113   8.716
20964SOL    HW164333   6.863   4.183   8.768
20964SOL    HW264334   6.845   4.137   8.625
20965SOL     OW64335   5.656   5.288   8.829
20965SOL    HW164336   5.612   5.365   8.792
20965SOL    HW264337   5.747   5.297   8.801
20966SOL     OW64338   5.945   4.838   7.924
20966SOL    HW164339   5.928   4.911   7.865
20966SOL    HW264340   5.936   4.760   7.869
20967SOL     OW64341   6.168   4.287   8.307
20967SOL    HW164342   6.163   4.225   8.235
20967SOL    HW264343   6.167   4.373   8.265
20968SOL     OW64344   6.838   5.065   7.863
20968SOL    HW164345   6.893   5.143   7.865
20968SOL    HW264346   6.750   5.096   7.885
20969SOL     OW64347   6.873   5.178   8.594
20969SOL    HW164348   6.927   5.174   8.673
20969SOL    HW264349   6.814   5.103   8.602
20970SOL     OW64350   7.166   4.348   7.930
20970SOL    HW164351   7.082   4.389   7.911
20970SOL    HW264352   7.223   4.372   7.856
20971SOL     OW64353   5.931   5.260   8.757
20971SOL    HW164354   5.914   5.215   8.674
20971SOL    HW264355   6.025   5.272   8.759
20972SOL     OW64356   5.979   4.478   9.053
20972SOL    HW164357   6.051   4.513   9.001
20972SOL    HW264358   5.982   4.384   9.037
20973SOL     OW64359   7.213   4.530   9.146
20973SOL    HW164360   7.121   4.556   9.134
20973SOL    HW264361   7.257   4.560   9.067
20974SOL     OW64362   6.579   3.854   9.209
20974SOL    HW164363   6.638   3.924   9.183
20974SOL    HW264364   6.619   3.774   9.174
20975SOL     OW64365   6.078   3.781   9.204
20975SOL    HW164366   6.033   3.728   9.139
20975SOL    HW264367   6.016   3.852   9.224
20976SOL     OW64368   6.828   4.252   7.732
20976SOL    HW164369   6.808   4.168   7.775
20976SOL    HW264370   6.762   4.312   7.766
20977SOL     OW64371   5.874   3.916   8.697
20977SOL    HW164372   5.791   3.938   8.738
20977SOL    HW264373   5.872   3.821   8.686
20978SOL     OW64374   5.669   5.035   8.710
20978SOL    HW164375   5.682   4.972   8.781
20978SOL    HW264376   5.646   5.116   8.754
20979SOL     OW64377   6.353   4.334   8.503
20979SOL    HW164378   6.290   4.325   8.431
20979SOL    HW264379   6.334   4.420   8.540
20980SOL     OW64380   7.313   4.725   9.318
20980SOL    HW164381   7.291   4.654   9.257
20980SOL    HW264382   7.250   4.716   9.389
20981SOL     OW64383   5.909   3.812   8.105
20981SOL    HW164384   5.867   3.898   8.111
20981SOL    HW264385   5.852   3.763   8.045
20982SOL     OW64386   7.211   4.098   7.808
20982SOL    HW164387   7.242   4.027   7.864
20982SOL    HW264388   7.178   4.164   7.869
20983SOL     OW64389   6.662   4.442   8.426
20983SOL    HW164390   6.633   4.468   8.514
20983SOL    HW264391   6.604   4.369   8.402
20984SOL     OW64392   7.433   5.211   9.044
20984SOL    HW164393   7.451   5.258   8.962
20984SOL    HW264394   7.511   5.223   9.097
20985SOL     OW64395   5.954   4.635   9.274
20985SOL    HW164396   6.047   4.649   9.293
20985SOL    HW264397   5.953   4.577   9.199
20986SOL     OW64398   7.097   3.995   7.577
20986SOL    HW164399   7.040   3.927   7.613
20986SOL    HW264400   7.141   4.033   7.653
20987SOL     OW64401   6.889   4.552   7.490
20987SOL    HW164402   6.926   4.464   7.486
20987SOL    HW264403   6.910   4.590   7.404
20988SOL     OW64404   6.660   5.075   8.312
20988SOL    HW164405   6.656   5.002   8.250
20988SOL    HW264406   6.714   5.140   8.268
20989SOL     OW64407   5.904   4.557   8.422
20989SOL    HW164408   5.995   4.578   8.444
20989SOL    HW264409   5.900   4.461   8.427
20990SOL     OW64410   5.947   4.256   8.478
20990SOL    HW164411   5.894   4.180   8.454
20990SOL    HW264412   6.018   4.257   8.414
20991SOL     OW64413   6.718   4.083   9.136
20991SOL    HW164414   6.665   4.150   9.178
20991SOL    HW264415   6.807   4.120   9.134
20992SOL     OW64416   6.735   3.930   8.906
20992SOL    HW164417   6.737   3.984   8.985
20992SOL    HW264418   6.774   3.986   8.838
20993SOL     OW64419   5.611   5.036   7.635
20993SOL    HW164420   5.522   5.059   7.606
20993SOL    HW264421   5.601   4.950   7.676
20994SOL     OW64422   5.681   5.485   8.372
20994SOL    HW164423   5.664   5.408   8.317
20994SOL    HW264424   5.767   5.516   8.345
20995SOL     OW64425   6.078   5.308   8.348
20995SOL    HW164426   6.151   5.363   8.376
20995SOL    HW264427   6.117   5.244   8.288
20996SOL     OW64428   6.582   4.497   8.674
20996SOL    HW164429   6.606   4.492   8.767
20996SOL    HW264430   6.492   4.530   8.674
20997SOL     OW64431   5.649   4.285   8.544
20997SOL    HW164432   5.603   4.213   8.501
20997SOL    HW264433   5.686   4.336   8.473
20998SOL     OW64434   5.775   4.232   9.171
20998SOL    HW164435   5.776   4.160   9.108
20998SOL    HW264436   5.721   4.299   9.130
20999SOL     OW64437   6.967   4.658   9.107
20999SOL    HW164438   6.990   4.751   9.098
20999SOL    HW264439   6.961   4.626   9.017
21000SOL     OW64440   6.399   4.306   7.800
21000SOL    HW164441   6.401   4.229   7.743
21000SOL    HW264442   6.321   4.354   7.773
21001SOL     OW64443   7.225   4.331   8.631
21001SOL    HW164444   7.218   4.265   8.701
21001SOL    HW264445   7.306   4.308   8.586
21002SOL     OW64446   5.834   5.269   9.178
21002SOL    HW164447   5.802   5.331   9.243
21002SOL    HW264448   5.827   5.184   9.221
21003SOL     OW64449   6.299   4.146   8.706
21003SOL    HW164450   6.237   4.073   8.701
21003SOL    HW264451   6.251   4.221   8.672
21004SOL     OW64452   6.494   5.387   8.886
21004SOL    HW164453   6.482   5.363   8.794
21004SOL    HW264454   6.490   5.482   8.888
21005SOL     OW64455   6.040   4.220   7.677
21005SOL    HW164456   6.096   4.297   7.672
21005SOL    HW264457   5.957   4.247   7.638
21006SOL     OW64458   5.731   4.872   8.937
21006SOL    HW164459   5.730   4.824   9.020
21006SOL    HW264460   5.737   4.803   8.870
21007SOL     OW64461   6.906   4.784   8.677
21007SOL    HW164462   6.978   4.784   8.615
21007SOL    HW264463   6.832   4.819   8.628
21008SOL     OW64464   6.894   4.569   7.765
21008SOL    HW164465   6.807   4.549   7.802
21008SOL    HW264466   6.883   4.558   7.671
21009SOL     OW64467   7.322   5.459   8.567
21009SOL    HW164468   7.403   5.487   8.525
21009SOL    HW264469   7.323   5.363   8.559
21010SOL     OW64470   6.829   5.454   8.557
21010SOL    HW164471   6.914   5.482   8.524
21010SOL    HW264472   6.839   5.360   8.572
21011SOL     OW64473   5.657   5.031   8.435
21011SOL    HW164474   5.650   5.026   8.531
21011SOL    HW264475   5.604   4.959   8.403
21012SOL     OW64476   6.268   5.421   9.161
21012SOL    HW164477   6.203   5.487   9.188
21012SOL    HW264478   6.288   5.443   9.070
21013SOL     OW64479   7.325   3.893   7.953
21013SOL    HW164480   7.389   3.872   7.884
21013SOL    HW264481   7.298   3.809   7.987
21014SOL     OW64482   6.997   5.326   7.921
21014SOL    HW164483   6.982   5.345   7.828
21014SOL    HW264484   6.930   5.376   7.967
21015SOL     OW64485   5.726   5.519   9.286
21015SOL    HW164486   5.678   5.452   9.334
21015SOL    HW264487   5.767   5.572   9.354
21016SOL     OW64488   6.885   4.655   8.162
21016SOL    HW164489   6.965   4.606   8.142
21016SOL    HW264490   6.885   4.728   8.100
21017SOL     OW64491   6.363   5.013   8.852
21017SOL    HW164492   6.305   5.040   8.923
21017SOL    HW264493   6.307   5.010   8.774
21018SOL     OW64494   6.259   5.352   7.598
21018SOL    HW164495   6.268   5.367   7.504
21018SOL    HW264496   6.194   5.283   7.606
21019SOL     OW64497   7.192   5.460   8.826
21019SOL    HW164498   7.248   5.461   8.749
21019SOL    HW264499   7.186   5.552   8.852
21020SOL     OW64500   7.374   3.891   8.432
21020SOL    HW164501   7.453   3.841   8.412
21020SOL    HW264502   7.315   3.872   8.359
21021SOL     OW64503   5.839   4.070   8.170
21021SOL    HW164504   5.753   4.094   8.136
21021SOL    HW264505   5.825   4.053   8.263
21022SOL     OW64506   6.787   5.326   7.481
21022SOL    HW164507   6.778   5.234   7.506
21022SOL    HW264508   6.722   5.339   7.412
21023SOL     OW64509   6.453   4.751   8.827
21023SOL    HW164510   6.403   4.708   8.758
21023SOL    HW264511   6.416   4.839   8.832
21024SOL     OW64512   6.539   4.671   7.759
21024SOL    HW164513   6.588   4.705   7.683
21024SOL    HW264514   6.526   4.578   7.739
21025SOL     OW64515   7.059   5.366   7.477
21025SOL    HW164516   6.967   5.349   7.459
21025SOL    HW264517   7.101   5.367   7.391
21026SOL     OW64518   5.959   5.040   8.943
21026SOL    HW164519   5.942   5.111   8.881
21026SOL    HW264520   5.886   4.979   8.929
21027SOL     OW64521   7.200   5.005   8.711
21027SOL    HW164522   7.282   5.002   8.760
21027SOL    HW264523   7.146   5.070   8.756
21028SOL     OW64524   6.633   4.848   8.165
21028SOL    HW164525   6.572   4.792   8.213
21028SOL    HW264526   6.627   4.819   8.074
21029SOL     OW64527   6.595   3.948   8.433
21029SOL    HW164528   6.586   3.904   8.348
21029SOL    HW264529   6.603   3.877   8.496
21030SOL     OW64530   6.159   5.221   7.920
21030SOL    HW164531   6.223   5.170   7.870
21030SOL    HW264532   6.074   5.183   7.895
21031SOL     OW64533   7.312   4.118   8.826
21031SOL    HW164534   7.385   4.179   8.822
21031SOL    HW264535   7.340   4.043   8.775
21032SOL     OW64536   5.870   5.055   7.767
21032SOL    HW164537   5.788   5.053   7.716
21032SOL    HW264538   5.847   5.102   7.847
21033SOL     OW64539   5.712   4.777   9.199
21033SOL    HW164540   5.627   4.747   9.231
21033SOL    HW264541   5.774   4.710   9.230
21034SOL     OW64542   6.262   3.919   8.942
21034SOL    HW164543   6.341   3.898   8.893
21034SOL    HW264544   6.294   3.963   9.021
21035SOL     OW64545   5.667   4.051   7.479
21035SOL    HW164546   5.587   4.024   7.435
21035SOL    HW264547   5.695   4.130   7.431
21036SOL     OW64548   7.004   4.582   8.848
21036SOL    HW164549   6.952   4.639   8.792
21036SOL    HW264550   7.091   4.581   8.807
21037SOL     OW64551   5.653   3.892   7.748
21037SOL    HW164552   5.627   3.961   7.686
21037SOL    HW264553   5.736   3.859   7.713
21038SOL     OW64554   6.753   5.066   7.562
21038SOL    HW164555   6.658   5.064   7.552
21038SOL    HW264556   6.769   5.027   7.648
21039SOL     OW64557   6.221   4.547   8.932
21039SOL    HW164558   6.212   4.592   8.848
21039SOL    HW264559   6.290   4.482   8.918
21040SOL     OW64560   7.076   5.521   8.453
21040SOL    HW164561   7.101   5.591   8.392
21040SOL    HW264562   7.158   5.497   8.496
21041SOL     OW64563   6.356   4.267   9.155
21041SOL    HW164564   6.310   4.312   9.225
21041SOL    HW264565   6.347   4.174   9.175
21042SOL     OW64566   7.060   4.921   9.080
21042SOL    HW164567   7.050   4.934   9.174
21042SOL    HW264568   7.154   4.935   9.064
21043SOL     OW64569   5.954   5.467   9.018
21043SOL    HW164570   5.874   5.513   8.994
21043SOL    HW264571   5.924   5.383   9.054
21044SOL     OW64572   7.242   4.599   8.706
21044SOL    HW164573   7.245   4.510   8.671
21044SOL    HW264574   7.223   4.654   8.630
21045SOL     OW64575   6.800   4.043   7.915
21045SOL    HW164576   6.847   3.959   7.909
21045SOL    HW264577   6.840   4.087   7.989
21046SOL     OW64578   6.178   4.482   8.124
21046SOL    HW164579   6.213   4.565   8.092
21046SOL    HW264580   6.112   4.458   8.059
21047SOL     OW64581   7.332   4.106   9.104
21047SOL    HW164582   7.314   4.110   9.010
21047SOL    HW264583   7.265   4.048   9.139
21048SOL     OW64584   7.344   4.666   8.949
21048SOL    HW164585   7.330   4.761   8.955
21048SOL    HW264586   7.316   4.643   8.861
21049SOL     OW64587   6.484   5.127   7.523
21049SOL    HW164588   6.392   5.138   7.549
21049SOL    HW264589   6.495   5.184   7.447
21050SOL     OW64590   6.257   5.512   8.398
21050SOL    HW164591   6.234   5.601   8.370
21050SOL    HW264592   6.349   5.502   8.373
21051SOL     OW64593   6.455   4.697   8.313
21051SOL    HW164594   6.443   4.609   8.348
21051SOL    HW264595   6.440   4.754   8.389
21052SOL     OW64596   6.701   4.754   7.547
21052SOL    HW164597   6.647   4.773   7.470
21052SOL    HW264598   6.754   4.679   7.520
21053SOL     OW64599   7.439   5.268   8.278
21053SOL    HW164600   7.346   5.260   8.257
21053SOL    HW264601   7.450   5.211   8.355
21054SOL     OW64602   5.794   5.017   9.298
21054SOL    HW164603   5.766   4.938   9.253
21054SOL    HW264604   5.725   5.033   9.363
21055SOL     OW64605   5.685   4.969   8.109
21055SOL    HW164606   5.646   4.912   8.175
21055SOL    HW264607   5.710   4.909   8.038
21056SOL     OW64608   6.293   5.155   9.090
21056SOL    HW164609   6.212   5.106   9.103
21056SOL    HW264610   6.270   5.245   9.111
21057SOL     OW64611   7.415   3.906   8.700
21057SOL    HW164612   7.410   3.810   8.707
21057SOL    HW264613   7.414   3.923   8.606
21058SOL     OW64614   6.061   4.148   8.016
21058SOL    HW164615   6.071   4.098   7.935
21058SOL    HW264616   5.978   4.118   8.053
21059SOL     OW64617   7.287   5.192   8.522
21059SOL    HW164618   7.204   5.183   8.474
21059SOL    HW264619   7.280   5.129   8.593
21060SOL     OW64620   5.888   4.287   8.753
21060SOL    HW164621   5.937   4.220   8.802
21060SOL    HW264622   5.899   4.262   8.661
21061SOL     OW64623   6.411   5.301   8.119
21061SOL    HW164624   6.389   5.352   8.042
21061SOL    HW264625   6.340   5.237   8.127
21062SOL     OW64626   7.020   3.926   8.549
21062SOL    HW164627   7.044   3.835   8.535
21062SOL    HW264628   7.003   3.933   8.643
21063SOL     OW64629   6.592   3.721   8.584
21063SOL    HW164630   6.547   3.656   8.531
21063SOL    HW264631   6.681   3.687   8.593
21064SOL     OW64632   6.345   5.062   7.801
21064SOL    HW164633   6.314   4.972   7.801
21064SOL    HW264634   6.429   5.059   7.755
21065SOL     OW64635   6.201   5.293   8.743
21065SOL    HW164636   6.211   5.375   8.793
21065SOL    HW264637   6.285   5.283   8.698
21066SOL     OW64638   6.955   3.764   7.669
21066SOL    HW164639   6.981   3.713   7.592
21066SOL    HW264640   6.861   3.746   7.678
21067SOL     OW64641   6.898   4.184   8.138
21067SOL    HW164642   6.836   4.256   8.132
21067SOL    HW264643   6.879   4.143   8.222
21068SOL     OW64644   7.136   3.941   8.290
21068SOL    HW164645   7.112   3.943   8.382
21068SOL    HW264646   7.155   4.032   8.268
21069SOL     OW64647   5.638   4.796   7.773
21069SOL    HW164648   5.726   4.784   7.737
21069SOL    HW264649   5.608   4.706   7.792
21070SOL     OW64650   6.475   5.387   7.783
21070SOL    HW164651   6.406   5.365   7.720
21070SOL    HW264652   6.441   5.463   7.831
21071SOL     OW64653   5.809   4.326   9.442
21071SOL    HW164654   5.722   4.319   9.482
21071SOL    HW264655   5.794   4.310   9.349
21072SOL     OW64656   5.791   4.055  10.322
21072SOL    HW164657   5.831   4.012  10.397
21072SOL    HW264658   5.715   4.001  10.300
21073SOL     OW64659   5.573   4.084   9.968
21073SOL    HW164660   5.492   4.122  10.001
21073SOL    HW264661   5.545   4.007   9.919
21074SOL     OW64662   6.148   5.012  10.500
21074SOL    HW164663   6.080   5.027  10.435
21074SOL    HW264664   6.105   5.027  10.584
21075SOL     OW64665   7.163   5.227  10.015
21075SOL    HW164666   7.113   5.210  10.095
21075SOL    HW264667   7.097   5.230   9.946
21076SOL     OW64668   6.709   4.432  10.000
21076SOL    HW164669   6.763   4.511   9.990
21076SOL    HW264670   6.667   4.443  10.085
21077SOL     OW64671   7.346   4.328   9.547
21077SOL    HW164672   7.329   4.323   9.453
21077SOL    HW264673   7.321   4.243   9.582
21078SOL     OW64674   6.330   4.859  10.364
21078SOL    HW164675   6.262   4.898  10.418
21078SOL    HW264676   6.375   4.934  10.324
21079SOL     OW64677   6.461   4.470  11.159
21079SOL    HW164678   6.456   4.515  11.243
21079SOL    HW264679   6.474   4.540  11.095
21080SOL     OW64680   6.264   4.711   9.966
21080SOL    HW164681   6.334   4.709  10.031
21080SOL    HW264682   6.196   4.764  10.006
21081SOL     OW64683   6.285   4.875  11.121
21081SOL    HW164684   6.291   4.961  11.162
21081SOL    HW264685   6.199   4.876  11.077
21082SOL     OW64686   5.932   5.136  10.367
21082SOL    HW164687   5.854   5.116  10.316
21082SOL    HW264688   5.978   5.203  10.315
21083SOL     OW64689   7.046   5.233  10.677
21083SOL    HW164690   7.103   5.310  10.678
21083SOL    HW264691   6.985   5.247  10.749
21084SOL     OW64692   6.035   4.113  10.798
21084SOL    HW164693   6.108   4.052  10.808
21084SOL    HW264694   5.958   4.060  10.820
21085SOL     OW64695   7.204   4.169  10.058
21085SOL    HW164696   7.167   4.215   9.983
21085SOL    HW264697   7.191   4.228  10.132
21086SOL     OW64698   5.803   5.433   9.787
21086SOL    HW164699   5.824   5.508   9.843
21086SOL    HW264700   5.844   5.454   9.703
21087SOL     OW64701   6.721   5.024  11.004
21087SOL    HW164702   6.755   5.032  11.093
21087SOL    HW264703   6.789   4.975  10.957
21088SOL     OW64704   5.871   5.171   9.878
21088SOL    HW164705   5.827   5.256   9.870
21088SOL    HW264706   5.806   5.115   9.920
21089SOL     OW64707   5.835   4.792  10.205
21089SOL    HW164708   5.844   4.697  10.208
21089SOL    HW264709   5.741   4.808  10.215
21090SOL     OW64710   6.224   5.506  10.764
21090SOL    HW164711   6.133   5.493  10.790
21090SOL    HW264712   6.238   5.600  10.772
21091SOL     OW64713   6.220   4.690   9.428
21091SOL    HW164714   6.250   4.759   9.368
21091SOL    HW264715   6.219   4.733   9.514
21092SOL     OW64716   7.138   3.866  10.768
21092SOL    HW164717   7.199   3.926  10.725
21092SOL    HW264718   7.136   3.894  10.859
21093SOL     OW64719   5.738   4.324   9.953
21093SOL    HW164720   5.671   4.264   9.919
21093SOL    HW264721   5.722   4.406   9.907
21094SOL     OW64722   7.441   5.489   9.637
21094SOL    HW164723   7.511   5.464   9.698
21094SOL    HW264724   7.478   5.560   9.585
21095SOL     OW64725   5.639   5.314   9.435
21095SOL    HW164726   5.614   5.224   9.453
21095SOL    HW264727   5.604   5.364   9.509
21096SOL     OW64728   7.275   4.626   9.957
21096SOL    HW164729   7.364   4.593   9.970
21096SOL    HW264730   7.277   4.668   9.871
21097SOL     OW64731   7.252   4.825   9.734
21097SOL    HW164732   7.343   4.818   9.704
21097SOL    HW264733   7.256   4.884   9.809
21098SOL     OW64734   5.707   4.472  10.882
21098SOL    HW164735   5.790   4.519  10.895
21098SOL    HW264736   5.641   4.542  10.878
21099SOL     OW64737   6.175   5.127  10.029
21099SOL    HW164738   6.171   5.034  10.049
21099SOL    HW264739   6.088   5.147   9.993
21100SOL     OW64740   6.864   4.955  10.741
21100SOL    HW164741   6.884   4.890  10.674
21100SOL    HW264742   6.941   4.954  10.798
21101SOL     OW64743   6.408   3.737   9.839
21101SOL    HW164744   6.440   3.821   9.806
21101SOL    HW264745   6.312   3.747   9.841
21102SOL     OW64746   5.737   4.686  10.550
21102SOL    HW164747   5.824   4.646  10.551
21102SOL    HW264748   5.676   4.612  10.546
21103SOL     OW64749   7.122   4.734   9.516
21103SOL    HW164750   7.054   4.674   9.545
21103SOL    HW264751   7.167   4.761   9.596
21104SOL     OW64752   6.705   5.518  10.880
21104SOL    HW164753   6.748   5.593  10.840
21104SOL    HW264754   6.769   5.447  10.873
21105SOL     OW64755   5.935   3.989  11.139
21105SOL    HW164756   5.974   4.061  11.188
21105SOL    HW264757   5.843   3.990  11.164
21106SOL     OW64758   7.008   5.167  10.229
21106SOL    HW164759   6.970   5.173  10.317
21106SOL    HW264760   7.002   5.074  10.207
21107SOL     OW64761   7.223   5.480   9.901
21107SOL    HW164762   7.207   5.451   9.811
21107SOL    HW264763   7.224   5.399   9.953
21108SOL     OW64764   6.179   4.453   9.580
21108SOL    HW164765   6.166   4.532   9.528
21108SOL    HW264766   6.113   4.459   9.649
21109SOL     OW64767   6.864   4.091  10.247
21109SOL    HW164768   6.777   4.055  10.261
21109SOL    HW264769   6.920   4.039  10.305
21110SOL     OW64770   7.175   5.395   9.630
21110SOL    HW164771   7.264   5.430   9.626
21110SOL    HW264772   7.150   5.383   9.539
21111SOL     OW64773   6.379   4.347  10.751
21111SOL    HW164774   6.357   4.322  10.840
21111SOL    HW264775   6.348   4.275  10.697
21112SOL     OW64776   6.994   4.190  10.990
21112SOL    HW164777   6.993   4.236  11.074
21112SOL    HW264778   7.051   4.115  11.005
21113SOL     OW64779   6.532   4.665  10.937
21113SOL    HW164780   6.595   4.599  10.912
21113SOL    HW264781   6.481   4.682  10.858
21114SOL     OW64782   6.572   4.085  10.563
21114SOL    HW164783   6.486   4.126  10.574
21114SOL    HW264784   6.577   4.067  10.469
21115SOL     OW64785   6.636   4.435   9.730
21115SOL    HW164786   6.660   4.439   9.823
21115SOL    HW264787   6.553   4.386   9.729
21116SOL     OW64788   5.671   4.556  10.149
21116SOL    HW164789   5.718   4.567  10.067
21116SOL    HW264790   5.579   4.567  10.126
21117SOL     OW64791   5.700   5.588  10.890
21117SOL    HW164792   5.711   5.583  10.985
21117SOL    HW264793   5.635   5.520  10.870
21118SOL     OW64794   6.493   4.074   9.504
21118SOL    HW164795   6.530   4.146   9.452
21118SOL    HW264796   6.485   4.001   9.442
21119SOL     OW64797   7.281   4.307  11.130
21119SOL    HW164798   7.241   4.382  11.086
21119SOL    HW264799   7.282   4.238  11.063
21120SOL     OW64800   6.972   4.865   9.843
21120SOL    HW164801   7.056   4.857   9.798
21120SOL    HW264802   6.922   4.927   9.789
21121SOL     OW64803   6.149   3.891  10.216
21121SOL    HW164804   6.147   3.923  10.307
21121SOL    HW264805   6.134   3.970  10.163
21122SOL     OW64806   6.570   5.161   9.773
21122SOL    HW164807   6.545   5.244   9.732
21122SOL    HW264808   6.565   5.179   9.867
21123SOL     OW64809   5.944   5.541  10.177
21123SOL    HW164810   5.991   5.459  10.196
21123SOL    HW264811   6.004   5.610  10.205
21124SOL     OW64812   7.371   4.782  10.177
21124SOL    HW164813   7.313   4.756  10.105
21124SOL    HW264814   7.312   4.797  10.251
21125SOL     OW64815   6.813   5.262  10.829
21125SOL    HW164816   6.810   5.195  10.897
21125SOL    HW264817   6.764   5.223  10.756
21126SOL     OW64818   5.886   4.684   9.534
21126SOL    HW164819   5.904   4.659   9.444
21126SOL    HW264820   5.855   4.603   9.576
21127SOL     OW64821   7.057   4.482  10.038
21127SOL    HW164822   7.061   4.435  10.122
21127SOL    HW264823   7.139   4.532  10.035
21128SOL     OW64824   6.035   4.913  11.032
21128SOL    HW164825   6.012   4.989  10.979
21128SOL    HW264826   5.965   4.908  11.097
21129SOL     OW64827   6.701   5.498   9.537
21129SOL    HW164828   6.630   5.453   9.582
21129SOL    HW264829   6.735   5.433   9.475
21130SOL     OW64830   5.783   3.988  10.810
21130SOL    HW164831   5.704   4.039  10.829
21130SOL    HW264832   5.764   3.901  10.844
21131SOL     OW64833   7.236   5.089   9.400
21131SOL    HW164834   7.202   5.178   9.394
21131SOL    HW264835   7.160   5.033   9.383
21132SOL     OW64836   6.118   5.424   9.648
21132SOL    HW164837   6.118   5.494   9.713
21132SOL    HW264838   6.152   5.465   9.569
21133SOL     OW64839   7.008   3.810   9.744
21133SOL    HW164840   6.999   3.794   9.650
21133SOL    HW264841   7.102   3.813   9.759
21134SOL     OW64842   5.852   5.533  10.528
21134SOL    HW164843   5.904   5.466  10.572
21134SOL    HW264844   5.789   5.484  10.476
21135SOL     OW64845   6.550   5.419  10.210
21135SOL    HW164846   6.637   5.379  10.205
21135SOL    HW264847   6.496   5.366  10.151
21136SOL     OW64848   5.996   4.432   9.779
21136SOL    HW164849   5.979   4.339   9.794
21136SOL    HW264850   5.912   4.474   9.796
21137SOL     OW64851   7.115   3.927  11.045
21137SOL    HW164852   7.117   3.961  11.134
21137SOL    HW264853   7.089   3.835  11.055
21138SOL     OW64854   6.224   3.803   9.430
21138SOL    HW164855   6.306   3.759   9.405
21138SOL    HW264856   6.167   3.791   9.353
21139SOL     OW64857   6.347   3.995  11.055
21139SOL    HW164858   6.429   3.948  11.045
21139SOL    HW264859   6.327   3.990  11.149
21140SOL     OW64860   6.907   4.321  10.757
21140SOL    HW164861   6.957   4.290  10.833
21140SOL    HW264862   6.948   4.404  10.734
21141SOL     OW64863   6.424   5.110  10.288
21141SOL    HW164864   6.506   5.099  10.242
21141SOL    HW264865   6.363   5.144  10.222
21142SOL     OW64866   6.514   4.230  10.214
21142SOL    HW164867   6.494   4.220  10.121
21142SOL    HW264868   6.545   4.144  10.242
21143SOL     OW64869   6.141   3.790   9.813
21143SOL    HW164870   6.057   3.785   9.859
21143SOL    HW264871   6.132   3.865   9.754
21144SOL     OW64872   7.019   4.932   9.353
21144SOL    HW164873   7.042   4.855   9.406
21144SOL    HW264874   6.932   4.956   9.383
21145SOL     OW64875   5.869   3.779   9.496
21145SOL    HW164876   5.905   3.847   9.438
21145SOL    HW264877   5.938   3.713   9.502
21146SOL     OW64878   6.527   3.979   9.762
21146SOL    HW164879   6.505   4.007   9.673
21146SOL    HW264880   6.622   3.995   9.768
21147SOL     OW64881   6.660   4.448  10.790
21147SOL    HW164882   6.593   4.380  10.798
21147SOL    HW264883   6.743   4.401  10.784
21148SOL     OW64884   6.793   5.306  10.113
21148SOL    HW164885   6.823   5.370  10.049
21148SOL    HW264886   6.873   5.272  10.153
21149SOL     OW64887   6.055   4.874  10.048
21149SOL    HW164888   5.984   4.851  10.108
21149SOL    HW264889   6.017   4.865   9.961
21150SOL     OW64890   6.855   5.517   9.926
21150SOL    HW164891   6.907   5.576   9.872
21150SOL    HW264892   6.785   5.572   9.961
21151SOL     OW64893   6.602   4.293   9.362
21151SOL    HW164894   6.599   4.334   9.275
21151SOL    HW264895   6.696   4.284   9.381
21152SOL     OW64896   5.676   4.280  10.691
21152SOL    HW164897   5.770   4.276  10.673
21152SOL    HW264898   5.668   4.348  10.758
21153SOL     OW64899   6.144   3.952  10.489
21153SOL    HW164900   6.183   3.879  10.539
21153SOL    HW264901   6.051   3.950  10.512
21154SOL     OW64902   6.448   4.175   9.955
21154SOL    HW164903   6.371   4.219   9.918
21154SOL    HW264904   6.468   4.105   9.892
21155SOL     OW64905   6.631   3.754  10.009
21155SOL    HW164906   6.549   3.753   9.960
21155SOL    HW264907   6.615   3.694  10.083
21156SOL     OW64908   6.979   4.913  10.144
21156SOL    HW164909   6.987   4.831  10.193
21156SOL    HW264910   6.993   4.887  10.053
21157SOL     OW64911   7.048   4.319  10.262
21157SOL    HW164912   6.985   4.248  10.270
21157SOL    HW264913   7.105   4.309  10.339
21158SOL     OW64914   7.435   4.542   9.687
21158SOL    HW164915   7.490   4.494   9.749
21158SOL    HW264916   7.400   4.474   9.629
21159SOL     OW64917   6.065   5.136   9.429
21159SOL    HW164918   5.980   5.111   9.464
21159SOL    HW264919   6.069   5.097   9.342
21160SOL     OW64920   7.276   4.983   9.943
21160SOL    HW164921   7.367   4.977   9.970
21160SOL    HW264922   7.247   5.068   9.974
21161SOL     OW64923   6.984   4.310   9.381
21161SOL    HW164924   6.922   4.296   9.452
21161SOL    HW264925   7.052   4.244   9.395
21162SOL     OW64926   6.122   3.989   9.627
21162SOL    HW164927   6.157   3.934   9.557
21162SOL    HW264928   6.092   4.069   9.582
21163SOL     OW64929   7.327   4.982  10.877
21163SOL    HW164930   7.412   4.941  10.863
21163SOL    HW264931   7.347   5.064  10.922
21164SOL     OW64932   6.631   5.076  10.667
21164SOL    HW164933   6.566   5.028  10.718
21164SOL    HW264934   6.713   5.032  10.686
21165SOL     OW64935   7.178   5.357  10.961
21165SOL    HW164936   7.177   5.393  10.873
21165SOL    HW264937   7.262   5.312  10.968
21166SOL     OW64938   6.727   4.954  10.412
21166SOL    HW164939   6.643   4.968  10.456
21166SOL    HW264940   6.710   4.976  10.320
21167SOL     OW64941   7.218   4.850  10.390
21167SOL    HW164942   7.199   4.905  10.466
21167SOL    HW264943   7.222   4.761  10.426
21168SOL     OW64944   6.508   3.841  10.687
21168SOL    HW164945   6.534   3.795  10.607
21168SOL    HW264946   6.523   3.933  10.667
21169SOL     OW64947   6.289   4.798   9.690
21169SOL    HW164948   6.230   4.784   9.764
21169SOL    HW264949   6.366   4.745   9.710
21170SOL     OW64950   5.986   4.537  10.556
21170SOL    HW164951   6.051   4.557  10.624
21170SOL    HW264952   5.965   4.445  10.570
21171SOL     OW64953   6.837   4.075  10.652
21171SOL    HW164954   6.875   4.161  10.673
21171SOL    HW264955   6.756   4.095  10.607
21172SOL     OW64956   5.654   5.317  10.619
21172SOL    HW164957   5.604   5.321  10.700
21172SOL    HW264958   5.745   5.327  10.646
21173SOL     OW64959   5.967   4.846   9.789
21173SOL    HW164960   5.934   4.883   9.707
21173SOL    HW264961   5.919   4.763   9.798
21174SOL     OW64962   6.101   4.252  10.162
21174SOL    HW164963   6.135   4.307  10.091
21174SOL    HW264964   6.159   4.270  10.236
21175SOL     OW64965   6.830   5.077   9.694
21175SOL    HW164966   6.885   5.146   9.730
21175SOL    HW264967   6.743   5.092   9.730
21176SOL     OW64968   6.876   5.187  10.467
21176SOL    HW164969   6.936   5.187  10.542
21176SOL    HW264970   6.837   5.100  10.468
21177SOL     OW64971   7.163   4.333   9.819
21177SOL    HW164972   7.117   4.396   9.875
21177SOL    HW264973   7.204   4.386   9.751
21178SOL     OW64974   5.948   5.287  10.603
21178SOL    HW164975   5.935   5.216  10.541
21178SOL    HW264976   5.962   5.243  10.687
21179SOL     OW64977   6.005   4.473  10.921
21179SOL    HW164978   6.062   4.521  10.861
21179SOL    HW264979   6.050   4.390  10.937
21180SOL     OW64980   7.170   4.504  10.989
21180SOL    HW164981   7.087   4.550  10.983
21180SOL    HW264982   7.225   4.543  10.921
21181SOL     OW64983   6.595   3.848  11.036
21181SOL    HW164984   6.641   3.910  11.092
21181SOL    HW264985   6.586   3.769  11.090
21182SOL     OW64986   6.085   3.764  11.051
21182SOL    HW164987   6.030   3.712  10.993
21182SOL    HW264988   6.032   3.841  11.072
21183SOL     OW64989   6.179   4.599  10.353
21183SOL    HW164990   6.215   4.688  10.353
21183SOL    HW264991   6.121   4.597  10.429
21184SOL     OW64992   6.953   4.613  10.322
21184SOL    HW164993   6.899   4.541  10.290
21184SOL    HW264994   7.032   4.570  10.355
21185SOL     OW64995   6.793   4.270   9.568
21185SOL    HW164996   6.822   4.183   9.596
21185SOL    HW264997   6.752   4.308   9.645
21186SOL     OW64998   5.881   3.933  10.553
21186SOL    HW164999   5.841   3.955  10.637
21186SOL    HW265000   5.868   3.839  10.545
21187SOL     OW65001   5.660   5.043  10.595
21187SOL    HW165002   5.658   5.017  10.687
21187SOL    HW265003   5.664   5.138  10.596
21188SOL     OW65004   6.286   4.340  10.349
21188SOL    HW165005   6.367   4.329  10.299
21188SOL    HW265006   6.267   4.433  10.343
21189SOL     OW65007   7.326   4.656  11.167
21189SOL    HW165008   7.268   4.610  11.106
21189SOL    HW265009   7.267   4.688  11.236
21190SOL     OW65010   5.895   3.793   9.932
21190SOL    HW165011   5.860   3.880   9.955
21190SOL    HW265012   5.899   3.747  10.016
21191SOL     OW65013   7.242   4.105   9.684
21191SOL    HW165014   7.260   4.029   9.740
21191SOL    HW265015   7.211   4.173   9.744
21192SOL     OW65016   6.602   4.483  10.266
21192SOL    HW165017   6.599   4.499  10.360
21192SOL    HW265018   6.579   4.390  10.258
21193SOL     OW65019   6.577   5.270  11.042
21193SOL    HW165020   6.557   5.329  10.969
21193SOL    HW265021   6.605   5.189  11.000
21194SOL     OW65022   7.427   5.249  10.918
21194SOL    HW165023   7.460   5.266  10.830
21194SOL    HW265024   7.505   5.247  10.973
21195SOL     OW65025   5.921   4.578  11.167
21195SOL    HW165026   5.997   4.632  11.191
21195SOL    HW265027   5.941   4.544  11.080
21196SOL     OW65028   7.036   4.066   9.507
21196SOL    HW165029   7.055   4.018   9.426
21196SOL    HW265030   7.118   4.064   9.556
21197SOL     OW65031   6.869   4.548   9.336
21197SOL    HW165032   6.919   4.467   9.342
21197SOL    HW265033   6.899   4.588   9.254
21198SOL     OW65034   6.655   5.058  10.164
21198SOL    HW165035   6.662   4.985  10.102
21198SOL    HW265036   6.713   5.125  10.130
21199SOL     OW65037   5.938   4.478  10.263
21199SOL    HW165038   6.026   4.517  10.266
21199SOL    HW265039   5.895   4.510  10.342
21200SOL     OW65040   6.738   4.103  10.981
21200SOL    HW165041   6.683   4.149  11.044
21200SOL    HW265042   6.822   4.147  10.986
21201SOL     OW65043   5.602   5.046   9.496
21201SOL    HW165044   5.512   5.059   9.467
21201SOL    HW265045   5.601   4.960   9.539
21202SOL     OW65046   5.684   5.499  10.251
21202SOL    HW165047   5.655   5.422  10.203
21202SOL    HW265048   5.775   5.512  10.223
21203SOL     OW65049   6.090   5.307  10.224
21203SOL    HW165050   6.157   5.373  10.239
21203SOL    HW265051   6.131   5.244  10.165
21204SOL     OW65052   6.546   4.511  10.540
21204SOL    HW165053   6.613   4.511  10.609
21204SOL    HW265054   6.473   4.463  10.578
21205SOL     OW65055   5.628   4.261  10.422
21205SOL    HW165056   5.680   4.187  10.390
21205SOL    HW265057   5.651   4.269  10.514
21206SOL     OW65058   5.765   4.278  11.066
21206SOL    HW165059   5.837   4.228  11.027
21206SOL    HW265060   5.738   4.338  10.997
21207SOL     OW65061   6.955   4.668  10.960
21207SOL    HW165062   6.990   4.756  10.957
21207SOL    HW265063   6.957   4.637  10.869
21208SOL     OW65064   6.412   4.325   9.619
21208SOL    HW165065   6.407   4.233   9.593
21208SOL    HW265066   6.322   4.357   9.614
21209SOL     OW65067   7.212   4.267  10.472
21209SOL    HW165068   7.216   4.357  10.506
21209SOL    HW265069   7.302   4.247  10.448
21210SOL     OW65070   6.309   4.167  10.557
21210SOL    HW165071   6.247   4.095  10.543
21210SOL    HW265072   6.292   4.228  10.486
21211SOL     OW65073   6.500   5.392  10.733
21211SOL    HW165074   6.422   5.448  10.738
21211SOL    HW265075   6.570   5.445  10.771
21212SOL     OW65076   6.052   4.219   9.504
21212SOL    HW165077   6.098   4.300   9.524
21212SOL    HW265078   5.962   4.247   9.484
21213SOL     OW65079   5.809   4.828  10.780
21213SOL    HW165080   5.766   4.795  10.858
21213SOL    HW265081   5.767   4.782  10.707
21214SOL     OW65082   6.886   4.772  10.535
21214SOL    HW165083   6.928   4.719  10.467
21214SOL    HW265084   6.831   4.833  10.486
21215SOL     OW65085   6.916   4.584   9.609
21215SOL    HW165086   6.851   4.546   9.667
21215SOL    HW265087   6.887   4.561   9.521
21216SOL     OW65088   7.345   5.466  10.463
21216SOL    HW165089   7.408   5.486  10.393
21216SOL    HW265090   7.328   5.372  10.453
21217SOL     OW65091   6.835   5.460  10.428
21217SOL    HW165092   6.922   5.487  10.396
21217SOL    HW265093   6.844   5.366  10.442
21218SOL     OW65094   6.265   5.406  11.054
21218SOL    HW165095   6.178   5.444  11.070
21218SOL    HW265096   6.299   5.456  10.980
21219SOL     OW65097   7.305   3.871   9.820
21219SOL    HW165098   7.375   3.855   9.757
21219SOL    HW265099   7.293   3.787   9.865
21220SOL     OW65100   6.976   5.291   9.800
21220SOL    HW165101   7.040   5.325   9.737
21220SOL    HW265102   6.932   5.368   9.834
21221SOL     OW65103   5.730   5.547  11.151
21221SOL    HW165104   5.690   5.469  11.188
21221SOL    HW265105   5.782   5.583  11.223
21222SOL     OW65106   6.858   4.653   9.968
21222SOL    HW165107   6.932   4.599   9.994
21222SOL    HW265108   6.898   4.724   9.917
21223SOL     OW65109   6.359   5.024  10.719
21223SOL    HW165110   6.334   5.060  10.805
21223SOL    HW265111   6.276   5.003  10.677
21224SOL     OW65112   6.276   5.322   9.420
21224SOL    HW165113   6.283   5.368   9.336
21224SOL    HW265114   6.200   5.265   9.410
21225SOL     OW65115   7.194   5.467  10.700
21225SOL    HW165116   7.255   5.461  10.626
21225SOL    HW265117   7.188   5.560  10.718
21226SOL     OW65118   7.425   3.892  10.272
21226SOL    HW165119   7.455   3.802  10.255
21226SOL    HW265120   7.339   3.897  10.230
21227SOL     OW65121   5.833   4.049  10.043
21227SOL    HW165122   5.744   4.062  10.010
21227SOL    HW265123   5.821   4.024  10.134
21228SOL     OW65124   6.822   5.332   9.346
21228SOL    HW165125   6.801   5.240   9.362
21228SOL    HW265126   6.790   5.348   9.257
21229SOL     OW65127   6.411   4.737  10.698
21229SOL    HW165128   6.454   4.709  10.617
21229SOL    HW265129   6.400   4.832  10.688
21230SOL     OW65130   7.106   5.334   9.358
21230SOL    HW165131   7.010   5.337   9.354
21230SOL    HW265132   7.134   5.347   9.267
21231SOL     OW65133   5.998   5.019  10.721
21231SOL    HW165134   5.982   5.079  10.794
21231SOL    HW265135   5.935   4.948  10.735
21232SOL     OW65136   7.176   5.000  10.616
21232SOL    HW165137   7.240   4.985  10.685
21232SOL    HW265138   7.132   5.081  10.641
21233SOL     OW65139   6.645   4.833  10.013
21233SOL    HW165140   6.578   4.781  10.057
21233SOL    HW265141   6.717   4.771   9.998
21234SOL     OW65142   6.609   3.968  10.286
21234SOL    HW165143   6.597   3.928  10.200
21234SOL    HW265144   6.608   3.894  10.347
21235SOL     OW65145   7.339   4.075  10.736
21235SOL    HW165146   7.378   4.159  10.713
21235SOL    HW265147   7.352   4.021  10.658
21236SOL     OW65148   5.873   5.088   9.619
21236SOL    HW165149   5.788   5.069   9.580
21236SOL    HW265150   5.854   5.106   9.711
21237SOL     OW65151   5.691   4.745  11.020
21237SOL    HW165152   5.613   4.721  11.071
21237SOL    HW265153   5.754   4.774  11.086
21238SOL     OW65154   6.256   3.916  10.808
21238SOL    HW165155   6.343   3.892  10.776
21238SOL    HW265156   6.271   3.944  10.898
21239SOL     OW65157   5.650   4.030   9.345
21239SOL    HW165158   5.560   4.008   9.319
21239SOL    HW265159   5.666   4.116   9.307
21240SOL     OW65160   6.990   4.582  10.706
21240SOL    HW165161   6.945   4.647  10.653
21240SOL    HW265162   7.075   4.571  10.664
21241SOL     OW65163   5.639   3.874   9.616
21241SOL    HW165164   5.612   3.945   9.557
21241SOL    HW265165   5.726   3.848   9.583
21242SOL     OW65166   6.762   5.067   9.423
21242SOL    HW165167   6.670   5.042   9.428
21242SOL    HW265168   6.792   5.066   9.514
21243SOL     OW65169   6.200   4.556  10.733
21243SOL    HW165170   6.258   4.632  10.731
21243SOL    HW265171   6.258   4.481  10.742
21244SOL     OW65172   7.090   5.550  10.347
21244SOL    HW165173   7.102   5.562  10.253
21244SOL    HW265174   7.163   5.495  10.374
21245SOL     OW65175   6.314   4.280  11.003
21245SOL    HW165176   6.352   4.334  11.073
21245SOL    HW265177   6.319   4.190  11.036
21246SOL     OW65178   7.055   4.930  10.938
21246SOL    HW165179   7.050   4.938  11.033
21246SOL    HW265180   7.148   4.942  10.918
21247SOL     OW65181   5.960   5.501  10.847
21247SOL    HW165182   5.870   5.531  10.850
21247SOL    HW265183   5.956   5.411  10.880
21248SOL     OW65184   6.803   4.011   9.784
21248SOL    HW165185   6.883   4.005   9.731
21248SOL    HW265186   6.823   4.078   9.850
21249SOL     OW65187   6.181   4.443   9.981
21249SOL    HW165188   6.215   4.533   9.977
21249SOL    HW265189   6.119   4.438   9.908
21250SOL     OW65190   7.349   4.076  11.008
21250SOL    HW165191   7.356   4.080  10.912
21250SOL    HW265192   7.283   4.008  11.024
21251SOL     OW65193   7.305   4.655  10.817
21251SOL    HW165194   7.346   4.741  10.820
21251SOL    HW265195   7.297   4.635  10.723
21252SOL     OW65196   6.449   5.098   9.395
21252SOL    HW165197   6.410   5.081   9.480
21252SOL    HW265198   6.424   5.188   9.375
21253SOL     OW65199   6.263   5.508  10.239
21253SOL    HW165200   6.230   5.598  10.235
21253SOL    HW265201   6.358   5.519  10.251
21254SOL     OW65202   6.457   4.697  10.165
21254SOL    HW165203   6.506   4.622  10.199
21254SOL    HW265204   6.418   4.737  10.243
21255SOL     OW65205   6.651   4.682   9.422
21255SOL    HW165206   6.619   4.742   9.354
21255SOL    HW265207   6.735   4.651   9.390
21256SOL     OW65208   7.433   5.256  10.153
21256SOL    HW165209   7.350   5.232  10.112
21256SOL    HW265210   7.456   5.179  10.206
21257SOL     OW65211   5.820   4.936  11.195
21257SOL    HW165212   5.743   4.987  11.170
21257SOL    HW265213   5.840   4.965  11.284
21258SOL     OW65214   5.691   4.964   9.967
21258SOL    HW165215   5.659   4.929  10.051
21258SOL    HW265216   5.715   4.886   9.917
21259SOL     OW65217   6.270   5.145  10.948
21259SOL    HW165218   6.175   5.135  10.949
21259SOL    HW265219   6.286   5.230  10.988
21260SOL     OW65220   7.363   3.887  10.542
21260SOL    HW165221   7.383   3.793  10.542
21260SOL    HW265222   7.386   3.917  10.454
21261SOL     OW65223   6.013   4.161   9.847
21261SOL    HW165224   6.041   4.098   9.780
21261SOL    HW265225   5.954   4.111   9.904
21262SOL     OW65226   7.279   5.209  10.431
21262SOL    HW165227   7.217   5.155  10.382
21262SOL    HW265228   7.327   5.146  10.485
21263SOL     OW65229   5.938   4.268  10.601
21263SOL    HW165230   5.979   4.226  10.676
21263SOL    HW265231   5.947   4.204  10.530
21264SOL     OW65232   6.410   5.292  10.003
21264SOL    HW165233   6.390   5.365   9.944
21264SOL    HW265234   6.331   5.236   9.999
21265SOL     OW65235   7.017   3.956  10.427
21265SOL    HW165236   7.063   3.878  10.457
21265SOL    HW265237   6.994   4.003  10.507
21266SOL     OW65238   6.599   3.739  10.445
21266SOL    HW165239   6.544   3.670  10.408
21266SOL    HW265240   6.687   3.702  10.445
21267SOL     OW65241   6.323   5.069   9.657
21267SOL    HW165242   6.313   4.974   9.664
21267SOL    HW265243   6.407   5.088   9.698
21268SOL     OW65244   6.250   5.317  10.566
21268SOL    HW165245   6.234   5.378  10.637
21268SOL    HW265246   6.165   5.308  10.522
21269SOL     OW65247   6.956   3.766   9.481
21269SOL    HW165248   6.999   3.800   9.402
21269SOL    HW265249   6.876   3.725   9.449
21270SOL     OW65250   6.851   4.184   9.983
21270SOL    HW165251   6.813   4.271   9.991
21270SOL    HW265252   6.869   4.157  10.074
21271SOL     OW65253   7.164   3.918  10.185
21271SOL    HW165254   7.114   3.947  10.262
21271SOL    HW265255   7.173   3.996  10.131
21272SOL     OW65256   5.649   4.808   9.622
21272SOL    HW165257   5.717   4.779   9.562
21272SOL    HW265258   5.654   4.748   9.696
21273SOL     OW65259   6.462   5.382   9.652
21273SOL    HW165260   6.396   5.379   9.583
21273SOL    HW265261   6.438   5.458   9.705
21274SOL     OW65262   5.807   3.995  12.164
21274SOL    HW165263   5.840   3.967  12.250
21274SOL    HW265264   5.720   3.956  12.159
21275SOL     OW65265   6.143   5.037  12.329
21275SOL    HW165266   6.052   5.009  12.338
21275SOL    HW265267   6.188   4.998  12.404
21276SOL     OW65268   7.154   5.200  11.873
21276SOL    HW165269   7.101   5.197  11.953
21276SOL    HW265270   7.089   5.213  11.803
21277SOL     OW65271   6.765   4.410  11.887
21277SOL    HW165272   6.723   4.424  11.802
21277SOL    HW265273   6.700   4.440  11.951
21278SOL     OW65274   7.367   4.289  11.391
21278SOL    HW165275   7.304   4.323  11.328
21278SOL    HW265276   7.315   4.238  11.452
21279SOL     OW65277   6.355   4.868  12.178
21279SOL    HW165278   6.371   4.831  12.265
21279SOL    HW265279   6.322   4.956  12.195
21280SOL     OW65280   6.266   4.715  11.813
21280SOL    HW165281   6.337   4.707  11.877
21280SOL    HW265282   6.202   4.772  11.855
21281SOL     OW65283   5.879   5.191  12.222
21281SOL    HW165284   5.826   5.121  12.183
21281SOL    HW265285   5.949   5.206  12.158
21282SOL     OW65286   7.184   4.162  11.916
21282SOL    HW165287   7.099   4.166  11.871
21282SOL    HW265288   7.186   4.242  11.969
21283SOL     OW65289   5.841   5.417  11.688
21283SOL    HW165290   5.863   5.504  11.721
21283SOL    HW265291   5.771   5.432  11.624
21284SOL     OW65292   5.842   5.148  11.705
21284SOL    HW165293   5.839   5.244  11.712
21284SOL    HW265294   5.779   5.117  11.770
21285SOL     OW65295   5.857   4.817  12.061
21285SOL    HW165296   5.858   4.730  12.099
21285SOL    HW265297   5.799   4.868  12.117
21286SOL     OW65298   6.165   4.714  11.323
21286SOL    HW165299   6.206   4.762  11.253
21286SOL    HW265300   6.211   4.742  11.403
21287SOL     OW65301   5.701   4.407  11.732
21287SOL    HW165302   5.632   4.343  11.750
21287SOL    HW265303   5.701   4.465  11.808
21288SOL     OW65304   7.436   5.477  11.502
21288SOL    HW165305   7.506   5.450  11.561
21288SOL    HW265306   7.455   5.568  11.482
21289SOL     OW65307   5.624   5.329  11.276
21289SOL    HW165308   5.595   5.239  11.292
21289SOL    HW265309   5.609   5.374  11.360
21290SOL     OW65310   7.291   4.658  11.829
21290SOL    HW165311   7.368   4.602  11.838
21290SOL    HW265312   7.285   4.676  11.735
21291SOL     OW65313   7.250   4.832  11.580
21291SOL    HW165314   7.336   4.823  11.540
21291SOL    HW265315   7.259   4.902  11.644
21292SOL     OW65316   5.773   4.468   0.243
21292SOL    HW165317   5.799   4.430   0.327
21292SOL    HW265318   5.680   4.490   0.254
21293SOL     OW65319   6.209   5.114  11.893
21293SOL    HW165320   6.162   5.031  11.904
21293SOL    HW265321   6.187   5.143  11.805
21294SOL     OW65322   6.408   3.734  11.706
21294SOL    HW165323   6.445   3.813  11.667
21294SOL    HW265324   6.314   3.747  11.704
21295SOL     OW65325   5.767   4.710  12.434
21295SOL    HW165326   5.848   4.661  12.425
21295SOL    HW265327   5.699   4.652  12.399
21296SOL     OW65328   7.125   4.735  11.355
21296SOL    HW165329   7.054   4.684  11.392
21296SOL    HW265330   7.175   4.767  11.430
21297SOL     OW65331   7.083   5.116  12.129
21297SOL    HW165332   7.009   5.144  12.183
21297SOL    HW265333   7.053   5.034  12.089
21298SOL     OW65334   7.240   5.474  11.752
21298SOL    HW165335   7.221   5.442  11.663
21298SOL    HW265336   7.212   5.403  11.809
21299SOL     OW65337   6.167   4.439  11.427
21299SOL    HW165338   6.180   4.527  11.391
21299SOL    HW265339   6.110   4.451  11.502
21300SOL     OW65340   6.871   4.085  12.111
21300SOL    HW165341   6.782   4.050  12.115
21300SOL    HW265342   6.922   4.029  12.170
21301SOL     OW65343   7.167   5.406  11.482
21301SOL    HW165344   7.261   5.424  11.477
21301SOL    HW265345   7.142   5.383  11.392
21302SOL     OW65346   6.575   4.053  12.404
21302SOL    HW165347   6.494   4.102  12.419
21302SOL    HW265348   6.567   4.021  12.314
21303SOL     OW65349   5.679   4.572  11.943
21303SOL    HW165350   5.756   4.559  11.998
21303SOL    HW265351   5.627   4.638  11.989
21304SOL     OW65352   6.455   4.063  11.317
21304SOL    HW165353   6.525   4.119  11.283
21304SOL    HW265354   6.498   4.004  11.378
21305SOL     OW65355   6.988   4.884  11.708
21305SOL    HW165356   7.050   4.856  11.640
21305SOL    HW265357   6.925   4.939  11.662
21306SOL     OW65358   6.150   3.912  12.072
21306SOL    HW165359   6.153   3.931  12.165
21306SOL    HW265360   6.151   3.998  12.030
21307SOL     OW65361   6.577   5.169  11.633
21307SOL    HW165362   6.554   5.250  11.588
21307SOL    HW265363   6.552   5.185  11.724
21308SOL     OW65364   5.931   5.538  12.053
21308SOL    HW165365   5.979   5.455  12.050
21308SOL    HW265366   5.997   5.604  12.071
21309SOL     OW65367   7.316   4.833  12.046
21309SOL    HW165368   7.295   4.766  11.982
21309SOL    HW265369   7.263   4.810  12.123
21310SOL     OW65370   5.907   4.709  11.424
21310SOL    HW165371   5.999   4.721  11.402
21310SOL    HW265372   5.872   4.655  11.352
21311SOL     OW65373   7.090   4.447  11.878
21311SOL    HW165374   7.046   4.421  11.958
21311SOL    HW265375   7.128   4.533  11.897
21312SOL     OW65376   6.722   5.508  11.390
21312SOL    HW165377   6.645   5.478  11.438
21312SOL    HW265378   6.739   5.437  11.328
21313SOL     OW65379   7.206   5.112  11.255
21313SOL    HW165380   7.164   5.197  11.243
21313SOL    HW265381   7.139   5.048  11.231
21314SOL     OW65382   6.071   5.473  11.458
21314SOL    HW165383   6.099   5.514  11.540
21314SOL    HW265384   6.147   5.423  11.428
21315SOL     OW65385   6.987   3.830  11.616
21315SOL    HW165386   6.989   3.803  11.524
21315SOL    HW265387   7.079   3.835  11.641
21316SOL     OW65388   5.778   5.478  12.385
21316SOL    HW165389   5.786   5.508  12.476
21316SOL    HW265390   5.830   5.397  12.382
21317SOL     OW65391   6.516   5.420  12.072
21317SOL    HW165392   6.547   5.350  12.130
21317SOL    HW265393   6.477   5.375  11.998
21318SOL     OW65394   5.972   4.411  11.629
21318SOL    HW165395   5.987   4.319  11.652
21318SOL    HW265396   5.884   4.429  11.661
21319SOL     OW65397   6.226   3.818  11.281
21319SOL    HW165398   6.259   3.733  11.311
21319SOL    HW265399   6.181   3.799  11.199
21320SOL     OW65400   6.403   5.151  12.096
21320SOL    HW165401   6.486   5.109  12.074
21320SOL    HW265402   6.340   5.116  12.034
21321SOL     OW65403   6.520   4.228  12.080
21321SOL    HW165404   6.492   4.222  11.989
21321SOL    HW265405   6.548   4.139  12.103
21322SOL     OW65406   6.138   3.784  11.667
21322SOL    HW165407   6.060   3.790  11.721
21322SOL    HW265408   6.133   3.859  11.608
21323SOL     OW65409   7.004   4.930  11.206
21323SOL    HW165410   7.045   4.859  11.255
21323SOL    HW265411   6.935   4.962  11.265
21324SOL     OW65412   5.877   3.775  11.362
21324SOL    HW165413   5.944   3.841  11.342
21324SOL    HW265414   5.925   3.705  11.407
21325SOL     OW65415   6.518   3.983  11.613
21325SOL    HW165416   6.480   4.067  11.587
21325SOL    HW265417   6.612   4.002  11.623
21326SOL     OW65418   6.835   5.279  11.959
21326SOL    HW165419   6.837   5.353  11.899
21326SOL    HW265420   6.845   5.318  12.046
21327SOL     OW65421   6.060   4.882  11.891
21327SOL    HW165422   5.999   4.862  11.962
21327SOL    HW265423   6.009   4.868  11.811
21328SOL     OW65424   6.850   5.507  11.781
21328SOL    HW165425   6.895   5.578  11.734
21328SOL    HW265426   6.776   5.550  11.823
21329SOL     OW65427   6.625   4.245  11.189
21329SOL    HW165428   6.575   4.326  11.182
21329SOL    HW265429   6.679   4.257  11.267
21330SOL     OW65430   6.155   3.954  12.345
21330SOL    HW165431   6.189   3.908  12.422
21330SOL    HW265432   6.061   3.960  12.361
21331SOL     OW65433   6.453   4.184  11.822
21331SOL    HW165434   6.429   4.248  11.755
21331SOL    HW265435   6.458   4.101  11.775
21332SOL     OW65436   6.608   3.767  11.909
21332SOL    HW165437   6.543   3.761  11.840
21332SOL    HW265438   6.586   3.696  11.970
21333SOL     OW65439   7.016   4.893  11.989
21333SOL    HW165440   6.968   4.814  12.014
21333SOL    HW265441   7.003   4.900  11.895
21334SOL     OW65442   7.039   4.329  12.133
21334SOL    HW165443   6.985   4.250  12.139
21334SOL    HW265444   7.102   4.320  12.204
21335SOL     OW65445   7.424   4.515  11.551
21335SOL    HW165446   7.480   4.472  11.615
21335SOL    HW265447   7.407   4.447  11.485
21336SOL     OW65448   6.071   5.148  11.297
21336SOL    HW165449   6.002   5.119  11.357
21336SOL    HW265450   6.025   5.168  11.216
21337SOL     OW65451   6.973   4.290  11.244
21337SOL    HW165452   6.904   4.270  11.307
21337SOL    HW265453   7.053   4.255  11.284
21338SOL     OW65454   6.119   3.979  11.475
21338SOL    HW165455   6.171   3.931  11.411
21338SOL    HW265456   6.100   4.063  11.432
21339SOL     OW65457   6.695   4.940  12.288
21339SOL    HW165458   6.612   4.926  12.332
21339SOL    HW265459   6.671   4.975  12.202
21340SOL     OW65460   7.185   4.813  12.293
21340SOL    HW165461   7.200   4.873  12.367
21340SOL    HW265462   7.090   4.802  12.291
21341SOL     OW65463   6.305   4.779  11.548
21341SOL    HW165464   6.286   4.763  11.641
21341SOL    HW265465   6.374   4.716  11.527
21342SOL     OW65466   6.007   4.554  12.440
21342SOL    HW165467   6.067   4.579  12.511
21342SOL    HW265468   5.975   4.467  12.466
21343SOL     OW65469   6.849   4.103  12.431
21343SOL    HW165470   6.894   4.185  12.454
21343SOL    HW265471   6.769   4.131  12.386
21344SOL     OW65472   5.908   4.847  11.664
21344SOL    HW165473   5.906   4.930  11.617
21344SOL    HW265474   5.912   4.780  11.596
21345SOL     OW65475   6.129   4.241  12.019
21345SOL    HW165476   6.145   4.306  11.950
21345SOL    HW265477   6.187   4.266  12.090
21346SOL     OW65478   6.829   5.081  11.559
21346SOL    HW165479   6.886   5.149  11.594
21346SOL    HW265480   6.744   5.098  11.598
21347SOL     OW65481   6.873   5.165  12.297
21347SOL    HW165482   6.919   5.177  12.379
21347SOL    HW265483   6.813   5.093  12.313
21348SOL     OW65484   7.178   4.357  11.635
21348SOL    HW165485   7.131   4.378  11.716
21348SOL    HW265486   7.227   4.437  11.615
21349SOL     OW65487   5.960   5.267  12.464
21349SOL    HW165488   5.924   5.223  12.387
21349SOL    HW265489   6.052   5.283  12.441
21350SOL     OW65490   6.155   4.596  12.209
21350SOL    HW165491   6.211   4.672  12.219
21350SOL    HW265492   6.110   4.588  12.293
21351SOL     OW65493   6.920   4.577  12.160
21351SOL    HW165494   6.844   4.566  12.103
21351SOL    HW265495   6.964   4.492  12.157
21352SOL     OW65496   6.775   4.230  11.423
21352SOL    HW165497   6.788   4.160  11.487
21352SOL    HW265498   6.745   4.305  11.474
21353SOL     OW65499   5.892   3.940  12.416
21353SOL    HW165500   5.854   3.993  12.486
21353SOL    HW265501   5.904   3.853  12.455
21354SOL     OW65502   5.657   5.056  12.437
21354SOL    HW165503   5.684   4.980  12.487
21354SOL    HW265504   5.650   5.127  12.501
21355SOL     OW65505   6.288   4.344  12.219
21355SOL    HW165506   6.374   4.342  12.177
21355SOL    HW265507   6.262   4.436  12.215
21356SOL     OW65508   5.890   3.802  11.795
21356SOL    HW165509   5.852   3.886  11.819
21356SOL    HW265510   5.904   3.757  11.879
21357SOL     OW65511   7.208   4.106  11.535
21357SOL    HW165512   7.232   4.041  11.600
21357SOL    HW265513   7.183   4.183  11.586
21358SOL     OW65514   6.612   4.478  12.127
21358SOL    HW165515   6.613   4.489  12.222
21358SOL    HW265516   6.585   4.388  12.113
21359SOL     OW65517   7.111   4.007  11.300
21359SOL    HW165518   7.054   3.934  11.326
21359SOL    HW265519   7.147   4.040  11.382
21360SOL     OW65520   6.859   4.540  11.186
21360SOL    HW165521   6.904   4.456  11.196
21360SOL    HW265522   6.898   4.579  11.108
21361SOL     OW65523   6.654   5.062  12.028
21361SOL    HW165524   6.657   4.989  11.966
21361SOL    HW265525   6.720   5.123  11.995
21362SOL     OW65526   5.895   4.537  12.113
21362SOL    HW165527   5.987   4.558  12.128
21362SOL    HW265528   5.886   4.446  12.141
21363SOL     OW65529   5.892   4.255  12.159
21363SOL    HW165530   5.870   4.162  12.167
21363SOL    HW265531   5.978   4.256  12.117
21364SOL     OW65532   5.599   5.044  11.356
21364SOL    HW165533   5.511   5.062  11.322
21364SOL    HW265534   5.592   4.958  11.397
21365SOL     OW65535   6.080   5.302  12.062
21365SOL    HW165536   6.148   5.360  12.094
21365SOL    HW265537   6.127   5.233  12.014
21366SOL     OW65538   6.602   4.489  12.402
21366SOL    HW165539   6.678   4.524  12.449
21366SOL    HW265540   6.534   4.556  12.415
21367SOL     OW65541   5.619   4.243  12.274
21367SOL    HW165542   5.712   4.256  12.254
21367SOL    HW265543   5.618   4.193  12.356
21368SOL     OW65544   6.358   4.217  11.531
21368SOL    HW165545   6.370   4.179  11.444
21368SOL    HW265546   6.315   4.301  11.515
21369SOL     OW65547   7.232   4.317  12.331
21369SOL    HW165548   7.226   4.266  12.411
21369SOL    HW265549   7.323   4.310  12.304
21370SOL     OW65550   6.330   4.165  12.428
21370SOL    HW165551   6.258   4.105  12.412
21370SOL    HW265552   6.312   4.240  12.370
21371SOL     OW65553   6.497   5.385   0.057
21371SOL    HW165554   6.492   5.467   0.007
21371SOL    HW265555   6.534   5.411   0.141
21372SOL     OW65556   6.017   4.215  11.366
21372SOL    HW165557   6.075   4.291  11.364
21372SOL    HW265558   5.970   4.223  11.449
21373SOL     OW65559   6.885   4.748  12.364
21373SOL    HW165560   6.892   4.693  12.286
21373SOL    HW265561   6.826   4.819  12.338
21374SOL     OW65562   6.905   4.616  11.452
21374SOL    HW165563   6.846   4.577  11.517
21374SOL    HW265564   6.880   4.574  11.369
21375SOL     OW65565   7.347   5.483  12.279
21375SOL    HW165566   7.424   5.486  12.222
21375SOL    HW265567   7.333   5.390  12.295
21376SOL     OW65568   6.833   5.441  12.242
21376SOL    HW165569   6.921   5.471  12.218
21376SOL    HW265570   6.846   5.353  12.278
21377SOL     OW65571   5.680   4.990  12.177
21377SOL    HW165572   5.669   5.017  12.268
21377SOL    HW265573   5.600   4.942  12.156
21378SOL     OW65574   7.304   3.881  11.677
21378SOL    HW165575   7.372   3.859  11.614
21378SOL    HW265576   7.284   3.798  11.721
21379SOL     OW65577   6.983   5.290  11.658
21379SOL    HW165578   7.039   5.333  11.594
21379SOL    HW265579   6.932   5.361  11.697
21380SOL     OW65580   6.873   4.676  11.867
21380SOL    HW165581   6.867   4.584  11.843
21380SOL    HW265582   6.914   4.718  11.792
21381SOL     OW65583   6.272   5.331  11.324
21381SOL    HW165584   6.282   5.358  11.232
21381SOL    HW265585   6.207   5.261  11.322
21382SOL     OW65586   7.200   5.503   0.020
21382SOL    HW165587   7.268   5.534  -0.041
21382SOL    HW265588   7.215   5.553   0.100
21383SOL     OW65589   7.433   3.897  12.136
21383SOL    HW165590   7.461   3.809  12.114
21383SOL    HW265591   7.343   3.904  12.102
21384SOL     OW65592   5.808   4.052  11.897
21384SOL    HW165593   5.812   4.147  11.899
21384SOL    HW265594   5.813   4.025  11.989
21385SOL     OW65595   6.796   5.314  11.201
21385SOL    HW165596   6.790   5.228  11.241
21385SOL    HW265597   6.719   5.321  11.145
21386SOL     OW65598   6.490   4.616  11.400
21386SOL    HW165599   6.561   4.680  11.388
21386SOL    HW265600   6.523   4.554  11.464
21387SOL     OW65601   7.070   5.360  11.217
21387SOL    HW165602   6.976   5.347  11.203
21387SOL    HW265603   7.107   5.365  11.129
21388SOL     OW65604   6.651   4.840  11.872
21388SOL    HW165605   6.579   4.787  11.906
21388SOL    HW265606   6.725   4.779  11.868
21389SOL     OW65607   6.620   3.952  12.132
21389SOL    HW165608   6.615   3.909  12.047
21389SOL    HW265609   6.620   3.879  12.195
21390SOL     OW65610   6.173   5.221  11.641
21390SOL    HW165611   6.190   5.176  11.558
21390SOL    HW265612   6.085   5.259  11.630
21391SOL     OW65613   7.362   4.150   0.034
21391SOL    HW165614   7.454   4.176   0.032
21391SOL    HW265615   7.361   4.062  -0.004
21392SOL     OW65616   5.853   5.064  11.452
21392SOL    HW165617   5.762   5.075  11.423
21392SOL    HW265618   5.855   5.103  11.540
21393SOL     OW65619   5.669   4.052  11.209
21393SOL    HW165620   5.578   4.025  11.197
21393SOL    HW265621   5.680   4.127  11.150
21394SOL     OW65622   5.644   3.876  11.479
21394SOL    HW165623   5.634   3.960  11.433
21394SOL    HW265624   5.730   3.844  11.450
21395SOL     OW65625   6.758   5.053  11.297
21395SOL    HW165626   6.662   5.052  11.298
21395SOL    HW265627   6.783   5.061  11.389
21396SOL     OW65628   7.091   5.506  12.147
21396SOL    HW165629   7.103   5.589  12.101
21396SOL    HW265630   7.165   5.501  12.207
21397SOL     OW65631   7.310   4.586  12.417
21397SOL    HW165632   7.272   4.504  12.385
21397SOL    HW265633   7.265   4.654  12.368
21398SOL     OW65634   6.799   4.040  11.628
21398SOL    HW165635   6.859   3.966  11.627
21398SOL    HW265636   6.828   4.092  11.703
21399SOL     OW65637   6.165   4.449  11.836
21399SOL    HW165638   6.209   4.534  11.837
21399SOL    HW265639   6.101   4.456  11.766
21400SOL     OW65640   7.348   4.633   0.188
21400SOL    HW165641   7.263   4.676   0.199
21400SOL    HW265642   7.351   4.608   0.096
21401SOL     OW65643   6.485   5.057  11.214
21401SOL    HW165644   6.444   5.060  11.301
21401SOL    HW265645   6.478   5.147  11.182
21402SOL     OW65646   6.245   5.512  12.115
21402SOL    HW165647   6.230   5.603  12.091
21402SOL    HW265648   6.340   5.501  12.110
21403SOL     OW65649   6.462   4.690  12.005
21403SOL    HW165650   6.507   4.622  12.055
21403SOL    HW265651   6.427   4.749  12.071
21404SOL     OW65652   6.690   4.755  11.215
21404SOL    HW165653   6.751   4.802  11.272
21404SOL    HW265654   6.731   4.670  11.201
21405SOL     OW65655   7.410   5.259  12.032
21405SOL    HW165656   7.336   5.319  12.019
21405SOL    HW265657   7.407   5.236  12.124
21406SOL     OW65658   5.684   4.953  11.844
21406SOL    HW165659   5.689   4.916  11.932
21406SOL    HW265660   5.752   4.908  11.795
21407SOL     OW65661   7.414   3.907  12.413
21407SOL    HW165662   7.389   3.815  12.424
21407SOL    HW265663   7.419   3.919  12.318
21408SOL     OW65664   5.998   4.146  11.671
21408SOL    HW165665   6.052   4.081  11.626
21408SOL    HW265666   5.981   4.107  11.757
21409SOL     OW65667   7.301   5.213  12.279
21409SOL    HW165668   7.215   5.184  12.248
21409SOL    HW265669   7.307   5.178  12.368
21410SOL     OW65670   6.416   5.307  11.835
21410SOL    HW165671   6.368   5.364  11.775
21410SOL    HW265672   6.352   5.241  11.863
21411SOL     OW65673   7.028   3.948  12.292
21411SOL    HW165674   7.071   3.879  12.342
21411SOL    HW265675   6.975   3.995  12.357
21412SOL     OW65676   6.603   3.732  12.311
21412SOL    HW165677   6.549   3.674  12.257
21412SOL    HW265678   6.689   3.691  12.309
21413SOL     OW65679   6.396   5.031  11.465
21413SOL    HW165680   6.356   4.952  11.502
21413SOL    HW265681   6.448   5.068  11.536
21414SOL     OW65682   6.968   3.771  11.338
21414SOL    HW165683   7.006   3.689  11.309
21414SOL    HW265684   6.875   3.752  11.350
21415SOL     OW65685   6.904   4.174  11.852
21415SOL    HW165686   6.862   4.260  11.854
21415SOL    HW265687   6.890   4.138  11.940
21416SOL     OW65688   7.172   3.916  12.057
21416SOL    HW165689   7.118   3.938  12.132
21416SOL    HW265690   7.170   3.995  12.002
21417SOL     OW65691   5.631   4.794  11.476
21417SOL    HW165692   5.727   4.801  11.472
21417SOL    HW265693   5.614   4.699  11.478
21418SOL     OW65694   6.487   5.392  11.498
21418SOL    HW165695   6.410   5.370  11.446
21418SOL    HW265696   6.457   5.458  11.560
21419SOL     OW65697   5.838   6.185   0.025
21419SOL    HW165698   5.814   6.241   0.099
21419SOL    HW265699   5.763   6.127   0.014
21420SOL     OW65700   5.804   5.875   0.991
21420SOL    HW165701   5.837   5.838   1.072
21420SOL    HW265702   5.717   5.838   0.980
21421SOL     OW65703   5.583   5.978   0.637
21421SOL    HW165704   5.506   6.004   0.687
21421SOL    HW265705   5.558   5.896   0.595
21422SOL     OW65706   6.181   6.868   1.205
21422SOL    HW165707   6.143   6.839   1.122
21422SOL    HW265708   6.169   6.963   1.204
21423SOL     OW65709   7.156   7.113   0.722
21423SOL    HW165710   7.116   7.085   0.804
21423SOL    HW265711   7.084   7.115   0.659
21424SOL     OW65712   6.726   6.279   0.697
21424SOL    HW165713   6.765   6.364   0.677
21424SOL    HW265714   6.682   6.292   0.781
21425SOL     OW65715   7.308   6.166   0.237
21425SOL    HW165716   7.237   6.175   0.174
21425SOL    HW265717   7.280   6.097   0.296
21426SOL     OW65718   6.414   6.741   1.077
21426SOL    HW165719   6.329   6.728   1.118
21426SOL    HW265720   6.406   6.823   1.029
21427SOL     OW65721   6.495   6.412   1.867
21427SOL    HW165722   6.403   6.386   1.870
21427SOL    HW265723   6.514   6.423   1.774
21428SOL     OW65724   6.256   6.595   0.664
21428SOL    HW165725   6.332   6.582   0.721
21428SOL    HW265726   6.193   6.642   0.719
21429SOL     OW65727   6.316   6.773   1.816
21429SOL    HW165728   6.366   6.834   1.871
21429SOL    HW265729   6.279   6.828   1.747
21430SOL     OW65730   5.858   7.099   1.039
21430SOL    HW165731   5.812   7.016   1.025
21430SOL    HW265732   5.942   7.087   0.995
21431SOL     OW65733   7.047   7.095   1.376
21431SOL    HW165734   7.096   7.177   1.384
21431SOL    HW265735   6.969   7.109   1.429
21432SOL     OW65736   6.016   6.017   1.531
21432SOL    HW165737   6.102   6.010   1.489
21432SOL    HW265738   5.976   5.931   1.516
21433SOL     OW65739   7.176   6.064   0.749
21433SOL    HW165740   7.093   6.031   0.713
21433SOL    HW265741   7.157   6.077   0.842
21434SOL     OW65742   5.798   7.305   0.481
21434SOL    HW165743   5.820   7.386   0.527
21434SOL    HW265744   5.868   7.294   0.416
21435SOL     OW65745   6.735   6.927   1.688
21435SOL    HW165746   6.819   6.881   1.693
21435SOL    HW265747   6.670   6.857   1.694
21436SOL     OW65748   5.833   7.028   0.533
21436SOL    HW165749   5.794   7.115   0.541
21436SOL    HW265750   5.784   6.974   0.594
21437SOL     OW65751   5.810   6.656   0.900
21437SOL    HW165752   5.838   6.566   0.914
21437SOL    HW265753   5.891   6.707   0.900
21438SOL     OW65754   6.179   7.377   1.423
21438SOL    HW165755   6.101   7.355   1.474
21438SOL    HW265756   6.205   7.463   1.456
21439SOL     OW65757   6.165   6.576   0.161
21439SOL    HW165758   6.249   6.575   0.116
21439SOL    HW265759   6.183   6.615   0.246
21440SOL     OW65760   7.191   5.706   1.477
21440SOL    HW165761   7.222   5.783   1.429
21440SOL    HW265762   7.155   5.741   1.558
21441SOL     OW65763   5.700   6.240   0.560
21441SOL    HW165764   5.672   6.152   0.584
21441SOL    HW265765   5.691   6.290   0.641
21442SOL     OW65766   7.442   7.327   0.348
21442SOL    HW165767   7.436   7.317   0.443
21442SOL    HW265768   7.482   7.413   0.335
21443SOL     OW65769   5.603   7.132   0.101
21443SOL    HW165770   5.519   7.087   0.111
21443SOL    HW265771   5.602   7.201   0.167
21444SOL     OW65772   7.320   6.529   0.655
21444SOL    HW165773   7.354   6.499   0.571
21444SOL    HW265774   7.225   6.530   0.643
21445SOL     OW65775   7.222   6.720   0.414
21445SOL    HW165776   7.302   6.725   0.363
21445SOL    HW265777   7.238   6.776   0.489
21446SOL     OW65778   5.715   6.316   1.585
21446SOL    HW165779   5.807   6.343   1.588
21446SOL    HW265780   5.666   6.399   1.583
21447SOL     OW65781   6.220   6.991   0.734
21447SOL    HW165782   6.181   6.915   0.777
21447SOL    HW265783   6.188   6.986   0.644
21448SOL     OW65784   6.865   6.831   1.410
21448SOL    HW165785   6.887   6.762   1.348
21448SOL    HW265786   6.926   6.820   1.482
21449SOL     OW65787   6.406   5.585   0.525
21449SOL    HW165788   6.446   5.668   0.501
21449SOL    HW265789   6.313   5.604   0.530
21450SOL     OW65790   5.776   6.547   1.277
21450SOL    HW165791   5.861   6.505   1.265
21450SOL    HW265792   5.727   6.526   1.197
21451SOL     OW65793   7.099   6.572   0.219
21451SOL    HW165794   7.023   6.521   0.243
21451SOL    HW265795   7.124   6.618   0.299
21452SOL     OW65796   6.784   7.394   1.628
21452SOL    HW165797   6.781   7.462   1.560
21452SOL    HW265798   6.790   7.312   1.580
21453SOL     OW65799   5.930   5.828   1.846
21453SOL    HW165800   5.983   5.906   1.864
21453SOL    HW265801   5.839   5.857   1.857
21454SOL     OW65802   7.056   7.011   0.951
21454SOL    HW165803   6.989   7.018   1.019
21454SOL    HW265804   7.042   6.923   0.914
21455SOL     OW65805   7.252   7.331   0.569
21455SOL    HW165806   7.183   7.308   0.506
21455SOL    HW265807   7.240   7.269   0.641
21456SOL     OW65808   6.155   6.300   0.267
21456SOL    HW165809   6.188   6.389   0.263
21456SOL    HW265810   6.097   6.299   0.343
21457SOL     OW65811   6.854   5.962   0.935
21457SOL    HW165812   6.765   5.929   0.946
21457SOL    HW265813   6.908   5.903   0.986
21458SOL     OW65814   7.183   7.254   0.288
21458SOL    HW165815   7.272   7.266   0.321
21458SOL    HW265816   7.179   7.162   0.263
21459SOL     OW65817   6.390   6.209   1.472
21459SOL    HW165818   6.364   6.189   1.562
21459SOL    HW265819   6.352   6.138   1.420
21460SOL     OW65820   6.981   6.067   1.671
21460SOL    HW165821   6.986   6.114   1.754
21460SOL    HW265822   7.037   5.990   1.683
21461SOL     OW65823   6.542   6.475   1.589
21461SOL    HW165824   6.592   6.404   1.548
21461SOL    HW265825   6.485   6.507   1.519
21462SOL     OW65826   6.568   5.980   1.241
21462SOL    HW165827   6.480   5.986   1.277
21462SOL    HW265828   6.555   5.961   1.148
21463SOL     OW65829   6.604   6.331   0.444
21463SOL    HW165830   6.642   6.302   0.527
21463SOL    HW265831   6.540   6.262   0.422
21464SOL     OW65832   5.676   6.414   0.769
21464SOL    HW165833   5.754   6.394   0.821
21464SOL    HW265834   5.648   6.500   0.799
21465SOL     OW65835   5.683   7.408   1.518
21465SOL    HW165836   5.699   7.410   1.613
21465SOL    HW265837   5.622   7.480   1.504
21466SOL     OW65838   6.460   5.946   0.217
21466SOL    HW165839   6.490   6.010   0.152
21466SOL    HW265840   6.471   5.861   0.173
21467SOL     OW65841   7.302   6.167   1.824
21467SOL    HW165842   7.266   6.239   1.773
21467SOL    HW265843   7.317   6.097   1.761
21468SOL     OW65844   6.969   6.733   0.542
21468SOL    HW165845   7.049   6.734   0.491
21468SOL    HW265846   6.911   6.794   0.497
21469SOL     OW65847   6.184   5.804   0.868
21469SOL    HW165848   6.158   5.788   0.958
21469SOL    HW265849   6.166   5.897   0.854
21470SOL     OW65850   6.582   7.028   0.469
21470SOL    HW165851   6.545   7.104   0.424
21470SOL    HW265852   6.558   7.040   0.561
21471SOL     OW65853   5.948   7.405   0.874
21471SOL    HW165854   6.009   7.331   0.879
21471SOL    HW265855   6.000   7.481   0.899
21472SOL     OW65856   7.395   6.706   0.842
21472SOL    HW165857   7.361   6.637   0.785
21472SOL    HW265858   7.337   6.704   0.919
21473SOL     OW65859   6.806   7.135   1.509
21473SOL    HW165860   6.798   7.065   1.573
21473SOL    HW265861   6.741   7.115   1.442
21474SOL     OW65862   5.899   6.575   0.248
21474SOL    HW165863   5.985   6.576   0.207
21474SOL    HW265864   5.868   6.485   0.238
21475SOL     OW65865   7.056   6.347   0.731
21475SOL    HW165866   7.025   6.261   0.759
21475SOL    HW265867   7.070   6.395   0.813
21476SOL     OW65868   6.686   7.368   0.248
21476SOL    HW165869   6.622   7.324   0.304
21476SOL    HW265870   6.734   7.297   0.207
21477SOL     OW65871   5.766   5.847   1.509
21477SOL    HW165872   5.721   5.924   1.473
21477SOL    HW265873   5.780   5.867   1.601
21478SOL     OW65874   7.216   7.023   0.124
21478SOL    HW165875   7.167   7.075   0.060
21478SOL    HW265876   7.178   6.935   0.118
21479SOL     OW65877   6.032   7.325   0.313
21479SOL    HW165878   6.083   7.373   0.379
21479SOL    HW265879   6.098   7.273   0.266
21480SOL     OW65880   7.000   5.685   0.433
21480SOL    HW165881   6.998   5.644   0.346
21480SOL    HW265882   7.086   5.662   0.468
21481SOL     OW65883   5.855   7.359   1.230
21481SOL    HW165884   5.884   7.344   1.320
21481SOL    HW265885   5.887   7.284   1.181
21482SOL     OW65886   6.519   7.288   0.894
21482SOL    HW165887   6.566   7.223   0.947
21482SOL    HW265888   6.486   7.238   0.819
21483SOL     OW65889   5.974   6.279   0.476
21483SOL    HW165890   5.991   6.186   0.488
21483SOL    HW265891   5.890   6.294   0.521
21484SOL     OW65892   7.103   5.813   1.724
21484SOL    HW165893   7.118   5.825   1.818
21484SOL    HW265894   7.016   5.775   1.719
21485SOL     OW65895   6.221   5.686   0.105
21485SOL    HW165896   6.317   5.691   0.114
21485SOL    HW265897   6.203   5.593   0.092
21486SOL     OW65898   6.340   5.863   1.770
21486SOL    HW165899   6.425   5.819   1.774
21486SOL    HW265900   6.329   5.901   1.857
21487SOL     OW65901   6.464   7.123   1.193
21487SOL    HW165902   6.445   7.075   1.112
21487SOL    HW265903   6.528   7.069   1.239
21488SOL     OW65904   6.919   6.167   1.423
21488SOL    HW165905   6.950   6.140   1.509
21488SOL    HW265906   6.952   6.256   1.412
21489SOL     OW65907   6.415   6.991   0.951
21489SOL    HW165908   6.496   6.970   0.905
21489SOL    HW265909   6.347   6.983   0.885
21490SOL     OW65910   6.491   6.098   0.900
21490SOL    HW165911   6.477   6.089   0.806
21490SOL    HW265912   6.524   6.013   0.928
21491SOL     OW65913   6.138   5.637   0.498
21491SOL    HW165914   6.073   5.638   0.568
21491SOL    HW265915   6.122   5.719   0.450
21492SOL     OW65916   7.065   6.802   0.065
21492SOL    HW165917   7.078   6.717   0.108
21492SOL    HW265918   6.970   6.810   0.055
21493SOL     OW65919   5.893   5.646   0.182
21493SOL    HW165920   5.957   5.713   0.207
21493SOL    HW265921   5.926   5.566   0.223
21494SOL     OW65922   6.518   5.826   0.463
21494SOL    HW165923   6.501   5.873   0.381
21494SOL    HW265924   6.613   5.834   0.475
21495SOL     OW65925   6.659   6.277   1.443
21495SOL    HW165926   6.582   6.220   1.453
21495SOL    HW265927   6.733   6.216   1.437
21496SOL     OW65928   6.826   7.145   0.778
21496SOL    HW165929   6.828   7.228   0.731
21496SOL    HW265930   6.872   7.163   0.860
21497SOL     OW65931   6.845   7.381   0.616
21497SOL    HW165932   6.888   7.448   0.563
21497SOL    HW265933   6.770   7.425   0.655
21498SOL     OW65934   6.591   6.161   0.060
21498SOL    HW165935   6.641   6.215  -0.001
21498SOL    HW265936   6.650   6.148   0.134
21499SOL     OW65937   5.688   6.124   1.392
21499SOL    HW165938   5.779   6.130   1.361
21499SOL    HW265939   5.682   6.190   1.460
21500SOL     OW65940   6.127   5.777   1.133
21500SOL    HW165941   6.182   5.831   1.189
21500SOL    HW265942   6.041   5.778   1.176
21501SOL     OW65943   6.453   6.048   0.635
21501SOL    HW165944   6.418   6.102   0.564
21501SOL    HW265945   6.470   5.963   0.594
21502SOL     OW65946   6.589   5.653   0.762
21502SOL    HW165947   6.523   5.644   0.693
21502SOL    HW265948   6.577   5.575   0.816
21503SOL     OW65949   7.015   6.774   0.829
21503SOL    HW165950   7.021   6.690   0.875
21503SOL    HW265951   6.986   6.750   0.741
21504SOL     OW65952   7.070   6.150   0.981
21504SOL    HW165953   6.984   6.107   0.991
21504SOL    HW265954   7.060   6.235   1.024
21505SOL     OW65955   7.429   6.447   0.421
21505SOL    HW165956   7.486   6.370   0.408
21505SOL    HW265957   7.357   6.433   0.359
21506SOL     OW65958   6.076   6.987   0.175
21506SOL    HW165959   5.995   6.951   0.213
21506SOL    HW265960   6.047   7.030   0.094
21507SOL     OW65961   7.277   6.883   0.616
21507SOL    HW165962   7.334   6.847   0.684
21507SOL    HW265963   7.227   6.952   0.660
21508SOL     OW65964   7.105   6.122   0.062
21508SOL    HW165965   7.026   6.139   0.113
21508SOL    HW265966   7.113   6.027   0.059
21509SOL     OW65967   6.088   5.833   0.304
21509SOL    HW165968   6.152   5.793   0.245
21509SOL    HW265969   6.071   5.919   0.266
21510SOL     OW65970   6.631   6.974   1.357
21510SOL    HW165971   6.554   6.924   1.384
21510SOL    HW265972   6.704   6.914   1.373
21511SOL     OW65973   7.213   7.215   1.662
21511SOL    HW165974   7.205   7.253   1.574
21511SOL    HW265975   7.285   7.153   1.654
21512SOL     OW65976   6.705   6.807   1.097
21512SOL    HW165977   6.618   6.776   1.123
21512SOL    HW265978   6.695   6.831   1.005
21513SOL     OW65979   7.256   6.740   1.067
21513SOL    HW165980   7.222   6.779   1.147
21513SOL    HW265981   7.195   6.669   1.047
21514SOL     OW65982   6.554   5.625   1.398
21514SOL    HW165983   6.554   5.631   1.302
21514SOL    HW265984   6.553   5.716   1.427
21515SOL     OW65985   6.572   6.705   1.724
21515SOL    HW165986   6.481   6.719   1.749
21515SOL    HW265987   6.571   6.625   1.671
21516SOL     OW65988   6.291   6.654   0.390
21516SOL    HW165989   6.277   6.635   0.483
21516SOL    HW265990   6.369   6.603   0.367
21517SOL     OW65991   6.011   6.411   1.249
21517SOL    HW165992   6.081   6.416   1.313
21517SOL    HW265993   5.979   6.321   1.256
21518SOL     OW65994   6.837   5.947   1.287
21518SOL    HW165995   6.869   6.028   1.326
21518SOL    HW265996   6.745   5.964   1.267
21519SOL     OW65997   5.673   7.145   1.369
21519SOL    HW165998   5.657   7.238   1.356
21519SOL    HW265999   5.768   7.135   1.363
21520SOL     OW66000   5.890   6.705   0.498
21520SOL    HW166001   5.910   6.783   0.447
21520SOL    HW266002   5.908   6.632   0.439
21521SOL     OW66003   6.147   6.113   0.868
21521SOL    HW166004   6.161   6.176   0.797
21521SOL    HW266005   6.228   6.117   0.919
21522SOL     OW66006   6.834   6.941   0.399
21522SOL    HW166007   6.887   7.011   0.436
21522SOL    HW266008   6.745   6.958   0.430
21523SOL     OW66009   6.868   7.037   1.147
21523SOL    HW166010   6.913   7.027   1.231
21523SOL    HW266011   6.807   6.964   1.144
21524SOL     OW66012   7.207   6.265   0.521
21524SOL    HW166013   7.141   6.293   0.585
21524SOL    HW266014   7.157   6.252   0.440
21525SOL     OW66015   5.937   7.081   1.316
21525SOL    HW166016   5.915   7.063   1.224
21525SOL    HW266017   6.029   7.108   1.313
21526SOL     OW66018   5.998   6.329   1.602
21526SOL    HW166019   6.066   6.362   1.544
21526SOL    HW266020   6.024   6.239   1.622
21527SOL     OW66021   7.208   6.385   1.682
21527SOL    HW166022   7.114   6.403   1.678
21527SOL    HW266023   7.244   6.431   1.606
21528SOL     OW66024   6.586   5.741   1.780
21528SOL    HW166025   6.637   5.817   1.751
21528SOL    HW266026   6.631   5.666   1.741
21529SOL     OW66027   6.072   5.607   1.764
21529SOL    HW166028   6.037   5.577   1.680
21529SOL    HW266029   6.028   5.690   1.781
21530SOL     OW66030   6.150   6.469   1.009
21530SOL    HW166031   6.143   6.562   0.984
21530SOL    HW266032   6.109   6.465   1.096
21531SOL     OW66033   5.866   5.777   1.246
21531SOL    HW166034   5.830   5.802   1.331
21531SOL    HW266035   5.847   5.684   1.237
21532SOL     OW66036   5.624   6.891   1.276
21532SOL    HW166037   5.664   6.834   1.342
21532SOL    HW266038   5.636   6.980   1.312
21533SOL     OW66039   6.353   6.278   1.078
21533SOL    HW166040   6.385   6.221   1.008
21533SOL    HW266041   6.287   6.333   1.035
21534SOL     OW66042   7.302   6.579   1.853
21534SOL    HW166043   7.270   6.506   1.800
21534SOL    HW266044   7.250   6.575   1.933
21535SOL     OW66045   5.904   5.632   0.650
21535SOL    HW166046   5.883   5.722   0.675
21535SOL    HW266047   5.918   5.587   0.733
21536SOL     OW66048   7.201   5.956   0.379
21536SOL    HW166049   7.236   5.882   0.428
21536SOL    HW266050   7.123   5.981   0.427
21537SOL     OW66051   6.611   6.345   0.942
21537SOL    HW166052   6.613   6.371   1.034
21537SOL    HW266053   6.574   6.257   0.943
21538SOL     OW66054   6.562   7.139   1.718
21538SOL    HW166055   6.542   7.187   1.637
21538SOL    HW266056   6.618   7.067   1.690
21539SOL     OW66057   7.446   7.049   1.610
21539SOL    HW166058   7.452   7.079   1.520
21539SOL    HW266059   7.519   7.092   1.655
21540SOL     OW66060   5.983   6.548   1.769
21540SOL    HW166061   6.041   6.542   1.845
21540SOL    HW266062   5.992   6.464   1.725
21541SOL     OW66063   7.124   5.853   0.124
21541SOL    HW166064   7.064   5.779   0.132
21541SOL    HW266065   7.139   5.882   0.214
21542SOL     OW66066   6.861   6.379  12.484
21542SOL    HW166067   6.924   6.318  12.521
21542SOL    HW266068   6.914   6.448  12.445
21543SOL     OW66069   6.653   6.929   0.839
21543SOL    HW166070   6.659   6.852   0.782
21543SOL    HW266071   6.719   6.989   0.805
21544SOL     OW66072   5.898   6.384   0.926
21544SOL    HW166073   5.990   6.409   0.934
21544SOL    HW266074   5.894   6.295   0.959
21545SOL     OW66075   5.913   6.119   1.003
21545SOL    HW166076   5.877   6.030   0.994
21545SOL    HW266077   5.996   6.116   0.956
21546SOL     OW66078   6.723   5.963   1.692
21546SOL    HW166079   6.671   6.020   1.749
21546SOL    HW266080   6.807   6.008   1.683
21547SOL     OW66081   6.805   5.778   1.506
21547SOL    HW166082   6.766   5.845   1.563
21547SOL    HW266083   6.817   5.823   1.422
21548SOL     OW66084   6.083   7.167   0.897
21548SOL    HW166085   6.155   7.226   0.922
21548SOL    HW266086   6.125   7.099   0.844
21549SOL     OW66087   6.557   6.400   1.215
21549SOL    HW166088   6.594   6.357   1.292
21549SOL    HW266089   6.480   6.347   1.192
21550SOL     OW66090   5.626   6.144   1.118
21550SOL    HW166091   5.705   6.132   1.064
21550SOL    HW266092   5.658   6.136   1.208
21551SOL     OW66093   5.787   6.072   1.704
21551SOL    HW166094   5.878   6.070   1.675
21551SOL    HW266095   5.754   6.157   1.676
21552SOL     OW66096   6.957   6.506   1.649
21552SOL    HW166097   6.947   6.601   1.641
21552SOL    HW266098   6.956   6.474   1.559
21553SOL     OW66099   6.393   6.160   0.377
21553SOL    HW166100   6.409   6.082   0.324
21553SOL    HW266101   6.314   6.198   0.339
21554SOL     OW66102   7.240   6.200   1.236
21554SOL    HW166103   7.187   6.120   1.234
21554SOL    HW266104   7.308   6.186   1.170
21555SOL     OW66105   5.875   7.140   1.761
21555SOL    HW166106   5.835   7.222   1.790
21555SOL    HW266107   5.819   7.071   1.799
21556SOL     OW66108   6.501   7.264   1.476
21556SOL    HW166109   6.485   7.222   1.392
21556SOL    HW266110   6.494   7.358   1.458
21557SOL     OW66111   6.045   6.065   0.171
21557SOL    HW166112   6.094   6.141   0.202
21557SOL    HW266113   5.978   6.101   0.114
21558SOL     OW66114   5.750   6.714   1.482
21558SOL    HW166115   5.716   6.658   1.552
21558SOL    HW266116   5.759   6.656   1.407
21559SOL     OW66117   6.900   6.635   1.216
21559SOL    HW166118   6.949   6.592   1.146
21559SOL    HW266119   6.830   6.683   1.171
21560SOL     OW66120   6.879   6.426   0.302
21560SOL    HW166121   6.819   6.428   0.377
21560SOL    HW266122   6.869   6.337   0.267
21561SOL     OW66123   7.367   7.325   1.154
21561SOL    HW166124   7.426   7.347   1.082
21561SOL    HW266125   7.337   7.236   1.134
21562SOL     OW66126   6.825   7.312   1.104
21562SOL    HW166127   6.909   7.334   1.063
21562SOL    HW266128   6.834   7.219   1.127
21563SOL     OW66129   5.647   6.908   1.000
21563SOL    HW166130   5.636   6.889   1.093
21563SOL    HW266131   5.637   6.824   0.956
21564SOL     OW66132   6.251   7.250   1.730
21564SOL    HW166133   6.194   7.327   1.732
21564SOL    HW266134   6.324   7.275   1.673
21565SOL     OW66135   6.495   5.678   0.106
21565SOL    HW166136   6.552   5.716   0.039
21565SOL    HW266137   6.556   5.641   0.171
21566SOL     OW66138   7.318   5.744   0.508
21566SOL    HW166139   7.382   5.706   0.448
21566SOL    HW266140   7.292   5.672   0.565
21567SOL     OW66141   6.979   7.173   0.488
21567SOL    HW166142   7.000   7.216   0.405
21567SOL    HW266143   6.921   7.235   0.533
21568SOL     OW66144   6.853   6.512   0.644
21568SOL    HW166145   6.927   6.461   0.678
21568SOL    HW266146   6.894   6.588   0.603
21569SOL     OW66147   6.379   6.867   1.409
21569SOL    HW166148   6.339   6.901   1.489
21569SOL    HW266149   6.309   6.869   1.345
21570SOL     OW66150   6.244   7.205   0.148
21570SOL    HW166151   6.199   7.209   0.064
21570SOL    HW266152   6.223   7.118   0.182
21571SOL     OW66153   7.215   7.316   1.398
21571SOL    HW166154   7.264   7.321   1.316
21571SOL    HW266155   7.192   7.407   1.418
21572SOL     OW66156   5.842   5.897   0.714
21572SOL    HW166157   5.755   5.931   0.695
21572SOL    HW266158   5.845   5.891   0.810
21573SOL     OW66159   6.801   7.186   0.078
21573SOL    HW166160   6.795   7.093   0.101
21573SOL    HW266161   6.727   7.201   0.020
21574SOL     OW66162   6.405   6.588   1.377
21574SOL    HW166163   6.453   6.561   1.300
21574SOL    HW266164   6.408   6.684   1.375
21575SOL     OW66165   6.499   6.517   0.273
21575SOL    HW166166   6.572   6.538   0.216
21575SOL    HW266167   6.534   6.454   0.335
21576SOL     OW66168   7.063   7.222  12.492
21576SOL    HW166169   6.975   7.215  12.529
21576SOL    HW266170   7.053   7.193  12.402
21577SOL     OW66171   5.955   6.894   1.526
21577SOL    HW166172   5.957   6.972   1.471
21577SOL    HW266173   5.896   6.834   1.480
21578SOL     OW66174   7.185   6.879   1.286
21578SOL    HW166175   7.272   6.890   1.324
21578SOL    HW266176   7.133   6.949   1.325
21579SOL     OW66177   6.650   6.694   0.704
21579SOL    HW166178   6.578   6.649   0.748
21579SOL    HW266179   6.712   6.625   0.683
21580SOL     OW66180   6.605   5.840   0.970
21580SOL    HW166181   6.597   5.793   0.887
21580SOL    HW266182   6.599   5.772   1.037
21581SOL     OW66183   6.181   7.071   0.455
21581SOL    HW166184   6.204   7.010   0.385
21581SOL    HW266185   6.087   7.085   0.445
21582SOL     OW66186   7.323   5.947   1.394
21582SOL    HW166187   7.371   6.028   1.375
21582SOL    HW266188   7.349   5.888   1.323
21583SOL     OW66189   5.843   6.909   0.294
21583SOL    HW166190   5.756   6.870   0.285
21583SOL    HW266191   5.838   6.961   0.374
21584SOL     OW66192   5.703   6.610   1.734
21584SOL    HW166193   5.616   6.603   1.772
21584SOL    HW266194   5.756   6.548   1.783
21585SOL     OW66195   6.260   5.737   1.532
21585SOL    HW166196   6.262   5.806   1.466
21585SOL    HW266197   6.278   5.783   1.615
21586SOL     OW66198   7.000   6.439   1.391
21586SOL    HW166199   6.946   6.495   1.335
21586SOL    HW266200   7.086   6.440   1.349
21587SOL     OW66201   5.635   5.732   0.296
21587SOL    HW166202   5.615   5.817   0.258
21587SOL    HW266203   5.727   5.717   0.272
21588SOL     OW66204   6.786   6.919   0.116
21588SOL    HW166205   6.694   6.901   0.101
21588SOL    HW266206   6.798   6.905   0.210
21589SOL     OW66207   6.206   6.411   1.438
21589SOL    HW166208   6.263   6.486   1.421
21589SOL    HW266209   6.265   6.336   1.444
21590SOL     OW66210   7.067   7.375   0.985
21590SOL    HW166211   7.089   7.447   0.927
21590SOL    HW266212   7.151   7.345   1.019
21591SOL     OW66213   6.297   6.142   1.722
21591SOL    HW166214   6.231   6.147   1.790
21591SOL    HW266215   6.320   6.049   1.717
21592SOL     OW66216   7.024   6.779   1.640
21592SOL    HW166217   7.027   6.782   1.735
21592SOL    HW266218   7.107   6.739   1.614
21593SOL     OW66219   5.939   7.300   1.533
21593SOL    HW166220   5.856   7.347   1.538
21593SOL    HW266221   5.936   7.238   1.606
21594SOL     OW66222   7.245   6.466   1.261
21594SOL    HW166223   7.253   6.370   1.256
21594SOL    HW266224   7.209   6.491   1.177
21595SOL     OW66225   6.787   5.855   0.487
21595SOL    HW166226   6.864   5.800   0.468
21595SOL    HW266227   6.823   5.932   0.533
21596SOL     OW66228   6.175   6.317   0.678
21596SOL    HW166229   6.207   6.407   0.676
21596SOL    HW266230   6.109   6.314   0.609
21597SOL     OW66231   7.334   5.947   1.663
21597SOL    HW166232   7.331   5.955   1.568
21597SOL    HW266233   7.258   5.893   1.685
21598SOL     OW66234   7.319   6.573   1.500
21598SOL    HW166235   7.401   6.618   1.479
21598SOL    HW266236   7.288   6.539   1.416
21599SOL     OW66237   6.514   6.939   0.048
21599SOL    HW166238   6.458   6.923   0.125
21599SOL    HW266239   6.507   7.033   0.032
21600SOL     OW66240   6.251   7.375   0.929
21600SOL    HW166241   6.236   7.469   0.920
21600SOL    HW266242   6.347   7.366   0.927
21601SOL     OW66243   6.460   6.564   0.852
21601SOL    HW166244   6.506   6.485   0.882
21601SOL    HW266245   6.434   6.608   0.933
21602SOL     OW66246   6.684   6.574   0.068
21602SOL    HW166247   6.731   6.635   0.012
21602SOL    HW266248   6.747   6.505   0.087
21603SOL     OW66249   7.425   7.136   0.834
21603SOL    HW166250   7.340   7.124   0.792
21603SOL    HW266251   7.421   7.080   0.912
21604SOL     OW66252   5.791   6.887   1.870
21604SOL    HW166253   5.697   6.883   1.886
21604SOL    HW266254   5.830   6.900   1.956
21605SOL     OW66255   5.707   6.819   0.674
21605SOL    HW166256   5.701   6.768   0.755
21605SOL    HW266257   5.769   6.770   0.620
21606SOL     OW66258   6.232   6.972   1.635
21606SOL    HW166259   6.142   6.970   1.601
21606SOL    HW266260   6.243   7.061   1.669
21607SOL     OW66261   7.393   5.760   1.216
21607SOL    HW166262   7.401   5.665   1.213
21607SOL    HW266263   7.397   5.788   1.124
21608SOL     OW66264   6.002   6.018   0.519
21608SOL    HW166265   6.040   5.945   0.469
21608SOL    HW266266   5.959   5.976   0.594
21609SOL     OW66267   7.284   7.075   1.085
21609SOL    HW166268   7.204   7.057   1.037
21609SOL    HW266269   7.293   7.002   1.147
21610SOL     OW66270   5.932   6.148   1.278
21610SOL    HW166271   6.001   6.099   1.324
21610SOL    HW266272   5.944   6.124   1.186
21611SOL     OW66273   6.421   7.167   0.671
21611SOL    HW166274   6.382   7.231   0.612
21611SOL    HW266275   6.351   7.104   0.688
21612SOL     OW66276   7.002   5.814   1.116
21612SOL    HW166277   7.031   5.736   1.163
21612SOL    HW266278   6.948   5.862   1.179
21613SOL     OW66279   6.600   5.596   1.120
21613SOL    HW166280   6.553   5.540   1.058
21613SOL    HW266281   6.687   5.556   1.128
21614SOL     OW66282   6.387   6.900   0.294
21614SOL    HW166283   6.346   6.819   0.326
21614SOL    HW266284   6.450   6.923   0.362
21615SOL     OW66285   6.199   7.149   1.276
21615SOL    HW166286   6.198   7.230   1.327
21615SOL    HW266287   6.290   7.141   1.246
21616SOL     OW66288   6.949   5.641   0.149
21616SOL    HW166289   6.930   5.562   0.099
21616SOL    HW266290   6.863   5.682   0.163
21617SOL     OW66291   6.902   6.062   0.683
21617SOL    HW166292   6.836   6.131   0.675
21617SOL    HW266293   6.883   6.020   0.767
21618SOL     OW66294   7.121   5.755   0.869
21618SOL    HW166295   7.087   5.795   0.949
21618SOL    HW266296   7.214   5.779   0.868
21619SOL     OW66297   5.639   6.662   0.309
21619SOL    HW166298   5.734   6.652   0.298
21619SOL    HW266299   5.613   6.588   0.365
21620SOL     OW66300   6.465   7.243   0.346
21620SOL    HW166301   6.384   7.222   0.300
21620SOL    HW266302   6.439   7.311   0.409
21621SOL     OW66303   5.828   6.293   1.984
21621SOL    HW166304   5.755   6.235   2.008
21621SOL    HW266305   5.901   6.234   1.967
21622SOL     OW66306   5.803   5.869   2.854
21622SOL    HW166307   5.833   5.838   2.940
21622SOL    HW266308   5.712   5.838   2.848
21623SOL     OW66309   5.588   5.980   2.502
21623SOL    HW166310   5.506   6.005   2.546
21623SOL    HW266311   5.565   5.902   2.451
21624SOL     OW66312   6.159   6.880   3.038
21624SOL    HW166313   6.073   6.889   2.996
21624SOL    HW266314   6.176   6.965   3.077
21625SOL     OW66315   7.126   7.090   2.556
21625SOL    HW166316   7.093   7.078   2.645
21625SOL    HW266317   7.048   7.098   2.502
21626SOL     OW66318   6.738   6.274   2.568
21626SOL    HW166319   6.775   6.361   2.552
21626SOL    HW266320   6.675   6.288   2.639
21627SOL     OW66321   7.381   6.185   2.081
21627SOL    HW166322   7.350   6.179   1.991
21627SOL    HW266323   7.334   6.116   2.128
21628SOL     OW66324   6.338   6.740   2.894
21628SOL    HW166325   6.268   6.774   2.950
21628SOL    HW266326   6.376   6.818   2.854
21629SOL     OW66327   6.457   6.337   3.670
21629SOL    HW166328   6.439   6.410   3.729
21629SOL    HW266329   6.494   6.378   3.592
21630SOL     OW66330   6.276   6.596   2.511
21630SOL    HW166331   6.327   6.600   2.592
21630SOL    HW266332   6.198   6.647   2.529
21631SOL     OW66333   6.308   6.752   3.676
21631SOL    HW166334   6.349   6.834   3.705
21631SOL    HW266335   6.222   6.778   3.644
21632SOL     OW66336   5.938   6.997   2.921
21632SOL    HW166337   5.857   6.959   2.886
21632SOL    HW266338   5.969   7.055   2.852
21633SOL     OW66339   7.005   7.110   3.287
21633SOL    HW166340   7.051   7.187   3.254
21633SOL    HW266341   7.058   7.081   3.361
21634SOL     OW66342   6.025   5.982   3.347
21634SOL    HW166343   6.106   5.932   3.356
21634SOL    HW266344   5.956   5.922   3.373
21635SOL     OW66345   7.182   6.020   2.616
21635SOL    HW166346   7.102   6.027   2.564
21635SOL    HW266347   7.179   6.094   2.676
21636SOL     OW66348   5.802   7.303   2.326
21636SOL    HW166349   5.822   7.377   2.383
21636SOL    HW266350   5.883   7.288   2.277
21637SOL     OW66351   6.762   6.912   3.555
21637SOL    HW166352   6.784   6.912   3.648
21637SOL    HW266353   6.698   6.841   3.545
21638SOL     OW66354   5.833   7.011   2.394
21638SOL    HW166355   5.804   7.101   2.409
21638SOL    HW266356   5.771   6.957   2.442
21639SOL     OW66357   5.887   6.674   2.784
21639SOL    HW166358   5.839   6.592   2.790
21639SOL    HW266359   5.825   6.741   2.813
21640SOL     OW66360   6.263   7.367   3.313
21640SOL    HW166361   6.168   7.359   3.320
21640SOL    HW266362   6.279   7.461   3.317
21641SOL     OW66363   6.152   6.595   1.980
21641SOL    HW166364   6.213   6.649   1.930
21641SOL    HW266365   6.192   6.586   2.066
21642SOL     OW66366   7.180   5.715   3.327
21642SOL    HW166367   7.214   5.796   3.290
21642SOL    HW266368   7.154   5.737   3.416
21643SOL     OW66369   5.701   6.242   2.419
21643SOL    HW166370   5.674   6.154   2.442
21643SOL    HW266371   5.687   6.293   2.499
21644SOL     OW66372   7.428   7.343   2.187
21644SOL    HW166373   7.404   7.335   2.279
21644SOL    HW266374   7.441   7.437   2.173
21645SOL     OW66375   5.574   7.151   1.941
21645SOL    HW166376   5.579   7.084   2.008
21645SOL    HW266377   5.593   7.233   1.987
21646SOL     OW66378   7.267   6.498   2.503
21646SOL    HW166379   7.356   6.464   2.497
21646SOL    HW266380   7.258   6.553   2.425
21647SOL     OW66381   7.247   6.692   2.295
21647SOL    HW166382   7.334   6.691   2.254
21647SOL    HW266383   7.254   6.759   2.363
21648SOL     OW66384   5.745   6.297   3.479
21648SOL    HW166385   5.833   6.328   3.458
21648SOL    HW266386   5.696   6.376   3.502
21649SOL     OW66387   6.211   6.981   2.590
21649SOL    HW166388   6.163   6.900   2.605
21649SOL    HW266389   6.187   7.006   2.500
21650SOL     OW66390   6.878   6.827   3.280
21650SOL    HW166391   6.905   6.757   3.221
21650SOL    HW266392   6.931   6.814   3.359
21651SOL     OW66393   5.780   6.531   3.144
21651SOL    HW166394   5.868   6.501   3.123
21651SOL    HW266395   5.730   6.520   3.063
21652SOL     OW66396   7.126   6.580   2.073
21652SOL    HW166397   7.054   6.525   2.102
21652SOL    HW266398   7.165   6.612   2.154
21653SOL     OW66399   6.781   7.352   3.421
21653SOL    HW166400   6.804   7.443   3.402
21653SOL    HW266401   6.691   7.343   3.390
21654SOL     OW66402   5.940   5.906   3.674
21654SOL    HW166403   5.992   5.943   3.746
21654SOL    HW266404   5.859   5.877   3.715
21655SOL     OW66405   7.025   7.012   2.805
21655SOL    HW166406   6.974   7.023   2.886
21655SOL    HW266407   7.020   6.918   2.786
21656SOL     OW66408   7.283   7.283   2.420
21656SOL    HW166409   7.219   7.271   2.349
21656SOL    HW266410   7.253   7.224   2.489
21657SOL     OW66411   6.178   6.313   2.149
21657SOL    HW166412   6.145   6.256   2.080
21657SOL    HW266413   6.108   6.316   2.214
21658SOL     OW66414   6.877   5.954   2.806
21658SOL    HW166415   6.784   5.932   2.805
21658SOL    HW266416   6.916   5.893   2.869
21659SOL     OW66417   7.157   7.255   2.166
21659SOL    HW166418   7.244   7.293   2.155
21659SOL    HW266419   7.128   7.236   2.076
21660SOL     OW66420   6.345   6.210   3.284
21660SOL    HW166421   6.339   6.185   3.377
21660SOL    HW266422   6.325   6.130   3.236
21661SOL     OW66423   6.978   6.063   3.541
21661SOL    HW166424   6.976   6.109   3.625
21661SOL    HW266425   7.046   5.997   3.552
21662SOL     OW66426   6.584   5.986   3.110
21662SOL    HW166427   6.596   6.052   3.178
21662SOL    HW266428   6.490   5.988   3.092
21663SOL     OW66429   6.596   6.332   2.313
21663SOL    HW166430   6.643   6.287   2.383
21663SOL    HW266431   6.536   6.267   2.278
21664SOL     OW66432   5.654   6.391   2.642
21664SOL    HW166433   5.735   6.380   2.692
21664SOL    HW266434   5.611   6.467   2.681
21665SOL     OW66435   5.653   7.396   3.398
21665SOL    HW166436   5.747   7.376   3.404
21665SOL    HW266437   5.627   7.413   3.488
21666SOL     OW66438   6.477   5.910   2.033
21666SOL    HW166439   6.516   5.994   2.011
21666SOL    HW266440   6.545   5.845   2.015
21667SOL     OW66441   7.290   6.152   3.689
21667SOL    HW166442   7.254   6.227   3.642
21667SOL    HW266443   7.314   6.090   3.621
21668SOL     OW66444   6.970   6.732   2.407
21668SOL    HW166445   7.050   6.725   2.355
21668SOL    HW266446   6.913   6.789   2.356
21669SOL     OW66447   6.123   5.746   2.760
21669SOL    HW166448   6.127   5.781   2.849
21669SOL    HW266449   6.131   5.823   2.704
21670SOL     OW66450   6.580   7.039   2.345
21670SOL    HW166451   6.556   7.111   2.286
21670SOL    HW266452   6.550   7.068   2.431
21671SOL     OW66453   5.934   7.403   2.730
21671SOL    HW166454   5.979   7.318   2.738
21671SOL    HW266455   5.998   7.466   2.763
21672SOL     OW66456   7.380   6.645   2.714
21672SOL    HW166457   7.311   6.617   2.654
21672SOL    HW266458   7.334   6.662   2.797
21673SOL     OW66459   5.889   6.542   2.097
21673SOL    HW166460   5.979   6.554   2.065
21673SOL    HW266461   5.865   6.454   2.068
21674SOL     OW66462   7.061   6.337   2.577
21674SOL    HW166463   7.064   6.296   2.664
21674SOL    HW266464   7.140   6.390   2.573
21675SOL     OW66465   6.058   6.855   3.596
21675SOL    HW166466   6.034   6.852   3.504
21675SOL    HW266467   5.975   6.847   3.643
21676SOL     OW66468   6.709   7.371   2.090
21676SOL    HW166469   6.633   7.332   2.133
21676SOL    HW266470   6.733   7.308   2.022
21677SOL     OW66471   5.776   5.857   3.378
21677SOL    HW166472   5.695   5.906   3.366
21677SOL    HW266473   5.749   5.772   3.412
21678SOL     OW66474   7.222   6.944   1.904
21678SOL    HW166475   7.186   7.032   1.911
21678SOL    HW266476   7.147   6.886   1.915
21679SOL     OW66477   6.060   7.303   2.193
21679SOL    HW166478   6.091   7.373   2.251
21679SOL    HW266479   6.127   7.298   2.125
21680SOL     OW66480   7.049   5.646   2.305
21680SOL    HW166481   7.027   5.629   2.214
21680SOL    HW266482   7.014   5.733   2.323
21681SOL     OW66483   5.816   7.397   3.085
21681SOL    HW166484   5.861   7.380   3.167
21681SOL    HW266485   5.825   7.316   3.035
21682SOL     OW66486   6.533   7.287   2.763
21682SOL    HW166487   6.611   7.241   2.795
21682SOL    HW266488   6.495   7.227   2.698
21683SOL     OW66489   5.981   6.282   2.344
21683SOL    HW166490   5.997   6.188   2.355
21683SOL    HW266491   5.886   6.291   2.355
21684SOL     OW66492   7.108   5.806   3.583
21684SOL    HW166493   7.127   5.818   3.676
21684SOL    HW266494   7.018   5.776   3.580
21685SOL     OW66495   6.197   5.669   2.005
21685SOL    HW166496   6.287   5.698   1.993
21685SOL    HW266497   6.165   5.652   1.916
21686SOL     OW66498   6.344   5.864   3.609
21686SOL    HW166499   6.428   5.817   3.611
21686SOL    HW266500   6.305   5.845   3.694
21687SOL     OW66501   6.477   7.117   3.051
21687SOL    HW166502   6.451   7.079   2.967
21687SOL    HW266503   6.538   7.053   3.088
21688SOL     OW66504   6.940   6.175   3.288
21688SOL    HW166505   6.962   6.150   3.378
21688SOL    HW266506   6.966   6.267   3.281
21689SOL     OW66507   6.415   6.986   2.805
21689SOL    HW166508   6.499   6.969   2.762
21689SOL    HW266509   6.353   6.994   2.733
21690SOL     OW66510   6.511   6.103   2.762
21690SOL    HW166511   6.485   6.093   2.670
21690SOL    HW266512   6.548   6.018   2.786
21691SOL     OW66513   6.090   5.635   2.350
21691SOL    HW166514   6.016   5.655   2.406
21691SOL    HW266515   6.120   5.721   2.318
21692SOL     OW66516   7.006   6.765   1.912
21692SOL    HW166517   7.050   6.698   1.965
21692SOL    HW266518   6.912   6.749   1.927
21693SOL     OW66519   5.879   5.629   2.042
21693SOL    HW166520   5.918   5.699   1.990
21693SOL    HW266521   5.953   5.588   2.086
21694SOL     OW66522   6.547   5.869   2.356
21694SOL    HW166523   6.509   5.863   2.268
21694SOL    HW266524   6.641   5.857   2.342
21695SOL     OW66525   6.660   6.170   3.295
21695SOL    HW166526   6.620   6.246   3.337
21695SOL    HW266527   6.754   6.186   3.299
21696SOL     OW66528   6.807   7.144   2.644
21696SOL    HW166529   6.820   7.220   2.588
21696SOL    HW266530   6.876   7.150   2.710
21697SOL     OW66531   6.065   6.746   2.591
21697SOL    HW166532   6.002   6.726   2.660
21697SOL    HW266533   6.016   6.732   2.509
21698SOL     OW66534   6.846   7.370   2.470
21698SOL    HW166535   6.897   7.435   2.421
21698SOL    HW266536   6.776   7.420   2.511
21699SOL     OW66537   6.610   6.132   1.876
21699SOL    HW166538   6.578   6.222   1.883
21699SOL    HW266539   6.670   6.122   1.950
21700SOL     OW66540   5.663   6.129   3.270
21700SOL    HW166541   5.752   6.133   3.236
21700SOL    HW266542   5.657   6.202   3.332
21701SOL     OW66543   6.135   5.804   3.029
21701SOL    HW166544   6.173   5.738   3.087
21701SOL    HW266545   6.043   5.809   3.056
21702SOL     OW66546   6.443   6.072   2.504
21702SOL    HW166547   6.402   6.121   2.432
21702SOL    HW266548   6.480   5.995   2.461
21703SOL     OW66549   6.623   5.641   2.638
21703SOL    HW166550   6.587   5.642   2.549
21703SOL    HW266551   6.580   5.566   2.680
21704SOL     OW66552   7.024   6.742   2.723
21704SOL    HW166553   6.967   6.666   2.735
21704SOL    HW266554   7.029   6.753   2.628
21705SOL     OW66555   7.053   6.198   2.820
21705SOL    HW166556   6.991   6.125   2.828
21705SOL    HW266557   7.108   6.191   2.898
21706SOL     OW66558   7.439   6.398   2.243
21706SOL    HW166559   7.493   6.350   2.305
21706SOL    HW266560   7.412   6.333   2.178
21707SOL     OW66561   6.070   7.016   1.991
21707SOL    HW166562   6.004   6.982   2.052
21707SOL    HW266563   6.019   7.061   1.924
21708SOL     OW66564   7.276   6.869   2.492
21708SOL    HW166565   7.345   6.868   2.558
21708SOL    HW266566   7.226   6.948   2.512
21709SOL     OW66567   7.001   6.178   1.916
21709SOL    HW166568   6.937   6.140   1.977
21709SOL    HW266569   7.086   6.154   1.953
21710SOL     OW66570   6.100   5.866   2.176
21710SOL    HW166571   6.138   5.798   2.120
21710SOL    HW266572   6.091   5.942   2.118
21711SOL     OW66573   7.334   6.830   3.433
21711SOL    HW166574   7.420   6.793   3.414
21711SOL    HW266575   7.351   6.919   3.463
21712SOL     OW66576   6.643   6.926   3.182
21712SOL    HW166577   6.564   6.905   3.231
21712SOL    HW266578   6.713   6.884   3.232
21713SOL     OW66579   7.173   7.181   3.505
21713SOL    HW166580   7.181   7.243   3.432
21713SOL    HW266581   7.261   7.146   3.516
21714SOL     OW66582   6.666   6.756   2.960
21714SOL    HW166583   6.648   6.819   3.030
21714SOL    HW266584   6.670   6.810   2.881
21715SOL     OW66585   7.211   6.680   2.933
21715SOL    HW166586   7.207   6.743   3.005
21715SOL    HW266587   7.141   6.706   2.874
21716SOL     OW66588   6.511   5.684   3.249
21716SOL    HW166589   6.528   5.669   3.156
21716SOL    HW266590   6.588   5.731   3.281
21717SOL     OW66591   6.574   6.707   3.582
21717SOL    HW166592   6.481   6.716   3.604
21717SOL    HW266593   6.578   6.632   3.523
21718SOL     OW66594   6.290   6.632   2.229
21718SOL    HW166595   6.265   6.612   2.319
21718SOL    HW266596   6.365   6.576   2.211
21719SOL     OW66597   6.022   6.394   3.097
21719SOL    HW166598   6.078   6.413   3.172
21719SOL    HW266599   5.978   6.312   3.120
21720SOL     OW66600   6.857   5.955   3.141
21720SOL    HW166601   6.886   6.035   3.184
21720SOL    HW266602   6.766   5.973   3.116
21721SOL     OW66603   5.649   7.170   3.224
21721SOL    HW166604   5.647   7.259   3.259
21721SOL    HW266605   5.742   7.147   3.221
21722SOL     OW66606   5.947   6.694   2.349
21722SOL    HW166607   5.864   6.739   2.358
21722SOL    HW266608   5.934   6.634   2.276
21723SOL     OW66609   6.123   6.112   2.716
21723SOL    HW166610   6.138   6.170   2.642
21723SOL    HW266611   6.193   6.134   2.778
21724SOL     OW66612   6.795   6.917   2.240
21724SOL    HW166613   6.865   6.982   2.249
21724SOL    HW266614   6.721   6.955   2.287
21725SOL     OW66615   6.880   7.046   3.041
21725SOL    HW166616   6.932   7.059   3.121
21725SOL    HW266617   6.804   6.996   3.071
21726SOL     OW66618   7.169   6.211   2.345
21726SOL    HW166619   7.109   6.237   2.415
21726SOL    HW266620   7.198   6.294   2.306
21727SOL     OW66621   5.900   7.069   3.187
21727SOL    HW166622   5.937   7.057   3.100
21727SOL    HW266623   5.950   7.142   3.224
21728SOL     OW66624   6.031   6.300   3.486
21728SOL    HW166625   6.069   6.359   3.421
21728SOL    HW266626   6.102   6.241   3.510
21729SOL     OW66627   7.194   6.362   3.547
21729SOL    HW166628   7.109   6.405   3.544
21729SOL    HW266629   7.247   6.406   3.481
21730SOL     OW66630   6.580   5.723   3.625
21730SOL    HW166631   6.639   5.796   3.606
21730SOL    HW266632   6.623   5.647   3.586
21731SOL     OW66633   6.075   5.632   3.616
21731SOL    HW166634   6.031   5.580   3.548
21731SOL    HW266635   6.031   5.717   3.613
21732SOL     OW66636   6.224   6.471   2.923
21732SOL    HW166637   6.191   6.551   2.883
21732SOL    HW266638   6.152   6.442   2.980
21733SOL     OW66639   6.930   6.452   2.867
21733SOL    HW166640   6.845   6.431   2.828
21733SOL    HW266641   6.979   6.371   2.863
21734SOL     OW66642   5.876   5.798   3.112
21734SOL    HW166643   5.845   5.831   3.196
21734SOL    HW266644   5.870   5.703   3.120
21735SOL     OW66645   5.611   6.907   3.142
21735SOL    HW166646   5.657   6.852   3.205
21735SOL    HW266647   5.630   6.997   3.170
21736SOL     OW66648   6.298   6.200   2.907
21736SOL    HW166649   6.378   6.182   2.857
21736SOL    HW266650   6.286   6.295   2.900
21737SOL     OW66651   7.323   6.539   3.726
21737SOL    HW166652   7.274   6.476   3.674
21737SOL    HW266653   7.263   6.564   3.797
21738SOL     OW66654   5.850   5.641   2.490
21738SOL    HW166655   5.840   5.734   2.511
21738SOL    HW266656   5.870   5.599   2.574
21739SOL     OW66657   7.220   5.975   2.219
21739SOL    HW166658   7.248   5.915   2.289
21739SOL    HW266659   7.185   6.051   2.265
21740SOL     OW66660   6.600   6.349   2.831
21740SOL    HW166661   6.601   6.343   2.926
21740SOL    HW266662   6.571   6.262   2.802
21741SOL     OW66663   6.590   7.147   3.560
21741SOL    HW166664   6.529   7.194   3.504
21741SOL    HW266665   6.536   7.082   3.606
21742SOL     OW66666   7.429   7.086   3.478
21742SOL    HW166667   7.458   7.112   3.391
21742SOL    HW266668   7.500   7.113   3.536
21743SOL     OW66669   5.957   6.452   3.719
21743SOL    HW166670   6.036   6.494   3.754
21743SOL    HW266671   5.984   6.417   3.635
21744SOL     OW66672   7.127   5.849   1.990
21744SOL    HW166673   7.053   5.796   2.021
21744SOL    HW266674   7.155   5.899   2.066
21745SOL     OW66675   6.873   6.423   1.895
21745SOL    HW166676   6.907   6.334   1.902
21745SOL    HW266677   6.895   6.449   1.805
21746SOL     OW66678   6.663   6.915   2.720
21746SOL    HW166679   6.665   6.845   2.654
21746SOL    HW266680   6.717   6.985   2.682
21747SOL     OW66681   5.875   6.379   2.801
21747SOL    HW166682   5.963   6.406   2.774
21747SOL    HW266683   5.888   6.294   2.842
21748SOL     OW66684   5.913   6.111   2.882
21748SOL    HW166685   5.874   6.025   2.867
21748SOL    HW266686   5.987   6.114   2.822
21749SOL     OW66687   6.727   5.947   3.562
21749SOL    HW166688   6.673   6.007   3.614
21749SOL    HW266689   6.809   5.995   3.548
21750SOL     OW66690   6.759   5.785   3.339
21750SOL    HW166691   6.741   5.848   3.409
21750SOL    HW266692   6.796   5.838   3.269
21751SOL     OW66693   5.584   6.890   2.061
21751SOL    HW166694   5.493   6.903   2.034
21751SOL    HW266695   5.586   6.801   2.096
21752SOL     OW66696   5.664   7.375   2.787
21752SOL    HW166697   5.642   7.292   2.746
21752SOL    HW266698   5.758   7.384   2.772
21753SOL     OW66699   6.078   7.168   2.751
21753SOL    HW166700   6.146   7.232   2.772
21753SOL    HW266701   6.122   7.101   2.700
21754SOL     OW66702   6.539   6.366   3.097
21754SOL    HW166703   6.594   6.398   3.168
21754SOL    HW266704   6.479   6.304   3.139
21755SOL     OW66705   5.624   6.131   2.980
21755SOL    HW166706   5.701   6.134   2.924
21755SOL    HW266707   5.658   6.139   3.069
21756SOL     OW66708   6.974   6.519   3.523
21756SOL    HW166709   6.993   6.613   3.518
21756SOL    HW266710   6.951   6.494   3.433
21757SOL     OW66711   6.392   6.162   2.229
21757SOL    HW166712   6.383   6.083   2.176
21757SOL    HW266713   6.319   6.218   2.201
21758SOL     OW66714   7.224   6.184   3.031
21758SOL    HW166715   7.210   6.140   3.114
21758SOL    HW266716   7.313   6.161   3.006
21759SOL     OW66717   5.775   7.121   3.591
21759SOL    HW166718   5.790   7.209   3.623
21759SOL    HW266719   5.821   7.064   3.652
21760SOL     OW66720   6.293   6.015   3.104
21760SOL    HW166721   6.233   5.946   3.076
21760SOL    HW266722   6.283   6.083   3.036
21761SOL     OW66723   6.546   7.271   3.303
21761SOL    HW166724   6.506   7.223   3.231
21761SOL    HW266725   6.508   7.358   3.299
21762SOL     OW66726   5.714   6.711   3.339
21762SOL    HW166727   5.719   6.662   3.420
21762SOL    HW266728   5.737   6.648   3.271
21763SOL     OW66729   6.892   6.627   3.077
21763SOL    HW166730   6.921   6.570   3.006
21763SOL    HW266731   6.815   6.673   3.041
21764SOL     OW66732   6.902   6.445   2.167
21764SOL    HW166733   6.852   6.382   2.219
21764SOL    HW266734   6.877   6.427   2.076
21765SOL     OW66735   6.829   7.307   2.942
21765SOL    HW166736   6.915   7.339   2.915
21765SOL    HW266737   6.846   7.221   2.980
21766SOL     OW66738   5.699   6.852   2.886
21766SOL    HW166739   5.668   6.871   2.974
21766SOL    HW266740   5.621   6.824   2.838
21767SOL     OW66741   6.256   7.271   3.577
21767SOL    HW166742   6.182   7.329   3.598
21767SOL    HW266743   6.282   7.296   3.489
21768SOL     OW66744   7.346   5.768   2.380
21768SOL    HW166745   7.401   5.752   2.303
21768SOL    HW266746   7.287   5.693   2.384
21769SOL     OW66747   6.955   7.145   2.326
21769SOL    HW166748   7.021   7.186   2.270
21769SOL    HW266749   6.908   7.218   2.366
21770SOL     OW66750   5.728   7.387   3.696
21770SOL    HW166751   5.673   7.326   3.745
21770SOL    HW266752   5.775   7.436   3.763
21771SOL     OW66753   6.863   6.520   2.539
21771SOL    HW166754   6.934   6.456   2.548
21771SOL    HW266755   6.899   6.589   2.484
21772SOL     OW66756   6.386   6.879   3.281
21772SOL    HW166757   6.361   6.915   3.366
21772SOL    HW266758   6.313   6.899   3.224
21773SOL     OW66759   6.290   7.174   2.003
21773SOL    HW166760   6.288   7.209   1.914
21773SOL    HW266761   6.217   7.111   2.006
21774SOL     OW66762   7.187   7.314   3.251
21774SOL    HW166763   7.247   7.313   3.176
21774SOL    HW266764   7.180   7.407   3.274
21775SOL     OW66765   7.428   5.756   2.825
21775SOL    HW166766   7.457   5.670   2.797
21775SOL    HW266767   7.341   5.767   2.786
21776SOL     OW66768   5.842   5.895   2.578
21776SOL    HW166769   5.761   5.942   2.556
21776SOL    HW266770   5.843   5.893   2.673
21777SOL     OW66771   6.799   7.201   1.884
21777SOL    HW166772   6.753   7.118   1.894
21777SOL    HW266773   6.755   7.244   1.810
21778SOL     OW66774   6.413   6.618   3.202
21778SOL    HW166775   6.464   6.572   3.268
21778SOL    HW266776   6.402   6.706   3.237
21779SOL     OW66777   6.550   6.544   2.142
21779SOL    HW166778   6.539   6.495   2.061
21779SOL    HW266779   6.572   6.478   2.207
21780SOL     OW66780   7.080   7.197   1.904
21780SOL    HW166781   6.985   7.197   1.892
21780SOL    HW266782   7.115   7.215   1.817
21781SOL     OW66783   5.956   6.855   3.349
21781SOL    HW166784   5.944   6.934   3.296
21781SOL    HW266785   5.871   6.812   3.347
21782SOL     OW66786   7.183   6.854   3.144
21782SOL    HW166787   7.269   6.861   3.186
21782SOL    HW266788   7.127   6.912   3.195
21783SOL     OW66789   6.642   6.688   2.560
21783SOL    HW166790   6.573   6.642   2.513
21783SOL    HW266791   6.716   6.627   2.559
21784SOL     OW66792   6.623   5.849   2.814
21784SOL    HW166793   6.621   5.785   2.743
21784SOL    HW266794   6.598   5.800   2.892
21785SOL     OW66795   6.184   7.073   2.330
21785SOL    HW166796   6.165   7.009   2.261
21785SOL    HW266797   6.127   7.147   2.310
21786SOL     OW66798   7.311   5.967   3.248
21786SOL    HW166799   7.379   6.036   3.247
21786SOL    HW266800   7.343   5.902   3.185
21787SOL     OW66801   5.845   6.945   2.133
21787SOL    HW166802   5.751   6.930   2.125
21787SOL    HW266803   5.858   6.966   2.225
21788SOL     OW66804   5.702   6.560   3.574
21788SOL    HW166805   5.621   6.556   3.625
21788SOL    HW266806   5.769   6.585   3.638
21789SOL     OW66807   6.264   5.767   3.359
21789SOL    HW166808   6.349   5.760   3.316
21789SOL    HW266809   6.282   5.805   3.445
21790SOL     OW66810   5.659   5.915   1.888
21790SOL    HW166811   5.583   5.904   1.831
21790SOL    HW266812   5.707   5.988   1.849
21791SOL     OW66813   7.007   6.443   3.253
21791SOL    HW166814   6.955   6.506   3.203
21791SOL    HW266815   7.096   6.454   3.219
21792SOL     OW66816   5.649   5.753   2.149
21792SOL    HW166817   5.637   5.827   2.090
21792SOL    HW266818   5.739   5.723   2.133
21793SOL     OW66819   6.195   6.433   3.300
21793SOL    HW166820   6.250   6.511   3.294
21793SOL    HW266821   6.257   6.360   3.298
21794SOL     OW66822   7.092   7.368   2.855
21794SOL    HW166823   7.109   7.447   2.805
21794SOL    HW266824   7.176   7.347   2.897
21795SOL     OW66825   6.279   6.155   3.554
21795SOL    HW166826   6.334   6.217   3.602
21795SOL    HW266827   6.308   6.068   3.584
21796SOL     OW66828   7.062   6.785   3.489
21796SOL    HW166829   7.047   6.797   3.583
21796SOL    HW266830   7.156   6.799   3.477
21797SOL     OW66831   7.248   6.468   3.112
21797SOL    HW166832   7.243   6.386   3.063
21797SOL    HW266833   7.240   6.536   3.045
21798SOL     OW66834   6.846   5.863   2.340
21798SOL    HW166835   6.831   5.917   2.262
21798SOL    HW266836   6.860   5.927   2.410
21799SOL     OW66837   6.163   6.332   2.545
21799SOL    HW166838   6.210   6.412   2.520
21799SOL    HW266839   6.101   6.317   2.474
21800SOL     OW66840   7.339   5.940   3.519
21800SOL    HW166841   7.327   5.958   3.426
21800SOL    HW266842   7.263   5.886   3.543
21801SOL     OW66843   7.328   6.517   3.371
21801SOL    HW166844   7.323   6.611   3.389
21801SOL    HW266845   7.311   6.509   3.277
21802SOL     OW66846   6.503   6.960   1.927
21802SOL    HW166847   6.446   6.998   1.994
21802SOL    HW266848   6.511   7.028   1.860
21803SOL     OW66849   6.253   7.374   2.774
21803SOL    HW166850   6.230   7.467   2.772
21803SOL    HW266851   6.346   7.372   2.795
21804SOL     OW66852   6.740   6.669   1.935
21804SOL    HW166853   6.682   6.674   1.859
21804SOL    HW266854   6.771   6.579   1.936
21805SOL     OW66855   7.427   7.105   2.674
21805SOL    HW166856   7.417   7.199   2.690
21805SOL    HW266857   7.383   7.063   2.748
21806SOL     OW66858   5.807   6.852   3.702
21806SOL    HW166859   5.715   6.878   3.706
21806SOL    HW266860   5.832   6.842   3.794
21807SOL     OW66861   6.276   7.005   3.498
21807SOL    HW166862   6.196   6.959   3.526
21807SOL    HW266863   6.262   7.096   3.524
21808SOL     OW66864   7.395   5.764   3.095
21808SOL    HW166865   7.423   5.674   3.110
21808SOL    HW266866   7.408   5.778   3.001
21809SOL     OW66867   6.014   6.021   2.390
21809SOL    HW166868   6.045   5.959   2.323
21809SOL    HW266869   5.968   5.967   2.454
21810SOL     OW66870   7.305   7.001   2.887
21810SOL    HW166871   7.212   7.019   2.880
21810SOL    HW266872   7.333   7.047   2.967
21811SOL     OW66873   5.909   6.146   3.160
21811SOL    HW166874   5.965   6.092   3.215
21811SOL    HW266875   5.929   6.118   3.070
21812SOL     OW66876   6.422   7.162   2.540
21812SOL    HW166877   6.392   7.238   2.490
21812SOL    HW266878   6.345   7.106   2.547
21813SOL     OW66879   7.017   5.796   2.994
21813SOL    HW166880   7.085   5.766   3.054
21813SOL    HW266881   6.958   5.849   3.047
21814SOL     OW66882   6.587   5.599   2.988
21814SOL    HW166883   6.534   5.550   2.926
21814SOL    HW266884   6.675   5.562   2.980
21815SOL     OW66885   6.413   6.869   2.182
21815SOL    HW166886   6.349   6.800   2.201
21815SOL    HW266887   6.409   6.927   2.258
21816SOL     OW66888   6.217   7.123   3.143
21816SOL    HW166889   6.200   7.196   3.202
21816SOL    HW266890   6.305   7.140   3.108
21817SOL     OW66891   6.953   5.636   2.042
21817SOL    HW166892   6.963   5.585   1.961
21817SOL    HW266893   6.869   5.608   2.078
21818SOL     OW66894   6.909   6.046   2.548
21818SOL    HW166895   6.855   6.124   2.539
21818SOL    HW266896   6.890   6.013   2.636
21819SOL     OW66897   7.162   5.771   2.746
21819SOL    HW166898   7.105   5.798   2.818
21819SOL    HW266899   7.165   5.848   2.689
21820SOL     OW66900   5.627   6.633   2.149
21820SOL    HW166901   5.720   6.622   2.130
21820SOL    HW266902   5.598   6.546   2.177
21821SOL     OW66903   6.482   7.244   2.190
21821SOL    HW166904   6.412   7.224   2.127
21821SOL    HW266905   6.440   7.302   2.254
21822SOL     OW66906   5.794   6.219   3.796
21822SOL    HW166907   5.726   6.223   3.863
21822SOL    HW266908   5.832   6.307   3.795
21823SOL     OW66909   5.847   5.788   4.683
21823SOL    HW166910   5.874   5.867   4.732
21823SOL    HW266911   5.753   5.781   4.699
21824SOL     OW66912   5.566   5.974   4.356
21824SOL    HW166913   5.492   6.014   4.401
21824SOL    HW266914   5.537   5.886   4.334
21825SOL     OW66915   6.164   6.884   4.927
21825SOL    HW166916   6.075   6.879   4.892
21825SOL    HW266917   6.184   6.978   4.929
21826SOL     OW66918   7.156   7.095   4.431
21826SOL    HW166919   7.111   7.079   4.514
21826SOL    HW266920   7.086   7.106   4.367
21827SOL     OW66921   6.736   6.279   4.417
21827SOL    HW166922   6.778   6.365   4.406
21827SOL    HW266923   6.684   6.288   4.497
21828SOL     OW66924   7.378   6.171   3.942
21828SOL    HW166925   7.343   6.171   3.852
21828SOL    HW266926   7.327   6.103   3.987
21829SOL     OW66927   6.330   6.726   4.776
21829SOL    HW166928   6.265   6.763   4.835
21829SOL    HW266929   6.369   6.801   4.732
21830SOL     OW66930   6.474   6.346   5.551
21830SOL    HW166931   6.450   6.418   5.610
21830SOL    HW266932   6.491   6.388   5.467
21831SOL     OW66933   6.274   6.579   4.370
21831SOL    HW166934   6.341   6.577   4.438
21831SOL    HW266935   6.206   6.635   4.405
21832SOL     OW66936   5.923   6.984   4.816
21832SOL    HW166937   5.844   6.964   4.765
21832SOL    HW266938   5.978   7.035   4.755
21833SOL     OW66939   7.050   7.088   5.081
21833SOL    HW166940   7.104   7.166   5.090
21833SOL    HW266941   6.984   7.096   5.150
21834SOL     OW66942   6.036   5.979   5.213
21834SOL    HW166943   6.104   5.913   5.205
21834SOL    HW266944   5.956   5.929   5.231
21835SOL     OW66945   7.174   6.039   4.477
21835SOL    HW166946   7.094   6.033   4.424
21835SOL    HW266947   7.183   6.133   4.494
21836SOL     OW66948   5.806   7.299   4.193
21836SOL    HW166949   5.828   7.366   4.258
21836SOL    HW266950   5.883   7.294   4.137
21837SOL     OW66951   6.702   6.878   5.427
21837SOL    HW166952   6.771   6.890   5.491
21837SOL    HW266953   6.747   6.848   5.348
21838SOL     OW66954   5.859   7.052   4.315
21838SOL    HW166955   5.826   7.135   4.282
21838SOL    HW266956   5.781   6.999   4.330
21839SOL     OW66957   5.849   6.689   4.616
21839SOL    HW166958   5.840   6.599   4.648
21839SOL    HW266959   5.790   6.740   4.672
21840SOL     OW66960   6.216   7.375   5.189
21840SOL    HW166961   6.123   7.395   5.183
21840SOL    HW266962   6.260   7.460   5.179
21841SOL     OW66963   6.191   6.556   3.840
21841SOL    HW166964   6.237   6.617   3.783
21841SOL    HW266965   6.202   6.592   3.928
21842SOL     OW66966   7.195   5.725   5.181
21842SOL    HW166967   7.208   5.809   5.137
21842SOL    HW266968   7.180   5.748   5.273
21843SOL     OW66969   5.704   6.241   4.287
21843SOL    HW166970   5.667   6.157   4.314
21843SOL    HW266971   5.692   6.298   4.362
21844SOL     OW66972   7.430   7.331   4.033
21844SOL    HW166973   7.497   7.306   4.097
21844SOL    HW266974   7.446   7.424   4.017
21845SOL     OW66975   5.592   7.191   3.833
21845SOL    HW166976   5.587   7.097   3.847
21845SOL    HW266977   5.586   7.229   3.921
21846SOL     OW66978   7.236   6.469   4.324
21846SOL    HW166979   7.325   6.475   4.359
21846SOL    HW266980   7.230   6.540   4.260
21847SOL     OW66981   7.238   6.694   4.157
21847SOL    HW166982   7.325   6.694   4.118
21847SOL    HW266983   7.245   6.751   4.233
21848SOL     OW66984   5.701   6.333   5.305
21848SOL    HW166985   5.786   6.375   5.294
21848SOL    HW266986   5.638   6.402   5.285
21849SOL     OW66987   6.213   6.979   4.447
21849SOL    HW166988   6.164   6.898   4.463
21849SOL    HW266989   6.188   7.005   4.358
21850SOL     OW66990   6.404   5.607   4.243
21850SOL    HW166991   6.448   5.687   4.214
21850SOL    HW266992   6.311   5.625   4.232
21851SOL     OW66993   5.768   6.537   5.030
21851SOL    HW166994   5.854   6.502   5.005
21851SOL    HW266995   5.710   6.511   4.958
21852SOL     OW66996   7.118   6.589   3.927
21852SOL    HW166997   7.051   6.530   3.963
21852SOL    HW266998   7.160   6.626   4.004
21853SOL     OW66999   6.781   7.384   5.353
21853SOL    HW167000   6.783   7.451   5.285
21853SOL    HW267001   6.798   7.302   5.307
21854SOL     OW67002   5.934   5.864   5.627
21854SOL    HW167003   5.974   5.828   5.548
21854SOL    HW267004   5.841   5.873   5.606
21855SOL     OW67005   7.060   7.002   4.674
21855SOL    HW167006   6.990   7.024   4.736
21855SOL    HW267007   7.040   6.911   4.649
21856SOL     OW67008   7.243   7.339   4.295
21856SOL    HW167009   7.218   7.305   4.210
21856SOL    HW267010   7.225   7.268   4.356
21857SOL     OW67011   6.170   6.293   3.985
21857SOL    HW167012   6.180   6.379   3.944
21857SOL    HW267013   6.108   6.308   4.056
21858SOL     OW67014   6.864   5.974   4.673
21858SOL    HW167015   6.772   5.948   4.672
21858SOL    HW267016   6.909   5.901   4.717
21859SOL     OW67017   7.166   7.257   4.032
21859SOL    HW167018   7.259   7.280   4.024
21859SOL    HW267019   7.139   7.237   3.942
21860SOL     OW67020   6.385   6.179   5.188
21860SOL    HW167021   6.338   6.155   5.269
21860SOL    HW267022   6.345   6.124   5.121
21861SOL     OW67023   6.979   6.063   5.402
21861SOL    HW167024   6.979   6.112   5.484
21861SOL    HW267025   7.049   5.999   5.413
21862SOL     OW67026   6.534   6.473   5.313
21862SOL    HW167027   6.590   6.407   5.273
21862SOL    HW267028   6.489   6.513   5.238
21863SOL     OW67029   6.586   5.989   4.967
21863SOL    HW167030   6.500   6.008   5.005
21863SOL    HW267031   6.568   5.975   4.874
21864SOL     OW67032   6.642   6.279   4.147
21864SOL    HW167033   6.657   6.274   4.242
21864SOL    HW267034   6.556   6.238   4.135
21865SOL     OW67035   5.665   6.425   4.490
21865SOL    HW167036   5.743   6.411   4.543
21865SOL    HW267037   5.616   6.493   4.536
21866SOL     OW67038   5.665   7.412   5.340
21866SOL    HW167039   5.636   7.330   5.301
21866SOL    HW267040   5.662   7.476   5.269
21867SOL     OW67041   6.487   5.924   3.903
21867SOL    HW167042   6.521   5.998   3.851
21867SOL    HW267043   6.521   5.846   3.859
21868SOL     OW67044   7.246   6.165   5.572
21868SOL    HW167045   7.237   6.233   5.506
21868SOL    HW267046   7.329   6.121   5.551
21869SOL     OW67047   6.961   6.736   4.258
21869SOL    HW167048   7.043   6.734   4.208
21869SOL    HW267049   6.907   6.801   4.214
21870SOL     OW67050   6.176   5.786   4.630
21870SOL    HW167051   6.164   5.797   4.725
21870SOL    HW267052   6.127   5.859   4.591
21871SOL     OW67053   6.578   7.034   4.192
21871SOL    HW167054   6.554   7.108   4.136
21871SOL    HW267055   6.543   7.057   4.278
21872SOL     OW67056   7.354   6.587   4.576
21872SOL    HW167057   7.345   6.663   4.518
21872SOL    HW267058   7.315   6.616   4.659
21873SOL     OW67059   6.808   7.115   5.226
21873SOL    HW167060   6.819   7.020   5.219
21873SOL    HW267061   6.727   7.133   5.178
21874SOL     OW67062   5.915   6.521   3.987
21874SOL    HW167063   5.914   6.617   3.987
21874SOL    HW267064   5.917   6.498   3.894
21875SOL     OW67065   7.098   6.313   4.497
21875SOL    HW167066   7.040   6.371   4.546
21875SOL    HW267067   7.153   6.371   4.446
21876SOL     OW67068   6.061   6.808   5.490
21876SOL    HW167069   6.041   6.839   5.402
21876SOL    HW267070   5.976   6.790   5.529
21877SOL     OW67071   6.722   7.365   3.937
21877SOL    HW167072   6.644   7.339   3.987
21877SOL    HW267073   6.739   7.291   3.879
21878SOL     OW67074   5.778   5.866   5.259
21878SOL    HW167075   5.696   5.895   5.221
21878SOL    HW267076   5.765   5.772   5.275
21879SOL     OW67077   7.217   6.955   3.820
21879SOL    HW167078   7.183   7.043   3.808
21879SOL    HW267079   7.145   6.897   3.797
21880SOL     OW67080   6.047   7.318   4.045
21880SOL    HW167081   6.085   7.378   4.109
21880SOL    HW267082   6.122   7.279   4.001
21881SOL     OW67083   6.989   5.699   4.164
21881SOL    HW167084   6.980   5.675   4.072
21881SOL    HW267085   7.083   5.708   4.178
21882SOL     OW67086   5.884   7.376   4.960
21882SOL    HW167087   5.881   7.283   4.979
21882SOL    HW267088   5.906   7.382   4.867
21883SOL     OW67089   6.531   7.288   4.611
21883SOL    HW167090   6.596   7.229   4.649
21883SOL    HW267091   6.491   7.236   4.541
21884SOL     OW67092   5.984   6.272   4.196
21884SOL    HW167093   5.993   6.179   4.213
21884SOL    HW267094   5.893   6.292   4.217
21885SOL     OW67095   7.126   5.822   5.435
21885SOL    HW167096   7.149   5.836   5.527
21885SOL    HW267097   7.039   5.783   5.437
21886SOL     OW67098   6.233   5.705   3.824
21886SOL    HW167099   6.300   5.637   3.833
21886SOL    HW267100   6.176   5.674   3.753
21887SOL     OW67101   6.385   5.894   5.535
21887SOL    HW167102   6.458   5.834   5.523
21887SOL    HW267103   6.307   5.844   5.509
21888SOL     OW67104   6.462   7.117   4.906
21888SOL    HW167105   6.435   7.084   4.820
21888SOL    HW267106   6.529   7.054   4.935
21889SOL     OW67107   6.919   6.167   5.155
21889SOL    HW167108   6.950   6.144   5.242
21889SOL    HW267109   6.953   6.255   5.139
21890SOL     OW67110   6.408   6.970   4.671
21890SOL    HW167111   6.489   6.965   4.621
21890SOL    HW267112   6.341   6.987   4.605
21891SOL     OW67113   6.569   6.092   4.615
21891SOL    HW167114   6.520   6.090   4.533
21891SOL    HW267115   6.567   6.002   4.647
21892SOL     OW67116   6.139   5.648   4.214
21892SOL    HW167117   6.063   5.648   4.273
21892SOL    HW267118   6.124   5.722   4.155
21893SOL     OW67119   7.008   6.786   3.761
21893SOL    HW167120   7.038   6.712   3.814
21893SOL    HW267121   6.924   6.810   3.801
21894SOL     OW67122   5.893   5.654   3.914
21894SOL    HW167123   5.957   5.722   3.937
21894SOL    HW267124   5.929   5.573   3.949
21895SOL     OW67125   6.526   5.839   4.164
21895SOL    HW167126   6.504   5.877   4.078
21895SOL    HW267127   6.619   5.861   4.176
21896SOL     OW67128   6.651   6.269   5.179
21896SOL    HW167129   6.577   6.209   5.186
21896SOL    HW267130   6.728   6.212   5.175
21897SOL     OW67131   6.825   7.155   4.510
21897SOL    HW167132   6.825   7.223   4.443
21897SOL    HW267133   6.867   7.196   4.586
21898SOL     OW67134   6.070   6.739   4.463
21898SOL    HW167135   6.002   6.730   4.529
21898SOL    HW267136   6.027   6.718   4.380
21899SOL     OW67137   6.846   7.375   4.334
21899SOL    HW167138   6.895   7.441   4.286
21899SOL    HW267139   6.773   7.423   4.374
21900SOL     OW67140   6.605   6.117   3.748
21900SOL    HW167141   6.558   6.197   3.722
21900SOL    HW267142   6.668   6.146   3.814
21901SOL     OW67143   5.686   6.141   5.108
21901SOL    HW167144   5.778   6.146   5.084
21901SOL    HW267145   5.674   6.208   5.175
21902SOL     OW67146   6.162   5.799   4.909
21902SOL    HW167147   6.192   5.777   4.997
21902SOL    HW267148   6.066   5.804   4.918
21903SOL     OW67149   6.459   6.043   4.369
21903SOL    HW167150   6.384   6.100   4.353
21903SOL    HW267151   6.464   5.987   4.292
21904SOL     OW67152   7.026   6.743   4.582
21904SOL    HW167153   6.936   6.718   4.564
21904SOL    HW267154   7.066   6.752   4.495
21905SOL     OW67155   7.437   6.384   4.101
21905SOL    HW167156   7.492   6.338   4.164
21905SOL    HW267157   7.414   6.317   4.036
21906SOL     OW67158   6.096   7.009   3.867
21906SOL    HW167159   6.033   6.966   3.924
21906SOL    HW267160   6.083   6.967   3.781
21907SOL     OW67161   7.257   6.835   4.390
21907SOL    HW167162   7.353   6.837   4.397
21907SOL    HW267163   7.230   6.926   4.401
21908SOL     OW67164   6.976   6.159   3.795
21908SOL    HW167165   6.912   6.139   3.864
21908SOL    HW267166   7.061   6.154   3.838
21909SOL     OW67167   6.093   5.833   4.020
21909SOL    HW167168   6.158   5.802   3.956
21909SOL    HW267169   6.077   5.924   3.995
21910SOL     OW67170   7.349   6.836   5.278
21910SOL    HW167171   7.436   6.801   5.259
21910SOL    HW267172   7.365   6.927   5.303
21911SOL     OW67173   6.615   6.918   5.018
21911SOL    HW167174   6.535   6.897   5.066
21911SOL    HW267175   6.685   6.877   5.068
21912SOL     OW67176   7.201   7.212   5.385
21912SOL    HW167177   7.189   7.252   5.299
21912SOL    HW267178   7.286   7.168   5.380
21913SOL     OW67179   6.730   6.790   4.797
21913SOL    HW167180   6.672   6.821   4.866
21913SOL    HW267181   6.701   6.837   4.718
21914SOL     OW67182   7.210   6.688   4.793
21914SOL    HW167183   7.202   6.753   4.863
21914SOL    HW267184   7.135   6.705   4.735
21915SOL     OW67185   6.515   5.681   5.124
21915SOL    HW167186   6.527   5.672   5.030
21915SOL    HW267187   6.594   5.724   5.155
21916SOL     OW67188   6.499   6.701   5.454
21916SOL    HW167189   6.569   6.764   5.436
21916SOL    HW267190   6.518   6.626   5.398
21917SOL     OW67191   6.292   6.642   4.093
21917SOL    HW167192   6.275   6.625   4.185
21917SOL    HW267193   6.367   6.587   4.072
21918SOL     OW67194   6.012   6.417   4.981
21918SOL    HW167195   6.079   6.421   5.050
21918SOL    HW267196   5.980   6.327   4.985
21919SOL     OW67197   6.855   5.967   4.990
21919SOL    HW167198   6.881   6.038   5.049
21919SOL    HW267199   6.760   5.979   4.979
21920SOL     OW67200   5.661   7.232   5.110
21920SOL    HW167201   5.630   7.282   5.034
21920SOL    HW267202   5.662   7.142   5.079
21921SOL     OW67203   5.940   6.664   4.241
21921SOL    HW167204   5.929   6.733   4.175
21921SOL    HW267205   5.940   6.582   4.191
21922SOL     OW67206   6.223   6.132   4.583
21922SOL    HW167207   6.208   6.192   4.511
21922SOL    HW267208   6.136   6.120   4.623
21923SOL     OW67209   6.827   6.943   4.118
21923SOL    HW167210   6.883   7.014   4.151
21923SOL    HW267211   6.740   6.964   4.151
21924SOL     OW67212   6.878   7.046   4.872
21924SOL    HW167213   6.934   7.051   4.949
21924SOL    HW267214   6.822   6.970   4.888
21925SOL     OW67215   7.178   6.206   4.204
21925SOL    HW167216   7.125   6.240   4.276
21925SOL    HW267217   7.230   6.281   4.175
21926SOL     OW67218   5.955   7.111   5.057
21926SOL    HW167219   5.920   7.063   4.981
21926SOL    HW267220   6.047   7.125   5.036
21927SOL     OW67221   5.995   6.342   5.332
21927SOL    HW167222   6.065   6.373   5.274
21927SOL    HW267223   5.997   6.247   5.323
21928SOL     OW67224   7.194   6.372   5.400
21928SOL    HW167225   7.106   6.409   5.391
21928SOL    HW267226   7.246   6.418   5.334
21929SOL     OW67227   6.599   5.728   5.507
21929SOL    HW167228   6.652   5.794   5.462
21929SOL    HW267229   6.608   5.649   5.454
21930SOL     OW67230   6.168   6.470   4.762
21930SOL    HW167231   6.193   6.562   4.762
21930SOL    HW267232   6.106   6.462   4.834
21931SOL     OW67233   6.913   6.382   4.746
21931SOL    HW167234   6.823   6.389   4.716
21931SOL    HW267235   6.925   6.458   4.803
21932SOL     OW67236   6.784   6.109   3.985
21932SOL    HW167237   6.790   6.033   4.042
21932SOL    HW267238   6.742   6.176   4.038
21933SOL     OW67239   5.903   5.784   4.987
21933SOL    HW167240   5.826   5.810   5.038
21933SOL    HW267241   5.885   5.693   4.962
21934SOL     OW67242   6.337   6.257   4.798
21934SOL    HW167243   6.318   6.204   4.721
21934SOL    HW267244   6.280   6.333   4.790
21935SOL     OW67245   7.331   6.536   5.588
21935SOL    HW167246   7.281   6.485   5.525
21935SOL    HW267247   7.268   6.560   5.656
21936SOL     OW67248   5.897   5.656   4.339
21936SOL    HW167249   5.866   5.743   4.362
21936SOL    HW267250   5.904   5.609   4.422
21937SOL     OW67251   7.210   5.969   4.077
21937SOL    HW167252   7.239   5.906   4.142
21937SOL    HW267253   7.188   6.048   4.126
21938SOL     OW67254   6.643   6.343   4.684
21938SOL    HW167255   6.616   6.368   4.772
21938SOL    HW267256   6.603   6.258   4.670
21939SOL     OW67257   6.568   7.122   5.444
21939SOL    HW167258   6.553   7.169   5.362
21939SOL    HW267259   6.616   7.043   5.418
21940SOL     OW67260   7.447   7.089   5.327
21940SOL    HW167261   7.459   7.123   5.238
21940SOL    HW267262   7.528   7.111   5.372
21941SOL     OW67263   5.965   6.489   5.565
21941SOL    HW167264   6.059   6.494   5.582
21941SOL    HW267265   5.958   6.436   5.485
21942SOL     OW67266   7.126   5.842   3.847
21942SOL    HW167267   7.055   5.786   3.879
21942SOL    HW267268   7.154   5.891   3.924
21943SOL     OW67269   6.872   6.412   3.753
21943SOL    HW167270   6.911   6.325   3.753
21943SOL    HW267271   6.903   6.452   3.672
21944SOL     OW67272   6.661   6.937   4.570
21944SOL    HW167273   6.667   6.866   4.507
21944SOL    HW267274   6.720   7.004   4.536
21945SOL     OW67275   5.891   6.400   4.658
21945SOL    HW167276   5.984   6.423   4.658
21945SOL    HW267277   5.890   6.307   4.682
21946SOL     OW67278   6.726   5.958   5.411
21946SOL    HW167279   6.675   6.009   5.474
21946SOL    HW267280   6.810   6.002   5.408
21947SOL     OW67281   6.761   5.783   5.204
21947SOL    HW167282   6.745   5.850   5.271
21947SOL    HW267283   6.795   5.831   5.129
21948SOL     OW67284   5.568   6.916   3.870
21948SOL    HW167285   5.504   6.849   3.893
21948SOL    HW267286   5.644   6.896   3.924
21949SOL     OW67287   5.651   7.368   4.660
21949SOL    HW167288   5.629   7.287   4.615
21949SOL    HW267289   5.746   7.375   4.652
21950SOL     OW67290   6.099   7.123   4.667
21950SOL    HW167291   6.062   7.211   4.657
21950SOL    HW267292   6.125   7.098   4.578
21951SOL     OW67293   6.559   6.376   4.937
21951SOL    HW167294   6.590   6.347   5.023
21951SOL    HW267295   6.479   6.326   4.922
21952SOL     OW67296   5.638   6.148   4.829
21952SOL    HW167297   5.719   6.126   4.783
21952SOL    HW267298   5.659   6.137   4.921
21953SOL     OW67299   5.770   6.109   5.455
21953SOL    HW167300   5.785   6.042   5.388
21953SOL    HW267301   5.736   6.184   5.406
21954SOL     OW67302   6.957   6.518   5.379
21954SOL    HW167303   7.013   6.595   5.388
21954SOL    HW267304   6.908   6.534   5.298
21955SOL     OW67305   6.406   6.158   4.076
21955SOL    HW167306   6.398   6.085   4.014
21955SOL    HW267307   6.330   6.214   4.058
21956SOL     OW67308   7.190   6.142   4.865
21956SOL    HW167309   7.200   6.098   4.950
21956SOL    HW267310   7.279   6.148   4.831
21957SOL     OW67311   5.832   7.137   5.509
21957SOL    HW167312   5.769   7.140   5.580
21957SOL    HW267313   5.851   7.044   5.496
21958SOL     OW67314   6.307   6.036   4.970
21958SOL    HW167315   6.244   5.969   4.945
21958SOL    HW267316   6.293   6.107   4.907
21959SOL     OW67317   6.519   7.229   5.191
21959SOL    HW167318   6.485   7.197   5.108
21959SOL    HW267319   6.520   7.324   5.183
21960SOL     OW67320   6.034   6.071   3.889
21960SOL    HW167321   6.099   6.137   3.913
21960SOL    HW267322   5.950   6.114   3.902
21961SOL     OW67323   5.804   6.714   5.241
21961SOL    HW167324   5.756   6.670   5.311
21961SOL    HW267325   5.783   6.664   5.162
21962SOL     OW67326   6.901   6.612   4.925
21962SOL    HW167327   6.846   6.662   4.864
21962SOL    HW267328   6.899   6.662   5.006
21963SOL     OW67329   6.907   6.436   4.027
21963SOL    HW167330   6.827   6.420   4.076
21963SOL    HW267331   6.881   6.430   3.935
21964SOL     OW67332   7.359   7.316   4.875
21964SOL    HW167333   7.423   7.344   4.809
21964SOL    HW267334   7.341   7.225   4.853
21965SOL     OW67335   6.818   7.310   4.813
21965SOL    HW167336   6.904   7.341   4.782
21965SOL    HW267337   6.833   7.220   4.840
21966SOL     OW67338   5.660   6.856   4.736
21966SOL    HW167339   5.648   6.883   4.827
21966SOL    HW267340   5.587   6.797   4.718
21967SOL     OW67341   6.271   7.252   5.463
21967SOL    HW167342   6.205   7.321   5.453
21967SOL    HW267343   6.338   7.275   5.399
21968SOL     OW67344   7.310   5.752   4.229
21968SOL    HW167345   7.379   5.738   4.165
21968SOL    HW267346   7.292   5.666   4.266
21969SOL     OW67347   6.979   7.156   4.213
21969SOL    HW167348   7.037   7.193   4.147
21969SOL    HW267349   6.928   7.231   4.245
21970SOL     OW67350   6.880   6.506   4.370
21970SOL    HW167351   6.951   6.452   4.334
21970SOL    HW267352   6.897   6.594   4.336
21971SOL     OW67353   6.366   6.865   5.129
21971SOL    HW167354   6.337   6.925   5.198
21971SOL    HW267355   6.298   6.872   5.062
21972SOL     OW67356   6.274   7.212   3.857
21972SOL    HW167357   6.265   7.238   3.765
21972SOL    HW267358   6.211   7.141   3.868
21973SOL     OW67359   7.202   7.312   5.114
21973SOL    HW167360   7.259   7.317   5.037
21973SOL    HW267361   7.186   7.403   5.138
21974SOL     OW67362   7.431   5.753   4.700
21974SOL    HW167363   7.455   5.665   4.672
21974SOL    HW267364   7.346   5.769   4.659
21975SOL     OW67365   5.834   5.906   4.426
21975SOL    HW167366   5.745   5.942   4.420
21975SOL    HW267367   5.850   5.897   4.520
21976SOL     OW67368   6.799   7.172   3.743
21976SOL    HW167369   6.788   7.087   3.786
21976SOL    HW267370   6.722   7.181   3.687
21977SOL     OW67371   6.410   6.593   5.102
21977SOL    HW167372   6.449   6.579   5.015
21977SOL    HW267373   6.398   6.688   5.108
21978SOL     OW67374   6.503   6.491   4.019
21978SOL    HW167375   6.558   6.526   3.949
21978SOL    HW267376   6.557   6.424   4.061
21979SOL     OW67377   7.076   7.205   3.769
21979SOL    HW167378   6.981   7.196   3.757
21979SOL    HW267379   7.111   7.207   3.681
21980SOL     OW67380   5.979   6.920   5.254
21980SOL    HW167381   5.960   6.981   5.182
21980SOL    HW267382   5.916   6.849   5.242
21981SOL     OW67383   7.202   6.872   4.995
21981SOL    HW167384   7.261   6.858   5.069
21981SOL    HW267385   7.134   6.929   5.030
21982SOL     OW67386   6.659   6.696   4.441
21982SOL    HW167387   6.583   6.657   4.483
21982SOL    HW267388   6.703   6.623   4.397
21983SOL     OW67389   6.591   5.831   4.704
21983SOL    HW167390   6.503   5.818   4.669
21983SOL    HW267391   6.605   5.757   4.763
21984SOL     OW67392   6.179   7.072   4.190
21984SOL    HW167393   6.186   7.021   4.110
21984SOL    HW267394   6.088   7.103   4.191
21985SOL     OW67395   7.300   5.970   5.067
21985SOL    HW167396   7.363   6.034   5.099
21985SOL    HW267397   7.353   5.903   5.024
21986SOL     OW67398   5.710   6.620   5.488
21986SOL    HW167399   5.622   6.595   5.519
21986SOL    HW267400   5.767   6.551   5.523
21987SOL     OW67401   6.250   5.775   5.178
21987SOL    HW167402   6.344   5.757   5.176
21987SOL    HW267403   6.225   5.761   5.269
21988SOL     OW67404   5.667   5.953   3.736
21988SOL    HW167405   5.617   5.878   3.768
21988SOL    HW267406   5.637   6.027   3.790
21989SOL     OW67407   7.015   6.413   5.088
21989SOL    HW167408   6.962   6.478   5.043
21989SOL    HW267409   7.105   6.444   5.076
21990SOL     OW67410   5.651   5.738   4.036
21990SOL    HW167411   5.658   5.827   4.071
21990SOL    HW267412   5.739   5.718   4.003
21991SOL     OW67413   6.763   6.919   3.847
21991SOL    HW167414   6.670   6.897   3.848
21991SOL    HW267415   6.788   6.922   3.940
21992SOL     OW67416   6.216   6.408   5.168
21992SOL    HW167417   6.272   6.482   5.145
21992SOL    HW267418   6.275   6.332   5.171
21993SOL     OW67419   7.071   7.369   4.708
21993SOL    HW167420   7.086   7.441   4.647
21993SOL    HW267421   7.156   7.355   4.749
21994SOL     OW67422   6.308   6.144   5.461
21994SOL    HW167423   6.377   6.205   5.485
21994SOL    HW267424   6.346   6.057   5.475
21995SOL     OW67425   7.135   6.717   5.408
21995SOL    HW167426   7.102   6.770   5.481
21995SOL    HW267427   7.196   6.775   5.363
21996SOL     OW67428   5.937   7.321   5.257
21996SOL    HW167429   5.884   7.362   5.188
21996SOL    HW267430   5.945   7.230   5.229
21997SOL     OW67431   7.263   6.483   4.972
21997SOL    HW167432   7.260   6.407   4.915
21997SOL    HW267433   7.248   6.557   4.913
21998SOL     OW67434   6.799   5.905   4.182
21998SOL    HW167435   6.863   5.834   4.175
21998SOL    HW267436   6.827   5.956   4.258
21999SOL     OW67437   6.199   6.309   4.371
21999SOL    HW167438   6.225   6.401   4.370
21999SOL    HW267439   6.122   6.305   4.315
22000SOL     OW67440   7.397   5.949   5.345
22000SOL    HW167441   7.305   5.956   5.320
22000SOL    HW267442   7.395   5.929   5.439
22001SOL     OW67443   7.345   6.525   5.232
22001SOL    HW167444   7.317   6.614   5.255
22001SOL    HW267445   7.326   6.518   5.139
22002SOL     OW67446   6.452   6.993   3.774
22002SOL    HW167447   6.438   6.947   3.857
22002SOL    HW267448   6.406   7.076   3.785
22003SOL     OW67449   6.259   7.438   4.756
22003SOL    HW167450   6.170   7.423   4.723
22003SOL    HW267451   6.315   7.413   4.682
22004SOL     OW67452   6.459   6.567   4.581
22004SOL    HW167453   6.496   6.489   4.622
22004SOL    HW267454   6.412   6.611   4.652
22005SOL     OW67455   6.658   6.572   3.812
22005SOL    HW167456   6.636   6.625   3.736
22005SOL    HW267457   6.732   6.518   3.783
22006SOL     OW67458   7.423   7.131   4.553
22006SOL    HW167459   7.338   7.125   4.508
22006SOL    HW267460   7.408   7.089   4.637
22007SOL     OW67461   5.799   6.863   5.571
22007SOL    HW167462   5.766   6.786   5.524
22007SOL    HW267463   5.732   6.881   5.637
22008SOL     OW67464   5.683   6.811   4.385
22008SOL    HW167465   5.705   6.773   4.470
22008SOL    HW267466   5.753   6.780   4.327
22009SOL     OW67467   6.241   6.996   5.343
22009SOL    HW167468   6.156   6.995   5.300
22009SOL    HW267469   6.250   7.086   5.376
22010SOL     OW67470   7.449   5.738   4.970
22010SOL    HW167471   7.387   5.666   4.978
22010SOL    HW267472   7.447   5.762   4.878
22011SOL     OW67473   6.004   6.009   4.240
22011SOL    HW167474   6.038   5.926   4.206
22011SOL    HW267475   5.950   5.984   4.315
22012SOL     OW67476   7.295   7.057   4.800
22012SOL    HW167477   7.211   7.047   4.755
22012SOL    HW267478   7.288   7.000   4.877
22013SOL     OW67479   5.943   6.158   5.030
22013SOL    HW167480   5.983   6.089   5.084
22013SOL    HW267481   5.949   6.124   4.940
22014SOL     OW67482   6.422   7.160   4.393
22014SOL    HW167483   6.391   7.234   4.341
22014SOL    HW267484   6.346   7.103   4.402
22015SOL     OW67485   7.013   5.808   4.831
22015SOL    HW167486   7.014   5.716   4.858
22015SOL    HW267487   6.968   5.853   4.902
22016SOL     OW67488   6.599   5.601   4.862
22016SOL    HW167489   6.540   5.527   4.845
22016SOL    HW267490   6.686   5.562   4.860
22017SOL     OW67491   6.402   6.887   4.014
22017SOL    HW167492   6.355   6.809   4.043
22017SOL    HW267493   6.447   6.919   4.092
22018SOL     OW67494   6.222   7.147   5.031
22018SOL    HW167495   6.226   7.229   5.081
22018SOL    HW267496   6.299   7.150   4.974
22019SOL     OW67497   6.942   5.639   3.899
22019SOL    HW167498   6.977   5.567   3.845
22019SOL    HW267499   6.853   5.611   3.921
22020SOL     OW67500   6.887   6.047   4.404
22020SOL    HW167501   6.835   6.127   4.397
22020SOL    HW267502   6.873   6.017   4.494
22021SOL     OW67503   7.177   5.789   4.609
22021SOL    HW167504   7.120   5.807   4.684
22021SOL    HW267505   7.175   5.870   4.558
22022SOL     OW67506   5.614   6.653   4.010
22022SOL    HW167507   5.699   6.696   4.015
22022SOL    HW267508   5.632   6.561   4.029
22023SOL     OW67509   6.486   7.251   4.046
22023SOL    HW167510   6.410   7.236   3.990
22023SOL    HW267511   6.456   7.312   4.114
22024SOL     OW67512   5.800   6.221   5.717
22024SOL    HW167513   5.712   6.213   5.752
22024SOL    HW267514   5.792   6.193   5.626
22025SOL     OW67515   5.815   5.878   6.576
22025SOL    HW167516   5.841   5.843   6.662
22025SOL    HW267517   5.726   5.846   6.563
22026SOL     OW67518   5.586   5.953   6.230
22026SOL    HW167519   5.509   5.990   6.273
22026SOL    HW267520   5.552   5.878   6.180
22027SOL     OW67521   6.112   6.870   6.770
22027SOL    HW167522   6.084   6.889   6.681
22027SOL    HW267523   6.152   6.953   6.800
22028SOL     OW67524   7.151   7.099   6.286
22028SOL    HW167525   7.101   7.065   6.360
22028SOL    HW267526   7.091   7.096   6.212
22029SOL     OW67527   6.727   6.296   6.288
22029SOL    HW167528   6.777   6.377   6.279
22029SOL    HW267529   6.679   6.306   6.371
22030SOL     OW67530   7.323   6.190   5.834
22030SOL    HW167531   7.293   6.197   5.743
22030SOL    HW267532   7.361   6.103   5.840
22031SOL     OW67533   6.355   6.735   6.655
22031SOL    HW167534   6.272   6.749   6.700
22031SOL    HW267535   6.369   6.816   6.606
22032SOL     OW67536   6.472   6.350   7.418
22032SOL    HW167537   6.430   6.419   7.470
22032SOL    HW267538   6.484   6.388   7.332
22033SOL     OW67539   6.273   6.578   6.230
22033SOL    HW167540   6.336   6.573   6.302
22033SOL    HW267541   6.204   6.635   6.262
22034SOL     OW67542   6.296   6.734   7.407
22034SOL    HW167543   6.343   6.811   7.438
22034SOL    HW267544   6.219   6.769   7.363
22035SOL     OW67545   5.895   7.007   6.641
22035SOL    HW167546   5.827   6.968   6.586
22035SOL    HW267547   5.947   7.060   6.580
22036SOL     OW67548   7.007   7.121   6.949
22036SOL    HW167549   7.071   7.191   6.951
22036SOL    HW267550   7.059   7.040   6.951
22037SOL     OW67551   6.032   5.954   7.152
22037SOL    HW167552   6.095   5.916   7.091
22037SOL    HW267553   5.947   5.919   7.123
22038SOL     OW67554   7.171   6.030   6.329
22038SOL    HW167555   7.104   6.057   6.265
22038SOL    HW267556   7.247   6.083   6.307
22039SOL     OW67557   5.805   7.304   6.045
22039SOL    HW167558   5.830   7.378   6.101
22039SOL    HW267559   5.879   7.294   5.985
22040SOL     OW67560   6.732   6.895   7.300
22040SOL    HW167561   6.805   6.843   7.332
22040SOL    HW267562   6.661   6.831   7.287
22041SOL     OW67563   5.825   7.039   6.131
22041SOL    HW167564   5.801   7.131   6.118
22041SOL    HW267565   5.755   7.004   6.186
22042SOL     OW67566   5.881   6.682   6.512
22042SOL    HW167567   5.878   6.588   6.528
22042SOL    HW267568   5.797   6.714   6.544
22043SOL     OW67569   6.182   7.376   7.015
22043SOL    HW167570   6.099   7.363   7.060
22043SOL    HW267571   6.207   7.466   7.036
22044SOL     OW67572   6.196   6.586   5.716
22044SOL    HW167573   6.117   6.640   5.711
22044SOL    HW267574   6.237   6.613   5.798
22045SOL     OW67575   7.177   5.710   7.043
22045SOL    HW167576   7.224   5.773   6.989
22045SOL    HW267577   7.148   5.760   7.119
22046SOL     OW67578   5.725   6.228   6.135
22046SOL    HW167579   5.661   6.157   6.138
22046SOL    HW267580   5.709   6.278   6.215
22047SOL     OW67581   7.428   7.341   5.929
22047SOL    HW167582   7.507   7.319   5.980
22047SOL    HW267583   7.445   7.429   5.896
22048SOL     OW67584   5.652   7.191   5.698
22048SOL    HW167585   5.608   7.107   5.712
22048SOL    HW267586   5.618   7.248   5.767
22049SOL     OW67587   7.267   6.484   6.217
22049SOL    HW167588   7.351   6.442   6.199
22049SOL    HW267589   7.250   6.537   6.139
22050SOL     OW67590   7.234   6.685   6.018
22050SOL    HW167591   7.320   6.691   5.977
22050SOL    HW267592   7.239   6.743   6.094
22051SOL     OW67593   5.705   6.335   7.155
22051SOL    HW167594   5.798   6.358   7.159
22051SOL    HW267595   5.661   6.415   7.127
22052SOL     OW67596   6.188   6.976   6.334
22052SOL    HW167597   6.147   6.889   6.328
22052SOL    HW267598   6.187   7.009   6.244
22053SOL     OW67599   6.865   6.826   7.016
22053SOL    HW167600   6.888   6.761   6.950
22053SOL    HW267601   6.941   6.827   7.075
22054SOL     OW67602   6.406   5.599   6.112
22054SOL    HW167603   6.445   5.680   6.080
22054SOL    HW267604   6.312   5.617   6.114
22055SOL     OW67605   5.813   6.592   6.836
22055SOL    HW167606   5.891   6.536   6.837
22055SOL    HW267607   5.742   6.533   6.811
22056SOL     OW67608   7.120   6.582   5.788
22056SOL    HW167609   7.051   6.524   5.820
22056SOL    HW267610   7.163   6.613   5.868
22057SOL     OW67611   6.773   7.389   7.224
22057SOL    HW167612   6.789   7.459   7.161
22057SOL    HW267613   6.780   7.308   7.174
22058SOL     OW67614   5.924   5.844   7.429
22058SOL    HW167615   5.955   5.915   7.374
22058SOL    HW267616   5.829   5.859   7.437
22059SOL     OW67617   7.017   7.007   6.496
22059SOL    HW167618   6.964   7.025   6.574
22059SOL    HW267619   7.016   6.911   6.489
22060SOL     OW67620   7.230   7.346   6.160
22060SOL    HW167621   7.212   7.334   6.067
22060SOL    HW267622   7.282   7.270   6.185
22061SOL     OW67623   6.198   6.317   5.851
22061SOL    HW167624   6.195   6.404   5.812
22061SOL    HW267625   6.128   6.318   5.917
22062SOL     OW67626   6.863   5.956   6.522
22062SOL    HW167627   6.775   5.919   6.527
22062SOL    HW267628   6.916   5.900   6.580
22063SOL     OW67629   7.165   7.255   5.898
22063SOL    HW167630   7.258   7.278   5.888
22063SOL    HW267631   7.134   7.243   5.808
22064SOL     OW67632   6.382   6.199   7.029
22064SOL    HW167633   6.359   6.171   7.118
22064SOL    HW267634   6.347   6.129   6.973
22065SOL     OW67635   6.994   6.074   7.261
22065SOL    HW167636   7.067   6.121   7.302
22065SOL    HW267637   7.024   5.983   7.257
22066SOL     OW67638   6.532   6.465   7.174
22066SOL    HW167639   6.583   6.395   7.133
22066SOL    HW267640   6.484   6.504   7.101
22067SOL     OW67641   6.583   5.989   6.811
22067SOL    HW167642   6.491   5.999   6.837
22067SOL    HW267643   6.579   5.957   6.721
22068SOL     OW67644   6.645   6.274   6.028
22068SOL    HW167645   6.681   6.283   6.116
22068SOL    HW267646   6.563   6.227   6.041
22069SOL     OW67647   5.690   6.383   6.349
22069SOL    HW167648   5.746   6.397   6.426
22069SOL    HW267649   5.631   6.459   6.350
22070SOL     OW67650   5.702   7.451   7.167
22070SOL    HW167651   5.686   7.411   7.253
22070SOL    HW267652   5.624   7.430   7.116
22071SOL     OW67653   6.451   5.974   5.790
22071SOL    HW167654   6.526   6.016   5.747
22071SOL    HW267655   6.424   5.905   5.729
22072SOL     OW67656   7.231   6.155   7.412
22072SOL    HW167657   7.227   6.234   7.358
22072SOL    HW267658   7.279   6.092   7.358
22073SOL     OW67659   6.963   6.728   6.115
22073SOL    HW167660   7.043   6.713   6.064
22073SOL    HW267661   6.913   6.791   6.064
22074SOL     OW67662   6.171   5.777   6.491
22074SOL    HW167663   6.164   5.810   6.580
22074SOL    HW267664   6.163   5.854   6.435
22075SOL     OW67665   6.589   7.043   6.060
22075SOL    HW167666   6.556   7.111   6.000
22075SOL    HW267667   6.547   7.063   6.143
22076SOL     OW67668   5.941   7.403   6.462
22076SOL    HW167669   5.988   7.320   6.467
22076SOL    HW267670   6.009   7.470   6.475
22077SOL     OW67671   7.393   6.593   6.461
22077SOL    HW167672   7.322   6.600   6.397
22077SOL    HW267673   7.395   6.679   6.504
22078SOL     OW67674   6.820   7.120   7.138
22078SOL    HW167675   6.786   7.032   7.124
22078SOL    HW267676   6.885   7.133   7.069
22079SOL     OW67677   5.880   6.532   5.829
22079SOL    HW167678   5.905   6.517   5.738
22079SOL    HW267679   5.829   6.455   5.853
22080SOL     OW67680   7.052   6.356   6.328
22080SOL    HW167681   7.066   6.299   6.404
22080SOL    HW267682   7.139   6.389   6.306
22081SOL     OW67683   6.051   6.837   7.310
22081SOL    HW167684   6.028   6.767   7.250
22081SOL    HW267685   5.969   6.856   7.357
22082SOL     OW67686   6.728   7.331   5.843
22082SOL    HW167687   6.636   7.311   5.862
22082SOL    HW267688   6.747   7.282   5.763
22083SOL     OW67689   5.783   5.858   7.094
22083SOL    HW167690   5.706   5.907   7.066
22083SOL    HW267691   5.749   5.773   7.120
22084SOL     OW67692   7.225   6.983   5.696
22084SOL    HW167693   7.187   7.066   5.667
22084SOL    HW267694   7.158   6.918   5.678
22085SOL     OW67695   6.050   7.319   5.905
22085SOL    HW167696   6.100   7.381   5.959
22085SOL    HW267697   6.113   7.288   5.840
22086SOL     OW67698   6.991   5.686   6.035
22086SOL    HW167699   6.984   5.667   5.941
22086SOL    HW267700   7.083   5.712   6.047
22087SOL     OW67701   5.840   7.361   6.805
22087SOL    HW167702   5.922   7.310   6.808
22087SOL    HW267703   5.811   7.354   6.715
22088SOL     OW67704   6.509   7.289   6.482
22088SOL    HW167705   6.582   7.236   6.513
22088SOL    HW267706   6.474   7.240   6.407
22089SOL     OW67707   5.993   6.274   6.056
22089SOL    HW167708   6.014   6.183   6.076
22089SOL    HW267709   5.898   6.280   6.068
22090SOL     OW67710   7.093   5.813   7.304
22090SOL    HW167711   7.090   5.833   7.397
22090SOL    HW267712   7.037   5.736   7.294
22091SOL     OW67713   6.245   5.686   5.755
22091SOL    HW167714   6.306   5.613   5.745
22091SOL    HW267715   6.207   5.697   5.668
22092SOL     OW67716   6.364   5.869   7.356
22092SOL    HW167717   6.442   5.815   7.344
22092SOL    HW267718   6.303   5.813   7.403
22093SOL     OW67719   6.448   7.090   6.781
22093SOL    HW167720   6.440   7.060   6.690
22093SOL    HW267721   6.528   7.047   6.812
22094SOL     OW67722   6.917   6.177   7.010
22094SOL    HW167723   6.956   6.153   7.094
22094SOL    HW267724   6.951   6.265   6.992
22095SOL     OW67725   6.398   6.977   6.526
22095SOL    HW167726   6.483   6.961   6.483
22095SOL    HW267727   6.336   6.984   6.454
22096SOL     OW67728   6.519   6.097   6.483
22096SOL    HW167729   6.497   6.092   6.390
22096SOL    HW267730   6.546   6.007   6.505
22097SOL     OW67731   6.136   5.655   6.102
22097SOL    HW167732   6.050   5.653   6.145
22097SOL    HW267733   6.131   5.729   6.041
22098SOL     OW67734   7.026   6.805   5.650
22098SOL    HW167735   7.045   6.722   5.693
22098SOL    HW267736   6.936   6.825   5.674
22099SOL     OW67737   5.872   5.636   5.772
22099SOL    HW167738   5.914   5.705   5.720
22099SOL    HW267739   5.942   5.574   5.791
22100SOL     OW67740   6.525   5.845   6.038
22100SOL    HW167741   6.499   5.881   5.953
22100SOL    HW267742   6.620   5.855   6.041
22101SOL     OW67743   6.658   6.268   7.042
22101SOL    HW167744   6.589   6.202   7.033
22101SOL    HW267745   6.739   6.220   7.023
22102SOL     OW67746   6.060   6.736   6.310
22102SOL    HW167747   5.995   6.714   6.377
22102SOL    HW267748   6.014   6.722   6.227
22103SOL     OW67749   6.854   7.426   6.218
22103SOL    HW167750   6.886   7.472   6.141
22103SOL    HW267751   6.774   7.472   6.242
22104SOL     OW67752   6.622   6.121   5.621
22104SOL    HW167753   6.586   6.207   5.598
22104SOL    HW267754   6.693   6.140   5.682
22105SOL     OW67755   5.706   6.131   6.974
22105SOL    HW167756   5.695   6.184   6.895
22105SOL    HW267757   5.698   6.193   7.046
22106SOL     OW67758   6.149   5.802   6.767
22106SOL    HW167759   6.184   5.759   6.845
22106SOL    HW267760   6.054   5.805   6.782
22107SOL     OW67761   6.448   6.050   6.221
22107SOL    HW167762   6.353   6.059   6.208
22107SOL    HW267763   6.472   5.976   6.165
22108SOL     OW67764   6.594   5.641   6.335
22108SOL    HW167765   6.537   5.635   6.259
22108SOL    HW267766   6.571   5.565   6.389
22109SOL     OW67767   7.040   6.740   6.444
22109SOL    HW167768   6.978   6.668   6.429
22109SOL    HW267769   7.086   6.749   6.360
22110SOL     OW67770   7.042   6.207   6.567
22110SOL    HW167771   7.006   6.121   6.546
22110SOL    HW267772   7.106   6.190   6.637
22111SOL     OW67773   7.434   6.400   5.970
22111SOL    HW167774   7.490   6.346   6.025
22111SOL    HW267775   7.394   6.337   5.908
22112SOL     OW67776   6.071   6.996   5.724
22112SOL    HW167777   6.005   6.967   5.786
22112SOL    HW267778   6.044   6.959   5.640
22113SOL     OW67779   7.242   6.834   6.244
22113SOL    HW167780   7.337   6.829   6.253
22113SOL    HW267781   7.222   6.927   6.255
22114SOL     OW67782   6.973   6.169   5.653
22114SOL    HW167783   6.932   6.136   5.733
22114SOL    HW267784   7.067   6.152   5.665
22115SOL     OW67785   6.115   5.857   5.918
22115SOL    HW167786   6.160   5.798   5.858
22115SOL    HW267787   6.062   5.914   5.863
22116SOL     OW67788   7.344   6.826   7.198
22116SOL    HW167789   7.418   6.797   7.145
22116SOL    HW267790   7.355   6.921   7.205
22117SOL     OW67791   6.635   6.933   6.915
22117SOL    HW167792   6.564   6.897   6.967
22117SOL    HW267793   6.714   6.895   6.953
22118SOL     OW67794   7.191   7.213   7.237
22118SOL    HW167795   7.179   7.251   7.150
22118SOL    HW267796   7.274   7.167   7.233
22119SOL     OW67797   6.728   6.807   6.683
22119SOL    HW167798   6.660   6.835   6.744
22119SOL    HW267799   6.694   6.827   6.596
22120SOL     OW67800   7.196   6.669   6.689
22120SOL    HW167801   7.253   6.745   6.696
22120SOL    HW267802   7.141   6.687   6.613
22121SOL     OW67803   6.511   5.673   6.971
22121SOL    HW167804   6.531   5.654   6.880
22121SOL    HW267805   6.591   5.713   7.006
22122SOL     OW67806   6.557   6.687   7.321
22122SOL    HW167807   6.465   6.702   7.341
22122SOL    HW267808   6.557   6.612   7.261
22123SOL     OW67809   6.308   6.645   5.960
22123SOL    HW167810   6.286   6.622   6.051
22123SOL    HW267811   6.382   6.589   5.938
22124SOL     OW67812   6.024   6.428   6.847
22124SOL    HW167813   6.092   6.428   6.914
22124SOL    HW267814   5.992   6.338   6.845
22125SOL     OW67815   6.844   5.952   6.874
22125SOL    HW167816   6.877   6.036   6.908
22125SOL    HW267817   6.755   5.971   6.846
22126SOL     OW67818   5.653   7.164   6.939
22126SOL    HW167819   5.607   7.224   6.880
22126SOL    HW267820   5.745   7.184   6.925
22127SOL     OW67821   5.932   6.701   6.067
22127SOL    HW167822   5.926   6.774   6.006
22127SOL    HW267823   5.926   6.623   6.011
22128SOL     OW67824   6.168   6.100   6.437
22128SOL    HW167825   6.166   6.162   6.364
22128SOL    HW267826   6.213   6.146   6.507
22129SOL     OW67827   6.830   6.939   5.983
22129SOL    HW167828   6.887   7.012   6.009
22129SOL    HW267829   6.744   6.965   6.015
22130SOL     OW67830   6.870   7.049   6.722
22130SOL    HW167831   6.913   7.064   6.806
22130SOL    HW267832   6.829   6.963   6.731
22131SOL     OW67833   7.170   6.191   6.074
22131SOL    HW167834   7.127   6.273   6.101
22131SOL    HW267835   7.221   6.215   5.997
22132SOL     OW67836   5.933   7.068   6.900
22132SOL    HW167837   5.920   7.061   6.805
22132SOL    HW267838   6.024   7.094   6.910
22133SOL     OW67839   5.990   6.340   7.183
22133SOL    HW167840   6.066   6.364   7.130
22133SOL    HW267841   5.993   6.244   7.188
22134SOL     OW67842   7.188   6.372   7.264
22134SOL    HW167843   7.106   6.419   7.251
22134SOL    HW267844   7.246   6.405   7.195
22135SOL     OW67845   6.592   5.720   7.344
22135SOL    HW167846   6.651   5.792   7.319
22135SOL    HW267847   6.638   5.641   7.314
22136SOL     OW67848   6.071   5.628   7.344
22136SOL    HW167849   6.027   5.576   7.277
22136SOL    HW267850   6.014   5.703   7.357
22137SOL     OW67851   6.192   6.446   6.627
22137SOL    HW167852   6.161   6.511   6.564
22137SOL    HW267853   6.122   6.441   6.692
22138SOL     OW67854   6.921   6.447   6.618
22138SOL    HW167855   6.845   6.436   6.561
22138SOL    HW267856   6.973   6.368   6.604
22139SOL     OW67857   6.788   6.109   5.855
22139SOL    HW167858   6.801   6.030   5.908
22139SOL    HW267859   6.748   6.172   5.916
22140SOL     OW67860   5.887   5.778   6.828
22140SOL    HW167861   5.833   5.807   6.902
22140SOL    HW267862   5.875   5.683   6.825
22141SOL     OW67863   5.664   6.895   6.866
22141SOL    HW167864   5.619   6.848   6.937
22141SOL    HW267865   5.654   6.988   6.888
22142SOL     OW67866   6.331   6.216   6.659
22142SOL    HW167867   6.393   6.201   6.588
22142SOL    HW267868   6.292   6.302   6.640
22143SOL     OW67869   7.334   6.523   7.454
22143SOL    HW167870   7.297   6.474   7.380
22143SOL    HW267871   7.259   6.569   7.492
22144SOL     OW67872   5.873   5.662   6.222
22144SOL    HW167873   5.873   5.755   6.245
22144SOL    HW267874   5.781   5.641   6.206
22145SOL     OW67875   7.172   5.943   5.952
22145SOL    HW167876   7.220   5.883   6.010
22145SOL    HW267877   7.168   6.025   6.001
22146SOL     OW67878   6.611   6.348   6.540
22146SOL    HW167879   6.604   6.366   6.634
22146SOL    HW267880   6.588   6.256   6.531
22147SOL     OW67881   6.574   7.144   7.317
22147SOL    HW167882   6.548   7.200   7.243
22147SOL    HW267883   6.558   7.055   7.287
22148SOL     OW67884   7.429   7.094   7.199
22148SOL    HW167885   7.454   7.116   7.109
22148SOL    HW267886   7.505   7.119   7.251
22149SOL     OW67887   5.947   6.537   7.365
22149SOL    HW167888   6.015   6.525   7.432
22149SOL    HW267889   5.960   6.463   7.305
22150SOL     OW67890   7.101   5.847   5.705
22150SOL    HW167891   7.049   5.777   5.743
22150SOL    HW267892   7.139   5.893   5.780
22151SOL     OW67893   6.864   6.415   5.613
22151SOL    HW167894   6.906   6.329   5.619
22151SOL    HW267895   6.897   6.453   5.532
22152SOL     OW67896   6.651   6.922   6.435
22152SOL    HW167897   6.640   6.843   6.383
22152SOL    HW267898   6.732   6.962   6.402
22153SOL     OW67899   5.876   6.410   6.554
22153SOL    HW167900   5.933   6.334   6.535
22153SOL    HW267901   5.814   6.377   6.619
22154SOL     OW67902   5.948   6.117   6.597
22154SOL    HW167903   5.886   6.045   6.587
22154SOL    HW267904   6.014   6.101   6.530
22155SOL     OW67905   6.734   5.958   7.279
22155SOL    HW167906   6.679   6.013   7.336
22155SOL    HW267907   6.814   6.009   7.268
22156SOL     OW67908   6.750   5.779   7.065
22156SOL    HW167909   6.738   5.845   7.133
22156SOL    HW267910   6.789   5.826   6.992
22157SOL     OW67911   5.607   6.908   5.771
22157SOL    HW167912   5.518   6.929   5.742
22157SOL    HW267913   5.599   6.823   5.813
22158SOL     OW67914   5.682   7.363   6.542
22158SOL    HW167915   5.649   7.288   6.493
22158SOL    HW267916   5.767   7.382   6.502
22159SOL     OW67917   6.076   7.161   6.502
22159SOL    HW167918   6.147   7.222   6.523
22159SOL    HW267919   6.115   7.101   6.438
22160SOL     OW67920   6.548   6.377   6.806
22160SOL    HW167921   6.598   6.353   6.884
22160SOL    HW267922   6.471   6.320   6.808
22161SOL     OW67923   5.784   6.103   7.325
22161SOL    HW167924   5.798   6.054   7.245
22161SOL    HW267925   5.709   6.160   7.306
22162SOL     OW67926   6.967   6.535   7.237
22162SOL    HW167927   6.992   6.627   7.229
22162SOL    HW267928   6.959   6.504   7.147
22163SOL     OW67929   7.220   6.180   6.776
22163SOL    HW167930   7.214   6.115   6.846
22163SOL    HW267931   7.307   6.166   6.738
22164SOL     OW67932   5.819   7.135   7.322
22164SOL    HW167933   5.806   7.187   7.401
22164SOL    HW267934   5.827   7.045   7.353
22165SOL     OW67935   6.309   6.019   6.841
22165SOL    HW167936   6.244   5.954   6.815
22165SOL    HW267937   6.301   6.089   6.777
22166SOL     OW67938   6.482   7.269   7.087
22166SOL    HW167939   6.490   7.218   7.007
22166SOL    HW267940   6.483   7.360   7.057
22167SOL     OW67941   6.029   6.075   5.760
22167SOL    HW167942   5.961   6.142   5.767
22167SOL    HW267943   5.990   6.008   5.704
22168SOL     OW67944   5.800   6.725   7.077
22168SOL    HW167945   5.766   6.699   7.163
22168SOL    HW267946   5.778   6.651   7.020
22169SOL     OW67947   6.886   6.629   6.816
22169SOL    HW167948   6.915   6.566   6.749
22169SOL    HW267949   6.831   6.690   6.768
22170SOL     OW67950   6.904   6.441   5.887
22170SOL    HW167951   6.829   6.407   5.936
22170SOL    HW267952   6.878   6.432   5.795
22171SOL     OW67953   7.346   7.317   6.739
22171SOL    HW167954   7.416   7.338   6.676
22171SOL    HW267955   7.331   7.223   6.727
22172SOL     OW67956   6.811   7.315   6.683
22172SOL    HW167957   6.896   7.352   6.661
22172SOL    HW267958   6.828   7.222   6.697
22173SOL     OW67959   5.654   6.843   6.587
22173SOL    HW167960   5.639   6.860   6.680
22173SOL    HW267961   5.583   6.785   6.561
22174SOL     OW67962   6.267   7.260   7.313
22174SOL    HW167963   6.205   7.331   7.304
22174SOL    HW267964   6.328   7.271   7.240
22175SOL     OW67965   7.284   5.728   6.088
22175SOL    HW167966   7.363   5.730   6.033
22175SOL    HW267967   7.288   5.644   6.133
22176SOL     OW67968   6.975   7.172   6.076
22176SOL    HW167969   7.039   7.193   6.009
22176SOL    HW267970   6.902   7.231   6.059
22177SOL     OW67971   5.750   7.415   7.489
22177SOL    HW167972   5.707   7.333   7.513
22177SOL    HW267973   5.679   7.479   7.485
22178SOL     OW67974   6.862   6.533   6.271
22178SOL    HW167975   6.934   6.472   6.286
22178SOL    HW267976   6.896   6.597   6.209
22179SOL     OW67977   6.390   6.866   7.015
22179SOL    HW167978   6.351   6.901   7.095
22179SOL    HW267979   6.347   6.914   6.944
22180SOL     OW67980   6.254   7.196   5.741
22180SOL    HW167981   6.267   7.223   5.650
22180SOL    HW267982   6.194   7.122   5.736
22181SOL     OW67983   7.197   7.312   6.978
22181SOL    HW167984   7.254   7.313   6.901
22181SOL    HW267985   7.188   7.404   7.002
22182SOL     OW67986   7.378   5.695   6.569
22182SOL    HW167987   7.454   5.702   6.511
22182SOL    HW267988   7.308   5.738   6.520
22183SOL     OW67989   5.847   5.917   6.300
22183SOL    HW167990   5.760   5.943   6.270
22183SOL    HW267991   5.840   5.914   6.395
22184SOL     OW67992   6.800   7.188   5.619
22184SOL    HW167993   6.784   7.095   5.634
22184SOL    HW267994   6.746   7.210   5.543
22185SOL     OW67995   6.411   6.591   6.966
22185SOL    HW167996   6.449   6.570   6.880
22185SOL    HW267997   6.409   6.687   6.968
22186SOL     OW67998   6.513   6.487   5.892
22186SOL    HW167999   6.567   6.521   5.820
22186SOL    HW268000   6.568   6.420   5.933
22187SOL     OW68001   7.080   7.217   5.633
22187SOL    HW168002   6.986   7.206   5.616
22187SOL    HW268003   7.119   7.223   5.546
22188SOL     OW68004   7.167   6.911   6.916
22188SOL    HW168005   7.254   6.883   6.945
22188SOL    HW268006   7.182   6.956   6.833
22189SOL     OW68007   6.637   6.693   6.304
22189SOL    HW168008   6.567   6.636   6.336
22189SOL    HW268009   6.708   6.632   6.282
22190SOL     OW68010   6.611   5.829   6.552
22190SOL    HW168011   6.606   5.784   6.467
22190SOL    HW268012   6.605   5.759   6.617
22191SOL     OW68013   6.205   7.083   6.082
22191SOL    HW168014   6.252   7.027   6.020
22191SOL    HW268015   6.133   7.120   6.030
22192SOL     OW68016   7.324   5.976   6.984
22192SOL    HW168017   7.394   6.040   6.977
22192SOL    HW268018   7.347   5.908   6.920
22193SOL     OW68019   5.867   6.917   5.895
22193SOL    HW168020   5.783   6.924   5.851
22193SOL    HW268021   5.857   6.965   5.977
22194SOL     OW68022   5.702   6.656   7.339
22194SOL    HW168023   5.630   6.599   7.366
22194SOL    HW268024   5.781   6.603   7.354
22195SOL     OW68025   6.268   5.769   7.066
22195SOL    HW168026   6.355   5.747   7.033
22195SOL    HW268027   6.284   5.818   7.147
22196SOL     OW68028   5.657   5.913   5.618
22196SOL    HW168029   5.574   5.887   5.579
22196SOL    HW268030   5.682   5.992   5.570
22197SOL     OW68031   7.003   6.444   6.984
22197SOL    HW168032   6.951   6.503   6.929
22197SOL    HW268033   7.090   6.444   6.943
22198SOL     OW68034   5.649   5.743   5.885
22198SOL    HW168035   5.628   5.819   5.829
22198SOL    HW268036   5.731   5.709   5.850
22199SOL     OW68037   6.771   6.916   5.710
22199SOL    HW168038   6.682   6.880   5.707
22199SOL    HW268039   6.791   6.921   5.804
22200SOL     OW68040   6.215   6.416   7.037
22200SOL    HW168041   6.276   6.486   7.015
22200SOL    HW268042   6.268   6.336   7.033
22201SOL     OW68043   7.089   7.357   6.545
22201SOL    HW168044   7.090   7.452   6.545
22201SOL    HW268045   7.153   7.332   6.612
22202SOL     OW68046   6.329   6.134   7.282
22202SOL    HW168047   6.353   6.188   7.357
22202SOL    HW268048   6.332   6.044   7.315
22203SOL     OW68049   7.063   6.792   7.224
22203SOL    HW168050   7.065   6.802   7.319
22203SOL    HW268051   7.153   6.809   7.195
22204SOL     OW68052   5.949   7.326   7.152
22204SOL    HW168053   5.868   7.372   7.132
22204SOL    HW268054   5.921   7.242   7.188
22205SOL     OW68055   7.245   6.457   6.856
22205SOL    HW168056   7.245   6.376   6.804
22205SOL    HW268057   7.232   6.527   6.791
22206SOL     OW68058   6.800   5.899   6.043
22206SOL    HW168059   6.866   5.830   6.038
22206SOL    HW268060   6.826   5.951   6.119
22207SOL     OW68061   6.176   6.316   6.261
22207SOL    HW168062   6.216   6.401   6.243
22207SOL    HW268063   6.110   6.306   6.193
22208SOL     OW68064   7.329   5.950   7.259
22208SOL    HW168065   7.337   5.966   7.165
22208SOL    HW268066   7.258   5.886   7.267
22209SOL     OW68067   7.351   6.513   7.100
22209SOL    HW168068   7.347   6.608   7.107
22209SOL    HW268069   7.325   6.495   7.010
22210SOL     OW68070   6.417   6.968   5.618
22210SOL    HW168071   6.393   7.012   5.699
22210SOL    HW268072   6.465   7.034   5.568
22211SOL     OW68073   6.246   7.371   6.540
22211SOL    HW168074   6.230   7.460   6.510
22211SOL    HW268075   6.338   7.355   6.519
22212SOL     OW68076   6.445   6.557   6.448
22212SOL    HW168077   6.496   6.482   6.479
22212SOL    HW268078   6.415   6.600   6.528
22213SOL     OW68079   6.651   6.576   5.677
22213SOL    HW168080   6.618   6.620   5.599
22213SOL    HW268081   6.726   6.525   5.646
22214SOL     OW68082   7.422   7.150   6.417
22214SOL    HW168083   7.342   7.123   6.371
22214SOL    HW268084   7.450   7.072   6.465
22215SOL     OW68085   5.817   6.887   7.442
22215SOL    HW168086   5.768   6.810   7.417
22215SOL    HW268087   5.805   6.894   7.537
22216SOL     OW68088   5.658   6.826   6.238
22216SOL    HW168089   5.698   6.774   6.308
22216SOL    HW268090   5.692   6.789   6.157
22217SOL     OW68091   6.258   6.993   7.216
22217SOL    HW168092   6.178   6.950   7.246
22217SOL    HW268093   6.253   7.081   7.253
22218SOL     OW68094   7.391   5.761   6.839
22218SOL    HW168095   7.417   5.670   6.851
22218SOL    HW268096   7.398   5.776   6.744
22219SOL     OW68097   6.049   6.022   6.135
22219SOL    HW168098   6.061   5.955   6.066
22219SOL    HW268099   5.978   5.988   6.189
22220SOL     OW68100   7.254   7.055   6.695
22220SOL    HW168101   7.200   7.047   6.616
22220SOL    HW268102   7.332   7.003   6.676
22221SOL     OW68103   5.977   6.160   6.865
22221SOL    HW168104   5.905   6.115   6.909
22221SOL    HW268105   5.964   6.142   6.772
22222SOL     OW68106   6.413   7.187   6.246
22222SOL    HW168107   6.416   7.270   6.199
22222SOL    HW268108   6.340   7.139   6.206
22223SOL     OW68109   7.009   5.814   6.707
22223SOL    HW168110   7.029   5.732   6.752
22223SOL    HW268111   6.957   5.864   6.770
22224SOL     OW68112   6.597   5.594   6.713
22224SOL    HW168113   6.548   5.533   6.659
22224SOL    HW268114   6.685   5.557   6.718
22225SOL     OW68115   6.357   6.916   5.930
22225SOL    HW168116   6.333   6.823   5.931
22225SOL    HW268117   6.448   6.918   5.959
22226SOL     OW68118   6.200   7.134   6.878
22226SOL    HW168119   6.201   7.218   6.925
22226SOL    HW268120   6.287   7.129   6.838
22227SOL     OW68121   6.921   5.642   5.766
22227SOL    HW168122   6.881   5.674   5.685
22227SOL    HW268123   6.856   5.582   5.802
22228SOL     OW68124   6.865   6.049   6.261
22228SOL    HW168125   6.825   6.135   6.270
22228SOL    HW268126   6.872   6.017   6.351
22229SOL     OW68127   7.152   5.792   6.462
22229SOL    HW168128   7.099   5.816   6.538
22229SOL    HW268129   7.154   5.871   6.408
22230SOL     OW68130   5.630   6.670   5.913
22230SOL    HW168131   5.718   6.669   5.876
22230SOL    HW268132   5.608   6.578   5.928
22231SOL     OW68133   6.469   7.245   5.916
22231SOL    HW168134   6.397   7.230   5.855
22231SOL    HW268135   6.438   7.317   5.971
22232SOL     OW68136   5.814   6.219   7.584
22232SOL    HW168137   5.731   6.208   7.630
22232SOL    HW268138   5.797   6.189   7.495
22233SOL     OW68139   5.804   5.875   8.444
22233SOL    HW168140   5.835   5.836   8.526
22233SOL    HW268141   5.717   5.838   8.431
22234SOL     OW68142   5.578   5.941   8.124
22234SOL    HW168143   5.499   5.991   8.143
22234SOL    HW268144   5.549   5.867   8.072
22235SOL     OW68145   6.147   6.896   8.637
22235SOL    HW168146   6.067   6.905   8.586
22235SOL    HW268147   6.170   6.985   8.663
22236SOL     OW68148   7.160   7.101   8.156
22236SOL    HW168149   7.119   7.080   8.239
22236SOL    HW268150   7.088   7.117   8.096
22237SOL     OW68151   6.733   6.273   8.141
22237SOL    HW168152   6.773   6.357   8.122
22237SOL    HW268153   6.688   6.286   8.225
22238SOL     OW68154   7.315   6.175   7.663
22238SOL    HW168155   7.300   6.179   7.569
22238SOL    HW268156   7.385   6.110   7.673
22239SOL     OW68157   6.321   6.711   8.543
22239SOL    HW168158   6.256   6.774   8.573
22239SOL    HW268159   6.367   6.756   8.472
22240SOL     OW68160   6.466   6.351   9.268
22240SOL    HW168161   6.487   6.419   9.332
22240SOL    HW268162   6.478   6.393   9.183
22241SOL     OW68163   6.298   6.734   9.281
22241SOL    HW168164   6.349   6.805   9.319
22241SOL    HW268165   6.226   6.778   9.235
22242SOL     OW68166   5.916   6.998   8.513
22242SOL    HW168167   5.842   6.952   8.471
22242SOL    HW268168   5.955   7.048   8.442
22243SOL     OW68169   7.046   7.078   8.803
22243SOL    HW168170   7.093   7.162   8.809
22243SOL    HW268171   6.982   7.081   8.874
22244SOL     OW68172   6.025   5.978   8.927
22244SOL    HW168173   6.101   5.920   8.931
22244SOL    HW268174   5.951   5.921   8.942
22245SOL     OW68175   7.191   6.035   8.187
22245SOL    HW168176   7.108   6.047   8.140
22245SOL    HW268177   7.199   6.113   8.241
22246SOL     OW68178   5.804   7.315   7.912
22246SOL    HW168179   5.828   7.386   7.972
22246SOL    HW268180   5.879   7.307   7.853
22247SOL     OW68181   6.749   6.912   9.154
22247SOL    HW168182   6.757   6.914   9.250
22247SOL    HW268183   6.687   6.841   9.137
22248SOL     OW68184   5.831   7.034   7.963
22248SOL    HW168185   5.800   7.123   7.979
22248SOL    HW268186   5.788   6.982   8.030
22249SOL     OW68187   5.842   6.665   8.326
22249SOL    HW168188   5.849   6.578   8.366
22249SOL    HW268189   5.789   6.716   8.388
22250SOL     OW68190   6.194   7.382   8.876
22250SOL    HW168191   6.116   7.365   8.928
22250SOL    HW268192   6.219   7.471   8.898
22251SOL     OW68193   6.160   6.565   7.586
22251SOL    HW168194   6.207   6.609   7.516
22251SOL    HW268195   6.199   6.600   7.666
22252SOL     OW68196   7.183   5.728   8.912
22252SOL    HW168197   7.278   5.738   8.916
22252SOL    HW268198   7.154   5.740   9.003
22253SOL     OW68199   5.745   6.262   8.010
22253SOL    HW168200   5.684   6.218   7.951
22253SOL    HW268201   5.695   6.276   8.090
22254SOL     OW68202   5.616   7.190   7.556
22254SOL    HW168203   5.561   7.112   7.549
22254SOL    HW268204   5.590   7.229   7.639
22255SOL     OW68205   7.295   6.478   8.084
22255SOL    HW168206   7.380   6.466   8.125
22255SOL    HW268207   7.313   6.478   7.990
22256SOL     OW68208   6.212   7.000   8.181
22256SOL    HW168209   6.160   6.921   8.194
22256SOL    HW268210   6.200   7.022   8.088
22257SOL     OW68211   6.870   6.814   8.868
22257SOL    HW168212   6.902   6.748   8.807
22257SOL    HW268213   6.930   6.811   8.942
22258SOL     OW68214   6.412   5.603   7.961
22258SOL    HW168215   6.451   5.686   7.933
22258SOL    HW268216   6.318   5.615   7.947
22259SOL     OW68217   5.761   6.537   8.738
22259SOL    HW168218   5.848   6.499   8.726
22259SOL    HW268219   5.721   6.532   8.651
22260SOL     OW68220   7.118   6.582   7.655
22260SOL    HW168221   7.045   6.529   7.687
22260SOL    HW268222   7.195   6.546   7.700
22261SOL     OW68223   6.838   7.385   9.078
22261SOL    HW168224   6.829   7.477   9.052
22261SOL    HW268225   6.771   7.339   9.027
22262SOL     OW68226   5.929   5.834   9.296
22262SOL    HW168227   5.973   5.919   9.298
22262SOL    HW268228   5.836   5.856   9.299
22263SOL     OW68229   7.063   6.995   8.393
22263SOL    HW168230   6.994   7.017   8.455
22263SOL    HW268231   7.040   6.907   8.363
22264SOL     OW68232   7.275   7.328   7.987
22264SOL    HW168233   7.232   7.286   7.912
22264SOL    HW268234   7.260   7.269   8.060
22265SOL     OW68235   6.187   6.305   7.723
22265SOL    HW168236   6.183   6.388   7.674
22265SOL    HW268237   6.126   6.316   7.795
22266SOL     OW68238   6.879   5.924   8.400
22266SOL    HW168239   6.792   5.890   8.380
22266SOL    HW268240   6.882   5.926   8.496
22267SOL     OW68241   7.148   7.249   7.746
22267SOL    HW168242   7.198   7.320   7.705
22267SOL    HW268243   7.137   7.185   7.676
22268SOL     OW68244   6.396   6.191   8.896
22268SOL    HW168245   6.357   6.171   8.981
22268SOL    HW268246   6.355   6.128   8.836
22269SOL     OW68247   6.981   6.059   9.124
22269SOL    HW168248   6.977   6.107   9.207
22269SOL    HW268249   7.067   6.018   9.124
22270SOL     OW68250   6.522   6.474   9.025
22270SOL    HW168251   6.585   6.410   8.992
22270SOL    HW268252   6.484   6.513   8.947
22271SOL     OW68253   6.613   5.970   8.679
22271SOL    HW168254   6.534   6.004   8.721
22271SOL    HW268255   6.587   5.955   8.588
22272SOL     OW68256   6.653   6.280   7.861
22272SOL    HW168257   6.663   6.278   7.956
22272SOL    HW268258   6.567   6.240   7.845
22273SOL     OW68259   5.657   6.388   8.250
22273SOL    HW168260   5.745   6.393   8.288
22273SOL    HW268261   5.620   6.475   8.264
22274SOL     OW68262   6.477   5.935   7.637
22274SOL    HW168263   6.524   5.988   7.573
22274SOL    HW268264   6.430   5.870   7.585
22275SOL     OW68265   7.256   6.156   9.298
22275SOL    HW168266   7.236   6.234   9.245
22275SOL    HW268267   7.293   6.094   9.235
22276SOL     OW68268   6.966   6.734   7.996
22276SOL    HW168269   7.034   6.733   7.929
22276SOL    HW268270   6.901   6.796   7.963
22277SOL     OW68271   6.142   5.763   8.340
22277SOL    HW168272   6.141   5.801   8.428
22277SOL    HW268273   6.137   5.838   8.281
22278SOL     OW68274   6.584   7.035   7.915
22278SOL    HW168275   6.552   7.109   7.863
22278SOL    HW268276   6.554   7.054   8.005
22279SOL     OW68277   5.945   7.402   8.314
22279SOL    HW168278   5.987   7.317   8.325
22279SOL    HW268279   6.012   7.466   8.337
22280SOL     OW68280   7.362   6.635   8.319
22280SOL    HW168281   7.305   6.622   8.244
22280SOL    HW268282   7.303   6.643   8.394
22281SOL     OW68283   6.834   7.101   8.983
22281SOL    HW168284   6.803   7.027   9.035
22281SOL    HW268285   6.772   7.107   8.911
22282SOL     OW68286   5.897   6.535   7.686
22282SOL    HW168287   5.984   6.546   7.649
22282SOL    HW268288   5.873   6.445   7.665
22283SOL     OW68289   7.077   6.328   8.154
22283SOL    HW168290   7.067   6.303   8.246
22283SOL    HW268291   7.153   6.386   8.153
22284SOL     OW68292   6.059   6.862   9.194
22284SOL    HW168293   6.031   6.870   9.103
22284SOL    HW268294   5.977   6.856   9.244
22285SOL     OW68295   6.713   7.341   7.643
22285SOL    HW168296   6.667   7.304   7.718
22285SOL    HW268297   6.644   7.358   7.578
22286SOL     OW68298   5.777   5.851   8.951
22286SOL    HW168299   5.690   5.888   8.940
22286SOL    HW268300   5.763   5.762   8.982
22287SOL     OW68301   7.193   6.990   7.548
22287SOL    HW168302   7.157   7.058   7.491
22287SOL    HW268303   7.137   6.914   7.532
22288SOL     OW68304   6.039   7.364   7.732
22288SOL    HW168305   6.084   7.396   7.810
22288SOL    HW268306   6.101   7.306   7.690
22289SOL     OW68307   6.987   5.684   7.888
22289SOL    HW168308   6.971   5.659   7.797
22289SOL    HW268309   7.074   5.725   7.886
22290SOL     OW68310   5.848   7.372   8.683
22290SOL    HW168311   5.903   7.293   8.680
22290SOL    HW268312   5.795   7.367   8.603
22291SOL     OW68313   6.525   7.285   8.349
22291SOL    HW168314   6.603   7.236   8.376
22291SOL    HW268315   6.489   7.234   8.276
22292SOL     OW68316   6.004   6.277   7.928
22292SOL    HW168317   6.024   6.185   7.944
22292SOL    HW268318   5.911   6.286   7.949
22293SOL     OW68319   7.110   5.788   9.166
22293SOL    HW168320   7.129   5.807   9.258
22293SOL    HW268321   7.015   5.771   9.165
22294SOL     OW68322   6.253   5.685   7.533
22294SOL    HW168323   6.308   5.606   7.535
22294SOL    HW268324   6.183   5.663   7.471
22295SOL     OW68325   6.351   5.852   9.216
22295SOL    HW168326   6.431   5.801   9.208
22295SOL    HW268327   6.353   5.886   9.305
22296SOL     OW68328   6.463   7.105   8.645
22296SOL    HW168329   6.445   7.066   8.560
22296SOL    HW268330   6.532   7.051   8.682
22297SOL     OW68331   6.929   6.162   8.871
22297SOL    HW168332   6.954   6.141   8.961
22297SOL    HW268333   6.955   6.253   8.859
22298SOL     OW68334   6.407   6.970   8.403
22298SOL    HW168335   6.491   6.954   8.361
22298SOL    HW268336   6.344   6.971   8.331
22299SOL     OW68337   6.523   6.082   8.347
22299SOL    HW168338   6.493   6.082   8.256
22299SOL    HW268339   6.543   5.991   8.366
22300SOL     OW68340   7.014   6.788   7.502
22300SOL    HW168341   7.045   6.712   7.552
22300SOL    HW268342   6.931   6.811   7.544
22301SOL     OW68343   5.905   5.653   7.625
22301SOL    HW168344   5.926   5.724   7.563
22301SOL    HW268345   5.866   5.585   7.571
22302SOL     OW68346   6.531   5.842   7.894
22302SOL    HW168347   6.506   5.873   7.807
22302SOL    HW268348   6.625   5.859   7.900
22303SOL     OW68349   6.666   6.273   8.913
22303SOL    HW168350   6.590   6.215   8.909
22303SOL    HW268351   6.741   6.215   8.898
22304SOL     OW68352   6.811   7.160   8.243
22304SOL    HW168353   6.818   7.225   8.173
22304SOL    HW268354   6.869   7.193   8.312
22305SOL     OW68355   6.041   6.793   8.191
22305SOL    HW168356   5.971   6.745   8.236
22305SOL    HW268357   6.107   6.726   8.173
22306SOL     OW68358   6.845   7.379   8.061
22306SOL    HW168359   6.896   7.442   8.010
22306SOL    HW268360   6.779   7.431   8.106
22307SOL     OW68361   6.619   6.128   7.476
22307SOL    HW168362   6.565   6.201   7.447
22307SOL    HW268363   6.662   6.160   7.555
22308SOL     OW68364   5.674   6.222   8.868
22308SOL    HW168365   5.760   6.193   8.839
22308SOL    HW268366   5.630   6.252   8.788
22309SOL     OW68367   6.143   5.815   8.617
22309SOL    HW168368   6.178   5.730   8.643
22309SOL    HW268369   6.051   5.813   8.643
22310SOL     OW68370   6.454   6.042   8.087
22310SOL    HW168371   6.399   6.103   8.038
22310SOL    HW268372   6.472   5.971   8.025
22311SOL     OW68373   6.607   5.634   8.182
22311SOL    HW168374   6.545   5.634   8.108
22311SOL    HW268375   6.579   5.560   8.236
22312SOL     OW68376   7.014   6.739   8.295
22312SOL    HW168377   6.940   6.682   8.317
22312SOL    HW268378   7.009   6.748   8.200
22313SOL     OW68379   7.047   6.204   8.405
22313SOL    HW168380   6.991   6.127   8.413
22313SOL    HW268381   7.107   6.199   8.479
22314SOL     OW68382   7.393   6.386   7.833
22314SOL    HW168383   7.459   6.342   7.885
22314SOL    HW268384   7.376   6.326   7.760
22315SOL     OW68385   6.061   7.018   7.601
22315SOL    HW168386   5.982   6.989   7.647
22315SOL    HW268387   6.069   6.958   7.527
22316SOL     OW68388   7.293   6.878   8.054
22316SOL    HW168389   7.341   6.850   8.132
22316SOL    HW268390   7.241   6.953   8.083
22317SOL     OW68391   6.137   5.833   7.736
22317SOL    HW168392   6.183   5.800   7.658
22317SOL    HW268393   6.109   5.921   7.711
22318SOL     OW68394   7.334   6.831   9.023
22318SOL    HW168395   7.418   6.795   8.995
22318SOL    HW268396   7.353   6.922   9.043
22319SOL     OW68397   6.638   6.939   8.786
22319SOL    HW168398   6.564   6.904   8.834
22319SOL    HW268399   6.714   6.894   8.823
22320SOL     OW68400   7.171   7.202   9.083
22320SOL    HW168401   7.179   7.248   8.999
22320SOL    HW268402   7.257   7.161   9.096
22321SOL     OW68403   6.732   6.804   8.551
22321SOL    HW168404   6.663   6.830   8.612
22321SOL    HW268405   6.696   6.825   8.465
22322SOL     OW68406   7.193   6.678   8.523
22322SOL    HW168407   7.191   6.742   8.594
22322SOL    HW268408   7.117   6.700   8.469
22323SOL     OW68409   6.506   5.670   8.839
22323SOL    HW168410   6.525   5.658   8.746
22323SOL    HW268411   6.584   5.712   8.875
22324SOL     OW68412   6.572   6.703   9.165
22324SOL    HW168413   6.484   6.729   9.193
22324SOL    HW268414   6.557   6.624   9.112
22325SOL     OW68415   6.297   6.657   7.808
22325SOL    HW168416   6.283   6.643   7.902
22325SOL    HW268417   6.371   6.602   7.786
22326SOL     OW68418   5.999   6.407   8.710
22326SOL    HW168419   6.075   6.412   8.768
22326SOL    HW268420   5.969   6.316   8.718
22327SOL     OW68421   6.892   5.953   8.702
22327SOL    HW168422   6.909   6.031   8.755
22327SOL    HW268423   6.798   5.954   8.687
22328SOL     OW68424   5.672   7.149   8.807
22328SOL    HW168425   5.626   7.205   8.743
22328SOL    HW268426   5.764   7.155   8.782
22329SOL     OW68427   5.872   6.698   7.931
22329SOL    HW168428   5.955   6.723   7.972
22329SOL    HW268429   5.895   6.629   7.870
22330SOL     OW68430   6.140   6.101   8.314
22330SOL    HW168431   6.149   6.160   8.239
22330SOL    HW268432   6.205   6.133   8.376
22331SOL     OW68433   6.833   6.943   7.848
22331SOL    HW168434   6.886   7.015   7.883
22331SOL    HW268435   6.744   6.962   7.878
22332SOL     OW68436   6.880   7.044   8.588
22332SOL    HW168437   6.934   7.044   8.667
22332SOL    HW268438   6.826   6.965   8.596
22333SOL     OW68439   7.143   6.210   7.908
22333SOL    HW168440   7.101   6.246   7.985
22333SOL    HW268441   7.219   6.266   7.893
22334SOL     OW68442   5.940   7.112   8.752
22334SOL    HW168443   5.927   7.067   8.669
22334SOL    HW268444   6.035   7.126   8.758
22335SOL     OW68445   6.001   6.345   9.051
22335SOL    HW168446   6.069   6.379   8.993
22335SOL    HW268447   6.021   6.252   9.059
22336SOL     OW68448   7.189   6.367   9.141
22336SOL    HW168449   7.104   6.412   9.133
22336SOL    HW268450   7.243   6.407   9.073
22337SOL     OW68451   6.591   5.724   9.220
22337SOL    HW168452   6.645   5.798   9.195
22337SOL    HW268453   6.637   5.648   9.186
22338SOL     OW68454   6.073   5.611   9.216
22338SOL    HW168455   6.026   5.564   9.146
22338SOL    HW268456   6.025   5.693   9.227
22339SOL     OW68457   6.191   6.454   8.495
22339SOL    HW168458   6.226   6.542   8.481
22339SOL    HW268459   6.116   6.466   8.554
22340SOL     OW68460   6.913   6.446   8.454
22340SOL    HW168461   6.823   6.425   8.430
22340SOL    HW268462   6.961   6.365   8.441
22341SOL     OW68463   6.838   6.113   7.736
22341SOL    HW168464   6.813   6.032   7.779
22341SOL    HW268465   6.780   6.179   7.773
22342SOL     OW68466   5.884   5.776   8.694
22342SOL    HW168467   5.836   5.807   8.770
22342SOL    HW268468   5.865   5.682   8.689
22343SOL     OW68469   5.617   6.891   8.735
22343SOL    HW168470   5.667   6.840   8.799
22343SOL    HW268471   5.636   6.982   8.757
22344SOL     OW68472   6.308   6.210   8.504
22344SOL    HW168473   6.385   6.209   8.447
22344SOL    HW268474   6.273   6.299   8.495
22345SOL     OW68475   7.324   6.544   9.313
22345SOL    HW168476   7.278   6.480   9.258
22345SOL    HW268477   7.263   6.563   9.384
22346SOL     OW68478   5.906   5.653   8.045
22346SOL    HW168479   5.875   5.739   8.075
22346SOL    HW268480   5.918   5.603   8.126
22347SOL     OW68481   7.173   5.950   7.829
22347SOL    HW168482   7.235   5.893   7.875
22347SOL    HW268483   7.174   6.032   7.879
22348SOL     OW68484   6.649   6.316   8.410
22348SOL    HW168485   6.627   6.337   8.500
22348SOL    HW268486   6.607   6.232   8.394
22349SOL     OW68487   6.585   7.193   9.166
22349SOL    HW168488   6.556   7.207   9.075
22349SOL    HW268489   6.534   7.118   9.196
22350SOL     OW68490   7.417   7.088   9.062
22350SOL    HW168491   7.437   7.126   8.976
22350SOL    HW268492   7.498   7.101   9.112
22351SOL     OW68493   5.941   6.495   9.270
22351SOL    HW168494   6.026   6.517   9.309
22351SOL    HW268495   5.963   6.442   9.193
22352SOL     OW68496   7.066   5.882   7.582
22352SOL    HW168497   7.009   5.806   7.589
22352SOL    HW268498   7.125   5.875   7.658
22353SOL     OW68499   6.873   6.403   7.456
22353SOL    HW168500   6.847   6.323   7.410
22353SOL    HW268501   6.912   6.458   7.388
22354SOL     OW68502   6.658   6.931   8.304
22354SOL    HW168503   6.666   6.863   8.238
22354SOL    HW268504   6.714   7.002   8.272
22355SOL     OW68505   5.897   6.395   8.394
22355SOL    HW168506   5.985   6.409   8.359
22355SOL    HW268507   5.899   6.305   8.427
22356SOL     OW68508   5.923   6.115   8.470
22356SOL    HW168509   5.878   6.033   8.450
22356SOL    HW268510   5.999   6.115   8.412
22357SOL     OW68511   6.727   5.954   9.144
22357SOL    HW168512   6.678   6.014   9.201
22357SOL    HW268513   6.814   5.994   9.137
22358SOL     OW68514   6.747   5.779   8.930
22358SOL    HW168515   6.736   5.844   9.000
22358SOL    HW268516   6.780   5.829   8.856
22359SOL     OW68517   5.688   7.361   8.404
22359SOL    HW168518   5.650   7.288   8.354
22359SOL    HW268519   5.773   7.376   8.362
22360SOL     OW68520   6.078   7.164   8.357
22360SOL    HW168521   6.147   7.227   8.380
22360SOL    HW268522   6.121   7.105   8.295
22361SOL     OW68523   6.570   6.351   8.664
22361SOL    HW168524   6.618   6.345   8.746
22361SOL    HW268525   6.480   6.369   8.691
22362SOL     OW68526   5.634   6.130   8.593
22362SOL    HW168527   5.635   6.128   8.497
22362SOL    HW268528   5.725   6.118   8.618
22363SOL     OW68529   5.782   6.132   9.155
22363SOL    HW168530   5.819   6.076   9.088
22363SOL    HW268531   5.688   6.116   9.152
22364SOL     OW68532   6.964   6.518   9.099
22364SOL    HW168533   6.988   6.611   9.094
22364SOL    HW268534   6.959   6.490   9.008
22365SOL     OW68535   6.414   6.163   7.803
22365SOL    HW168536   6.409   6.085   7.748
22365SOL    HW268537   6.337   6.214   7.779
22366SOL     OW68538   7.223   6.182   8.606
22366SOL    HW168539   7.230   6.150   8.695
22366SOL    HW268540   7.312   6.173   8.570
22367SOL     OW68541   5.829   7.136   9.176
22367SOL    HW168542   5.816   7.189   9.255
22367SOL    HW268543   5.847   7.048   9.209
22368SOL     OW68544   6.308   6.024   8.701
22368SOL    HW168545   6.247   5.955   8.674
22368SOL    HW268546   6.302   6.090   8.632
22369SOL     OW68547   6.514   7.270   8.910
22369SOL    HW168548   6.494   7.225   8.827
22369SOL    HW268549   6.504   7.363   8.889
22370SOL     OW68550   6.034   6.077   7.677
22370SOL    HW168551   6.094   6.152   7.683
22370SOL    HW268552   5.954   6.114   7.641
22371SOL     OW68553   5.724   6.721   8.932
22371SOL    HW168554   5.728   6.669   9.012
22371SOL    HW268555   5.737   6.657   8.861
22372SOL     OW68556   6.902   6.621   8.663
22372SOL    HW168557   6.917   6.560   8.591
22372SOL    HW268558   6.841   6.685   8.628
22373SOL     OW68559   6.913   6.420   7.736
22373SOL    HW168560   6.836   6.413   7.792
22373SOL    HW268561   6.879   6.419   7.647
22374SOL     OW68562   7.361   7.326   8.593
22374SOL    HW168563   7.426   7.352   8.528
22374SOL    HW268564   7.336   7.237   8.567
22375SOL     OW68565   6.824   7.309   8.539
22375SOL    HW168566   6.907   7.342   8.505
22375SOL    HW268567   6.840   7.218   8.561
22376SOL     OW68568   5.684   6.836   8.471
22376SOL    HW168569   5.647   6.857   8.557
22376SOL    HW268570   5.611   6.796   8.423
22377SOL     OW68571   6.273   7.267   9.181
22377SOL    HW168572   6.209   7.338   9.183
22377SOL    HW268573   6.330   7.288   9.107
22378SOL     OW68574   7.345   5.772   7.946
22378SOL    HW168575   7.402   5.761   7.869
22378SOL    HW268576   7.362   5.694   7.999
22379SOL     OW68577   6.977   7.160   7.946
22379SOL    HW168578   7.030   7.196   7.874
22379SOL    HW268579   6.927   7.235   7.978
22380SOL     OW68580   5.674   7.391   9.250
22380SOL    HW168581   5.655   7.321   9.312
22380SOL    HW268582   5.742   7.443   9.294
22381SOL     OW68583   6.868   6.502   8.097
22381SOL    HW168584   6.945   6.447   8.112
22381SOL    HW268585   6.903   6.582   8.058
22382SOL     OW68586   6.384   6.859   8.873
22382SOL    HW168587   6.356   6.906   8.952
22382SOL    HW268588   6.320   6.882   8.807
22383SOL     OW68589   6.248   7.219   7.596
22383SOL    HW168590   6.262   7.228   7.502
22383SOL    HW268591   6.192   7.142   7.605
22384SOL     OW68592   7.182   7.315   8.831
22384SOL    HW168593   7.248   7.317   8.762
22384SOL    HW268594   7.175   7.406   8.860
22385SOL     OW68595   7.413   5.751   8.415
22385SOL    HW168596   7.450   5.667   8.387
22385SOL    HW268597   7.328   5.755   8.372
22386SOL     OW68598   5.840   5.894   8.158
22386SOL    HW168599   5.751   5.922   8.136
22386SOL    HW268600   5.842   5.895   8.254
22387SOL     OW68601   6.406   6.595   8.801
22387SOL    HW168602   6.400   6.608   8.706
22387SOL    HW268603   6.403   6.683   8.837
22388SOL     OW68604   6.507   6.504   7.725
22388SOL    HW168605   6.574   6.540   7.666
22388SOL    HW268606   6.551   6.435   7.773
22389SOL     OW68607   7.025   7.206   7.444
22389SOL    HW168608   7.028   7.294   7.482
22389SOL    HW268609   7.083   7.210   7.369
22390SOL     OW68610   5.943   6.901   8.954
22390SOL    HW168611   5.946   6.966   8.884
22390SOL    HW268612   5.876   6.839   8.927
22391SOL     OW68613   7.197   6.866   8.717
22391SOL    HW168614   7.279   6.873   8.766
22391SOL    HW268615   7.140   6.932   8.756
22392SOL     OW68616   6.672   6.711   8.147
22392SOL    HW168617   6.601   6.675   8.200
22392SOL    HW268618   6.716   6.634   8.110
22393SOL     OW68619   6.618   5.818   8.401
22393SOL    HW168620   6.608   5.771   8.318
22393SOL    HW268621   6.603   5.751   8.468
22394SOL     OW68622   6.193   7.078   7.918
22394SOL    HW168623   6.247   7.028   7.857
22394SOL    HW268624   6.103   7.066   7.889
22395SOL     OW68625   7.292   6.008   8.813
22395SOL    HW168626   7.340   6.079   8.855
22395SOL    HW268627   7.357   5.939   8.800
22396SOL     OW68628   5.817   6.918   7.718
22396SOL    HW168629   5.775   6.837   7.746
22396SOL    HW268630   5.827   6.969   7.799
22397SOL     OW68631   5.699   6.562   9.166
22397SOL    HW168632   5.629   6.570   9.231
22397SOL    HW268633   5.778   6.550   9.217
22398SOL     OW68634   6.255   5.780   8.955
22398SOL    HW168635   6.339   5.769   8.909
22398SOL    HW268636   6.280   5.811   9.042
22399SOL     OW68637   5.656   5.894   7.476
22399SOL    HW168638   5.573   5.878   7.431
22399SOL    HW268639   5.676   5.986   7.458
22400SOL     OW68640   7.003   6.431   8.838
22400SOL    HW168641   6.955   6.495   8.785
22400SOL    HW268642   7.095   6.441   8.810
22401SOL     OW68643   5.665   5.755   7.751
22401SOL    HW168644   5.626   5.839   7.728
22401SOL    HW268645   5.731   5.741   7.683
22402SOL     OW68646   6.777   6.969   7.574
22402SOL    HW168647   6.691   6.927   7.566
22402SOL    HW268648   6.799   6.962   7.667
22403SOL     OW68649   6.214   6.408   8.881
22403SOL    HW168650   6.266   6.486   8.860
22403SOL    HW268651   6.278   6.338   8.890
22404SOL     OW68652   7.070   7.373   8.429
22404SOL    HW168653   7.083   7.454   8.379
22404SOL    HW268654   7.152   7.361   8.477
22405SOL     OW68655   6.304   6.155   9.146
22405SOL    HW168656   6.346   6.221   9.201
22405SOL    HW268657   6.326   6.072   9.188
22406SOL     OW68658   7.063   6.776   9.074
22406SOL    HW168659   7.054   6.793   9.167
22406SOL    HW268660   7.155   6.793   9.055
22407SOL     OW68661   5.958   7.322   9.008
22407SOL    HW168662   5.909   7.320   8.926
22407SOL    HW268663   5.925   7.247   9.058
22408SOL     OW68664   7.245   6.466   8.697
22408SOL    HW168665   7.246   6.387   8.643
22408SOL    HW268666   7.232   6.537   8.633
22409SOL     OW68667   6.805   5.899   7.910
22409SOL    HW168668   6.862   5.823   7.906
22409SOL    HW268669   6.834   5.948   7.987
22410SOL     OW68670   6.177   6.310   8.139
22410SOL    HW168671   6.214   6.398   8.139
22410SOL    HW268672   6.118   6.309   8.063
22411SOL     OW68673   7.332   5.957   9.125
22411SOL    HW168674   7.404   5.931   9.068
22411SOL    HW268675   7.272   5.882   9.124
22412SOL     OW68676   7.317   6.514   8.957
22412SOL    HW168677   7.337   6.607   8.971
22412SOL    HW268678   7.307   6.506   8.862
22413SOL     OW68679   6.433   6.953   7.497
22413SOL    HW168680   6.408   6.958   7.589
22413SOL    HW268681   6.451   7.044   7.472
22414SOL     OW68682   6.250   7.374   8.383
22414SOL    HW168683   6.236   7.467   8.365
22414SOL    HW268684   6.345   7.364   8.379
22415SOL     OW68685   6.516   6.584   8.334
22415SOL    HW168686   6.533   6.492   8.357
22415SOL    HW268687   6.432   6.582   8.288
22416SOL     OW68688   6.691   6.594   7.542
22416SOL    HW168689   6.644   6.632   7.468
22416SOL    HW268690   6.750   6.530   7.503
22417SOL     OW68691   7.429   7.126   8.280
22417SOL    HW168692   7.342   7.126   8.239
22417SOL    HW268693   7.415   7.086   8.366
22418SOL     OW68694   5.807   6.885   9.303
22418SOL    HW168695   5.741   6.830   9.260
22418SOL    HW268696   5.771   6.903   9.389
22419SOL     OW68697   5.689   6.813   8.101
22419SOL    HW168698   5.706   6.768   8.184
22419SOL    HW268699   5.748   6.772   8.038
22420SOL     OW68700   6.272   7.001   9.079
22420SOL    HW168701   6.197   6.958   9.120
22420SOL    HW268702   6.279   7.086   9.122
22421SOL     OW68703   7.343   5.765   8.675
22421SOL    HW168704   7.419   5.755   8.732
22421SOL    HW268705   7.379   5.757   8.586
22422SOL     OW68706   6.025   6.008   7.981
22422SOL    HW168707   5.985   6.000   7.895
22422SOL    HW268708   5.957   5.979   8.042
22423SOL     OW68709   7.293   7.071   8.526
22423SOL    HW168710   7.210   7.047   8.485
22423SOL    HW268711   7.303   7.009   8.598
22424SOL     OW68712   5.904   6.143   8.741
22424SOL    HW168713   5.958   6.086   8.796
22424SOL    HW268714   5.931   6.123   8.652
22425SOL     OW68715   6.427   7.166   8.124
22425SOL    HW168716   6.390   7.229   8.062
22425SOL    HW268717   6.356   7.105   8.143
22426SOL     OW68718   6.594   5.597   8.577
22426SOL    HW168719   6.539   5.536   8.528
22426SOL    HW268720   6.680   5.555   8.579
22427SOL     OW68721   6.367   6.922   7.764
22427SOL    HW168722   6.337   6.832   7.775
22427SOL    HW268723   6.443   6.929   7.822
22428SOL     OW68724   6.209   7.149   8.733
22428SOL    HW168725   6.212   7.231   8.782
22428SOL    HW268726   6.298   7.139   8.698
22429SOL     OW68727   6.944   5.633   7.618
22429SOL    HW168728   6.977   5.570   7.553
22429SOL    HW268729   6.856   5.601   7.640
22430SOL     OW68730   6.895   6.044   8.132
22430SOL    HW168731   6.841   6.123   8.126
22430SOL    HW268732   6.880   6.011   8.221
22431SOL     OW68733   7.140   5.802   8.331
22431SOL    HW168734   7.047   5.821   8.342
22431SOL    HW268735   7.174   5.874   8.278
22432SOL     OW68736   5.654   6.665   7.697
22432SOL    HW168737   5.744   6.640   7.675
22432SOL    HW268738   5.627   6.600   7.762
22433SOL     OW68739   6.475   7.247   7.777
22433SOL    HW168740   6.396   7.231   7.725
22433SOL    HW268741   6.449   7.313   7.841
22434SOL     OW68742   5.798   6.188   9.434
22434SOL    HW168743   5.707   6.198   9.464
22434SOL    HW268744   5.793   6.191   9.339
22435SOL     OW68745   5.799   5.871  10.298
22435SOL    HW168746   5.829   5.841  10.384
22435SOL    HW268747   5.710   5.837  10.290
22436SOL     OW68748   5.589   5.977   9.950
22436SOL    HW168749   5.504   5.992   9.991
22436SOL    HW268750   5.569   5.923   9.874
22437SOL     OW68751   6.160   6.890  10.490
22437SOL    HW168752   6.072   6.895  10.452
22437SOL    HW268753   6.175   6.977  10.527
22438SOL     OW68754   7.163   7.093  10.012
22438SOL    HW168755   7.114   7.078  10.092
22438SOL    HW268756   7.096   7.105   9.944
22439SOL     OW68757   6.717   6.297  10.000
22439SOL    HW168758   6.773   6.374   9.989
22439SOL    HW268759   6.674   6.311  10.084
22440SOL     OW68760   7.376   6.196   9.543
22440SOL    HW168761   7.329   6.182   9.462
22440SOL    HW268762   7.311   6.180   9.612
22441SOL     OW68763   6.330   6.732  10.345
22441SOL    HW168764   6.268   6.771  10.408
22441SOL    HW268765   6.363   6.806  10.295
22442SOL     OW68766   6.391   6.409  11.127
22442SOL    HW168767   6.435   6.356  11.193
22442SOL    HW268768   6.455   6.416  11.056
22443SOL     OW68769   6.272   6.613   9.962
22443SOL    HW168770   6.340   6.589  10.026
22443SOL    HW268771   6.197   6.639  10.016
22444SOL     OW68772   6.307   6.754  11.124
22444SOL    HW168773   6.344   6.833  11.161
22444SOL    HW268774   6.219   6.779  11.096
22445SOL     OW68775   5.920   6.994  10.375
22445SOL    HW168776   5.841   6.950  10.342
22445SOL    HW268777   5.947   7.052  10.304
22446SOL     OW68778   7.047   7.090  10.677
22446SOL    HW168779   7.104   7.167  10.679
22446SOL    HW268780   6.982   7.106  10.745
22447SOL     OW68781   6.034   5.965  10.767
22447SOL    HW168782   6.113   5.917  10.791
22447SOL    HW268783   5.963   5.920  10.813
22448SOL     OW68784   7.217   6.046  10.090
22448SOL    HW168785   7.191   6.074  10.003
22448SOL    HW268786   7.261   6.123  10.128
22449SOL     OW68787   5.813   7.281   9.780
22449SOL    HW168788   5.816   7.366   9.824
22449SOL    HW268789   5.888   7.283   9.720
22450SOL     OW68790   6.726   6.922  11.002
22450SOL    HW168791   6.768   6.917  11.088
22450SOL    HW268792   6.670   6.844  10.998
22451SOL     OW68793   5.833   7.023   9.860
22451SOL    HW168794   5.819   7.117   9.848
22451SOL    HW268795   5.768   6.998   9.926
22452SOL     OW68796   5.864   6.679  10.210
22452SOL    HW168797   5.857   6.589  10.241
22452SOL    HW268798   5.801   6.728  10.265
22453SOL     OW68799   6.198   7.364  10.741
22453SOL    HW168800   6.115   7.348  10.786
22453SOL    HW268801   6.223   7.452  10.766
22454SOL     OW68802   6.160   6.564   9.449
22454SOL    HW168803   6.210   6.610   9.382
22454SOL    HW268804   6.199   6.591   9.532
22455SOL     OW68805   7.152   5.748  10.745
22455SOL    HW168806   7.221   5.814  10.743
22455SOL    HW268807   7.120   5.749  10.835
22456SOL     OW68808   5.711   6.241   9.872
22456SOL    HW168809   5.677   6.153   9.891
22456SOL    HW268810   5.700   6.289   9.954
22457SOL     OW68811   7.433   7.342   9.652
22457SOL    HW168812   7.508   7.319   9.707
22457SOL    HW268813   7.448   7.434   9.629
22458SOL     OW68814   5.633   7.185   9.418
22458SOL    HW168815   5.604   7.097   9.444
22458SOL    HW268816   5.615   7.239   9.495
22459SOL     OW68817   7.317   6.522   9.952
22459SOL    HW168818   7.343   6.441   9.907
22459SOL    HW268819   7.271   6.573   9.886
22460SOL     OW68820   7.233   6.699   9.739
22460SOL    HW168821   7.321   6.693   9.701
22460SOL    HW268822   7.244   6.758   9.813
22461SOL     OW68823   5.736   6.352  10.899
22461SOL    HW168824   5.828   6.327  10.908
22461SOL    HW268825   5.695   6.325  10.981
22462SOL     OW68826   6.873   6.803  10.730
22462SOL    HW168827   6.936   6.738  10.700
22462SOL    HW268828   6.902   6.826  10.818
22463SOL     OW68829   6.403   5.592   9.826
22463SOL    HW168830   6.446   5.674   9.801
22463SOL    HW268831   6.310   5.614   9.832
22464SOL     OW68832   5.772   6.537  10.606
22464SOL    HW168833   5.858   6.501  10.587
22464SOL    HW268834   5.723   6.527  10.524
22465SOL     OW68835   7.114   6.590   9.511
22465SOL    HW168836   7.043   6.536   9.545
22465SOL    HW268837   7.160   6.622   9.589
22466SOL     OW68838   6.759   7.384  10.932
22466SOL    HW168839   6.787   7.455  10.874
22466SOL    HW268840   6.799   7.306  10.894
22467SOL     OW68841   5.931   5.868  11.117
22467SOL    HW168842   5.981   5.922  11.178
22467SOL    HW268843   5.849   5.849  11.163
22468SOL     OW68844   7.033   7.011  10.244
22468SOL    HW168845   6.978   7.021  10.321
22468SOL    HW268846   7.014   6.923  10.213
22469SOL     OW68847   7.233   7.342   9.896
22469SOL    HW168848   7.236   7.309   9.806
22469SOL    HW268849   7.224   7.263   9.949
22470SOL     OW68850   6.179   6.299   9.584
22470SOL    HW168851   6.180   6.379   9.532
22470SOL    HW268852   6.111   6.314   9.650
22471SOL     OW68853   6.883   5.926  10.269
22471SOL    HW168854   6.801   5.914  10.221
22471SOL    HW268855   6.857   5.930  10.361
22472SOL     OW68856   7.184   7.220   9.628
22472SOL    HW168857   7.266   7.270   9.619
22472SOL    HW268858   7.187   7.156   9.557
22473SOL     OW68859   6.380   6.205  10.760
22473SOL    HW168860   6.350   6.180  10.848
22473SOL    HW268861   6.353   6.132  10.704
22474SOL     OW68862   6.988   6.053  10.989
22474SOL    HW168863   6.979   6.102  11.071
22474SOL    HW268864   7.040   5.976  11.013
22475SOL     OW68865   6.558   6.479  10.888
22475SOL    HW168866   6.610   6.405  10.856
22475SOL    HW268867   6.500   6.501  10.815
22476SOL     OW68868   6.620   5.974  10.536
22476SOL    HW168869   6.546   6.002  10.590
22476SOL    HW268870   6.580   5.947  10.453
22477SOL     OW68871   6.642   6.281   9.731
22477SOL    HW168872   6.662   6.280   9.824
22477SOL    HW268873   6.558   6.235   9.725
22478SOL     OW68874   5.677   6.398  10.093
22478SOL    HW168875   5.755   6.397  10.148
22478SOL    HW268876   5.628   6.474  10.122
22479SOL     OW68877   5.705   7.494  10.887
22479SOL    HW168878   5.719   7.468  10.978
22479SOL    HW268879   5.631   7.440  10.858
22480SOL     OW68880   6.484   5.920   9.481
22480SOL    HW168881   6.520   5.996   9.437
22480SOL    HW268882   6.544   5.849   9.460
22481SOL     OW68883   7.298   6.164  11.151
22481SOL    HW168884   7.259   6.235  11.099
22481SOL    HW268885   7.322   6.098  11.086
22482SOL     OW68886   6.964   6.726   9.837
22482SOL    HW168887   7.045   6.712   9.789
22482SOL    HW268888   6.916   6.791   9.786
22483SOL     OW68889   6.134   5.753  10.225
22483SOL    HW168890   6.138   5.783  10.315
22483SOL    HW268891   6.133   5.833  10.173
22484SOL     OW68892   6.611   7.049   9.808
22484SOL    HW168893   6.572   7.103   9.739
22484SOL    HW268894   6.551   7.058   9.882
22485SOL     OW68895   5.931   7.396  10.203
22485SOL    HW168896   5.983   7.316  10.195
22485SOL    HW268897   5.995   7.467  10.201
22486SOL     OW68898   7.324   6.666  10.207
22486SOL    HW168899   7.312   6.690  10.115
22486SOL    HW268900   7.359   6.577  10.205
22487SOL     OW68901   6.812   7.123  10.825
22487SOL    HW168902   6.802   7.052  10.889
22487SOL    HW268903   6.735   7.115  10.768
22488SOL     OW68904   5.898   6.544   9.565
22488SOL    HW168905   5.975   6.561   9.510
22488SOL    HW268906   5.863   6.461   9.532
22489SOL     OW68907   7.041   6.345  10.052
22489SOL    HW168908   7.060   6.285  10.124
22489SOL    HW268909   7.086   6.307   9.977
22490SOL     OW68910   6.056   6.854  11.032
22490SOL    HW168911   6.022   6.842  10.944
22490SOL    HW268912   5.978   6.857  11.088
22491SOL     OW68913   6.709   7.342   9.537
22491SOL    HW168914   6.635   7.301   9.581
22491SOL    HW268915   6.735   7.280   9.469
22492SOL     OW68916   5.773   5.846  10.815
22492SOL    HW168917   5.691   5.889  10.839
22492SOL    HW268918   5.766   5.758  10.850
22493SOL     OW68919   7.197   7.000   9.423
22493SOL    HW168920   7.243   7.026   9.343
22493SOL    HW268921   7.137   6.930   9.395
22494SOL     OW68922   6.049   7.307   9.639
22494SOL    HW168923   6.093   7.376   9.689
22494SOL    HW268924   6.114   7.281   9.573
22495SOL     OW68925   6.981   5.695   9.749
22495SOL    HW168926   6.970   5.666   9.659
22495SOL    HW268927   7.054   5.757   9.745
22496SOL     OW68928   5.840   7.381  10.536
22496SOL    HW168929   5.890   7.306  10.567
22496SOL    HW268930   5.836   7.369  10.441
22497SOL     OW68931   6.566   7.268  10.218
22497SOL    HW168932   6.650   7.235  10.188
22497SOL    HW268933   6.502   7.223  10.163
22498SOL     OW68934   5.984   6.281   9.787
22498SOL    HW168935   6.002   6.188   9.799
22498SOL    HW268936   5.890   6.290   9.801
22499SOL     OW68937   7.109   5.800  11.037
22499SOL    HW168938   7.128   5.826  11.127
22499SOL    HW268939   7.044   5.731  11.046
22500SOL     OW68940   6.199   5.645   9.453
22500SOL    HW168941   6.289   5.672   9.434
22500SOL    HW268942   6.158   5.636   9.368
22501SOL     OW68943   6.333   5.844  11.041
22501SOL    HW168944   6.422   5.808  11.050
22501SOL    HW268945   6.294   5.833  11.128
22502SOL     OW68946   6.479   7.109  10.479
22502SOL    HW168947   6.451   7.062  10.401
22502SOL    HW268948   6.524   7.043  10.532
22503SOL     OW68949   6.949   6.149  10.739
22503SOL    HW168950   6.966   6.115  10.827
22503SOL    HW268951   6.966   6.243  10.745
22504SOL     OW68952   6.412   6.989  10.230
22504SOL    HW168953   6.503   6.964  10.213
22504SOL    HW268954   6.385   7.038  10.153
22505SOL     OW68955   6.516   6.099  10.205
22505SOL    HW168956   6.491   6.089  10.113
22505SOL    HW268957   6.543   6.011  10.231
22506SOL     OW68958   6.132   5.645   9.808
22506SOL    HW168959   6.053   5.647   9.861
22506SOL    HW268960   6.128   5.724   9.754
22507SOL     OW68961   7.024   6.798   9.348
22507SOL    HW168962   7.050   6.721   9.399
22507SOL    HW268963   6.935   6.818   9.378
22508SOL     OW68964   5.876   5.647   9.491
22508SOL    HW168965   5.891   5.720   9.431
22508SOL    HW268966   5.963   5.610   9.507
22509SOL     OW68967   6.522   5.832   9.758
22509SOL    HW168968   6.496   5.872   9.676
22509SOL    HW268969   6.616   5.849   9.764
22510SOL     OW68970   6.667   6.256  10.761
22510SOL    HW168971   6.590   6.214  10.800
22510SOL    HW268972   6.740   6.200  10.787
22511SOL     OW68973   6.800   7.180  10.109
22511SOL    HW168974   6.816   7.237  10.034
22511SOL    HW268975   6.885   7.174  10.154
22512SOL     OW68976   6.044   6.751  10.022
22512SOL    HW168977   5.990   6.736  10.100
22512SOL    HW268978   5.986   6.730   9.949
22513SOL     OW68979   6.849   7.387   9.925
22513SOL    HW168980   6.912   7.430   9.867
22513SOL    HW268981   6.788   7.456   9.950
22514SOL     OW68982   6.605   6.119   9.338
22514SOL    HW168983   6.567   6.203   9.315
22514SOL    HW268984   6.674   6.140   9.401
22515SOL     OW68985   5.668   6.155  10.706
22515SOL    HW168986   5.760   6.143  10.681
22515SOL    HW268987   5.669   6.231  10.763
22516SOL     OW68988   6.143   5.816  10.495
22516SOL    HW168989   6.183   5.774  10.570
22516SOL    HW268990   6.050   5.820  10.517
22517SOL     OW68991   6.449   6.043   9.945
22517SOL    HW168992   6.409   6.096   9.876
22517SOL    HW268993   6.477   5.963   9.900
22518SOL     OW68994   6.604   5.641  10.056
22518SOL    HW168995   6.542   5.635   9.983
22518SOL    HW268996   6.586   5.564  10.109
22519SOL     OW68997   7.000   6.748  10.146
22519SOL    HW168998   6.945   6.706  10.080
22519SOL    HW268999   7.085   6.758  10.103
22520SOL     OW69000   7.035   6.195  10.301
22520SOL    HW169001   7.003   6.106  10.288
22520SOL    HW269002   7.103   6.187  10.368
22521SOL     OW69003   7.449   6.408   9.703
22521SOL    HW169004   7.502   6.352   9.760
22521SOL    HW269005   7.412   6.348   9.638
22522SOL     OW69006   6.087   6.995   9.494
22522SOL    HW169007   5.999   6.970   9.523
22522SOL    HW269008   6.099   6.950   9.411
22523SOL     OW69009   7.261   6.838   9.975
22523SOL    HW169010   7.357   6.837   9.973
22523SOL    HW269011   7.238   6.931   9.976
22524SOL     OW69012   6.974   6.165   9.373
22524SOL    HW169013   6.926   6.140   9.452
22524SOL    HW269014   7.066   6.156   9.397
22525SOL     OW69015   6.108   5.848   9.629
22525SOL    HW169016   6.141   5.790   9.561
22525SOL    HW269017   6.084   5.928   9.583
22526SOL     OW69018   7.332   6.829  10.882
22526SOL    HW169019   7.418   6.793  10.861
22526SOL    HW269020   7.348   6.920  10.904
22527SOL     OW69021   6.648   6.919  10.625
22527SOL    HW169022   6.569   6.897  10.675
22527SOL    HW269023   6.719   6.877  10.674
22528SOL     OW69024   7.183   7.215  10.957
22528SOL    HW169025   7.180   7.256  10.871
22528SOL    HW269026   7.264   7.164  10.956
22529SOL     OW69027   6.736   6.776  10.395
22529SOL    HW169028   6.688   6.810  10.471
22529SOL    HW269029   6.704   6.829  10.322
22530SOL     OW69030   7.152   6.671  10.414
22530SOL    HW169031   7.173   6.739  10.478
22530SOL    HW269032   7.217   6.682  10.344
22531SOL     OW69033   6.503   5.696  10.683
22531SOL    HW169034   6.531   5.668  10.596
22531SOL    HW269035   6.584   5.721  10.727
22532SOL     OW69036   6.564   6.705  11.033
22532SOL    HW169037   6.474   6.712  11.063
22532SOL    HW269038   6.566   6.624  10.982
22533SOL     OW69039   6.282   6.621   9.693
22533SOL    HW169040   6.283   6.598   9.786
22533SOL    HW269041   6.360   6.578   9.657
22534SOL     OW69042   6.008   6.406  10.567
22534SOL    HW169043   6.076   6.414  10.633
22534SOL    HW269044   5.975   6.317  10.577
22535SOL     OW69045   6.891   5.944  10.559
22535SOL    HW169046   6.921   6.016  10.615
22535SOL    HW269047   6.796   5.959  10.550
22536SOL     OW69048   5.666   7.167  10.653
22536SOL    HW169049   5.633   7.241  10.602
22536SOL    HW269050   5.761   7.176  10.649
22537SOL     OW69051   5.967   6.725   9.760
22537SOL    HW169052   5.921   6.791   9.709
22537SOL    HW269053   5.951   6.643   9.713
22538SOL     OW69054   6.126   6.113  10.172
22538SOL    HW169055   6.141   6.171  10.097
22538SOL    HW269056   6.194   6.137  10.235
22539SOL     OW69057   6.838   6.938   9.706
22539SOL    HW169058   6.898   7.008   9.732
22539SOL    HW269059   6.753   6.964   9.741
22540SOL     OW69060   6.879   7.041  10.471
22540SOL    HW169061   6.945   7.053  10.540
22540SOL    HW269062   6.811   6.987  10.513
22541SOL     OW69063   5.938   7.132  10.606
22541SOL    HW169064   5.925   7.077  10.528
22541SOL    HW269065   6.033   7.136  10.617
22542SOL     OW69066   6.012   6.317  10.922
22542SOL    HW169067   6.075   6.358  10.863
22542SOL    HW269068   6.059   6.242  10.959
22543SOL     OW69069   7.198   6.368  11.000
22543SOL    HW169070   7.111   6.407  10.994
22543SOL    HW269071   7.249   6.412  10.933
22544SOL     OW69072   6.577   5.718  11.057
22544SOL    HW169073   6.640   5.790  11.046
22544SOL    HW269074   6.621   5.642  11.020
22545SOL     OW69075   6.074   5.629  11.062
22545SOL    HW169076   6.029   5.584  10.989
22545SOL    HW269077   6.021   5.707  11.077
22546SOL     OW69078   6.170   6.463  10.347
22546SOL    HW169079   6.204   6.552  10.354
22546SOL    HW269080   6.115   6.452  10.424
22547SOL     OW69081   6.899   6.430  10.346
22547SOL    HW169082   6.817   6.405  10.302
22547SOL    HW269083   6.957   6.356  10.332
22548SOL     OW69084   6.779   6.106   9.567
22548SOL    HW169085   6.794   6.031   9.625
22548SOL    HW269086   6.744   6.174   9.624
22549SOL     OW69087   5.873   5.799  10.552
22549SOL    HW169088   5.843   5.823  10.640
22549SOL    HW269089   5.867   5.703  10.551
22550SOL     OW69090   5.661   6.895  10.625
22550SOL    HW169091   5.611   6.875  10.704
22550SOL    HW269092   5.662   6.990  10.621
22551SOL     OW69093   6.303   6.214  10.357
22551SOL    HW169094   6.380   6.203  10.300
22551SOL    HW269095   6.274   6.304  10.341
22552SOL     OW69096   7.325   6.545  11.176
22552SOL    HW169097   7.285   6.476  11.123
22552SOL    HW269098   7.262   6.561  11.246
22553SOL     OW69099   5.891   5.645   9.934
22553SOL    HW169100   5.866   5.736   9.953
22553SOL    HW269101   5.903   5.606  10.021
22554SOL     OW69102   7.170   5.890   9.696
22554SOL    HW169103   7.242   5.853   9.748
22554SOL    HW269104   7.163   5.981   9.726
22555SOL     OW69105   6.617   6.345  10.269
22555SOL    HW169106   6.603   6.357  10.363
22555SOL    HW269107   6.589   6.255  10.252
22556SOL     OW69108   6.565   7.144  11.022
22556SOL    HW169109   6.572   7.194  10.941
22556SOL    HW269110   6.612   7.063  11.004
22557SOL     OW69111   7.424   7.088  10.916
22557SOL    HW169112   7.456   7.115  10.830
22557SOL    HW269113   7.497   7.105  10.976
22558SOL     OW69114   5.937   6.521  11.100
22558SOL    HW169115   6.006   6.538  11.164
22558SOL    HW269116   5.970   6.446  11.049
22559SOL     OW69117   7.115   5.837   9.430
22559SOL    HW169118   7.044   5.779   9.457
22559SOL    HW269119   7.149   5.873   9.513
22560SOL     OW69120   6.864   6.414   9.332
22560SOL    HW169121   6.909   6.329   9.337
22560SOL    HW269122   6.898   6.454   9.252
22561SOL     OW69123   6.668   6.930  10.175
22561SOL    HW169124   6.666   6.857  10.114
22561SOL    HW269125   6.721   6.997  10.131
22562SOL     OW69126   5.894   6.398  10.262
22562SOL    HW169127   5.989   6.416  10.259
22562SOL    HW269128   5.888   6.307  10.289
22563SOL     OW69129   5.902   6.119  10.318
22563SOL    HW169130   5.866   6.031  10.307
22563SOL    HW269131   5.980   6.120  10.264
22564SOL     OW69132   6.741   5.933  10.980
22564SOL    HW169133   6.677   5.990  11.024
22564SOL    HW269134   6.824   5.979  10.990
22565SOL     OW69135   6.762   5.769  10.769
22565SOL    HW169136   6.751   5.826  10.845
22565SOL    HW269137   6.792   5.827  10.699
22566SOL     OW69138   5.595   6.902   9.501
22566SOL    HW169139   5.509   6.922   9.466
22566SOL    HW269140   5.587   6.814   9.537
22567SOL     OW69141   5.669   7.363  10.256
22567SOL    HW169142   5.642   7.286  10.206
22567SOL    HW269143   5.760   7.378  10.229
22568SOL     OW69144   6.097   7.171  10.232
22568SOL    HW169145   6.162   7.239  10.250
22568SOL    HW269146   6.149   7.092  10.216
22569SOL     OW69147   6.555   6.366  10.535
22569SOL    HW169148   6.614   6.337  10.605
22569SOL    HW269149   6.469   6.336  10.562
22570SOL     OW69150   5.628   6.144  10.425
22570SOL    HW169151   5.710   6.140  10.376
22570SOL    HW269152   5.655   6.144  10.517
22571SOL     OW69153   5.766   6.104  11.045
22571SOL    HW169154   5.834   6.038  11.034
22571SOL    HW269155   5.704   6.087  10.974
22572SOL     OW69156   6.972   6.517  10.954
22572SOL    HW169157   6.994   6.610  10.958
22572SOL    HW269158   6.958   6.499  10.861
22573SOL     OW69159   6.399   6.151   9.680
22573SOL    HW169160   6.400   6.082   9.614
22573SOL    HW269161   6.327   6.209   9.653
22574SOL     OW69162   7.226   6.179  10.494
22574SOL    HW169163   7.227   6.137  10.580
22574SOL    HW269164   7.314   6.163  10.459
22575SOL     OW69165   5.858   7.141  11.040
22575SOL    HW169166   5.775   7.179  11.069
22575SOL    HW269167   5.857   7.051  11.074
22576SOL     OW69168   6.320   6.030  10.558
22576SOL    HW169169   6.255   5.962  10.541
22576SOL    HW269170   6.307   6.094  10.488
22577SOL     OW69171   6.520   7.259  10.746
22577SOL    HW169172   6.427   7.238  10.757
22577SOL    HW269173   6.524   7.355  10.749
22578SOL     OW69174   6.043   6.073   9.491
22578SOL    HW169175   6.098   6.147   9.515
22578SOL    HW269176   5.956   6.111   9.478
22579SOL     OW69177   6.888   6.459   9.604
22579SOL    HW169178   6.824   6.408   9.654
22579SOL    HW269179   6.867   6.442   9.513
22580SOL     OW69180   7.376   7.332  10.478
22580SOL    HW169181   7.437   7.353  10.408
22580SOL    HW269182   7.337   7.249  10.452
22581SOL     OW69183   6.819   7.304  10.416
22581SOL    HW169184   6.894   7.347  10.375
22581SOL    HW269185   6.848   7.215  10.432
22582SOL     OW69186   5.685   6.836  10.349
22582SOL    HW169187   5.668   6.852  10.442
22582SOL    HW269188   5.601   6.807  10.314
22583SOL     OW69189   6.263   7.260  11.057
22583SOL    HW169190   6.203   7.334  11.052
22583SOL    HW269191   6.347   7.295  11.029
22584SOL     OW69192   7.340   5.725   9.847
22584SOL    HW169193   7.404   5.679   9.793
22584SOL    HW269194   7.287   5.655   9.886
22585SOL     OW69195   6.985   7.154   9.805
22585SOL    HW169196   7.047   7.181   9.738
22585SOL    HW269197   6.931   7.232   9.822
22586SOL     OW69198   5.747   7.490  11.150
22586SOL    HW169199   5.690   7.413  11.156
22586SOL    HW269200   5.799   7.487  11.230
22587SOL     OW69201   6.863   6.535   9.995
22587SOL    HW169202   6.933   6.473  10.014
22587SOL    HW269203   6.896   6.589   9.923
22588SOL     OW69204   6.391   6.869  10.723
22588SOL    HW169205   6.366   6.910  10.806
22588SOL    HW269206   6.312   6.872  10.670
22589SOL     OW69207   6.252   7.221   9.471
22589SOL    HW169208   6.286   7.224   9.381
22589SOL    HW269209   6.213   7.134   9.478
22590SOL     OW69210   7.197   7.320  10.699
22590SOL    HW169211   7.259   7.323  10.626
22590SOL    HW269212   7.182   7.412  10.721
22591SOL     OW69213   7.418   5.763  10.267
22591SOL    HW169214   7.445   5.675  10.242
22591SOL    HW269215   7.333   5.775  10.225
22592SOL     OW69216   5.842   5.897  10.022
22592SOL    HW169217   5.756   5.934   9.998
22592SOL    HW269218   5.840   5.894  10.118
22593SOL     OW69219   6.796   7.173   9.330
22593SOL    HW169220   6.787   7.088   9.373
22593SOL    HW269221   6.717   7.182   9.277
22594SOL     OW69222   6.406   6.591  10.683
22594SOL    HW169223   6.458   6.584  10.603
22594SOL    HW269224   6.408   6.685  10.705
22595SOL     OW69225   6.501   6.495   9.613
22595SOL    HW169226   6.550   6.527   9.537
22595SOL    HW269227   6.558   6.429   9.652
22596SOL     OW69228   5.917   6.878  10.784
22596SOL    HW169229   5.938   6.972  10.785
22596SOL    HW269230   5.850   6.870  10.717
22597SOL     OW69231   7.177   6.859  10.601
22597SOL    HW169232   7.266   6.867  10.636
22597SOL    HW269233   7.131   6.936  10.634
22598SOL     OW69234   6.644   6.702  10.039
22598SOL    HW169235   6.573   6.644  10.065
22598SOL    HW269236   6.711   6.644  10.004
22599SOL     OW69237   6.603   5.832  10.269
22599SOL    HW169238   6.603   5.786  10.185
22599SOL    HW269239   6.600   5.763  10.335
22600SOL     OW69240   6.187   7.072   9.817
22600SOL    HW169241   6.242   7.053   9.740
22600SOL    HW269242   6.119   7.130   9.784
22601SOL     OW69243   7.325   5.971  10.692
22601SOL    HW169244   7.400   6.030  10.699
22601SOL    HW269245   7.350   5.907  10.626
22602SOL     OW69246   5.844   6.920   9.614
22602SOL    HW169247   5.753   6.921   9.584
22602SOL    HW269248   5.842   6.968   9.697
22603SOL     OW69249   5.693   6.638  11.052
22603SOL    HW169250   5.619   6.611  11.107
22603SOL    HW269251   5.769   6.597  11.093
22604SOL     OW69252   6.262   5.779  10.787
22604SOL    HW169253   6.350   5.765  10.752
22604SOL    HW269254   6.276   5.805  10.879
22605SOL     OW69255   5.668   5.902   9.344
22605SOL    HW169256   5.596   5.891   9.282
22605SOL    HW269257   5.660   5.992   9.374
22606SOL     OW69258   6.988   6.459  10.682
22606SOL    HW169259   6.944   6.428  10.603
22606SOL    HW269260   7.081   6.463  10.657
22607SOL     OW69261   5.640   5.739   9.626
22607SOL    HW169262   5.606   5.814   9.577
22607SOL    HW269263   5.726   5.723   9.588
22608SOL     OW69264   6.772   6.916   9.434
22608SOL    HW169265   6.676   6.918   9.432
22608SOL    HW269266   6.794   6.914   9.527
22609SOL     OW69267   6.206   6.414  10.747
22609SOL    HW169268   6.265   6.489  10.736
22609SOL    HW269269   6.265   6.339  10.758
22610SOL     OW69270   7.062   7.378  10.295
22610SOL    HW169271   7.088   7.446  10.233
22610SOL    HW269272   7.145   7.335  10.320
22611SOL     OW69273   6.269   6.169  11.008
22611SOL    HW169274   6.305   6.244  11.057
22611SOL    HW269275   6.319   6.094  11.039
22612SOL     OW69276   7.060   6.781  10.948
22612SOL    HW169277   7.055   6.795  11.042
22612SOL    HW269278   7.152   6.799  10.925
22613SOL     OW69279   5.955   7.333  10.874
22613SOL    HW169280   5.873   7.377  10.851
22613SOL    HW269281   5.928   7.259  10.928
22614SOL     OW69282   7.239   6.457  10.571
22614SOL    HW169283   7.250   6.372  10.526
22614SOL    HW269284   7.225   6.519  10.500
22615SOL     OW69285   6.788   5.898   9.761
22615SOL    HW169286   6.857   5.832   9.758
22615SOL    HW269287   6.805   5.946   9.842
22616SOL     OW69288   6.169   6.321   9.990
22616SOL    HW169289   6.220   6.398   9.964
22616SOL    HW269290   6.104   6.311   9.920
22617SOL     OW69291   7.333   5.954  10.973
22617SOL    HW169292   7.326   5.971  10.879
22617SOL    HW269293   7.262   5.892  10.991
22618SOL     OW69294   7.332   6.521  10.823
22618SOL    HW169295   7.324   6.615  10.835
22618SOL    HW269296   7.313   6.506  10.730
22619SOL     OW69297   6.276   7.379  10.256
22619SOL    HW169298   6.223   7.457  10.241
22619SOL    HW269299   6.354   7.392  10.201
22620SOL     OW69300   6.450   6.550  10.163
22620SOL    HW169301   6.502   6.479  10.200
22620SOL    HW269302   6.414   6.596  10.239
22621SOL     OW69303   6.636   6.551   9.388
22621SOL    HW169304   6.627   6.623   9.325
22621SOL    HW269305   6.720   6.510   9.365
22622SOL     OW69306   7.446   7.128  10.161
22622SOL    HW169307   7.376   7.113  10.097
22622SOL    HW269308   7.459   7.042  10.203
22623SOL     OW69309   5.814   6.885  11.154
22623SOL    HW169310   5.765   6.813  11.115
22623SOL    HW269311   5.763   6.910  11.231
22624SOL     OW69312   5.666   6.822   9.987
22624SOL    HW169313   5.667   6.764  10.063
22624SOL    HW269314   5.717   6.775   9.921
22625SOL     OW69315   6.260   7.010  10.922
22625SOL    HW169316   6.194   6.956  10.966
22625SOL    HW269317   6.260   7.092  10.971
22626SOL     OW69318   7.342   5.757  10.522
22626SOL    HW169319   7.379   5.672  10.547
22626SOL    HW269320   7.381   5.776  10.437
22627SOL     OW69321   6.019   6.021   9.840
22627SOL    HW169322   6.047   5.952   9.780
22627SOL    HW269323   5.966   5.976   9.905
22628SOL     OW69324   7.259   7.096  10.419
22628SOL    HW169325   7.200   7.061  10.352
22628SOL    HW269326   7.304   7.019  10.454
22629SOL     OW69327   5.920   6.148  10.601
22629SOL    HW169328   5.969   6.087  10.657
22629SOL    HW269329   5.934   6.115  10.512
22630SOL     OW69330   6.389   7.175   9.994
22630SOL    HW169331   6.412   7.255   9.946
22630SOL    HW269332   6.315   7.138   9.947
22631SOL     OW69333   6.603   5.601  10.429
22631SOL    HW169334   6.562   5.540  10.368
22631SOL    HW269335   6.690   5.565  10.445
22632SOL     OW69336   6.339   6.891   9.671
22632SOL    HW169337   6.349   6.798   9.650
22632SOL    HW269338   6.383   6.936   9.599
22633SOL     OW69339   6.216   7.141  10.587
22633SOL    HW169340   6.211   7.220  10.641
22633SOL    HW269341   6.304   7.142  10.550
22634SOL     OW69342   6.928   5.640   9.483
22634SOL    HW169343   6.954   5.582   9.411
22634SOL    HW269344   6.841   5.609   9.508
22635SOL     OW69345   6.822   6.033   9.995
22635SOL    HW169346   6.792   6.124   9.989
22635SOL    HW269347   6.898   6.037  10.052
22636SOL     OW69348   7.141   5.834  10.245
22636SOL    HW169349   7.047   5.839  10.226
22636SOL    HW269350   7.180   5.902  10.190
22637SOL     OW69351   5.631   6.651   9.627
22637SOL    HW169352   5.721   6.640   9.598
22637SOL    HW269353   5.600   6.563   9.646
22638SOL     OW69354   6.471   7.233   9.657
22638SOL    HW169355   6.410   7.220   9.585
22638SOL    HW269356   6.438   7.310   9.703
22639SOL     OW69357   5.800   6.226  11.301
22639SOL    HW169358   5.717   6.209  11.345
22639SOL    HW269359   5.788   6.194  11.211
22640SOL     OW69360   5.800   5.878  12.158
22640SOL    HW169361   5.833   5.837  12.238
22640SOL    HW269362   5.725   5.930  12.187
22641SOL     OW69363   5.580   5.979  11.820
22641SOL    HW169364   5.499   6.006  11.863
22641SOL    HW269365   5.556   5.902  11.768
22642SOL     OW69366   6.112   6.826  12.346
22642SOL    HW169367   6.056   6.861  12.277
22642SOL    HW269368   6.132   6.901  12.401
22643SOL     OW69369   7.149   7.105  11.892
22643SOL    HW169370   7.111   7.087  11.978
22643SOL    HW269371   7.074   7.106  11.833
22644SOL     OW69372   6.723   6.278  11.860
22644SOL    HW169373   6.771   6.360  11.848
22644SOL    HW269374   6.676   6.289  11.942
22645SOL     OW69375   7.374   6.166  11.409
22645SOL    HW169376   7.349   6.176  11.317
22645SOL    HW269377   7.330   6.085  11.437
22646SOL     OW69378   6.321   6.718  12.211
22646SOL    HW169379   6.255   6.768  12.260
22646SOL    HW269380   6.368   6.785  12.161
22647SOL     OW69381   6.275   6.584  11.813
22647SOL    HW169382   6.339   6.572  11.884
22647SOL    HW269383   6.200   6.624  11.856
22648SOL     OW69384   5.949   6.980  12.175
22648SOL    HW169385   5.856   6.958  12.181
22648SOL    HW269386   5.963   7.040  12.249
22649SOL     OW69387   7.181   6.017  11.893
22649SOL    HW169388   7.094   6.023  11.853
22649SOL    HW269389   7.172   6.063  11.977
22650SOL     OW69390   5.804   7.309  11.635
22650SOL    HW169391   5.828   7.381  11.693
22650SOL    HW269392   5.884   7.289  11.587
22651SOL     OW69393   5.818   7.036  11.718
22651SOL    HW169394   5.787   7.126  11.721
22651SOL    HW269395   5.763   6.989  11.781
22652SOL     OW69396   5.857   6.668  12.075
22652SOL    HW169397   5.849   6.582  12.117
22652SOL    HW269398   5.806   6.727  12.130
22653SOL     OW69399   6.162   6.563  11.318
22653SOL    HW169400   6.226   6.564  11.247
22653SOL    HW269401   6.204   6.613  11.388
22654SOL     OW69402   5.706   6.242  11.740
22654SOL    HW169403   5.675   6.154  11.762
22654SOL    HW269404   5.696   6.292  11.821
22655SOL     OW69405   7.480   7.305  11.475
22655SOL    HW169406   7.551   7.302  11.539
22655SOL    HW269407   7.467   7.398  11.458
22656SOL     OW69408   7.374   6.486  11.702
22656SOL    HW169409   7.421   6.481  11.785
22656SOL    HW269410   7.295   6.538  11.722
22657SOL     OW69411   7.227   6.722  11.583
22657SOL    HW169412   7.316   6.713  11.549
22657SOL    HW269413   7.237   6.774  11.662
22658SOL     OW69414   5.778   6.332   0.241
22658SOL    HW169415   5.803   6.288   0.323
22658SOL    HW269416   5.688   6.360   0.255
22659SOL     OW69417   6.221   6.924  11.867
22659SOL    HW169418   6.170   6.846  11.885
22659SOL    HW269419   6.166   6.996  11.897
22660SOL     OW69420   6.409   5.590  11.675
22660SOL    HW169421   6.449   5.675  11.657
22660SOL    HW269422   6.315   5.609  11.682
22661SOL     OW69423   5.758   6.558  12.404
22661SOL    HW169424   5.825   6.498  12.438
22661SOL    HW269425   5.683   6.546  12.462
22662SOL     OW69426   7.123   6.585  11.371
22662SOL    HW169427   7.058   6.523  11.403
22662SOL    HW269428   7.154   6.630  11.450
22663SOL     OW69429   7.080   7.006  12.144
22663SOL    HW169430   7.003   7.018  12.199
22663SOL    HW269431   7.059   6.930  12.089
22664SOL     OW69432   7.269   7.321  11.741
22664SOL    HW169433   7.209   7.311  11.667
22664SOL    HW269434   7.239   7.257  11.805
22665SOL     OW69435   6.175   6.292  11.441
22665SOL    HW169436   6.182   6.378  11.400
22665SOL    HW269437   6.110   6.303  11.510
22666SOL     OW69438   6.865   5.930  12.095
22666SOL    HW169439   6.775   5.900  12.101
22666SOL    HW269440   6.911   5.883  12.164
22667SOL     OW69441   7.163   7.274  11.450
22667SOL    HW169442   7.145   7.363  11.479
22667SOL    HW269443   7.121   7.267  11.365
22668SOL     OW69444   6.571   5.948  12.395
22668SOL    HW169445   6.571   6.022  12.456
22668SOL    HW269446   6.480   5.942  12.365
22669SOL     OW69447   6.639   6.286  11.592
22669SOL    HW169448   6.659   6.278  11.685
22669SOL    HW269449   6.556   6.239  11.581
22670SOL     OW69450   5.672   6.423  11.948
22670SOL    HW169451   5.752   6.403  11.996
22670SOL    HW269452   5.630   6.493  11.997
22671SOL     OW69453   6.491   5.954  11.370
22671SOL    HW169454   6.517   6.019  11.305
22671SOL    HW269455   6.502   5.870  11.325
22672SOL     OW69456   6.964   6.733  11.708
22672SOL    HW169457   7.044   6.727  11.655
22672SOL    HW269458   6.908   6.794  11.661
22673SOL     OW69459   6.128   5.762  12.056
22673SOL    HW169460   6.135   5.789  12.148
22673SOL    HW269461   6.136   5.843  12.007
22674SOL     OW69462   6.567   7.022  11.671
22674SOL    HW169463   6.550   7.098  11.614
22674SOL    HW269464   6.612   7.059  11.746
22675SOL     OW69465   5.949   7.370  12.032
22675SOL    HW169466   5.996   7.289  12.014
22675SOL    HW269467   5.978   7.396  12.120
22676SOL     OW69468   7.362   6.645  12.024
22676SOL    HW169469   7.290   6.679  11.971
22676SOL    HW269470   7.323   6.627  12.109
22677SOL     OW69471   5.893   6.537  11.426
22677SOL    HW169472   5.979   6.552  11.387
22677SOL    HW269473   5.873   6.446  11.406
22678SOL     OW69474   7.088   6.318  11.903
22678SOL    HW169475   7.069   6.243  11.960
22678SOL    HW269476   7.085   6.394  11.961
22679SOL     OW69477   6.701   7.377  11.376
22679SOL    HW169478   6.649   7.342  11.448
22679SOL    HW269479   6.727   7.300  11.326
22680SOL     OW69480   7.206   7.001  11.274
22680SOL    HW169481   7.156   7.073  11.237
22680SOL    HW269482   7.153   6.923  11.258
22681SOL     OW69483   6.060   7.312  11.504
22681SOL    HW169484   6.100   7.378  11.560
22681SOL    HW269485   6.130   7.288  11.442
22682SOL     OW69486   6.991   5.696  11.617
22682SOL    HW169487   6.985   5.670  11.525
22682SOL    HW269488   7.084   5.695  11.637
22683SOL     OW69489   5.869   7.384  12.356
22683SOL    HW169490   5.934   7.318  12.378
22683SOL    HW269491   5.785   7.341  12.373
22684SOL     OW69492   6.534   7.282  12.074
22684SOL    HW169493   6.621   7.246  12.057
22684SOL    HW269494   6.477   7.234  12.013
22685SOL     OW69495   5.977   6.280  11.638
22685SOL    HW169496   5.996   6.187  11.653
22685SOL    HW269497   5.885   6.290  11.662
22686SOL     OW69498   6.230   5.710  11.272
22686SOL    HW169499   6.279   5.634  11.303
22686SOL    HW269500   6.174   5.676  11.202
22687SOL     OW69501   6.394   6.951  12.093
22687SOL    HW169502   6.487   6.952  12.070
22687SOL    HW269503   6.349   6.966  12.010
22688SOL     OW69504   6.510   6.083  12.073
22688SOL    HW169505   6.486   6.073  11.981
22688SOL    HW269506   6.544   5.998  12.099
22689SOL     OW69507   6.143   5.648  11.661
22689SOL    HW169508   6.067   5.646  11.719
22689SOL    HW269509   6.128   5.723  11.604
22690SOL     OW69510   7.028   6.796  11.222
22690SOL    HW169511   7.053   6.716  11.266
22690SOL    HW269512   6.938   6.813  11.252
22691SOL     OW69513   5.887   5.649  11.362
22691SOL    HW169514   5.949   5.719  11.382
22691SOL    HW269515   5.930   5.569  11.391
22692SOL     OW69516   6.529   5.835  11.624
22692SOL    HW169517   6.508   5.880  11.542
22692SOL    HW269518   6.623   5.850  11.636
22693SOL     OW69519   6.053   6.716  11.896
22693SOL    HW169520   5.989   6.702  11.966
22693SOL    HW269521   6.003   6.711  11.815
22694SOL     OW69522   6.832   7.372  11.706
22694SOL    HW169523   6.873   7.446  11.751
22694SOL    HW269524   6.802   7.315  11.777
22695SOL     OW69525   6.141   5.810  12.325
22695SOL    HW169526   6.189   5.763  12.394
22695SOL    HW269527   6.050   5.808  12.354
22696SOL     OW69528   6.451   6.042  11.806
22696SOL    HW169529   6.416   6.096  11.736
22696SOL    HW269530   6.474   5.959  11.764
22697SOL     OW69531   6.615   5.613  11.904
22697SOL    HW169532   6.549   5.611  11.836
22697SOL    HW269533   6.589   5.545  11.966
22698SOL     OW69534   7.021   6.805  11.977
22698SOL    HW169535   7.019   6.721  12.023
22698SOL    HW269536   6.991   6.785  11.888
22699SOL     OW69537   7.082   6.134  12.114
22699SOL    HW169538   7.002   6.096  12.151
22699SOL    HW269539   7.127   6.172  12.190
22700SOL     OW69540   6.082   6.992  11.340
22700SOL    HW169541   6.002   6.970  11.387
22700SOL    HW269542   6.072   6.950  11.255
22701SOL     OW69543   7.279   6.861  11.801
22701SOL    HW169544   7.368   6.867  11.834
22701SOL    HW269545   7.231   6.930  11.847
22702SOL     OW69546   6.973   6.157  11.239
22702SOL    HW169547   6.910   6.141  11.309
22702SOL    HW269548   7.056   6.126  11.274
22703SOL     OW69549   6.098   5.845  11.473
22703SOL    HW169550   6.158   5.806  11.410
22703SOL    HW269551   6.075   5.930  11.436
22704SOL     OW69552   6.683   6.827  12.292
22704SOL    HW169553   6.603   6.850  12.340
22704SOL    HW269554   6.661   6.845  12.200
22705SOL     OW69555   7.226   6.724  12.267
22705SOL    HW169556   7.182   6.753  12.347
22705SOL    HW269557   7.158   6.676  12.219
22706SOL     OW69558   6.330   6.685  11.569
22706SOL    HW169559   6.302   6.636  11.646
22706SOL    HW269560   6.393   6.628  11.525
22707SOL     OW69561   6.037   6.402  12.454
22707SOL    HW169562   6.066   6.380  12.543
22707SOL    HW269563   5.986   6.325  12.426
22708SOL     OW69564   6.842   5.963  12.435
22708SOL    HW169565   6.845   6.027  12.506
22708SOL    HW269566   6.750   5.960  12.409
22709SOL     OW69567   5.919   6.706  11.657
22709SOL    HW169568   5.911   6.781  11.599
22709SOL    HW269569   5.915   6.630  11.598
22710SOL     OW69570   6.150   6.120  12.031
22710SOL    HW169571   6.152   6.176  11.954
22710SOL    HW269572   6.212   6.160  12.092
22711SOL     OW69573   6.824   6.936  11.562
22711SOL    HW169574   6.882   7.004  11.594
22711SOL    HW269575   6.742   6.949  11.609
22712SOL     OW69576   6.873   7.023  12.332
22712SOL    HW169577   6.876   7.002  12.425
22712SOL    HW269578   6.810   6.961  12.295
22713SOL     OW69579   7.138   6.252  11.645
22713SOL    HW169580   7.113   6.271  11.735
22713SOL    HW269581   7.062   6.280  11.593
22714SOL     OW69582   6.830   6.118  11.468
22714SOL    HW169583   6.815   6.038  11.518
22714SOL    HW269584   6.761   6.178  11.497
22715SOL     OW69585   5.883   5.783  12.402
22715SOL    HW169586   5.854   5.833  12.478
22715SOL    HW269587   5.849   5.695  12.416
22716SOL     OW69588   5.652   6.920  12.438
22716SOL    HW169589   5.660   6.849  12.501
22716SOL    HW269590   5.651   6.999  12.492
22717SOL     OW69591   6.328   6.238  12.210
22717SOL    HW169592   6.389   6.180  12.164
22717SOL    HW269593   6.384   6.303  12.253
22718SOL     OW69594   5.911   5.658  11.804
22718SOL    HW169595   5.881   5.747  11.821
22718SOL    HW269596   5.915   5.616  11.890
22719SOL     OW69597   7.219   5.974  11.538
22719SOL    HW169598   7.242   5.898  11.592
22719SOL    HW269599   7.164   6.027  11.595
22720SOL     OW69600   6.596   6.340  12.115
22720SOL    HW169601   6.617   6.355  12.208
22720SOL    HW269602   6.576   6.247  12.110
22721SOL     OW69603   7.121   5.863  11.298
22721SOL    HW169604   7.057   5.797  11.326
22721SOL    HW269605   7.154   5.900  11.380
22722SOL     OW69606   6.877   6.420  11.202
22722SOL    HW169607   6.896   6.326  11.203
22722SOL    HW269608   6.906   6.449  11.115
22723SOL     OW69609   6.652   6.899  12.030
22723SOL    HW169610   6.658   6.833  11.962
22723SOL    HW269611   6.699   6.975  11.995
22724SOL     OW69612   5.902   6.380  12.092
22724SOL    HW169613   5.980   6.375  12.038
22724SOL    HW269614   5.899   6.296  12.138
22725SOL     OW69615   5.926   6.125  12.180
22725SOL    HW169616   5.885   6.039  12.178
22725SOL    HW269617   6.007   6.114  12.130
22726SOL     OW69618   6.743   5.818   0.157
22726SOL    HW169619   6.753   5.880   0.229
22726SOL    HW269620   6.786   5.861   0.083
22727SOL     OW69621   5.624   6.879  11.356
22727SOL    HW169622   5.540   6.907  11.319
22727SOL    HW269623   5.605   6.795  11.398
22728SOL     OW69624   5.670   7.371  12.094
22728SOL    HW169625   5.641   7.287  12.057
22728SOL    HW269626   5.765   7.370  12.084
22729SOL     OW69627   6.117   7.138  12.028
22729SOL    HW169628   6.173   7.160  12.102
22729SOL    HW269629   6.052   7.078  12.064
22730SOL     OW69630   6.536   6.393  12.400
22730SOL    HW169631   6.609   6.441  12.441
22730SOL    HW269632   6.502   6.337  12.470
22731SOL     OW69633   5.633   6.077  12.246
22731SOL    HW169634   5.698   6.145  12.263
22731SOL    HW269635   5.554   6.109  12.289
22732SOL     OW69636   6.400   6.155  11.546
22732SOL    HW169637   6.419   6.087  11.482
22732SOL    HW269638   6.325   6.202  11.510
22733SOL     OW69639   7.229   6.211  12.333
22733SOL    HW169640   7.192   6.176  12.414
22733SOL    HW269641   7.322   6.189  12.336
22734SOL     OW69642   6.307   6.022  12.385
22734SOL    HW169643   6.234   5.962  12.367
22734SOL    HW269644   6.284   6.102  12.337
22735SOL     OW69645   6.511   7.221   0.040
22735SOL    HW169646   6.415   7.221   0.041
22735SOL    HW269647   6.535   7.285   0.107
22736SOL     OW69648   6.033   6.074  11.335
22736SOL    HW169649   6.100   6.137  11.361
22736SOL    HW269650   5.951   6.123  11.337
22737SOL     OW69651   6.880   6.646  12.362
22737SOL    HW169652   6.922   6.606  12.286
22737SOL    HW269653   6.817   6.707  12.326
22738SOL     OW69654   6.926   6.426  11.483
22738SOL    HW169655   6.851   6.414  11.541
22738SOL    HW269656   6.889   6.416  11.395
22739SOL     OW69657   7.332   7.358  12.335
22739SOL    HW169658   7.397   7.364  12.265
22739SOL    HW269659   7.316   7.265  12.344
22740SOL     OW69660   6.841   7.314  12.295
22740SOL    HW169661   6.918   7.340  12.245
22740SOL    HW269662   6.835   7.219  12.282
22741SOL     OW69663   5.684   6.863  12.178
22741SOL    HW169664   5.671   6.881  12.271
22741SOL    HW269665   5.617   6.798  12.157
22742SOL     OW69666   7.302   5.739  11.666
22742SOL    HW169667   7.376   5.722  11.607
22742SOL    HW269668   7.290   5.656  11.712
22743SOL     OW69669   6.987   7.145  11.637
22743SOL    HW169670   7.027   7.201  11.571
22743SOL    HW269671   6.921   7.201  11.679
22744SOL     OW69672   6.849   6.518  11.835
22744SOL    HW169673   6.904   6.506  11.913
22744SOL    HW269674   6.894   6.585  11.784
22745SOL     OW69675   6.260   7.197  11.325
22745SOL    HW169676   6.259   7.222  11.233
22745SOL    HW269677   6.196   7.126  11.332
22746SOL     OW69678   7.431   5.751  12.131
22746SOL    HW169679   7.455   5.662  12.106
22746SOL    HW269680   7.339   5.760  12.104
22747SOL     OW69681   5.839   5.908  11.886
22747SOL    HW169682   5.752   5.941  11.862
22747SOL    HW269683   5.838   5.902  11.981
22748SOL     OW69684   6.791   7.177  11.201
22748SOL    HW169685   6.777   7.088  11.235
22748SOL    HW269686   6.719   7.191  11.140
22749SOL     OW69687   6.372   6.606  12.491
22749SOL    HW169688   6.434   6.561  12.434
22749SOL    HW269689   6.426   6.647  12.558
22750SOL     OW69690   6.504   6.509  11.461
22750SOL    HW169691   6.565   6.539  11.394
22750SOL    HW269692   6.549   6.434  11.502
22751SOL     OW69693   7.061   7.226  11.201
22751SOL    HW169694   6.968   7.208  11.189
22751SOL    HW269695   7.096   7.230  11.112
22752SOL     OW69696   6.625   6.690  11.851
22752SOL    HW169697   6.564   6.641  11.906
22752SOL    HW269698   6.698   6.629  11.837
22753SOL     OW69699   6.614   5.821  12.107
22753SOL    HW169700   6.615   5.755  12.037
22753SOL    HW269701   6.603   5.770  12.187
22754SOL     OW69702   6.205   7.039  11.587
22754SOL    HW169703   6.164   7.009  11.506
22754SOL    HW269704   6.148   7.109  11.619
22755SOL     OW69705   7.396   6.003  -0.002
22755SOL    HW169706   7.361   6.029   0.083
22755SOL    HW269707   7.376   5.910  -0.009
22756SOL     OW69708   5.863   6.922  11.482
22756SOL    HW169709   5.776   6.913  11.443
22756SOL    HW269710   5.848   6.968  11.564
22757SOL     OW69711   5.671   5.906  11.227
22757SOL    HW169712   5.583   5.872  11.208
22757SOL    HW269713   5.674   5.991  11.183
22758SOL     OW69714   5.654   5.750  11.470
22758SOL    HW169715   5.647   5.825  11.411
22758SOL    HW269716   5.735   5.706  11.444
22759SOL     OW69717   6.767   6.912  11.291
22759SOL    HW169718   6.692   6.853  11.293
22759SOL    HW269719   6.792   6.922  11.383
22760SOL     OW69720   7.080   7.381  12.181
22760SOL    HW169721   7.088   7.433  12.101
22760SOL    HW269722   7.171   7.369  12.211
22761SOL     OW69723   7.308   6.467  12.385
22761SOL    HW169724   7.274   6.380  12.362
22761SOL    HW269725   7.255   6.528  12.333
22762SOL     OW69726   6.801   5.899  11.641
22762SOL    HW169727   6.863   5.826  11.636
22762SOL    HW269728   6.830   5.949  11.718
22763SOL     OW69729   6.141   6.337  11.856
22763SOL    HW169730   6.200   6.409  11.832
22763SOL    HW269731   6.089   6.321  11.778
22764SOL     OW69732   7.365   6.513   0.145
22764SOL    HW169733   7.275   6.534   0.171
22764SOL    HW269734   7.358   6.492   0.052
22765SOL     OW69735   6.425   6.988  11.209
22765SOL    HW169736   6.393   7.048  11.276
22765SOL    HW269737   6.467   7.044  11.144
22766SOL     OW69738   6.248   7.479  12.115
22766SOL    HW169739   6.234   7.439  12.201
22766SOL    HW269740   6.321   7.429  12.077
22767SOL     OW69741   6.453   6.557  12.020
22767SOL    HW169742   6.501   6.481  12.052
22767SOL    HW269743   6.415   6.596  12.098
22768SOL     OW69744   6.679   6.600  11.267
22768SOL    HW169745   6.639   6.626  11.184
22768SOL    HW269746   6.743   6.533  11.243
22769SOL     OW69747   7.423   7.123  12.018
22769SOL    HW169748   7.333   7.113  11.986
22769SOL    HW269749   7.439   7.044  12.068
22770SOL     OW69750   5.682   6.818  11.844
22770SOL    HW169751   5.687   6.782  11.933
22770SOL    HW269752   5.746   6.768  11.795
22771SOL     OW69753   7.411   5.741  12.412
22771SOL    HW169754   7.442   5.651  12.417
22771SOL    HW269755   7.408   5.760  12.318
22772SOL     OW69756   6.012   6.021  11.694
22772SOL    HW169757   6.043   5.946  11.642
22772SOL    HW269758   5.961   5.982  11.765
22773SOL     OW69759   7.279   7.093  12.312
22773SOL    HW169760   7.217   7.053  12.252
22773SOL    HW269761   7.328   7.018  12.348
22774SOL     OW69762   6.381   7.187  11.865
22774SOL    HW169763   6.383   7.248  11.792
22774SOL    HW269764   6.289   7.162  11.873
22775SOL     OW69765   7.026   5.821  12.300
22775SOL    HW169766   7.077   5.774  12.366
22775SOL    HW269767   6.964   5.874  12.351
22776SOL     OW69768   6.601   5.592  12.287
22776SOL    HW169769   6.555   5.537  12.224
22776SOL    HW269770   6.690   5.556  12.290
22777SOL     OW69771   6.958   5.638  11.344
22777SOL    HW169772   6.998   5.556  11.314
22777SOL    HW269773   6.867   5.615  11.361
22778SOL     OW69774   6.896   6.050  11.851
22778SOL    HW169775   6.840   6.127  11.853
22778SOL    HW269776   6.885   6.010  11.937
22779SOL     OW69777   7.167   5.776  12.067
22779SOL    HW169778   7.116   5.801  12.144
22779SOL    HW269779   7.155   5.849  12.006
22780SOL     OW69780   5.624   6.632  11.482
22780SOL    HW169781   5.718   6.620  11.463
22780SOL    HW269782   5.594   6.545  11.508
22781SOL     OW69783   6.478   7.230  11.508
22781SOL    HW169784   6.404   7.221  11.448
22781SOL    HW269785   6.456   7.305  11.562
22782SOL     OW69786   5.809   7.706   0.998
22782SOL    HW169787   5.836   7.685   1.087
22782SOL    HW269788   5.725   7.659   0.987
22783SOL     OW69789   5.574   7.822   0.673
22783SOL    HW169790   5.483   7.852   0.684
22783SOL    HW269791   5.565   7.737   0.628
22784SOL     OW69792   7.297   0.070   0.210
22784SOL    HW169793   7.270  -0.014   0.171
22784SOL    HW269794   7.284   0.057   0.304
22785SOL     OW69795   6.035   7.851   1.464
22785SOL    HW169796   6.114   7.798   1.473
22785SOL    HW269797   5.969   7.804   1.515
22786SOL     OW69798   7.172   7.939   0.698
22786SOL    HW169799   7.080   7.922   0.677
22786SOL    HW269800   7.171   7.967   0.790
22787SOL     OW69801   7.159   7.575   1.454
22787SOL    HW169802   7.186   7.657   1.411
22787SOL    HW269803   7.132   7.602   1.542
22788SOL     OW69804   5.668   0.072   0.579
22788SOL    HW169805   5.654  -0.019   0.607
22788SOL    HW269806   5.695   0.117   0.659
22789SOL     OW69807   6.405   7.442   0.521
22789SOL    HW169808   6.449   7.522   0.492
22789SOL    HW269809   6.312   7.465   0.522
22790SOL     OW69810   5.932   7.719   1.763
22790SOL    HW169811   5.962   7.803   1.799
22790SOL    HW269812   5.875   7.683   1.831
22791SOL     OW69813   6.859   7.791   0.927
22791SOL    HW169814   6.769   7.761   0.937
22791SOL    HW269815   6.909   7.737   0.988
22792SOL     OW69816   6.992   7.945   1.703
22792SOL    HW169817   6.964   7.967   1.792
22792SOL    HW269818   7.026   7.856   1.710
22793SOL     OW69819   6.521   0.409   1.486
22793SOL    HW169820   6.559   0.382   1.570
22793SOL    HW269821   6.443   0.356   1.477
22794SOL     OW69822   6.594   7.825   1.255
22794SOL    HW169823   6.517   7.857   1.303
22794SOL    HW269824   6.559   7.761   1.193
22795SOL     OW69825   6.461   7.809   0.212
22795SOL    HW169826   6.475   7.878   0.146
22795SOL    HW269827   6.469   7.727   0.163
22796SOL     OW69828   7.388   0.013   1.769
22796SOL    HW169829   7.352   0.069   1.838
22796SOL    HW269830   7.315  -0.001   1.709
22797SOL     OW69831   6.127   7.631   0.910
22797SOL    HW169832   6.131   7.646   1.004
22797SOL    HW269833   6.128   7.719   0.872
22798SOL     OW69834   5.770   7.725   1.524
22798SOL    HW169835   5.704   7.775   1.571
22798SOL    HW269836   5.816   7.676   1.592
22799SOL     OW69837   6.991   7.542   0.431
22799SOL    HW169838   6.982   7.510   0.341
22799SOL    HW269839   7.082   7.570   0.437
22800SOL     OW69840   7.092   7.679   1.728
22800SOL    HW169841   7.110   7.695   1.820
22800SOL    HW269842   7.015   7.622   1.727
22801SOL     OW69843   6.231   7.555   0.080
22801SOL    HW169844   6.325   7.547   0.096
22801SOL    HW269845   6.196   7.467   0.095
22802SOL     OW69846   6.350   7.664   1.767
22802SOL    HW169847   6.438   7.625   1.764
22802SOL    HW269848   6.366   7.758   1.762
22803SOL     OW69849   6.958   0.018   1.437
22803SOL    HW169850   6.972  -0.010   1.528
22803SOL    HW269851   6.888   0.083   1.443
22804SOL     OW69852   6.143   7.507   0.486
22804SOL    HW169853   6.066   7.512   0.542
22804SOL    HW269854   6.139   7.586   0.432
22805SOL     OW69855   5.888   7.549   0.214
22805SOL    HW169856   5.962   7.606   0.234
22805SOL    HW269857   5.919   7.461   0.231
22806SOL     OW69858   6.532   7.667   0.445
22806SOL    HW169859   6.496   7.731   0.384
22806SOL    HW269860   6.622   7.697   0.460
22807SOL     OW69861   5.681   7.994   1.382
22807SOL    HW169862   5.744   7.932   1.418
22807SOL    HW269863   5.673   8.062   1.450
22808SOL     OW69864   6.134   7.665   1.183
22808SOL    HW169865   6.179   7.613   1.249
22808SOL    HW269866   6.043   7.669   1.213
22809SOL     OW69867   6.614   7.487   0.734
22809SOL    HW169868   6.547   7.489   0.666
22809SOL    HW269869   6.586   7.418   0.794
22810SOL     OW69870   7.093   7.942   0.959
22810SOL    HW169871   7.000   7.917   0.963
22810SOL    HW269872   7.108   7.991   1.039
22811SOL     OW69873   6.123   7.712   0.302
22811SOL    HW169874   6.169   7.681   0.224
22811SOL    HW269875   6.153   7.802   0.314
22812SOL     OW69876   6.509   7.536   1.394
22812SOL    HW169877   6.533   7.517   1.304
22812SOL    HW269878   6.588   7.574   1.433
22813SOL     OW69879   6.863   7.810   1.283
22813SOL    HW169880   6.895   7.887   1.330
22813SOL    HW269881   6.770   7.825   1.271
22814SOL     OW69882   6.127   7.917   0.867
22814SOL    HW169883   6.091   7.974   0.798
22814SOL    HW269884   6.196   7.969   0.907
22815SOL     OW69885   6.605   7.573   1.758
22815SOL    HW169886   6.655   7.652   1.737
22815SOL    HW269887   6.660   7.501   1.726
22816SOL     OW69888   6.075   7.474   1.739
22816SOL    HW169889   5.992   7.428   1.731
22816SOL    HW269890   6.051   7.567   1.742
22817SOL     OW69891   5.868   7.638   1.256
22817SOL    HW169892   5.833   7.667   1.341
22817SOL    HW269893   5.854   7.543   1.256
22818SOL     OW69894   6.331   0.071   1.019
22818SOL    HW169895   6.356   0.116   0.938
22818SOL    HW269896   6.269   0.129   1.061
22819SOL     OW69897   5.910   7.516   0.626
22819SOL    HW169898   5.875   7.602   0.649
22819SOL    HW269899   5.928   7.474   0.710
22820SOL     OW69900   7.202   7.811   0.371
22820SOL    HW169901   7.238   7.747   0.433
22820SOL    HW269902   7.142   7.864   0.424
22821SOL     OW69903   7.163   7.601   0.137
22821SOL    HW169904   7.069   7.595   0.150
22821SOL    HW269905   7.184   7.693   0.158
22822SOL     OW69906   5.875   7.973   1.015
22822SOL    HW169907   5.877   7.878   1.006
22822SOL    HW269908   5.956   8.003   0.973
22823SOL     OW69909   6.712   7.818   1.669
22823SOL    HW169910   6.625   7.854   1.684
22823SOL    HW269911   6.772   7.890   1.692
22824SOL     OW69912   6.759   7.632   1.476
22824SOL    HW169913   6.742   7.698   1.542
22824SOL    HW269914   6.801   7.680   1.404
22825SOL     OW69915   5.621   7.959   1.115
22825SOL    HW169916   5.705   7.958   1.070
22825SOL    HW269917   5.643   7.955   1.208
22826SOL     OW69918   5.747  -0.005   1.696
22826SOL    HW169919   5.840  -0.025   1.700
22826SOL    HW269920   5.736   0.069   1.756
22827SOL     OW69921   6.370   0.060   0.295
22827SOL    HW169922   6.417  -0.023   0.296
22827SOL    HW269923   6.300   0.048   0.360
22828SOL     OW69924   7.216   8.028   1.198
22828SOL    HW169925   7.198   7.976   1.276
22828SOL    HW269926   7.286   7.980   1.152
22829SOL     OW69927   6.320   7.873   1.221
22829SOL    HW169928   6.245   7.814   1.214
22829SOL    HW269929   6.307   7.938   1.152
22830SOL     OW69930   6.500   7.538   0.111
22830SOL    HW169931   6.547   7.537   0.028
22830SOL    HW269932   6.566   7.511   0.175
22831SOL     OW69933   7.308   7.599   0.517
22831SOL    HW169934   7.380   7.582   0.456
22831SOL    HW269935   7.287   7.514   0.554
22832SOL     OW69936   7.438   7.623   0.959
22832SOL    HW169937   7.458   7.532   0.933
22832SOL    HW269938   7.348   7.637   0.928
22833SOL     OW69939   5.833   7.756   0.725
22833SOL    HW169940   5.743   7.787   0.715
22833SOL    HW269941   5.845   7.749   0.820
22834SOL     OW69942   6.620   7.668   0.956
22834SOL    HW169943   6.613   7.619   0.873
22834SOL    HW269944   6.608   7.601   1.024
22835SOL     OW69945   7.311   7.818   1.372
22835SOL    HW169946   7.378   7.886   1.374
22835SOL    HW269947   7.349   7.750   1.315
22836SOL     OW69948   6.257   7.632   1.499
22836SOL    HW169949   6.346   7.619   1.465
22836SOL    HW269950   6.269   7.643   1.593
22837SOL     OW69951   5.633   7.587   0.323
22837SOL    HW169952   5.596   7.672   0.297
22837SOL    HW269953   5.718   7.584   0.280
22838SOL     OW69954   6.799   7.749   0.452
22838SOL    HW169955   6.864   7.679   0.449
22838SOL    HW269956   6.828   7.807   0.522
22839SOL     OW69957   6.239   0.223   0.656
22839SOL    HW169958   6.201   0.301   0.613
22839SOL    HW269959   6.167   0.188   0.709
22840SOL     OW69960   7.341   7.736   1.626
22840SOL    HW169961   7.322   7.776   1.541
22840SOL    HW269962   7.257   7.732   1.671
22841SOL     OW69963   7.414   7.615   1.230
22841SOL    HW169964   7.398   7.521   1.234
22841SOL    HW269965   7.423   7.634   1.137
22842SOL     OW69966   5.921   7.846   0.480
22842SOL    HW169967   5.983   7.784   0.440
22842SOL    HW269968   5.900   7.808   0.565
22843SOL     OW69969   7.011   7.657   1.118
22843SOL    HW169970   7.006   7.570   1.158
22843SOL    HW269971   6.967   7.715   1.180
22844SOL     OW69972   6.597   7.460   1.139
22844SOL    HW169973   6.536   7.393   1.108
22844SOL    HW269974   6.682   7.417   1.137
22845SOL     OW69975   6.936   7.451   0.163
22845SOL    HW169976   6.913   7.428   0.073
22845SOL    HW269977   6.851   7.462   0.207
22846SOL     OW69978   6.896   7.898   0.676
22846SOL    HW169979   6.836   7.973   0.678
22846SOL    HW269980   6.883   7.855   0.761
22847SOL     OW69981   7.173   7.654   0.897
22847SOL    HW169982   7.122   7.659   0.978
22847SOL    HW269983   7.157   7.737   0.852
22848SOL     OW69984   5.815   7.713   2.850
22848SOL    HW169985   5.840   7.689   2.940
22848SOL    HW269986   5.724   7.685   2.842
22849SOL     OW69987   5.582   7.797   2.525
22849SOL    HW169988   5.526   7.788   2.602
22849SOL    HW269989   5.550   7.731   2.464
22850SOL     OW69990   7.270   0.003   2.049
22850SOL    HW169991   7.333   0.072   2.067
22850SOL    HW269992   7.256  -0.041   2.133
22851SOL     OW69993   6.046   7.855   3.341
22851SOL    HW169994   6.117   7.792   3.338
22851SOL    HW269995   5.969   7.803   3.366
22852SOL     OW69996   7.155   7.948   2.542
22852SOL    HW169997   7.060   7.936   2.538
22852SOL    HW269998   7.173   7.968   2.634
22853SOL     OW69999   7.174   7.575   3.329
22853SOL    HW170000   7.213   7.652   3.288
22853SOL    HW270001   7.154   7.602   3.419
22854SOL     OW70002   5.626   0.083   2.510
22854SOL    HW170003   5.652  -0.008   2.497
22854SOL    HW270004   5.709   0.131   2.513
22855SOL     OW70005   6.392   7.427   2.384
22855SOL    HW170006   6.425   7.505   2.340
22855SOL    HW270007   6.298   7.443   2.393
22856SOL     OW70008   5.921   7.708   3.646
22856SOL    HW170009   5.964   7.793   3.655
22856SOL    HW270010   5.842   7.716   3.699
22857SOL     OW70011   6.851   7.788   2.793
22857SOL    HW170012   6.762   7.756   2.803
22857SOL    HW270013   6.904   7.733   2.851
22858SOL     OW70014   6.993   7.914   3.540
22858SOL    HW170015   7.008   7.987   3.601
22858SOL    HW270016   7.054   7.846   3.568
22859SOL     OW70017   6.510   0.313   3.397
22859SOL    HW170018   6.586   0.354   3.440
22859SOL    HW270019   6.460   0.387   3.363
22860SOL     OW70020   6.576   7.838   3.142
22860SOL    HW170021   6.559   7.911   3.202
22860SOL    HW270022   6.489   7.811   3.113
22861SOL     OW70023   6.514   7.804   2.086
22861SOL    HW170024   6.515   7.853   2.004
22861SOL    HW270025   6.497   7.714   2.060
22862SOL     OW70026   7.357   0.020   3.674
22862SOL    HW170027   7.289   0.081   3.646
22862SOL    HW270028   7.349  -0.055   3.615
22863SOL     OW70029   6.144   7.633   2.770
22863SOL    HW170030   6.139   7.644   2.865
22863SOL    HW270031   6.142   7.722   2.735
22864SOL     OW70032   5.779   7.739   3.372
22864SOL    HW170033   5.750   7.801   3.438
22864SOL    HW270034   5.790   7.657   3.419
22865SOL     OW70035   6.984   7.554   2.308
22865SOL    HW170036   6.984   7.531   2.215
22865SOL    HW270037   7.076   7.571   2.328
22866SOL     OW70038   7.117   7.664   3.598
22866SOL    HW170039   7.121   7.692   3.690
22866SOL    HW270040   7.044   7.602   3.595
22867SOL     OW70041   6.217   7.540   1.974
22867SOL    HW170042   6.274   7.583   1.910
22867SOL    HW270043   6.148   7.500   1.921
22868SOL     OW70044   6.356   7.727   3.596
22868SOL    HW170045   6.438   7.679   3.596
22868SOL    HW270046   6.307   7.692   3.670
22869SOL     OW70047   6.937  -0.008   3.283
22869SOL    HW170048   6.965  -0.039   3.369
22869SOL    HW270049   6.890   0.073   3.300
22870SOL     OW70050   6.133   7.500   2.361
22870SOL    HW170051   6.052   7.510   2.411
22870SOL    HW270052   6.138   7.580   2.309
22871SOL     OW70053   5.894   7.516   2.072
22871SOL    HW170054   5.850   7.490   1.991
22871SOL    HW270055   5.939   7.437   2.102
22872SOL     OW70056   5.689   7.996   3.239
22872SOL    HW170057   5.738   7.924   3.277
22872SOL    HW270058   5.694   8.066   3.305
22873SOL     OW70059   6.125   7.656   3.043
22873SOL    HW170060   6.169   7.616   3.117
22873SOL    HW270061   6.034   7.664   3.070
22874SOL     OW70062   6.593   7.484   2.589
22874SOL    HW170063   6.523   7.466   2.525
22874SOL    HW270064   6.580   7.420   2.658
22875SOL     OW70065   7.096   7.938   2.817
22875SOL    HW170066   7.005   7.914   2.836
22875SOL    HW270067   7.129   7.974   2.899
22876SOL     OW70068   6.170   7.706   2.187
22876SOL    HW170069   6.181   7.648   2.112
22876SOL    HW270070   6.109   7.773   2.156
22877SOL     OW70071   6.516   7.548   3.252
22877SOL    HW170072   6.540   7.534   3.161
22877SOL    HW270073   6.594   7.587   3.292
22878SOL     OW70074   6.844   7.791   3.132
22878SOL    HW170075   6.879   7.867   3.179
22878SOL    HW270076   6.749   7.808   3.128
22879SOL     OW70077   6.143   7.935   2.729
22879SOL    HW170078   6.124   7.996   2.658
22879SOL    HW270079   6.211   7.978   2.780
22880SOL     OW70080   6.591   7.592   3.613
22880SOL    HW170081   6.649   7.665   3.592
22880SOL    HW270082   6.650   7.519   3.631
22881SOL     OW70083   6.062   7.470   3.607
22881SOL    HW170084   6.023   7.430   3.529
22881SOL    HW270085   6.008   7.546   3.624
22882SOL     OW70086   5.862   7.660   3.114
22882SOL    HW170087   5.832   7.687   3.201
22882SOL    HW270088   5.845   7.566   3.111
22883SOL     OW70089   6.320   0.068   2.892
22883SOL    HW170090   6.412   0.092   2.904
22883SOL    HW270091   6.272   0.135   2.939
22884SOL     OW70092   5.891   7.512   2.487
22884SOL    HW170093   5.871   7.604   2.507
22884SOL    HW270094   5.899   7.470   2.572
22885SOL     OW70095   7.175   7.812   2.253
22885SOL    HW170096   7.220   7.736   2.291
22885SOL    HW270097   7.157   7.869   2.327
22886SOL     OW70098   7.113   7.717   1.992
22886SOL    HW170099   7.049   7.653   2.021
22886SOL    HW270100   7.144   7.758   2.073
22887SOL     OW70101   6.908   0.253   1.900
22887SOL    HW170102   6.889   0.160   1.914
22887SOL    HW270103   6.829   0.287   1.858
22888SOL     OW70104   5.892   7.969   2.859
22888SOL    HW170105   5.878   7.874   2.858
22888SOL    HW270106   5.983   7.979   2.831
22889SOL     OW70107   6.742   7.808   3.546
22889SOL    HW170108   6.688   7.885   3.567
22889SOL    HW270109   6.831   7.842   3.542
22890SOL     OW70110   6.770   7.626   3.345
22890SOL    HW170111   6.754   7.694   3.411
22890SOL    HW270112   6.806   7.672   3.270
22891SOL     OW70113   5.636   7.965   2.966
22891SOL    HW170114   5.722   7.964   2.923
22891SOL    HW270115   5.656   7.955   3.059
22892SOL     OW70116   5.753   7.980   3.522
22892SOL    HW170117   5.844   7.977   3.550
22892SOL    HW270118   5.707   8.026   3.592
22893SOL     OW70119   6.354   0.042   2.109
22893SOL    HW170120   6.372  -0.052   2.105
22893SOL    HW270121   6.296   0.052   2.184
22894SOL     OW70122   7.186   0.040   3.060
22894SOL    HW170123   7.169   0.010   3.149
22894SOL    HW270124   7.279   0.059   3.058
22895SOL     OW70125   6.319   7.850   3.063
22895SOL    HW170126   6.238   7.798   3.059
22895SOL    HW270127   6.301   7.925   3.006
22896SOL     OW70128   7.275   7.580   2.372
22896SOL    HW170129   7.355   7.631   2.390
22896SOL    HW270130   7.283   7.503   2.428
22897SOL     OW70131   7.438   7.624   2.797
22897SOL    HW170132   7.451   7.535   2.765
22897SOL    HW270133   7.347   7.645   2.775
22898SOL     OW70134   5.846   7.772   2.581
22898SOL    HW170135   5.752   7.783   2.564
22898SOL    HW270136   5.851   7.752   2.675
22899SOL     OW70137   6.608   7.673   2.808
22899SOL    HW170138   6.597   7.615   2.733
22899SOL    HW270139   6.595   7.617   2.884
22900SOL     OW70140   7.309   7.801   3.250
22900SOL    HW170141   7.366   7.878   3.251
22900SOL    HW270142   7.345   7.746   3.180
22901SOL     OW70143   6.269   7.653   3.341
22901SOL    HW170144   6.358   7.643   3.306
22901SOL    HW270145   6.283   7.681   3.432
22902SOL     OW70146   5.648   7.784   1.918
22902SOL    HW170147   5.612   7.746   1.838
22902SOL    HW270148   5.697   7.860   1.889
22903SOL     OW70149   5.646   7.609   2.156
22903SOL    HW170150   5.633   7.675   2.087
22903SOL    HW270151   5.739   7.588   2.152
22904SOL     OW70152   6.364   8.010   3.569
22904SOL    HW170153   6.301   8.036   3.636
22904SOL    HW270154   6.362   7.914   3.570
22905SOL     OW70155   6.791   7.771   2.338
22905SOL    HW170156   6.849   7.697   2.320
22905SOL    HW270157   6.834   7.817   2.411
22906SOL     OW70158   6.241   0.237   2.501
22906SOL    HW170159   6.286   0.320   2.508
22906SOL    HW270160   6.187   0.231   2.580
22907SOL     OW70161   7.345   7.803   3.521
22907SOL    HW170162   7.332   7.808   3.426
22907SOL    HW270163   7.281   7.737   3.550
22908SOL     OW70164   7.405   7.623   3.075
22908SOL    HW170165   7.401   7.527   3.072
22908SOL    HW270166   7.419   7.649   2.984
22909SOL     OW70167   5.940   7.821   2.322
22909SOL    HW170168   6.032   7.796   2.330
22909SOL    HW270169   5.906   7.819   2.412
22910SOL     OW70170   7.019   7.662   2.975
22910SOL    HW170171   7.070   7.604   3.032
22910SOL    HW270172   6.961   7.709   3.035
22911SOL     OW70173   6.601   7.461   2.998
22911SOL    HW170174   6.543   7.391   2.970
22911SOL    HW270175   6.689   7.425   2.991
22912SOL     OW70176   6.942   7.502   2.034
22912SOL    HW170177   6.968   7.431   1.976
22912SOL    HW270178   6.853   7.479   2.061
22913SOL     OW70179   6.878   7.913   2.554
22913SOL    HW170180   6.821   7.989   2.572
22913SOL    HW270181   6.877   7.863   2.636
22914SOL     OW70182   7.170   7.654   2.744
22914SOL    HW170183   7.119   7.668   2.824
22914SOL    HW270184   7.162   7.736   2.695
22915SOL     OW70185   5.786   7.768   4.751
22915SOL    HW170186   5.835   7.716   4.814
22915SOL    HW270187   5.719   7.708   4.718
22916SOL     OW70188   5.569   7.811   4.375
22916SOL    HW170189   5.483   7.844   4.404
22916SOL    HW270190   5.549   7.731   4.328
22917SOL     OW70191   7.347   0.044   3.957
22917SOL    HW170192   7.349   0.031   3.862
22917SOL    HW270193   7.310  -0.038   3.991
22918SOL     OW70194   5.944   7.888   5.248
22918SOL    HW170195   6.031   7.861   5.274
22918SOL    HW270196   5.905   7.810   5.208
22919SOL     OW70197   7.179   7.925   4.427
22919SOL    HW170198   7.089   7.911   4.399
22919SOL    HW270199   7.172   7.953   4.518
22920SOL     OW70200   7.171   7.573   5.179
22920SOL    HW170201   7.223   7.639   5.133
22920SOL    HW270202   7.155   7.611   5.265
22921SOL     OW70203   5.633   0.085   4.349
22921SOL    HW170204   5.631  -0.011   4.352
22921SOL    HW270205   5.708   0.106   4.294
22922SOL     OW70206   6.402   7.430   4.235
22922SOL    HW170207   6.447   7.511   4.212
22922SOL    HW270208   6.309   7.456   4.242
22923SOL     OW70209   5.916   7.710   5.589
22923SOL    HW170210   5.995   7.721   5.535
22923SOL    HW270211   5.856   7.777   5.558
22924SOL     OW70212   6.849   7.809   4.662
22924SOL    HW170213   6.761   7.771   4.669
22924SOL    HW270214   6.904   7.749   4.712
22925SOL     OW70215   6.988   7.928   5.420
22925SOL    HW170216   7.006   7.942   5.513
22925SOL    HW270217   7.037   7.849   5.398
22926SOL     OW70218   6.490   0.374   5.262
22926SOL    HW170219   6.573   0.387   5.308
22926SOL    HW270220   6.516   0.355   5.172
22927SOL     OW70221   6.558   7.809   4.970
22927SOL    HW170222   6.481   7.823   5.025
22927SOL    HW270223   6.531   7.743   4.905
22928SOL     OW70224   6.502   7.807   3.898
22928SOL    HW170225   6.539   7.796   3.810
22928SOL    HW270226   6.501   7.718   3.935
22929SOL     OW70227   7.290   0.029   5.572
22929SOL    HW170228   7.253   0.092   5.510
22929SOL    HW270229   7.324  -0.042   5.518
22930SOL     OW70230   6.205   7.691   4.581
22930SOL    HW170231   6.170   7.655   4.663
22930SOL    HW270232   6.167   7.779   4.576
22931SOL     OW70233   5.746   7.693   5.212
22931SOL    HW170234   5.661   7.718   5.175
22931SOL    HW270235   5.736   7.708   5.307
22932SOL     OW70236   6.996   7.549   4.172
22932SOL    HW170237   6.991   7.529   4.078
22932SOL    HW270238   7.089   7.561   4.189
22933SOL     OW70239   7.101   7.668   5.437
22933SOL    HW170240   7.110   7.681   5.532
22933SOL    HW270241   7.033   7.601   5.429
22934SOL     OW70242   6.249   7.561   3.788
22934SOL    HW170243   6.275   7.485   3.839
22934SOL    HW270244   6.181   7.529   3.729
22935SOL     OW70245   6.385   7.662   5.588
22935SOL    HW170246   6.461   7.625   5.545
22935SOL    HW270247   6.325   7.684   5.517
22936SOL     OW70248   6.915   0.001   5.147
22936SOL    HW170249   6.974  -0.007   5.222
22936SOL    HW270250   6.860   0.077   5.167
22937SOL     OW70251   6.139   7.504   4.216
22937SOL    HW170252   6.072   7.507   4.285
22937SOL    HW270253   6.124   7.583   4.164
22938SOL     OW70254   5.888   7.508   3.922
22938SOL    HW170255   5.948   7.581   3.937
22938SOL    HW270256   5.934   7.431   3.956
22939SOL     OW70257   6.532   7.665   4.175
22939SOL    HW170258   6.484   7.748   4.175
22939SOL    HW270259   6.624   7.690   4.181
22940SOL     OW70260   5.723   8.009   5.107
22940SOL    HW170261   5.788   7.965   5.161
22940SOL    HW270262   5.647   8.019   5.164
22941SOL     OW70263   6.166   7.678   4.897
22941SOL    HW170264   6.196   7.593   4.866
22941SOL    HW270265   6.074   7.665   4.920
22942SOL     OW70266   6.620   7.497   4.460
22942SOL    HW170267   6.551   7.511   4.394
22942SOL    HW270268   6.586   7.427   4.515
22943SOL     OW70269   7.092   7.944   4.682
22943SOL    HW170270   7.000   7.922   4.693
22943SOL    HW270271   7.114   7.992   4.762
22944SOL     OW70272   6.107   7.680   3.998
22944SOL    HW170273   6.171   7.669   3.927
22944SOL    HW270274   6.123   7.768   4.031
22945SOL     OW70275   6.534   7.493   5.127
22945SOL    HW170276   6.545   7.492   5.032
22945SOL    HW270277   6.603   7.552   5.159
22946SOL     OW70278   6.835   7.793   4.999
22946SOL    HW170279   6.866   7.871   5.045
22946SOL    HW270280   6.742   7.808   4.986
22947SOL     OW70281   6.124   7.955   4.590
22947SOL    HW170282   6.108   7.993   4.504
22947SOL    HW270283   6.207   7.994   4.619
22948SOL     OW70284   6.616   7.570   5.485
22948SOL    HW170285   6.660   7.648   5.452
22948SOL    HW270286   6.663   7.497   5.445
22949SOL     OW70287   6.048   7.439   5.472
22949SOL    HW170288   6.027   7.396   5.389
22949SOL    HW270289   6.081   7.525   5.447
22950SOL     OW70290   5.895   7.645   4.977
22950SOL    HW170291   5.843   7.662   5.055
22950SOL    HW270292   5.890   7.550   4.965
22951SOL     OW70293   6.348   0.061   4.710
22951SOL    HW170294   6.416   0.047   4.644
22951SOL    HW270295   6.366   0.148   4.745
22952SOL     OW70296   5.897   7.497   4.360
22952SOL    HW170297   5.902   7.592   4.350
22952SOL    HW270298   5.914   7.481   4.452
22953SOL     OW70299   7.203   7.826   4.088
22953SOL    HW170300   7.240   7.751   4.135
22953SOL    HW270301   7.177   7.887   4.157
22954SOL     OW70302   7.077   7.750   3.855
22954SOL    HW170303   7.029   7.671   3.880
22954SOL    HW270304   7.128   7.773   3.933
22955SOL     OW70305   6.849   0.241   3.731
22955SOL    HW170306   6.905   0.234   3.808
22955SOL    HW270307   6.870   0.326   3.693
22956SOL     OW70308   5.923   8.008   4.770
22956SOL    HW170309   5.875   7.926   4.767
22956SOL    HW270310   5.995   7.997   4.707
22957SOL     OW70311   6.727   7.825   5.411
22957SOL    HW170312   6.667   7.894   5.439
22957SOL    HW270313   6.813   7.868   5.409
22958SOL     OW70314   6.762   7.632   5.212
22958SOL    HW170315   6.746   7.706   5.272
22958SOL    HW270316   6.799   7.673   5.134
22959SOL     OW70317   5.586   7.919   4.884
22959SOL    HW170318   5.640   7.872   4.820
22959SOL    HW270319   5.647   7.944   4.953
22960SOL     OW70320   5.766   7.930   5.455
22960SOL    HW170321   5.842   7.925   5.397
22960SOL    HW270322   5.732   8.018   5.440
22961SOL     OW70323   6.417   0.062   3.951
22961SOL    HW170324   6.458  -0.023   3.934
22961SOL    HW270325   6.347   0.043   4.014
22962SOL     OW70326   7.219   8.027   4.923
22962SOL    HW170327   7.206   7.993   5.011
22962SOL    HW270328   7.291   7.976   4.887
22963SOL     OW70329   6.258   7.938   4.945
22963SOL    HW170330   6.220   7.850   4.939
22963SOL    HW270331   6.284   7.959   4.855
22964SOL     OW70332   7.296   7.599   4.215
22964SOL    HW170333   7.374   7.591   4.160
22964SOL    HW270334   7.289   7.514   4.259
22965SOL     OW70335   7.430   7.616   4.688
22965SOL    HW170336   7.456   7.528   4.661
22965SOL    HW270337   7.343   7.628   4.649
22966SOL     OW70338   5.816   7.851   4.484
22966SOL    HW170339   5.730   7.823   4.451
22966SOL    HW270340   5.822   7.812   4.571
22967SOL     OW70341   6.615   7.676   4.685
22967SOL    HW170342   6.604   7.634   4.600
22967SOL    HW270343   6.604   7.606   4.749
22968SOL     OW70344   7.336   7.823   5.130
22968SOL    HW170345   7.400   7.893   5.119
22968SOL    HW270346   7.355   7.761   5.059
22969SOL     OW70347   5.673   7.778   3.769
22969SOL    HW170348   5.601   7.770   3.706
22969SOL    HW270349   5.674   7.871   3.792
22970SOL     OW70350   5.644   7.595   4.025
22970SOL    HW170351   5.634   7.671   3.969
22970SOL    HW270352   5.734   7.566   4.010
22971SOL     OW70353   6.324   7.994   5.477
22971SOL    HW170354   6.416   8.017   5.460
22971SOL    HW270355   6.310   7.915   5.424
22972SOL     OW70356   6.797   7.743   4.195
22972SOL    HW170357   6.865   7.676   4.186
22972SOL    HW270358   6.832   7.805   4.259
22973SOL     OW70359   6.186   0.222   4.406
22973SOL    HW170360   6.225   0.282   4.342
22973SOL    HW270361   6.132   0.163   4.353
22974SOL     OW70362   7.331   7.811   5.405
22974SOL    HW170363   7.335   7.831   5.311
22974SOL    HW270364   7.257   7.752   5.414
22975SOL     OW70365   7.379   7.623   4.957
22975SOL    HW170366   7.406   7.532   4.970
22975SOL    HW270367   7.397   7.640   4.865
22976SOL     OW70368   5.959   7.764   4.261
22976SOL    HW170369   6.015   7.827   4.217
22976SOL    HW270370   5.921   7.812   4.335
22977SOL     OW70371   7.013   7.666   4.838
22977SOL    HW170372   7.049   7.594   4.890
22977SOL    HW270373   6.955   7.712   4.899
22978SOL     OW70374   6.591   7.463   4.858
22978SOL    HW170375   6.523   7.409   4.816
22978SOL    HW270376   6.672   7.413   4.846
22979SOL     OW70377   6.954   7.503   3.897
22979SOL    HW170378   6.995   7.425   3.860
22979SOL    HW270379   6.864   7.477   3.917
22980SOL     OW70380   6.906   7.896   4.402
22980SOL    HW170381   6.869   7.984   4.396
22980SOL    HW270382   6.882   7.866   4.490
22981SOL     OW70383   7.170   7.649   4.610
22981SOL    HW170384   7.118   7.668   4.689
22981SOL    HW270385   7.160   7.727   4.556
22982SOL     OW70386   5.807   7.739   6.589
22982SOL    HW170387   5.839   7.696   6.668
22982SOL    HW270388   5.721   7.700   6.574
22983SOL     OW70389   5.567   7.817   6.241
22983SOL    HW170390   5.483   7.859   6.259
22983SOL    HW270391   5.544   7.737   6.193
22984SOL     OW70392   7.276   0.030   5.854
22984SOL    HW170393   7.290   0.063   5.765
22984SOL    HW270394   7.291  -0.064   5.847
22985SOL     OW70395   6.052   7.831   7.115
22985SOL    HW170396   6.114   7.761   7.094
22985SOL    HW270397   5.966   7.792   7.098
22986SOL     OW70398   7.196   7.933   6.270
22986SOL    HW170399   7.104   7.930   6.244
22986SOL    HW270400   7.198   7.890   6.356
22987SOL     OW70401   7.153   7.574   7.045
22987SOL    HW170402   7.108   7.575   6.961
22987SOL    HW270403   7.202   7.656   7.048
22988SOL     OW70404   5.669   0.075   6.264
22988SOL    HW170405   5.652  -0.016   6.240
22988SOL    HW270406   5.632   0.126   6.192
22989SOL     OW70407   6.402   7.434   6.119
22989SOL    HW170408   6.448   7.510   6.084
22989SOL    HW270409   6.310   7.458   6.114
22990SOL     OW70410   5.922   7.701   7.434
22990SOL    HW170411   5.964   7.783   7.408
22990SOL    HW270412   5.828   7.720   7.432
22991SOL     OW70413   6.847   7.825   6.574
22991SOL    HW170414   6.771   7.768   6.564
22991SOL    HW270415   6.921   7.769   6.550
22992SOL     OW70416   6.979   7.932   7.274
22992SOL    HW170417   7.002   7.976   7.356
22992SOL    HW270418   7.030   7.851   7.274
22993SOL     OW70419   6.491   0.334   7.098
22993SOL    HW170420   6.515   0.321   7.006
22993SOL    HW270421   6.457   0.424   7.101
22994SOL     OW70422   6.484   7.801   6.809
22994SOL    HW170423   6.554   7.834   6.866
22994SOL    HW270424   6.530   7.757   6.737
22995SOL     OW70425   6.482   7.792   5.804
22995SOL    HW170426   6.563   7.825   5.765
22995SOL    HW270427   6.439   7.745   5.732
22996SOL     OW70428   7.277   0.044   7.375
22996SOL    HW170429   7.353   0.100   7.359
22996SOL    HW270430   7.303  -0.042   7.342
22997SOL     OW70431   6.134   7.621   6.482
22997SOL    HW170432   6.129   7.681   6.557
22997SOL    HW270433   6.149   7.679   6.407
22998SOL     OW70434   5.797   7.720   7.070
22998SOL    HW170435   5.737   7.794   7.072
22998SOL    HW270436   5.751   7.649   7.115
22999SOL     OW70437   6.998   7.544   6.017
22999SOL    HW170438   6.980   7.518   5.927
22999SOL    HW270439   7.071   7.605   6.010
23000SOL     OW70440   7.099   7.697   7.305
23000SOL    HW170441   7.112   7.689   7.400
23000SOL    HW270442   7.111   7.608   7.272
23001SOL     OW70443   6.182   7.530   5.713
23001SOL    HW170444   6.260   7.572   5.678
23001SOL    HW270445   6.138   7.492   5.636
23002SOL     OW70446   6.365   7.724   7.336
23002SOL    HW170447   6.442   7.668   7.338
23002SOL    HW270448   6.331   7.721   7.426
23003SOL     OW70449   6.940   0.012   7.011
23003SOL    HW170450   6.969  -0.022   7.096
23003SOL    HW270451   6.885   0.087   7.033
23004SOL     OW70452   6.143   7.511   6.088
23004SOL    HW170453   6.057   7.509   6.130
23004SOL    HW270454   6.139   7.587   6.030
23005SOL     OW70455   5.863   7.481   5.728
23005SOL    HW170456   5.896   7.562   5.690
23005SOL    HW270457   5.938   7.445   5.776
23006SOL     OW70458   6.529   7.659   6.045
23006SOL    HW170459   6.506   7.703   5.963
23006SOL    HW270460   6.619   7.687   6.063
23007SOL     OW70461   5.676  -0.018   7.043
23007SOL    HW170462   5.718  -0.004   6.958
23007SOL    HW270463   5.612   0.053   7.050
23008SOL     OW70464   6.152   7.707   6.766
23008SOL    HW170465   6.195   7.622   6.771
23008SOL    HW270466   6.061   7.689   6.789
23009SOL     OW70467   6.588   7.522   6.346
23009SOL    HW170468   6.542   7.527   6.262
23009SOL    HW270469   6.563   7.438   6.383
23010SOL     OW70470   7.007   0.058   6.590
23010SOL    HW170471   6.961  -0.025   6.575
23010SOL    HW270472   7.083   0.033   6.644
23011SOL     OW70473   6.113   7.711   5.901
23011SOL    HW170474   6.131   7.643   5.837
23011SOL    HW270475   6.140   7.792   5.858
23012SOL     OW70476   6.503   7.528   6.984
23012SOL    HW170477   6.521   7.508   6.892
23012SOL    HW270478   6.585   7.566   7.016
23013SOL     OW70479   6.833   7.808   6.858
23013SOL    HW170480   6.875   7.881   6.903
23013SOL    HW270481   6.841   7.828   6.765
23014SOL     OW70482   6.161   7.947   6.456
23014SOL    HW170483   6.106   7.952   6.378
23014SOL    HW270484   6.166   8.037   6.488
23015SOL     OW70485   6.597   7.576   7.348
23015SOL    HW170486   6.652   7.651   7.323
23015SOL    HW270487   6.640   7.500   7.308
23016SOL     OW70488   6.068   7.480   7.339
23016SOL    HW170489   6.024   7.427   7.273
23016SOL    HW270490   6.021   7.563   7.338
23017SOL     OW70491   5.894   7.631   6.829
23017SOL    HW170492   5.856   7.668   6.909
23017SOL    HW270493   5.869   7.539   6.831
23018SOL     OW70494   6.369   0.044   6.631
23018SOL    HW170495   6.373   0.016   6.540
23018SOL    HW270496   6.342   0.135   6.628
23019SOL     OW70497   5.896   7.504   6.210
23019SOL    HW170498   5.864   7.591   6.233
23019SOL    HW270499   5.905   7.459   6.294
23020SOL     OW70500   7.168   7.774   5.969
23020SOL    HW170501   7.237   7.733   6.022
23020SOL    HW270502   7.156   7.860   6.008
23021SOL     OW70503   7.101   7.707   5.705
23021SOL    HW170504   7.034   7.643   5.728
23021SOL    HW270505   7.129   7.744   5.788
23022SOL     OW70506   5.904   7.992   6.626
23022SOL    HW170507   5.888   7.900   6.606
23022SOL    HW270508   5.936   8.029   6.543
23023SOL     OW70509   6.733   7.811   7.281
23023SOL    HW170510   6.676   7.884   7.304
23023SOL    HW270511   6.821   7.849   7.277
23024SOL     OW70512   6.742   7.636   7.064
23024SOL    HW170513   6.746   7.702   7.133
23024SOL    HW270514   6.784   7.678   6.989
23025SOL     OW70515   5.633   7.935   6.745
23025SOL    HW170516   5.698   7.900   6.684
23025SOL    HW270517   5.624   8.028   6.721
23026SOL     OW70518   5.773   7.949   7.308
23026SOL    HW170519   5.760   7.956   7.213
23026SOL    HW270520   5.727   8.025   7.344
23027SOL     OW70521   6.388   0.040   5.866
23027SOL    HW170522   6.422  -0.048   5.852
23027SOL    HW270523   6.319   0.030   5.931
23028SOL     OW70524   7.209   7.995   6.765
23028SOL    HW170525   7.204   7.936   6.840
23028SOL    HW270526   7.296   7.980   6.727
23029SOL     OW70527   7.344   7.609   6.100
23029SOL    HW170528   7.402   7.595   6.025
23029SOL    HW270529   7.317   7.521   6.126
23030SOL     OW70530   7.412   7.626   6.554
23030SOL    HW170531   7.437   7.538   6.527
23030SOL    HW270532   7.322   7.637   6.524
23031SOL     OW70533   5.825   7.748   6.306
23031SOL    HW170534   5.737   7.778   6.285
23031SOL    HW270535   5.831   7.753   6.401
23032SOL     OW70536   6.611   7.678   6.576
23032SOL    HW170537   6.602   7.644   6.486
23032SOL    HW270538   6.606   7.599   6.631
23033SOL     OW70539   7.287   7.825   6.978
23033SOL    HW170540   7.369   7.868   7.003
23033SOL    HW270541   7.315   7.753   6.920
23034SOL     OW70542   6.267   7.642   7.084
23034SOL    HW170543   6.349   7.614   7.042
23034SOL    HW270544   6.295   7.677   7.169
23035SOL     OW70545   5.620   7.797   5.662
23035SOL    HW170546   5.571   7.765   5.587
23035SOL    HW270547   5.677   7.865   5.626
23036SOL     OW70548   5.648   7.605   5.867
23036SOL    HW170549   5.628   7.677   5.807
23036SOL    HW270550   5.729   7.567   5.833
23037SOL     OW70551   6.408   8.011   7.308
23037SOL    HW170552   6.342   8.044   7.247
23037SOL    HW270553   6.385   7.919   7.319
23038SOL     OW70554   6.790   7.726   6.096
23038SOL    HW170555   6.857   7.681   6.045
23038SOL    HW270556   6.838   7.794   6.144
23039SOL     OW70557   6.181   0.291   6.223
23039SOL    HW170558   6.264   0.338   6.231
23039SOL    HW270559   6.205   0.208   6.181
23040SOL     OW70560   7.355   7.803   7.286
23040SOL    HW170561   7.423   7.780   7.222
23040SOL    HW270562   7.276   7.762   7.251
23041SOL     OW70563   7.371   7.623   6.825
23041SOL    HW170564   7.399   7.532   6.836
23041SOL    HW270565   7.383   7.640   6.731
23042SOL     OW70566   5.989   7.858   6.109
23042SOL    HW170567   6.014   7.798   6.039
23042SOL    HW270568   5.932   7.806   6.165
23043SOL     OW70569   7.023   7.601   6.809
23043SOL    HW170570   7.058   7.616   6.721
23043SOL    HW270571   6.957   7.669   6.820
23044SOL     OW70572   6.580   7.450   6.727
23044SOL    HW170573   6.528   7.395   6.670
23044SOL    HW270574   6.668   7.411   6.725
23045SOL     OW70575   6.934   7.493   5.757
23045SOL    HW170576   6.962   7.435   5.686
23045SOL    HW270577   6.849   7.457   5.784
23046SOL     OW70578   6.915   7.909   6.267
23046SOL    HW170579   6.878   7.997   6.254
23046SOL    HW270580   6.894   7.888   6.358
23047SOL     OW70581   5.818   7.741   8.455
23047SOL    HW170582   5.849   7.699   8.535
23047SOL    HW270583   5.735   7.697   8.435
23048SOL     OW70584   5.562   7.820   8.095
23048SOL    HW170585   5.480   7.858   8.124
23048SOL    HW270586   5.537   7.740   8.048
23049SOL     OW70587   7.245   0.025   7.650
23049SOL    HW170588   7.263   0.011   7.558
23049SOL    HW270589   7.327   0.058   7.686
23050SOL     OW70590   6.018   7.864   8.991
23050SOL    HW170591   6.099   7.839   8.947
23050SOL    HW270592   5.955   7.798   8.962
23051SOL     OW70593   7.175   7.900   8.190
23051SOL    HW170594   7.099   7.895   8.132
23051SOL    HW270595   7.145   7.952   8.264
23052SOL     OW70596   7.180   7.569   8.922
23052SOL    HW170597   7.226   7.643   8.882
23052SOL    HW270598   7.147   7.602   9.005
23053SOL     OW70599   5.712   0.050   8.071
23053SOL    HW170600   5.662  -0.031   8.069
23053SOL    HW270601   5.650   0.116   8.101
23054SOL     OW70602   6.409   7.441   7.962
23054SOL    HW170603   6.449   7.523   7.932
23054SOL    HW270604   6.316   7.461   7.967
23055SOL     OW70605   5.915   7.694   9.225
23055SOL    HW170606   5.959   7.779   9.215
23055SOL    HW270607   5.841   7.713   9.283
23056SOL     OW70608   6.838   7.771   8.346
23056SOL    HW170609   6.764   7.739   8.399
23056SOL    HW270610   6.892   7.820   8.408
23057SOL     OW70611   7.011   7.973   9.147
23057SOL    HW170612   6.929   7.942   9.187
23057SOL    HW270613   7.066   7.895   9.141
23058SOL     OW70614   6.528   7.847   8.666
23058SOL    HW170615   6.453   7.808   8.711
23058SOL    HW270616   6.545   7.787   8.593
23059SOL     OW70617   6.457   7.772   7.626
23059SOL    HW170618   6.535   7.793   7.574
23059SOL    HW270619   6.491   7.721   7.699
23060SOL     OW70620   7.314   0.046   9.248
23060SOL    HW170621   7.284   0.091   9.169
23060SOL    HW270622   7.329  -0.044   9.221
23061SOL     OW70623   6.141   7.633   8.351
23061SOL    HW170624   6.146   7.654   8.445
23061SOL    HW270625   6.133   7.718   8.308
23062SOL     OW70626   5.782   7.721   8.948
23062SOL    HW170627   5.691   7.740   8.927
23062SOL    HW270628   5.781   7.695   9.040
23063SOL     OW70629   6.983   7.549   7.884
23063SOL    HW170630   6.984   7.519   7.793
23063SOL    HW270631   7.058   7.608   7.890
23064SOL     OW70632   7.090   7.689   9.163
23064SOL    HW170633   7.088   7.699   9.258
23064SOL    HW270634   6.998   7.672   9.139
23065SOL     OW70635   6.214   7.554   7.553
23065SOL    HW170636   6.289   7.497   7.565
23065SOL    HW270637   6.178   7.529   7.468
23066SOL     OW70638   6.351   7.730   9.197
23066SOL    HW170639   6.432   7.679   9.198
23066SOL    HW270640   6.300   7.694   9.270
23067SOL     OW70641   6.947   0.026   8.877
23067SOL    HW170642   6.949  -0.004   8.968
23067SOL    HW270643   7.029   0.073   8.865
23068SOL     OW70644   6.143   7.507   7.944
23068SOL    HW170645   6.068   7.508   8.003
23068SOL    HW270646   6.132   7.585   7.890
23069SOL     OW70647   6.528   7.683   7.887
23069SOL    HW170648   6.490   7.762   7.925
23069SOL    HW270649   6.623   7.695   7.896
23070SOL     OW70650   5.686  -0.000   8.822
23070SOL    HW170651   5.777   0.011   8.849
23070SOL    HW270652   5.646   0.085   8.838
23071SOL     OW70653   6.150   7.673   8.625
23071SOL    HW170654   6.192   7.602   8.673
23071SOL    HW270655   6.058   7.669   8.652
23072SOL     OW70656   6.604   7.495   8.191
23072SOL    HW170657   6.543   7.486   8.118
23072SOL    HW270658   6.581   7.423   8.251
23073SOL     OW70659   6.092   7.697   7.748
23073SOL    HW170660   6.153   7.661   7.684
23073SOL    HW270661   6.102   7.792   7.741
23074SOL     OW70662   6.513   7.548   8.840
23074SOL    HW170663   6.544   7.523   8.753
23074SOL    HW270664   6.589   7.590   8.882
23075SOL     OW70665   6.844   7.839   8.703
23075SOL    HW170666   6.879   7.910   8.758
23075SOL    HW270667   6.784   7.792   8.761
23076SOL     OW70668   6.123   7.920   8.307
23076SOL    HW170669   6.094   7.984   8.242
23076SOL    HW270670   6.198   7.962   8.350
23077SOL     OW70671   6.565   7.564   9.219
23077SOL    HW170672   6.625   7.602   9.155
23077SOL    HW270673   6.588   7.471   9.222
23078SOL     OW70674   6.081   7.479   9.195
23078SOL    HW170675   6.035   7.427   9.129
23078SOL    HW270676   6.023   7.554   9.210
23079SOL     OW70677   5.891   7.639   8.703
23079SOL    HW170678   5.846   7.671   8.782
23079SOL    HW270679   5.873   7.545   8.702
23080SOL     OW70680   6.334   0.046   8.455
23080SOL    HW170681   6.413   0.048   8.400
23080SOL    HW270682   6.284   0.123   8.427
23081SOL     OW70683   5.900   7.516   8.073
23081SOL    HW170684   5.867   7.602   8.099
23081SOL    HW270685   5.909   7.468   8.155
23082SOL     OW70686   7.165   7.778   7.839
23082SOL    HW170687   7.233   7.732   7.889
23082SOL    HW270688   7.194   7.869   7.839
23083SOL     OW70689   7.090   7.723   7.581
23083SOL    HW170690   7.041   7.645   7.608
23083SOL    HW270691   7.133   7.753   7.660
23084SOL     OW70692   6.785   0.191   7.444
23084SOL    HW170693   6.834   0.135   7.504
23084SOL    HW270694   6.844   0.265   7.428
23085SOL     OW70695   5.907   7.990   8.498
23085SOL    HW170696   5.887   7.899   8.479
23085SOL    HW270697   5.976   8.013   8.436
23086SOL     OW70698   6.770   7.873   9.233
23086SOL    HW170699   6.696   7.933   9.220
23086SOL    HW270700   6.762   7.810   9.162
23087SOL     OW70701   5.613   7.938   8.563
23087SOL    HW170702   5.688   7.904   8.515
23087SOL    HW270703   5.647   7.956   8.651
23088SOL     OW70704   5.767   7.969   9.135
23088SOL    HW170705   5.828   7.940   9.067
23088SOL    HW270706   5.698   8.014   9.088
23089SOL     OW70707   6.382   8.029   7.688
23089SOL    HW170708   6.408   7.938   7.677
23089SOL    HW270709   6.330   8.030   7.769
23090SOL     OW70710   7.231   8.001   8.697
23090SOL    HW170711   7.143   7.971   8.672
23090SOL    HW270712   7.280   8.003   8.615
23091SOL     OW70713   6.240   7.935   8.687
23091SOL    HW170714   6.206   7.848   8.665
23091SOL    HW270715   6.283   7.964   8.606
23092SOL     OW70716   7.341   7.602   7.956
23092SOL    HW170717   7.408   7.593   7.888
23092SOL    HW270718   7.320   7.512   7.982
23093SOL     OW70719   7.426   7.615   8.411
23093SOL    HW170720   7.456   7.529   8.381
23093SOL    HW270721   7.337   7.623   8.377
23094SOL     OW70722   5.822   7.755   8.169
23094SOL    HW170723   5.731   7.783   8.156
23094SOL    HW270724   5.835   7.761   8.264
23095SOL     OW70725   6.592   7.670   8.441
23095SOL    HW170726   6.593   7.637   8.351
23095SOL    HW270727   6.595   7.591   8.495
23096SOL     OW70728   7.346   7.801   8.862
23096SOL    HW170729   7.321   7.881   8.815
23096SOL    HW270730   7.369   7.739   8.792
23097SOL     OW70731   6.273   7.637   8.942
23097SOL    HW170732   6.359   7.616   8.906
23097SOL    HW270733   6.291   7.676   9.027
23098SOL     OW70734   5.655   7.757   7.490
23098SOL    HW170735   5.588   7.761   7.421
23098SOL    HW270736   5.690   7.846   7.493
23099SOL     OW70737   5.732   7.613   7.716
23099SOL    HW170738   5.692   7.671   7.651
23099SOL    HW270739   5.714   7.655   7.800
23100SOL     OW70740   6.324   8.007   9.125
23100SOL    HW170741   6.236   8.003   9.164
23100SOL    HW270742   6.361   7.920   9.139
23101SOL     OW70743   6.791   7.751   7.911
23101SOL    HW170744   6.859   7.683   7.906
23101SOL    HW270745   6.824   7.814   7.975
23102SOL     OW70746   6.225   0.278   8.094
23102SOL    HW170747   6.164   0.340   8.054
23102SOL    HW270748   6.171   0.201   8.113
23103SOL     OW70749   7.339   7.800   9.134
23103SOL    HW170750   7.347   7.807   9.039
23103SOL    HW270751   7.261   7.746   9.148
23104SOL     OW70752   7.407   7.614   8.685
23104SOL    HW170753   7.414   7.518   8.684
23104SOL    HW270754   7.412   7.638   8.592
23105SOL     OW70755   5.976   7.856   7.964
23105SOL    HW170756   5.990   7.778   7.910
23105SOL    HW270757   5.923   7.826   8.037
23106SOL     OW70758   7.029   7.682   8.579
23106SOL    HW170759   7.031   7.611   8.644
23106SOL    HW270760   6.965   7.744   8.614
23107SOL     OW70761   6.592   7.441   8.594
23107SOL    HW170762   6.538   7.380   8.544
23107SOL    HW270763   6.681   7.406   8.587
23108SOL     OW70764   6.941   7.483   7.601
23108SOL    HW170765   6.910   7.521   7.519
23108SOL    HW270766   6.869   7.429   7.632
23109SOL     OW70767   6.897   7.901   8.120
23109SOL    HW170768   6.903   7.988   8.160
23109SOL    HW270769   6.875   7.843   8.193
23110SOL     OW70770   7.159   7.638   8.342
23110SOL    HW170771   7.111   7.663   8.420
23110SOL    HW270772   7.152   7.715   8.285
23111SOL     OW70773   5.811   7.717  10.307
23111SOL    HW170774   5.835   7.689  10.395
23111SOL    HW270775   5.721   7.686  10.296
23112SOL     OW70776   5.595   7.840   9.941
23112SOL    HW170777   5.501   7.829   9.957
23112SOL    HW270778   5.616   7.775   9.875
23113SOL     OW70779   7.277   0.036   9.534
23113SOL    HW170780   7.296   0.032   9.440
23113SOL    HW270781   7.352   0.083   9.572
23114SOL     OW70782   5.970   7.755  10.798
23114SOL    HW170783   6.044   7.806  10.764
23114SOL    HW270784   5.990   7.743  10.891
23115SOL     OW70785   7.171   7.880  10.048
23115SOL    HW170786   7.091   7.871   9.996
23115SOL    HW270787   7.205   7.966  10.023
23116SOL     OW70788   7.165   7.581  10.771
23116SOL    HW170789   7.210   7.655  10.731
23116SOL    HW270790   7.146   7.610  10.860
23117SOL     OW70791   5.668   0.103   9.951
23117SOL    HW170792   5.652   0.010   9.934
23117SOL    HW270793   5.645   0.114  10.044
23118SOL     OW70794   6.407   7.435   9.847
23118SOL    HW170795   6.454   7.510   9.811
23118SOL    HW270796   6.315   7.458   9.839
23119SOL     OW70797   5.948   7.727  11.092
23119SOL    HW170798   5.998   7.809  11.095
23119SOL    HW270799   5.904   7.723  11.177
23120SOL     OW70800   6.853   7.821  10.244
23120SOL    HW170801   6.766   7.782  10.244
23120SOL    HW270802   6.907   7.760  10.294
23121SOL     OW70803   6.985   7.932  11.004
23121SOL    HW170804   6.967   7.961  11.093
23121SOL    HW270805   7.034   7.850  11.014
23122SOL     OW70806   6.486   0.314  10.886
23122SOL    HW170807   6.503   0.271  10.802
23122SOL    HW270808   6.464   0.404  10.863
23123SOL     OW70809   6.564   7.797  10.571
23123SOL    HW170810   6.521   7.859  10.630
23123SOL    HW270811   6.510   7.797  10.492
23124SOL     OW70812   6.492   7.784   9.507
23124SOL    HW170813   6.557   7.825   9.449
23124SOL    HW270814   6.477   7.698   9.469
23125SOL     OW70815   7.382   0.041  11.088
23125SOL    HW170816   7.298   0.082  11.112
23125SOL    HW270817   7.357  -0.039  11.042
23126SOL     OW70818   6.123   7.599  10.205
23126SOL    HW170819   6.128   7.641  10.291
23126SOL    HW270820   6.103   7.670  10.144
23127SOL     OW70821   6.998   7.536   9.749
23127SOL    HW170822   6.990   7.522   9.654
23127SOL    HW270823   7.088   7.566   9.762
23128SOL     OW70824   7.102   7.672  11.036
23128SOL    HW170825   7.120   7.691  11.128
23128SOL    HW270826   7.035   7.604  11.038
23129SOL     OW70827   6.237   7.562   9.404
23129SOL    HW170828   6.290   7.485   9.422
23129SOL    HW270829   6.175   7.534   9.336
23130SOL     OW70830   6.348   7.709  11.076
23130SOL    HW170831   6.424   7.655  11.055
23130SOL    HW270832   6.361   7.733  11.168
23131SOL     OW70833   6.954   0.022  10.744
23131SOL    HW170834   6.968  -0.011  10.833
23131SOL    HW270835   6.887   0.090  10.755
23132SOL     OW70836   6.150   7.506   9.798
23132SOL    HW170837   6.071   7.508   9.852
23132SOL    HW270838   6.144   7.584   9.744
23133SOL     OW70839   5.856   7.464   9.460
23133SOL    HW170840   5.824   7.531   9.521
23133SOL    HW270841   5.921   7.414   9.510
23134SOL     OW70842   6.531   7.660   9.763
23134SOL    HW170843   6.506   7.715   9.689
23134SOL    HW270844   6.623   7.681   9.778
23135SOL     OW70845   5.681  -0.001  10.696
23135SOL    HW170846   5.728  -0.043  10.768
23135SOL    HW270847   5.680   0.092  10.719
23136SOL     OW70848   6.141   7.663  10.472
23136SOL    HW170849   6.179   7.599  10.532
23136SOL    HW270850   6.049   7.666  10.497
23137SOL     OW70851   6.572   7.518  10.077
23137SOL    HW170852   6.533   7.520   9.989
23137SOL    HW270853   6.582   7.425  10.096
23138SOL     OW70854   6.975   0.040  10.338
23138SOL    HW170855   6.934  -0.036  10.297
23138SOL    HW270856   7.056   0.006  10.376
23139SOL     OW70857   6.129   7.709   9.614
23139SOL    HW170858   6.159   7.656   9.540
23139SOL    HW270859   6.145   7.799   9.588
23140SOL     OW70860   6.564   7.523  10.641
23140SOL    HW170861   6.539   7.611  10.612
23140SOL    HW270862   6.629   7.538  10.709
23141SOL     OW70863   6.849   7.808  10.602
23141SOL    HW170864   6.884   7.888  10.641
23141SOL    HW270865   6.755   7.826  10.593
23142SOL     OW70866   6.137   7.994  10.203
23142SOL    HW170867   6.158   7.992  10.110
23142SOL    HW270868   6.220   8.014  10.246
23143SOL     OW70869   6.574   7.571  11.028
23143SOL    HW170870   6.633   7.644  11.043
23143SOL    HW270871   6.632   7.496  11.016
23144SOL     OW70872   6.090   7.482  11.058
23144SOL    HW170873   6.038   7.430  10.997
23144SOL    HW270874   6.040   7.563  11.069
23145SOL     OW70875   5.886   7.649  10.559
23145SOL    HW170876   5.896   7.682  10.648
23145SOL    HW270877   5.859   7.557  10.570
23146SOL     OW70878   6.367   0.074  10.328
23146SOL    HW170879   6.424   0.071  10.251
23146SOL    HW270880   6.358   0.168  10.346
23147SOL     OW70881   5.916   7.506   9.930
23147SOL    HW170882   5.848   7.556   9.885
23147SOL    HW270883   5.883   7.496  10.019
23148SOL     OW70884   7.162   7.806   9.683
23148SOL    HW170885   7.217   7.748   9.735
23148SOL    HW270886   7.217   7.883   9.667
23149SOL     OW70887   7.076   7.733   9.434
23149SOL    HW170888   7.023   7.658   9.461
23149SOL    HW270889   7.117   7.764   9.514
23150SOL     OW70890   6.829   0.239   9.316
23150SOL    HW170891   6.863   0.187   9.389
23150SOL    HW270892   6.907   0.270   9.270
23151SOL     OW70893   5.894   7.970  10.335
23151SOL    HW170894   5.874   7.878  10.318
23151SOL    HW270895   5.978   7.985  10.290
23152SOL     OW70896   6.726   7.820  10.986
23152SOL    HW170897   6.664   7.888  11.011
23152SOL    HW270898   6.812   7.861  10.994
23153SOL     OW70899   6.772   7.625  10.794
23153SOL    HW170900   6.750   7.688  10.863
23153SOL    HW270901   6.815   7.678  10.727
23154SOL     OW70902   5.626   7.966  10.432
23154SOL    HW170903   5.708   7.956  10.385
23154SOL    HW270904   5.650   7.963  10.524
23155SOL     OW70905   5.782   7.949  10.954
23155SOL    HW170906   5.877   7.951  10.956
23155SOL    HW270907   5.755   8.033  10.991
23156SOL     OW70908   6.347   8.012   9.562
23156SOL    HW170909   6.402   7.935   9.552
23156SOL    HW270910   6.332   8.019   9.656
23157SOL     OW70911   7.195   8.013  10.495
23157SOL    HW170912   7.194   7.951  10.568
23157SOL    HW270913   7.280   8.000  10.454
23158SOL     OW70914   6.303   7.878  10.528
23158SOL    HW170915   6.235   7.816  10.501
23158SOL    HW270916   6.296   7.949  10.464
23159SOL     OW70917   7.294   7.601   9.809
23159SOL    HW170918   7.376   7.594   9.759
23159SOL    HW270919   7.288   7.518   9.856
23160SOL     OW70920   7.422   7.613  10.271
23160SOL    HW170921   7.464   7.538  10.229
23160SOL    HW270922   7.337   7.621  10.227
23161SOL     OW70923   5.848   7.788  10.044
23161SOL    HW170924   5.759   7.801  10.011
23161SOL    HW270925   5.835   7.760  10.135
23162SOL     OW70926   6.610   7.709  10.265
23162SOL    HW170927   6.590   7.657  10.187
23162SOL    HW270928   6.623   7.643  10.334
23163SOL     OW70929   7.314   7.818  10.691
23163SOL    HW170930   7.376   7.890  10.680
23163SOL    HW270931   7.344   7.750  10.630
23164SOL     OW70932   6.272   7.616  10.817
23164SOL    HW170933   6.348   7.663  10.782
23164SOL    HW270934   6.269   7.641  10.909
23165SOL     OW70935   5.690   7.802   9.336
23165SOL    HW170936   5.599   7.778   9.321
23165SOL    HW270937   5.708   7.872   9.273
23166SOL     OW70938   6.404   7.978  11.015
23166SOL    HW170939   6.342   8.041  11.051
23166SOL    HW270940   6.364   7.892  11.033
23167SOL     OW70941   6.792   7.723   9.795
23167SOL    HW170942   6.866   7.670   9.767
23167SOL    HW270943   6.830   7.791   9.850
23168SOL     OW70944   6.218   0.242  10.019
23168SOL    HW170945   6.275   0.315   9.997
23168SOL    HW270946   6.203   0.197   9.936
23169SOL     OW70947   7.331   7.809  10.964
23169SOL    HW170948   7.319   7.818  10.870
23169SOL    HW270949   7.261   7.750  10.992
23170SOL     OW70950   7.394   7.613  10.541
23170SOL    HW170951   7.399   7.517  10.548
23170SOL    HW270952   7.408   7.631  10.448
23171SOL     OW70953   6.009   7.858   9.838
23171SOL    HW170954   6.013   7.796   9.765
23171SOL    HW270955   5.949   7.817   9.901
23172SOL     OW70956   7.004   7.674  10.421
23172SOL    HW170957   7.050   7.602  10.463
23172SOL    HW270958   6.958   7.718  10.493
23173SOL     OW70959   6.918   7.509   9.480
23173SOL    HW170960   6.907   7.502   9.385
23173SOL    HW270961   6.845   7.460   9.517
23174SOL     OW70962   6.892   7.897   9.980
23174SOL    HW170963   6.890   7.992   9.971
23174SOL    HW270964   6.882   7.881  10.074
23175SOL     OW70965   7.160   7.640  10.191
23175SOL    HW170966   7.107   7.669  10.266
23175SOL    HW270967   7.167   7.717  10.135
23176SOL     OW70968   5.837   7.713  12.164
23176SOL    HW170969   5.851   7.692  12.257
23176SOL    HW270970   5.745   7.693  12.149
23177SOL     OW70971   5.588   7.815  11.836
23177SOL    HW170972   5.548   7.822  11.922
23177SOL    HW270973   5.570   7.725  11.808
23178SOL     OW70974   7.243   0.017  11.360
23178SOL    HW170975   7.335   0.042  11.368
23178SOL    HW270976   7.231  -0.049  11.428
23179SOL     OW70977   7.189   7.946  11.874
23179SOL    HW170978   7.096   7.930  11.856
23179SOL    HW270979   7.190   7.982  11.963
23180SOL     OW70980   5.646   0.091  11.795
23180SOL    HW170981   5.653  -0.004  11.804
23180SOL    HW270982   5.649   0.124  11.885
23181SOL     OW70983   6.403   7.442  11.661
23181SOL    HW170984   6.450   7.523  11.642
23181SOL    HW270985   6.312   7.470  11.675
23182SOL     OW70986   6.844   7.801  12.101
23182SOL    HW170987   6.756   7.768  12.115
23182SOL    HW270988   6.900   7.746  12.156
23183SOL     OW70989   6.602   7.779  12.435
23183SOL    HW170990   6.571   7.868  12.450
23183SOL    HW270991   6.583   7.762  12.343
23184SOL     OW70992   6.475   7.752  11.329
23184SOL    HW170993   6.556   7.801  11.314
23184SOL    HW270994   6.487   7.713  11.416
23185SOL     OW70995   7.071   7.511  11.552
23185SOL    HW170996   7.001   7.517  11.487
23185SOL    HW270997   7.062   7.590  11.604
23186SOL     OW70998   6.203   7.559  11.302
23186SOL    HW170999   6.298   7.551  11.297
23186SOL    HW271000   6.172   7.529  11.216
23187SOL     OW71001   6.137   7.515  11.670
23187SOL    HW171002   6.056   7.514  11.721
23187SOL    HW271003   6.134   7.597  11.621
23188SOL     OW71004   5.907   7.511  11.374
23188SOL    HW171005   5.984   7.568  11.377
23188SOL    HW271006   5.937   7.428  11.410
23189SOL     OW71007   6.534   7.695  11.601
23189SOL    HW171008   6.504   7.771  11.652
23189SOL    HW271009   6.627   7.714  11.584
23190SOL     OW71010   5.693   0.003   0.046
23190SOL    HW171011   5.775   0.001   0.096
23190SOL    HW271012   5.627   0.031   0.109
23191SOL     OW71013   6.142   7.646  12.338
23191SOL    HW171014   6.186   7.608  12.415
23191SOL    HW271015   6.051   7.655  12.365
23192SOL     OW71016   6.560   7.518  11.937
23192SOL    HW171017   6.571   7.493  11.845
23192SOL    HW271018   6.562   7.435  11.984
23193SOL     OW71019   7.091   7.941  12.134
23193SOL    HW171020   6.997   7.923  12.134
23193SOL    HW271021   7.110   7.971  12.223
23194SOL     OW71022   6.129   7.732  11.504
23194SOL    HW171023   6.169   7.688  11.429
23194SOL    HW271024   6.165   7.820  11.501
23195SOL     OW71025   6.869   7.851  12.424
23195SOL    HW171026   6.890   7.887  12.510
23195SOL    HW271027   6.778   7.821  12.432
23196SOL     OW71028   6.149   7.919  12.039
23196SOL    HW171029   6.107   7.977  11.974
23196SOL    HW271030   6.213   7.976  12.083
23197SOL     OW71031   5.888   7.647  12.421
23197SOL    HW171032   5.837   7.672  12.498
23197SOL    HW271033   5.873   7.553  12.411
23198SOL     OW71034   6.334   0.054  12.185
23198SOL    HW171035   6.429   0.069  12.192
23198SOL    HW271036   6.295   0.127  12.232
23199SOL     OW71037   5.898   7.508  11.802
23199SOL    HW171038   5.871   7.596  11.829
23199SOL    HW271039   5.907   7.459  11.885
23200SOL     OW71040   7.202   7.814  11.550
23200SOL    HW171041   7.254   7.752  11.602
23200SOL    HW271042   7.133   7.843  11.609
23201SOL     OW71043   7.117   7.722  11.296
23201SOL    HW171044   7.041   7.669  11.318
23201SOL    HW271045   7.147   7.757  11.380
23202SOL     OW71046   6.881   0.290  11.228
23202SOL    HW171047   6.880   0.194  11.230
23202SOL    HW271048   6.820   0.313  11.157
23203SOL     OW71049   5.891   7.986  12.174
23203SOL    HW171050   5.893   7.890  12.173
23203SOL    HW271051   5.981   8.012  12.156
23204SOL     OW71052   6.763   7.686   0.161
23204SOL    HW171053   6.755   7.731   0.245
23204SOL    HW271054   6.696   7.725   0.105
23205SOL     OW71055   5.639   7.968  12.260
23205SOL    HW171056   5.731   7.977  12.237
23205SOL    HW271057   5.638   7.957  12.355
23206SOL     OW71058   6.384   0.054  11.421
23206SOL    HW171059   6.451  -0.013  11.430
23206SOL    HW271060   6.348   0.064  11.509
23207SOL     OW71061   7.185   0.025  12.381
23207SOL    HW171062   7.210  -0.050  12.436
23207SOL    HW271063   7.268   0.062  12.351
23208SOL     OW71064   6.207   7.916  12.415
23208SOL    HW171065   6.221   7.821  12.413
23208SOL    HW271066   6.286   7.952  12.375
23209SOL     OW71067   7.346   7.605  11.692
23209SOL    HW171068   7.401   7.587  11.616
23209SOL    HW271069   7.311   7.519  11.716
23210SOL     OW71070   7.428   7.622  12.136
23210SOL    HW171071   7.436   7.529  12.116
23210SOL    HW271072   7.342   7.646  12.103
23211SOL     OW71073   5.851   7.764  11.899
23211SOL    HW171074   5.761   7.788  11.878
23211SOL    HW271075   5.852   7.751  11.993
23212SOL     OW71076   6.602   7.677  12.158
23212SOL    HW171077   6.585   7.639  12.072
23212SOL    HW271078   6.605   7.603  12.217
23213SOL     OW71079   7.313   7.836   0.040
23213SOL    HW171080   7.393   7.888   0.037
23213SOL    HW271081   7.337   7.752   0.001
23214SOL     OW71082   5.685   7.813  11.215
23214SOL    HW171083   5.594   7.831  11.236
23214SOL    HW271084   5.734   7.886  11.253
23215SOL     OW71085   5.661   7.609  11.468
23215SOL    HW171086   5.675   7.702  11.453
23215SOL    HW271087   5.745   7.568  11.446
23216SOL     OW71088   6.232   0.230  11.804
23216SOL    HW171089   6.204   0.319  11.781
23216SOL    HW271090   6.179   0.207  11.880
23217SOL     OW71091   7.426   7.617  12.415
23217SOL    HW171092   7.402   7.525  12.403
23217SOL    HW271093   7.428   7.653  12.327
23218SOL     OW71094   5.892   7.813  11.627
23218SOL    HW171095   5.979   7.796  11.592
23218SOL    HW271096   5.902   7.803  11.722
23219SOL     OW71097   7.015   7.676  12.283
23219SOL    HW171098   7.021   7.599  12.339
23219SOL    HW271099   6.973   7.743  12.338
23220SOL     OW71100   6.604   7.451  12.309
23220SOL    HW171101   6.554   7.385  12.262
23220SOL    HW271102   6.693   7.414  12.316
23221SOL     OW71103   6.933   7.506  11.309
23221SOL    HW171104   6.952   7.426  11.260
23221SOL    HW271105   6.843   7.494  11.340
23222SOL     OW71106   6.921   7.912  11.858
23222SOL    HW171107   6.841   7.944  11.817
23222SOL    HW271108   6.893   7.874  11.941
23223SOL     OW71109   7.171   7.665  12.059
23223SOL    HW171110   7.119   7.670  12.139
23223SOL    HW271111   7.158   7.750  12.017
23224SOL     OW71112   7.645   0.536   0.036
23224SOL    HW171113   7.613   0.582   0.113
23224SOL    HW271114   7.706   0.598  -0.005
23225SOL     OW71115   7.692   0.283   0.981
23225SOL    HW171116   7.711   0.259   1.072
23225SOL    HW271117   7.604   0.251   0.966
23226SOL     OW71118   7.441   0.384   0.619
23226SOL    HW171119   7.357   0.406   0.661
23226SOL    HW271120   7.444   0.288   0.622
23227SOL     OW71121   7.780   1.454   1.040
23227SOL    HW171122   7.707   1.395   1.020
23227SOL    HW271123   7.859   1.403   1.019
23228SOL     OW71124   7.876   0.367   1.502
23228SOL    HW171125   7.926   0.299   1.547
23228SOL    HW271126   7.786   0.335   1.502
23229SOL     OW71127   7.652   1.727   0.493
23229SOL    HW171128   7.673   1.804   0.546
23229SOL    HW271129   7.716   1.730   0.422
23230SOL     OW71130   7.643   1.449   0.524
23230SOL    HW171131   7.644   1.544   0.535
23230SOL    HW271132   7.605   1.416   0.605
23231SOL     OW71133   7.684   1.097   0.893
23231SOL    HW171134   7.681   1.010   0.932
23231SOL    HW271135   7.630   1.151   0.950
23232SOL     OW71136   7.477   0.656   0.560
23232SOL    HW171137   7.494   0.563   0.577
23232SOL    HW271138   7.512   0.701   0.637
23233SOL     OW71139   7.475   1.543   0.117
23233SOL    HW171140   7.389   1.501   0.125
23233SOL    HW271141   7.470   1.619   0.175
23234SOL     OW71142   7.566   0.756   1.584
23234SOL    HW171143   7.631   0.799   1.640
23234SOL    HW271144   7.489   0.812   1.590
23235SOL     OW71145   7.635   0.953   1.296
23235SOL    HW171146   7.718   0.905   1.305
23235SOL    HW271147   7.600   0.922   1.213
23236SOL     OW71148   7.752   0.233   1.778
23236SOL    HW171149   7.803   0.308   1.807
23236SOL    HW271150   7.671   0.238   1.829
23237SOL     OW71151   7.529   0.822   0.774
23237SOL    HW171152   7.611   0.819   0.822
23237SOL    HW271153   7.481   0.895   0.813
23238SOL     OW71154   7.560   1.864   1.580
23238SOL    HW171155   7.569   1.853   1.675
23238SOL    HW271156   7.512   1.786   1.552
23239SOL     OW71157   7.961   0.226   0.894
23239SOL    HW171158   7.878   0.253   0.934
23239SOL    HW271159   7.967   0.279   0.815
23240SOL     OW71160   7.809   1.781   0.861
23240SOL    HW171161   7.807   1.685   0.865
23240SOL    HW271162   7.899   1.804   0.885
23241SOL     OW71163   7.751   0.996   0.238
23241SOL    HW171164   7.819   1.057   0.211
23241SOL    HW271165   7.792   0.910   0.235
23242SOL     OW71166   7.938   1.228   1.734
23242SOL    HW171167   7.901   1.246   1.647
23242SOL    HW271168   7.871   1.255   1.796
23243SOL     OW71169   7.620   0.272   1.518
23243SOL    HW171170   7.532   0.310   1.514
23243SOL    HW271171   7.633   0.253   1.611
23244SOL     OW71172   7.726   1.787   1.221
23244SOL    HW171173   7.761   1.720   1.279
23244SOL    HW271174   7.706   1.741   1.140
23245SOL     OW71175   7.780   0.015   0.117
23245SOL    HW171176   7.803   0.081   0.182
23245SOL    HW271177   7.820  -0.066   0.150
23246SOL     OW71178   7.907   1.084   0.733
23246SOL    HW171179   7.838   1.099   0.798
23246SOL    HW271180   7.864   1.097   0.649
23247SOL     OW71181   7.544   0.568   1.386
23247SOL    HW171182   7.636   0.563   1.362
23247SOL    HW271183   7.540   0.637   1.453
23248SOL     OW71184   7.873   0.807   1.317
23248SOL    HW171185   7.924   0.835   1.241
23248SOL    HW271186   7.847   0.717   1.297
23249SOL     OW71187   7.524   1.561   1.361
23249SOL    HW171188   7.491   1.622   1.296
23249SOL    HW271189   7.618   1.555   1.344
23250SOL     OW71190   7.772   1.125   0.496
23250SOL    HW171191   7.774   1.205   0.443
23250SOL    HW271192   7.770   1.054   0.432
23251SOL     OW71193  -0.016   0.560   0.867
23251SOL    HW171194   0.017   0.643   0.833
23251SOL    HW271195   0.028   0.550   0.951
23252SOL     OW71196   7.792   1.526   1.306
23252SOL    HW171197   7.793   1.492   1.216
23252SOL    HW271198   7.883   1.549   1.323
23253SOL     OW71199   7.952   0.754   1.592
23253SOL    HW171200   7.923   0.799   1.512
23253SOL    HW271201   7.906   0.670   1.589
23254SOL     OW71202   7.955   0.096   1.647
23254SOL    HW171203   7.916   0.014   1.617
23254SOL    HW271204   7.890   0.133   1.707
23255SOL     OW71205   0.007   0.925   1.088
23255SOL    HW171206   0.083   0.951   1.037
23255SOL    HW271207  -0.053   0.999   1.081
23256SOL     OW71208   7.734   0.214   1.241
23256SOL    HW171209   7.681   0.244   1.315
23256SOL    HW271210   7.759   0.125   1.264
23257SOL     OW71211   7.464   1.295   1.300
23257SOL    HW171212   7.514   1.248   1.367
23257SOL    HW271213   7.477   1.387   1.321
23258SOL     OW71214   7.796   0.007   0.694
23258SOL    HW171215   7.785   0.099   0.670
23258SOL    HW271216   7.769   0.003   0.786
23259SOL     OW71217   7.802   0.903   1.782
23259SOL    HW171218   7.860   0.972   1.814
23259SOL    HW271219   7.859   0.847   1.729
23260SOL     OW71220   7.745   0.821   0.955
23260SOL    HW171221   7.838   0.836   0.938
23260SOL    HW271222   7.740   0.729   0.980
23261SOL     OW71223   7.752   0.545   1.005
23261SOL    HW171224   7.723   0.454   0.992
23261SOL    HW271225   7.831   0.553   0.952
23262SOL     OW71226   7.542   1.784   0.936
23262SOL    HW171227   7.510   1.708   0.887
23262SOL    HW271228   7.634   1.791   0.910
23263SOL     OW71229   7.486   0.549   1.115
23263SOL    HW171230   7.570   0.561   1.070
23263SOL    HW271231   7.508   0.552   1.208
23264SOL     OW71232   7.629   0.522   1.732
23264SOL    HW171233   7.667   0.502   1.646
23264SOL    HW271234   7.561   0.586   1.714
23265SOL     OW71235   7.684   1.553   1.720
23265SOL    HW171236   7.673   1.610   1.796
23265SOL    HW271237   7.706   1.467   1.757
23266SOL     OW71238   7.904   0.458   0.162
23266SOL    HW171239   7.929   0.491   0.249
23266SOL    HW271240   7.815   0.492   0.149
23267SOL     OW71241   7.592   1.138   1.486
23267SOL    HW171242   7.590   1.089   1.568
23267SOL    HW271243   7.608   1.072   1.418
23268SOL     OW71244   7.534   1.280   1.036
23268SOL    HW171245   7.515   1.273   1.130
23268SOL    HW271246   7.460   1.329   1.001
23269SOL     OW71247   7.586   1.813   1.845
23269SOL    HW171248   7.539   1.741   1.888
23269SOL    HW271249   7.640   1.850   1.915
23270SOL     OW71250   7.696   0.264   0.699
23270SOL    HW171251   7.669   0.347   0.659
23270SOL    HW271252   7.696   0.282   0.793
23271SOL     OW71253   7.810   1.306   1.511
23271SOL    HW171254   7.808   1.373   1.443
23271SOL    HW271255   7.733   1.251   1.495
23272SOL     OW71256  -0.019   1.568   0.433
23272SOL    HW171257  -0.025   1.472   0.434
23272SOL    HW271258   0.069   1.587   0.464
23273SOL     OW71259   7.724   1.323   0.303
23273SOL    HW171260   7.640   1.299   0.264
23273SOL    HW271261   7.702   1.380   0.377
23274SOL     OW71262   7.551   1.012   1.720
23274SOL    HW171263   7.473   0.998   1.774
23274SOL    HW271264   7.623   0.978   1.772
23275SOL     OW71265   7.538   0.262   0.271
23275SOL    HW171266   7.538   0.325   0.343
23275SOL    HW271267   7.625   0.221   0.274
23276SOL     OW71268   7.829   1.758   1.566
23276SOL    HW171269   7.743   1.797   1.550
23276SOL    HW271270   7.810   1.671   1.601
23277SOL     OW71271   7.702   1.308   1.857
23277SOL    HW171272   7.616   1.268   1.851
23277SOL    HW271273   7.715   1.323   1.951
23278SOL     OW71274   7.538   1.210   0.669
23278SOL    HW171275   7.565   1.170   0.752
23278SOL    HW271276   7.606   1.186   0.607
23279SOL     OW71277   0.103   1.426   1.541
23279SOL    HW171278   0.046   1.372   1.595
23279SOL    HW271279   0.168   1.461   1.602
23280SOL     OW71280   7.799   0.547   1.293
23280SOL    HW171281   7.844   0.479   1.343
23280SOL    HW271282   7.808   0.519   1.202
23281SOL     OW71283   7.495   1.093   0.306
23281SOL    HW171284   7.584   1.073   0.278
23281SOL    HW271285   7.471   1.020   0.364
23282SOL     OW71286   7.678   0.613   2.004
23282SOL    HW171287   7.602   0.631   2.060
23282SOL    HW271288   7.640   0.593   1.919
23283SOL     OW71289   7.660   0.268   2.831
23283SOL    HW171290   7.638   0.264   2.924
23283SOL    HW271291   7.592   0.217   2.787
23284SOL     OW71292   7.461   0.389   2.497
23284SOL    HW171293   7.374   0.413   2.531
23284SOL    HW271294   7.454   0.295   2.480
23285SOL     OW71295   7.762   1.433   2.907
23285SOL    HW171296   7.683   1.380   2.897
23285SOL    HW271297   7.795   1.445   2.818
23286SOL     OW71298   7.898   0.353   3.365
23286SOL    HW171299   7.919   0.260   3.380
23286SOL    HW271300   7.804   0.359   3.384
23287SOL     OW71301   7.691   1.423   2.388
23287SOL    HW171302   7.688   1.518   2.380
23287SOL    HW271303   7.625   1.402   2.454
23288SOL     OW71304   7.720   1.077   2.802
23288SOL    HW171305   7.691   1.032   2.882
23288SOL    HW271306   7.666   1.157   2.800
23289SOL     OW71307   7.628   0.612   2.480
23289SOL    HW171308   7.557   0.549   2.469
23289SOL    HW271309   7.584   0.692   2.508
23290SOL     OW71310   7.483   1.599   1.976
23290SOL    HW171311   7.474   1.506   1.993
23290SOL    HW271312   7.464   1.641   2.060
23291SOL     OW71313   7.555   0.759   3.443
23291SOL    HW171314   7.626   0.822   3.439
23291SOL    HW271315   7.475   0.812   3.444
23292SOL     OW71316   7.621   0.937   3.020
23292SOL    HW171317   7.645   0.990   3.096
23292SOL    HW271318   7.534   0.903   3.041
23293SOL     OW71319   0.020   0.755   2.120
23293SOL    HW171320   0.027   0.850   2.128
23293SOL    HW271321  -0.039   0.729   2.191
23294SOL     OW71322   7.547   0.842   2.620
23294SOL    HW171323   7.616   0.812   2.680
23294SOL    HW271324   7.495   0.904   2.672
23295SOL     OW71325   7.579   1.871   3.436
23295SOL    HW171326   7.578   1.850   3.530
23295SOL    HW271327   7.489   1.854   3.407
23296SOL     OW71328   7.969   0.244   2.786
23296SOL    HW171329   7.920   0.228   2.867
23296SOL    HW271330   7.903   0.274   2.724
23297SOL     OW71331   7.839   1.757   2.726
23297SOL    HW171332   7.820   1.681   2.673
23297SOL    HW271333   7.821   1.832   2.669
23298SOL     OW71334   7.737   0.964   2.128
23298SOL    HW171335   7.810   0.937   2.072
23298SOL    HW271336   7.683   0.886   2.135
23299SOL     OW71337   7.930   1.215   3.612
23299SOL    HW171338   7.897   1.237   3.525
23299SOL    HW271339   7.862   1.243   3.672
23300SOL     OW71340   7.628   0.326   3.402
23300SOL    HW171341   7.590   0.314   3.315
23300SOL    HW271342   7.581   0.265   3.458
23301SOL     OW71343   7.756   1.802   3.080
23301SOL    HW171344   7.774   1.717   3.120
23301SOL    HW271345   7.693   1.784   3.011
23302SOL     OW71346   7.841   0.683   2.309
23302SOL    HW171347   7.845   0.595   2.346
23302SOL    HW271348   7.757   0.718   2.337
23303SOL     OW71349   0.046   0.082   1.957
23303SOL    HW171350   0.135   0.071   1.992
23303SOL    HW271351   0.048   0.166   1.912
23304SOL     OW71352   7.752   0.031   2.027
23304SOL    HW171353   7.843   0.057   2.012
23304SOL    HW271354   7.753  -0.009   2.114
23305SOL     OW71355   7.926   1.091   2.609
23305SOL    HW171356   7.852   1.084   2.669
23305SOL    HW271357   7.886   1.091   2.522
23306SOL     OW71358   7.529   0.587   3.236
23306SOL    HW171359   7.622   0.568   3.225
23306SOL    HW271360   7.525   0.649   3.309
23307SOL     OW71361   7.908   0.806   3.146
23307SOL    HW171362   7.865   0.857   3.215
23307SOL    HW271363   7.871   0.718   3.155
23308SOL     OW71364   7.527   1.579   3.226
23308SOL    HW171365   7.506   1.669   3.200
23308SOL    HW271366   7.621   1.571   3.211
23309SOL     OW71367   7.839   1.112   2.343
23309SOL    HW171368   7.806   1.200   2.326
23309SOL    HW271369   7.795   1.057   2.277
23310SOL     OW71370   7.790   1.540   3.159
23310SOL    HW171371   7.787   1.490   3.078
23310SOL    HW271372   7.884   1.548   3.178
23311SOL     OW71373   7.856   0.744   3.474
23311SOL    HW171374   7.949   0.736   3.454
23311SOL    HW271375   7.826   0.654   3.487
23312SOL     OW71376   7.937   0.072   3.487
23312SOL    HW171377   7.922  -0.020   3.465
23312SOL    HW271378   7.884   0.086   3.566
23313SOL     OW71379   7.996   0.898   2.908
23313SOL    HW171380   8.029   0.988   2.919
23313SOL    HW271381   7.960   0.876   2.994
23314SOL     OW71382   7.833   0.174   3.091
23314SOL    HW171383   7.750   0.209   3.123
23314SOL    HW271384   7.808   0.098   3.038
23315SOL     OW71385   7.484   1.331   3.109
23315SOL    HW171386   7.519   1.258   3.161
23315SOL    HW271387   7.493   1.407   3.167
23316SOL     OW71388   7.843   0.065   2.559
23316SOL    HW171389   7.775   0.130   2.541
23316SOL    HW271390   7.796  -0.017   2.569
23317SOL     OW71391   7.818   0.907   3.695
23317SOL    HW171392   7.872   0.978   3.660
23317SOL    HW271393   7.819   0.840   3.627
23318SOL     OW71394   7.743   0.794   2.809
23318SOL    HW171395   7.771   0.885   2.799
23318SOL    HW271396   7.692   0.794   2.890
23319SOL     OW71397   7.794   0.510   2.825
23319SOL    HW171398   7.759   0.422   2.840
23319SOL    HW271399   7.717   0.563   2.805
23320SOL     OW71400   7.454   1.326   2.044
23320SOL    HW171401   7.366   1.340   2.011
23320SOL    HW271402   7.451   1.240   2.086
23321SOL     OW71403   7.550   1.793   2.811
23321SOL    HW171404   7.513   1.714   2.772
23321SOL    HW271405   7.643   1.791   2.786
23322SOL     OW71406   7.515   0.533   2.969
23322SOL    HW171407   7.505   0.439   2.981
23322SOL    HW271408   7.516   0.569   3.057
23323SOL     OW71409   7.643   0.539   3.578
23323SOL    HW171410   7.636   0.468   3.515
23323SOL    HW271411   7.602   0.614   3.536
23324SOL     OW71412   0.223   0.508   2.157
23324SOL    HW171413   0.190   0.420   2.176
23324SOL    HW271414   0.197   0.560   2.233
23325SOL     OW71415   7.695   1.547   3.592
23325SOL    HW171416   7.662   1.601   3.663
23325SOL    HW271417   7.698   1.459   3.628
23326SOL     OW71418   7.922   0.496   2.019
23326SOL    HW171419   7.971   0.565   2.064
23326SOL    HW271420   7.832   0.527   2.017
23327SOL     OW71421   7.534   1.279   2.854
23327SOL    HW171422   7.515   1.289   2.947
23327SOL    HW271423   7.470   1.216   2.822
23328SOL     OW71424   7.577   1.811   3.700
23328SOL    HW171425   7.534   1.739   3.745
23328SOL    HW271426   7.628   1.855   3.768
23329SOL     OW71427   7.742   0.337   2.578
23329SOL    HW171428   7.669   0.380   2.533
23329SOL    HW271429   7.708   0.317   2.665
23330SOL     OW71430   7.843   1.309   3.366
23330SOL    HW171431   7.805   1.385   3.323
23330SOL    HW271432   7.784   1.237   3.344
23331SOL     OW71433   7.983   1.516   2.262
23331SOL    HW171434   8.057   1.534   2.320
23331SOL    HW271435   7.910   1.564   2.300
23332SOL     OW71436   7.718   1.346   2.130
23332SOL    HW171437   7.624   1.346   2.112
23332SOL    HW271438   7.726   1.384   2.217
23333SOL     OW71439   7.589   1.063   3.657
23333SOL    HW171440   7.503   1.022   3.666
23333SOL    HW271441   7.652   0.992   3.671
23334SOL     OW71442   7.518   0.320   1.886
23334SOL    HW171443   7.459   0.356   1.952
23334SOL    HW271444   7.540   0.395   1.831
23335SOL     OW71445   7.489   0.156   2.136
23335SOL    HW171446   7.493   0.251   2.144
23335SOL    HW271447   7.573   0.132   2.097
23336SOL     OW71448   7.819   1.733   3.429
23336SOL    HW171449   7.737   1.778   3.407
23336SOL    HW271450   7.792   1.658   3.482
23337SOL     OW71451   7.672   1.308   3.718
23337SOL    HW171452   7.645   1.224   3.681
23337SOL    HW271453   7.609   1.325   3.788
23338SOL     OW71454   7.523   1.234   2.543
23338SOL    HW171455   7.489   1.179   2.613
23338SOL    HW271456   7.572   1.175   2.487
23339SOL     OW71457   0.105   1.435   3.491
23339SOL    HW171458   0.066   1.353   3.459
23339SOL    HW271459   0.031   1.496   3.494
23340SOL     OW71460   7.803   0.546   3.166
23340SOL    HW171461   7.855   0.490   3.223
23340SOL    HW271462   7.798   0.497   3.083
23341SOL     OW71463   7.485   1.080   2.166
23341SOL    HW171464   7.579   1.071   2.149
23341SOL    HW271465   7.454   0.991   2.180
23342SOL     OW71466   7.656   0.596   3.855
23342SOL    HW171467   7.570   0.607   3.895
23342SOL    HW271468   7.640   0.599   3.760
23343SOL     OW71469   7.692   0.281   4.703
23343SOL    HW171470   7.711   0.254   4.792
23343SOL    HW271471   7.604   0.246   4.685
23344SOL     OW71472   7.473   0.395   4.367
23344SOL    HW171473   7.384   0.415   4.397
23344SOL    HW271474   7.471   0.302   4.345
23345SOL     OW71475   7.756   1.448   4.756
23345SOL    HW171476   7.670   1.405   4.755
23345SOL    HW271477   7.810   1.395   4.697
23346SOL     OW71478   7.848   0.407   5.268
23346SOL    HW171479   7.910   0.361   5.325
23346SOL    HW271480   7.797   0.338   5.227
23347SOL     OW71481   7.635   1.639   4.246
23347SOL    HW171482   7.689   1.711   4.275
23347SOL    HW271483   7.580   1.676   4.177
23348SOL     OW71484   7.725   1.098   4.651
23348SOL    HW171485   7.708   1.008   4.677
23348SOL    HW271486   7.651   1.148   4.685
23349SOL     OW71487   7.579   0.639   4.279
23349SOL    HW171488   7.537   0.556   4.304
23349SOL    HW271489   7.571   0.694   4.358
23350SOL     OW71490   7.507   1.600   3.852
23350SOL    HW171491   7.466   1.514   3.856
23350SOL    HW271492   7.478   1.644   3.932
23351SOL     OW71493   7.565   0.745   5.311
23351SOL    HW171494   7.652   0.784   5.322
23351SOL    HW271495   7.505   0.819   5.318
23352SOL     OW71496   7.638   0.943   4.990
23352SOL    HW171497   7.717   0.897   4.963
23352SOL    HW271498   7.567   0.896   4.946
23353SOL     OW71499   7.758   0.232   5.516
23353SOL    HW171500   7.837   0.280   5.540
23353SOL    HW271501   7.689   0.273   5.568
23354SOL     OW71502   8.011   0.721   3.975
23354SOL    HW171503   7.971   0.799   3.935
23354SOL    HW271504   7.961   0.707   4.055
23355SOL     OW71505   7.554   0.808   4.487
23355SOL    HW171506   7.613   0.814   4.562
23355SOL    HW271507   7.475   0.854   4.514
23356SOL     OW71508   7.588   1.829   5.285
23356SOL    HW171509   7.581   1.814   5.380
23356SOL    HW271510   7.512   1.882   5.263
23357SOL     OW71511   7.983   0.254   4.636
23357SOL    HW171512   7.906   0.228   4.686
23357SOL    HW271513   7.949   0.306   4.563
23358SOL     OW71514   7.803   1.822   4.584
23358SOL    HW171515   7.832   1.748   4.637
23358SOL    HW271516   7.866   1.891   4.603
23359SOL     OW71517   7.767   0.928   3.971
23359SOL    HW171518   7.776   0.925   3.875
23359SOL    HW271519   7.726   0.844   3.993
23360SOL     OW71520   7.952   1.292   5.449
23360SOL    HW171521   7.915   1.253   5.370
23360SOL    HW271522   7.879   1.296   5.510
23361SOL     OW71523   7.613   0.251   5.217
23361SOL    HW171524   7.561   0.324   5.184
23361SOL    HW271525   7.614   0.263   5.312
23362SOL     OW71526   7.736   1.791   4.919
23362SOL    HW171527   7.763   1.709   4.961
23362SOL    HW271528   7.663   1.766   4.861
23363SOL     OW71529   7.832   0.673   4.177
23363SOL    HW171530   7.866   0.601   4.229
23363SOL    HW271531   7.740   0.679   4.202
23364SOL     OW71532   0.101   0.047   3.769
23364SOL    HW171533   0.178   0.050   3.826
23364SOL    HW271534   0.068   0.137   3.767
23365SOL     OW71535   7.813   0.104   3.886
23365SOL    HW171536   7.895   0.116   3.935
23365SOL    HW271537   7.778   0.021   3.918
23366SOL     OW71538   7.903   1.166   4.461
23366SOL    HW171539   7.838   1.137   4.525
23366SOL    HW271540   7.867   1.140   4.377
23367SOL     OW71541   7.556   0.540   5.124
23367SOL    HW171542   7.645   0.555   5.093
23367SOL    HW271543   7.538   0.615   5.182
23368SOL     OW71544   7.893   0.807   4.993
23368SOL    HW171545   7.900   0.829   5.086
23368SOL    HW271546   7.860   0.717   4.992
23369SOL     OW71547   7.511   1.574   5.087
23369SOL    HW171548   7.459   1.644   5.048
23369SOL    HW271549   7.601   1.606   5.083
23370SOL     OW71550   7.821   1.112   4.196
23370SOL    HW171551   7.789   1.188   4.147
23370SOL    HW271552   7.790   1.037   4.146
23371SOL     OW71553  -0.009   0.564   4.584
23371SOL    HW171554   0.024   0.647   4.550
23371SOL    HW271555   0.025   0.559   4.673
23372SOL     OW71556   7.798   1.543   5.012
23372SOL    HW171557   7.783   1.500   4.927
23372SOL    HW271558   7.802   1.470   5.074
23373SOL     OW71559   7.857   0.728   5.335
23373SOL    HW171560   7.948   0.753   5.320
23373SOL    HW271561   7.856   0.633   5.323
23374SOL     OW71562   7.963   0.103   5.345
23374SOL    HW171563   7.923   0.016   5.333
23374SOL    HW271564   7.915   0.141   5.419
23375SOL     OW71565   7.990   0.911   4.760
23375SOL    HW171566   8.059   0.965   4.799
23375SOL    HW271567   7.949   0.867   4.835
23376SOL     OW71568   7.754   0.212   4.959
23376SOL    HW171569   7.693   0.210   5.033
23376SOL    HW271570   7.768   0.120   4.937
23377SOL     OW71571   7.533   1.320   4.981
23377SOL    HW171572   7.554   1.257   5.050
23377SOL    HW271573   7.512   1.401   5.028
23378SOL     OW71574   7.851   0.938   5.551
23378SOL    HW171575   7.768   0.980   5.527
23378SOL    HW271576   7.851   0.856   5.501
23379SOL     OW71577   7.733   0.816   4.695
23379SOL    HW171578   7.825   0.842   4.697
23379SOL    HW271579   7.734   0.721   4.709
23380SOL     OW71580   7.759   0.539   4.726
23380SOL    HW171581   7.727   0.450   4.712
23380SOL    HW271582   7.833   0.548   4.666
23381SOL     OW71583   7.477   1.320   3.917
23381SOL    HW171584   7.391   1.334   3.879
23381SOL    HW271585   7.473   1.232   3.954
23382SOL     OW71586   7.539   1.767   4.666
23382SOL    HW171587   7.509   1.691   4.617
23382SOL    HW271588   7.623   1.790   4.626
23383SOL     OW71589   7.493   0.546   4.846
23383SOL    HW171590   7.576   0.547   4.798
23383SOL    HW271591   7.518   0.531   4.937
23384SOL     OW71592   7.642   0.525   5.459
23384SOL    HW171593   7.709   0.490   5.400
23384SOL    HW271594   7.602   0.596   5.410
23385SOL     OW71595   7.702   1.545   5.432
23385SOL    HW171596   7.676   1.616   5.490
23385SOL    HW271597   7.706   1.468   5.488
23386SOL     OW71598   7.890   0.472   3.882
23386SOL    HW171599   7.958   0.524   3.925
23386SOL    HW271600   7.816   0.533   3.873
23387SOL     OW71601   7.626   1.143   5.172
23387SOL    HW171602   7.605   1.105   5.258
23387SOL    HW271603   7.626   1.068   5.112
23388SOL     OW71604   7.525   1.293   4.715
23388SOL    HW171605   7.513   1.293   4.810
23388SOL    HW271606   7.457   1.235   4.682
23389SOL     OW71607   7.601   1.788   5.558
23389SOL    HW171608   7.549   1.723   5.606
23389SOL    HW271609   7.641   1.842   5.626
23390SOL     OW71610   7.745   0.389   4.450
23390SOL    HW171611   7.660   0.404   4.409
23390SOL    HW271612   7.727   0.333   4.525
23391SOL     OW71613   7.800   1.346   5.202
23391SOL    HW171614   7.753   1.390   5.272
23391SOL    HW271615   7.749   1.268   5.183
23392SOL     OW71616  -0.021   1.562   4.131
23392SOL    HW171617  -0.031   1.480   4.178
23392SOL    HW271618   0.053   1.606   4.174
23393SOL     OW71619   7.740   1.341   4.041
23393SOL    HW171620   7.658   1.306   4.007
23393SOL    HW271621   7.725   1.435   4.048
23394SOL     OW71622   7.515   0.336   3.746
23394SOL    HW171623   7.423   0.313   3.763
23394SOL    HW271624   7.510   0.410   3.686
23395SOL     OW71625   7.565   0.222   4.032
23395SOL    HW171626   7.475   0.206   4.001
23395SOL    HW271627   7.573   0.170   4.111
23396SOL     OW71628   7.845   1.742   5.288
23396SOL    HW171629   7.760   1.779   5.264
23396SOL    HW271630   7.825   1.659   5.330
23397SOL     OW71631   7.699   1.312   5.569
23397SOL    HW171632   7.657   1.234   5.532
23397SOL    HW271633   7.665   1.317   5.658
23398SOL     OW71634   7.588   1.243   4.375
23398SOL    HW171635   7.550   1.196   4.449
23398SOL    HW271636   7.607   1.175   4.311
23399SOL     OW71637   0.098   1.454   5.266
23399SOL    HW171638   0.041   1.397   5.318
23399SOL    HW271639   0.165   1.483   5.327
23400SOL     OW71640   7.800   0.555   5.010
23400SOL    HW171641   7.852   0.493   5.061
23400SOL    HW271642   7.804   0.521   4.920
23401SOL     OW71643   7.546   1.091   4.057
23401SOL    HW171644   7.613   1.035   4.016
23401SOL    HW271645   7.470   1.034   4.068
23402SOL     OW71646   7.667   0.629   5.720
23402SOL    HW171647   7.573   0.643   5.728
23402SOL    HW271648   7.680   0.603   5.629
23403SOL     OW71649   7.647   0.322   6.575
23403SOL    HW171650   7.713   0.268   6.618
23403SOL    HW271651   7.575   0.263   6.555
23404SOL     OW71652   7.467   0.388   6.214
23404SOL    HW171653   7.404   0.341   6.270
23404SOL    HW271654   7.467   0.337   6.132
23405SOL     OW71655   7.721   1.459   6.629
23405SOL    HW171656   7.687   1.386   6.577
23405SOL    HW271657   7.816   1.455   6.616
23406SOL     OW71658   7.856   0.396   7.129
23406SOL    HW171659   7.950   0.389   7.147
23406SOL    HW271660   7.840   0.336   7.056
23407SOL     OW71661   7.657   1.701   6.063
23407SOL    HW171662   7.693   1.781   6.102
23407SOL    HW271663   7.716   1.682   5.990
23408SOL     OW71664   7.667   1.435   6.124
23408SOL    HW171665   7.657   1.530   6.117
23408SOL    HW271666   7.611   1.410   6.198
23409SOL     OW71667   7.698   1.084   6.456
23409SOL    HW171668   7.724   0.999   6.491
23409SOL    HW271669   7.663   1.131   6.532
23410SOL     OW71670   7.561   0.649   6.152
23410SOL    HW171671   7.534   0.560   6.173
23410SOL    HW271672   7.555   0.696   6.235
23411SOL     OW71673   7.499   1.596   5.715
23411SOL    HW171674   7.478   1.504   5.732
23411SOL    HW271675   7.460   1.644   5.788
23412SOL     OW71676   7.557   0.733   7.169
23412SOL    HW171677   7.648   0.762   7.167
23412SOL    HW271678   7.505   0.814   7.171
23413SOL     OW71679   7.635   0.965   6.862
23413SOL    HW171680   7.718   0.921   6.882
23413SOL    HW271681   7.603   0.922   6.783
23414SOL     OW71682   7.744   0.235   7.369
23414SOL    HW171683   7.802   0.310   7.382
23414SOL    HW271684   7.677   0.245   7.437
23415SOL     OW71685   0.020   0.740   5.822
23415SOL    HW171686   0.029   0.833   5.801
23415SOL    HW271687  -0.039   0.738   5.897
23416SOL     OW71688   7.536   0.815   6.376
23416SOL    HW171689   7.625   0.810   6.409
23416SOL    HW271690   7.504   0.900   6.409
23417SOL     OW71691   7.550   1.861   7.170
23417SOL    HW171692   7.565   1.846   7.264
23417SOL    HW271693   7.459   1.835   7.155
23418SOL     OW71694   7.932   0.255   6.489
23418SOL    HW171695   8.002   0.238   6.551
23418SOL    HW271696   7.960   0.333   6.442
23419SOL     OW71697   7.799   1.809   6.452
23419SOL    HW171698   7.859   1.736   6.439
23419SOL    HW271699   7.855   1.884   6.468
23420SOL     OW71700   7.750   0.955   5.823
23420SOL    HW171701   7.799   0.974   5.742
23420SOL    HW271702   7.741   0.860   5.824
23421SOL     OW71703   7.958   1.241   7.336
23421SOL    HW171704   7.914   1.247   7.251
23421SOL    HW271705   7.889   1.260   7.400
23422SOL     OW71706   7.591   0.241   7.136
23422SOL    HW171707   7.600   0.320   7.084
23422SOL    HW271708   7.655   0.250   7.206
23423SOL     OW71709   7.721   1.785   6.787
23423SOL    HW171710   7.777   1.730   6.843
23423SOL    HW271711   7.762   1.782   6.701
23424SOL     OW71712   7.845   0.742   6.048
23424SOL    HW171713   7.910   0.694   6.100
23424SOL    HW271714   7.763   0.693   6.061
23425SOL     OW71715   0.045   0.046   5.670
23425SOL    HW171716   0.127   0.046   5.718
23425SOL    HW271717   0.037   0.134   5.634
23426SOL     OW71718   7.762   0.066   5.802
23426SOL    HW171719   7.783   0.121   5.726
23426SOL    HW271720   7.833   0.002   5.804
23427SOL     OW71721   7.924   1.090   6.294
23427SOL    HW171722   7.853   1.103   6.357
23427SOL    HW271723   7.882   1.091   6.209
23428SOL     OW71724   7.535   0.507   7.007
23428SOL    HW171725   7.616   0.517   6.957
23428SOL    HW271726   7.531   0.585   7.063
23429SOL     OW71727   7.860   0.815   6.904
23429SOL    HW171728   7.937   0.841   6.855
23429SOL    HW271729   7.846   0.723   6.881
23430SOL     OW71730   7.783   1.107   6.061
23430SOL    HW171731   7.779   1.183   6.004
23430SOL    HW271732   7.775   1.032   6.002
23431SOL     OW71733  -0.016   0.554   6.422
23431SOL    HW171734   0.020   0.581   6.338
23431SOL    HW271735   0.046   0.588   6.487
23432SOL     OW71736   7.794   1.543   6.894
23432SOL    HW171737   7.830   1.478   6.834
23432SOL    HW271738   7.869   1.573   6.945
23433SOL     OW71739   7.834   0.751   7.170
23433SOL    HW171740   7.849   0.787   7.082
23433SOL    HW271741   7.906   0.688   7.182
23434SOL     OW71742   7.951   0.068   7.305
23434SOL    HW171743   7.923  -0.010   7.257
23434SOL    HW271744   7.871   0.119   7.317
23435SOL     OW71745   8.011   0.905   6.681
23435SOL    HW171746   8.056   0.887   6.598
23435SOL    HW271747   7.919   0.909   6.657
23436SOL     OW71748   7.763   0.186   6.843
23436SOL    HW171749   7.685   0.143   6.879
23436SOL    HW271750   7.792   0.127   6.773
23437SOL     OW71751   7.546   1.357   6.875
23437SOL    HW171752   7.530   1.299   6.950
23437SOL    HW271753   7.622   1.318   6.831
23438SOL     OW71754   7.802   0.917   7.387
23438SOL    HW171755   7.885   0.966   7.384
23438SOL    HW271756   7.812   0.849   7.320
23439SOL     OW71757   7.785   0.827   6.521
23439SOL    HW171758   7.866   0.827   6.470
23439SOL    HW271759   7.775   0.736   6.549
23440SOL     OW71760   7.767   0.562   6.586
23440SOL    HW171761   7.725   0.476   6.576
23440SOL    HW271762   7.849   0.555   6.539
23441SOL     OW71763   7.463   1.322   5.786
23441SOL    HW171764   7.377   1.340   5.749
23441SOL    HW271765   7.463   1.228   5.802
23442SOL     OW71766   7.540   1.784   6.528
23442SOL    HW171767   7.507   1.706   6.484
23442SOL    HW271768   7.630   1.792   6.499
23443SOL     OW71769   7.488   0.520   6.704
23443SOL    HW171770   7.521   0.452   6.645
23443SOL    HW271771   7.564   0.575   6.722
23444SOL     OW71772   7.654   0.524   7.318
23444SOL    HW171773   7.725   0.496   7.260
23444SOL    HW271774   7.611   0.595   7.270
23445SOL     OW71775   0.184   0.501   5.952
23445SOL    HW171776   0.187   0.467   5.863
23445SOL    HW271777   0.226   0.587   5.947
23446SOL     OW71778   7.671   1.543   7.311
23446SOL    HW171779   7.676   1.593   7.393
23446SOL    HW271780   7.703   1.456   7.335
23447SOL     OW71781   7.858   0.488   5.874
23447SOL    HW171782   7.938   0.526   5.839
23447SOL    HW271783   7.788   0.529   5.824
23448SOL     OW71784   7.570   1.142   7.058
23448SOL    HW171785   7.578   1.095   7.141
23448SOL    HW271786   7.591   1.077   6.991
23449SOL     OW71787   7.520   1.253   6.597
23449SOL    HW171788   7.467   1.269   6.675
23449SOL    HW271789   7.470   1.188   6.547
23450SOL     OW71790   7.581   1.825   7.436
23450SOL    HW171791   7.541   1.747   7.474
23450SOL    HW271792   7.640   1.858   7.504
23451SOL     OW71793   7.725   0.322   6.295
23451SOL    HW171794   7.639   0.352   6.264
23451SOL    HW271795   7.723   0.335   6.389
23452SOL     OW71796   7.809   1.285   7.117
23452SOL    HW171797   7.861   1.302   7.038
23452SOL    HW271798   7.728   1.246   7.085
23453SOL     OW71799  -0.026   1.577   6.001
23453SOL    HW171800  -0.020   1.489   6.038
23453SOL    HW271801   0.057   1.619   6.023
23454SOL     OW71802   7.722   1.335   5.882
23454SOL    HW171803   7.632   1.335   5.849
23454SOL    HW271804   7.716   1.377   5.967
23455SOL     OW71805   7.560   1.023   7.304
23455SOL    HW171806   7.486   0.997   7.360
23455SOL    HW271807   7.637   0.987   7.348
23456SOL     OW71808   7.525   0.343   5.632
23456SOL    HW171809   7.448   0.317   5.581
23456SOL    HW271810   7.561   0.418   5.585
23457SOL     OW71811   7.554   0.205   5.921
23457SOL    HW171812   7.532   0.258   5.844
23457SOL    HW271813   7.626   0.148   5.892
23458SOL     OW71814   7.827   1.759   7.157
23458SOL    HW171815   7.732   1.761   7.151
23458SOL    HW271816   7.849   1.667   7.169
23459SOL     OW71817   7.707   1.299   7.443
23459SOL    HW171818   7.632   1.242   7.428
23459SOL    HW271819   7.707   1.315   7.537
23460SOL     OW71820   7.519   1.223   6.260
23460SOL    HW171821   7.571   1.175   6.325
23460SOL    HW271822   7.562   1.205   6.177
23461SOL     OW71823   0.079   1.466   7.163
23461SOL    HW171824   0.045   1.388   7.207
23461SOL    HW271825   0.162   1.484   7.207
23462SOL     OW71826   7.775   0.549   6.866
23462SOL    HW171827   7.849   0.508   6.911
23462SOL    HW271828   7.795   0.542   6.773
23463SOL     OW71829   7.500   1.062   5.890
23463SOL    HW171830   7.587   1.050   5.852
23463SOL    HW271831   7.472   0.973   5.913
23464SOL     OW71832   7.658   0.626   7.579
23464SOL    HW171833   7.566   0.633   7.604
23464SOL    HW271834   7.657   0.614   7.484
23465SOL     OW71835   7.659   0.282   8.423
23465SOL    HW171836   7.725   0.216   8.441
23465SOL    HW271837   7.580   0.232   8.403
23466SOL     OW71838   7.468   0.383   8.088
23466SOL    HW171839   7.375   0.399   8.105
23466SOL    HW271840   7.474   0.288   8.073
23467SOL     OW71841   7.767   1.455   8.503
23467SOL    HW171842   7.700   1.396   8.468
23467SOL    HW271843   7.848   1.429   8.459
23468SOL     OW71844   7.858   0.410   8.966
23468SOL    HW171845   7.952   0.394   8.967
23468SOL    HW271846   7.819   0.323   8.955
23469SOL     OW71847   7.690   1.434   7.969
23469SOL    HW171848   7.671   1.525   7.988
23469SOL    HW271849   7.679   1.389   8.053
23470SOL     OW71850   7.611   1.077   8.320
23470SOL    HW171851   7.703   1.055   8.305
23470SOL    HW271852   7.613   1.145   8.387
23471SOL     OW71853   7.570   0.652   8.013
23471SOL    HW171854   7.543   0.562   8.033
23471SOL    HW271855   7.564   0.698   8.096
23472SOL     OW71856   7.494   1.604   7.568
23472SOL    HW171857   7.480   1.510   7.583
23472SOL    HW271858   7.467   1.645   7.650
23473SOL     OW71859   7.559   0.734   9.016
23473SOL    HW171860   7.648   0.768   9.027
23473SOL    HW271861   7.504   0.812   9.016
23474SOL     OW71862   7.631   0.933   8.711
23474SOL    HW171863   7.714   0.893   8.739
23474SOL    HW271864   7.631   0.922   8.616
23475SOL     OW71865   7.752   0.245   9.223
23475SOL    HW171866   7.812   0.307   9.265
23475SOL    HW271867   7.685   0.228   9.290
23476SOL     OW71868   0.019   0.742   7.692
23476SOL    HW171869   0.035   0.836   7.699
23476SOL    HW271870  -0.044   0.723   7.761
23477SOL     OW71871   7.531   0.817   8.238
23477SOL    HW171872   7.598   0.785   8.298
23477SOL    HW271873   7.532   0.912   8.250
23478SOL     OW71874   7.582   1.857   9.031
23478SOL    HW171875   7.586   1.847   9.126
23478SOL    HW271876   7.509   1.800   9.004
23479SOL     OW71877   7.938   0.262   8.364
23479SOL    HW171878   8.013   0.242   8.420
23479SOL    HW271879   7.968   0.333   8.307
23480SOL     OW71880   7.796   1.819   8.332
23480SOL    HW171881   7.791   1.787   8.242
23480SOL    HW271882   7.859   1.892   8.328
23481SOL     OW71883   7.761   0.968   7.704
23481SOL    HW171884   7.852   0.985   7.682
23481SOL    HW271885   7.739   0.888   7.657
23482SOL     OW71886   7.953   1.239   9.194
23482SOL    HW171887   7.911   1.244   9.108
23482SOL    HW271888   7.883   1.262   9.256
23483SOL     OW71889   7.623   0.224   8.981
23483SOL    HW171890   7.564   0.299   8.977
23483SOL    HW271891   7.665   0.231   9.066
23484SOL     OW71892   7.718   1.802   8.659
23484SOL    HW171893   7.753   1.729   8.711
23484SOL    HW271894   7.718   1.770   8.569
23485SOL     OW71895   7.835   0.684   7.886
23485SOL    HW171896   7.886   0.635   7.950
23485SOL    HW271897   7.745   0.679   7.917
23486SOL     OW71898   0.011   0.089   7.581
23486SOL    HW171899   0.043  -0.001   7.584
23486SOL    HW271900   0.001   0.109   7.488
23487SOL     OW71901   7.739   0.056   7.657
23487SOL    HW171902   7.814   0.101   7.619
23487SOL    HW271903   7.773  -0.030   7.683
23488SOL     OW71904   7.555   0.560   8.803
23488SOL    HW171905   7.651   0.568   8.799
23488SOL    HW271906   7.528   0.630   8.863
23489SOL     OW71907   7.866   0.805   8.773
23489SOL    HW171908   7.934   0.842   8.717
23489SOL    HW271909   7.855   0.716   8.740
23490SOL     OW71910   7.525   1.569   8.796
23490SOL    HW171911   7.502   1.640   8.737
23490SOL    HW271912   7.621   1.563   8.792
23491SOL     OW71913   7.715   1.111   7.935
23491SOL    HW171914   7.791   1.169   7.940
23491SOL    HW271915   7.736   1.048   7.866
23492SOL     OW71916   0.021   0.572   8.314
23492SOL    HW171917   0.051   0.654   8.272
23492SOL    HW271918   0.060   0.575   8.401
23493SOL     OW71919   7.790   1.547   8.757
23493SOL    HW171920   7.788   1.504   8.672
23493SOL    HW271921   7.883   1.563   8.773
23494SOL     OW71922   7.843   0.755   9.040
23494SOL    HW171923   7.851   0.792   8.951
23494SOL    HW271924   7.924   0.706   9.052
23495SOL     OW71925   7.949   0.063   9.161
23495SOL    HW171926   7.915  -0.004   9.101
23495SOL    HW271927   7.874   0.120   9.178
23496SOL     OW71928   0.011   0.882   8.546
23496SOL    HW171929   0.074   0.873   8.475
23496SOL    HW271930  -0.054   0.944   8.512
23497SOL     OW71931   7.748   0.229   8.700
23497SOL    HW171932   7.701   0.186   8.771
23497SOL    HW271933   7.791   0.158   8.653
23498SOL     OW71934   7.471   1.313   8.721
23498SOL    HW171935   7.513   1.251   8.781
23498SOL    HW271936   7.491   1.399   8.757
23499SOL     OW71937   7.771   0.068   8.112
23499SOL    HW171938   7.818   0.148   8.138
23499SOL    HW271939   7.827  -0.003   8.143
23500SOL     OW71940   7.802   0.896   9.275
23500SOL    HW171941   7.884   0.941   9.296
23500SOL    HW271942   7.822   0.846   9.196
23501SOL     OW71943   7.738   0.805   8.417
23501SOL    HW171944   7.803   0.862   8.376
23501SOL    HW271945   7.780   0.719   8.419
23502SOL     OW71946   7.781   0.526   8.424
23502SOL    HW171947   7.757   0.440   8.389
23502SOL    HW271948   7.867   0.544   8.386
23503SOL     OW71949   7.453   1.328   7.640
23503SOL    HW171950   7.364   1.342   7.607
23503SOL    HW271951   7.454   1.237   7.669
23504SOL     OW71952   7.535   1.777   8.394
23504SOL    HW171953   7.503   1.741   8.312
23504SOL    HW271954   7.629   1.792   8.378
23505SOL     OW71955   7.638   0.525   9.172
23505SOL    HW171956   7.717   0.502   9.122
23505SOL    HW271957   7.599   0.597   9.122
23506SOL     OW71958   0.175   0.447   7.777
23506SOL    HW171959   0.213   0.497   7.705
23506SOL    HW271960   0.172   0.508   7.850
23507SOL     OW71961   7.698   1.557   9.162
23507SOL    HW171962   7.684   1.618   9.235
23507SOL    HW271963   7.713   1.472   9.204
23508SOL     OW71964   7.895   0.486   7.611
23508SOL    HW171965   7.950   0.550   7.655
23508SOL    HW271966   7.808   0.527   7.609
23509SOL     OW71967   7.592   1.136   8.892
23509SOL    HW171968   7.584   1.096   8.979
23509SOL    HW271969   7.605   1.062   8.833
23510SOL     OW71970   7.515   1.303   8.454
23510SOL    HW171971   7.503   1.310   8.549
23510SOL    HW271972   7.452   1.236   8.427
23511SOL     OW71973   7.589   1.793   9.295
23511SOL    HW171974   7.528   1.731   9.335
23511SOL    HW271975   7.627   1.841   9.369
23512SOL     OW71976   7.737   0.356   8.161
23512SOL    HW171977   7.649   0.373   8.126
23512SOL    HW271978   7.722   0.314   8.245
23513SOL     OW71979   7.811   1.291   8.968
23513SOL    HW171980   7.820   1.361   8.903
23513SOL    HW271981   7.735   1.241   8.939
23514SOL     OW71982  -0.003   1.542   7.862
23514SOL    HW171983   0.048   1.468   7.897
23514SOL    HW271984   0.032   1.619   7.907
23515SOL     OW71985   7.718   1.351   7.713
23515SOL    HW171986   7.623   1.351   7.698
23515SOL    HW271987   7.728   1.385   7.801
23516SOL     OW71988   7.590   1.003   9.135
23516SOL    HW171989   7.516   1.028   9.190
23516SOL    HW271990   7.657   0.973   9.197
23517SOL     OW71991   7.514   0.346   7.495
23517SOL    HW171992   7.441   0.341   7.433
23517SOL    HW271993   7.569   0.416   7.460
23518SOL     OW71994   7.482   0.158   7.720
23518SOL    HW171995   7.491   0.235   7.664
23518SOL    HW271996   7.568   0.117   7.719
23519SOL     OW71997   7.846   1.764   9.024
23519SOL    HW171998   7.756   1.795   9.011
23519SOL    HW271999   7.836   1.671   9.043
23520SOL     OW72000   7.698   1.315   9.300
23520SOL    HW172001   7.618   1.276   9.263
23520SOL    HW272002   7.687   1.307   9.394
23521SOL     OW72003   7.523   1.206   8.097
23521SOL    HW172004   7.553   1.158   8.174
23521SOL    HW272005   7.583   1.180   8.027
23522SOL     OW72006   0.085   1.455   9.002
23522SOL    HW172007   0.045   1.378   9.044
23522SOL    HW272008   0.164   1.471   9.053
23523SOL     OW72009   7.819   0.535   8.724
23523SOL    HW172010   7.851   0.496   8.805
23523SOL    HW272011   7.891   0.527   8.662
23524SOL     OW72012   7.482   1.069   7.739
23524SOL    HW172013   7.577   1.070   7.736
23524SOL    HW272014   7.459   0.979   7.765
23525SOL     OW72015   7.658   0.610   9.440
23525SOL    HW172016   7.567   0.611   9.468
23525SOL    HW272017   7.655   0.601   9.345
23526SOL     OW72018   7.671   0.297  10.337
23526SOL    HW172019   7.689   0.236  10.408
23526SOL    HW272020   7.591   0.263  10.296
23527SOL     OW72021   7.476   0.382   9.906
23527SOL    HW172022   7.399   0.337   9.940
23527SOL    HW272023   7.504   0.329   9.832
23528SOL     OW72024   7.759   1.441  10.368
23528SOL    HW172025   7.682   1.389  10.346
23528SOL    HW272026   7.795   1.467  10.283
23529SOL     OW72027   7.854   0.342  10.825
23529SOL    HW172028   7.931   0.388  10.791
23529SOL    HW272029   7.889   0.271  10.879
23530SOL     OW72030   7.696   1.708   9.795
23530SOL    HW172031   7.708   1.794   9.834
23530SOL    HW272032   7.608   1.711   9.756
23531SOL     OW72033   7.677   1.439   9.852
23531SOL    HW172034   7.727   1.519   9.834
23531SOL    HW272035   7.588   1.470   9.869
23532SOL     OW72036   7.704   1.116  10.209
23532SOL    HW172037   7.683   1.028  10.241
23532SOL    HW272038   7.644   1.174  10.256
23533SOL     OW72039   7.544   0.646   9.890
23533SOL    HW172040   7.517   0.554   9.884
23533SOL    HW272041   7.557   0.661   9.984
23534SOL     OW72042   7.453   1.593   9.428
23534SOL    HW172043   7.475   1.503   9.453
23534SOL    HW272044   7.441   1.639   9.511
23535SOL     OW72045   7.554   0.751  10.886
23535SOL    HW172046   7.633   0.803  10.900
23535SOL    HW272047   7.487   0.816  10.863
23536SOL     OW72048   7.642   0.952  10.611
23536SOL    HW172049   7.729   0.912  10.602
23536SOL    HW272050   7.588   0.908  10.545
23537SOL     OW72051   7.753   0.269  11.093
23537SOL    HW172052   7.839   0.287  11.132
23537SOL    HW272053   7.693   0.267  11.168
23538SOL     OW72054   0.051   0.723   9.560
23538SOL    HW172055   0.032   0.816   9.545
23538SOL    HW272056   0.067   0.716   9.654
23539SOL     OW72057   7.621   0.844  10.098
23539SOL    HW172058   7.614   0.881  10.010
23539SOL    HW272059   7.543   0.877  10.144
23540SOL     OW72060   7.555   1.859  10.901
23540SOL    HW172061   7.573   1.839  10.992
23540SOL    HW272062   7.462   1.838  10.890
23541SOL     OW72063   7.976   0.249  10.212
23541SOL    HW172064   7.908   0.217  10.272
23541SOL    HW272065   7.927   0.277  10.134
23542SOL     OW72066   7.801   1.816  10.182
23542SOL    HW172067   7.868   1.757  10.147
23542SOL    HW272068   7.848   1.899  10.195
23543SOL     OW72069   7.708   0.947   9.537
23543SOL    HW172070   7.796   0.975   9.561
23543SOL    HW272071   7.719   0.897   9.456
23544SOL     OW72072   7.924   1.248  11.050
23544SOL    HW172073   7.877   1.257  10.967
23544SOL    HW272074   7.860   1.273  11.117
23545SOL     OW72075   7.705   1.785  10.537
23545SOL    HW172076   7.755   1.716  10.581
23545SOL    HW272077   7.705   1.760  10.444
23546SOL     OW72078   7.820   0.681   9.894
23546SOL    HW172079   7.874   0.650   9.821
23546SOL    HW272080   7.730   0.673   9.861
23547SOL     OW72081   0.012   0.096   9.436
23547SOL    HW172082   0.104   0.073   9.454
23547SOL    HW272083   0.004   0.092   9.341
23548SOL     OW72084   7.753   0.071   9.517
23548SOL    HW172085   7.842   0.092   9.491
23548SOL    HW272086   7.756  -0.022   9.540
23549SOL     OW72087   7.921   1.080  10.052
23549SOL    HW172088   7.848   1.098  10.111
23549SOL    HW272089   7.885   1.092   9.965
23550SOL     OW72090   7.565   0.518  10.745
23550SOL    HW172091   7.637   0.534  10.684
23550SOL    HW272092   7.552   0.603  10.788
23551SOL     OW72093   7.881   0.806  10.597
23551SOL    HW172094   7.974   0.789  10.615
23551SOL    HW272095   7.842   0.719  10.592
23552SOL     OW72096   7.528   1.566  10.669
23552SOL    HW172097   7.502   1.642  10.616
23552SOL    HW272098   7.623   1.563  10.662
23553SOL     OW72099   7.805   1.120   9.813
23553SOL    HW172100   7.782   1.202   9.769
23553SOL    HW272101   7.860   1.073   9.751
23554SOL     OW72102  -0.008   0.573  10.169
23554SOL    HW172103   0.037   0.510  10.112
23554SOL    HW272104   0.032   0.560  10.255
23555SOL     OW72105   7.799   1.525  10.625
23555SOL    HW172106   7.793   1.488  10.536
23555SOL    HW272107   7.891   1.548  10.635
23556SOL     OW72108   7.857   0.723  10.932
23556SOL    HW172109   7.877   0.759  10.846
23556SOL    HW272110   7.938   0.678  10.959
23557SOL     OW72111   7.926   0.071  10.989
23557SOL    HW172112   7.906  -0.011  10.943
23557SOL    HW272113   7.841   0.101  11.021
23558SOL     OW72114   7.904   0.885  10.313
23558SOL    HW172115   7.957   0.965  10.309
23558SOL    HW272116   7.901   0.863  10.406
23559SOL     OW72117   7.756   0.137  10.571
23559SOL    HW172118   7.845   0.157  10.599
23559SOL    HW272119   7.766   0.083  10.493
23560SOL     OW72120   7.455   1.315  10.599
23560SOL    HW172121   7.500   1.260  10.663
23560SOL    HW272122   7.483   1.404  10.621
23561SOL     OW72123   7.808   0.087  10.018
23561SOL    HW172124   7.738   0.110   9.957
23561SOL    HW272125   7.796  -0.006  10.035
23562SOL     OW72126   7.761   0.925  11.101
23562SOL    HW172127   7.781   0.913  11.194
23562SOL    HW272128   7.807   0.853  11.058
23563SOL     OW72129   7.758   0.546  10.306
23563SOL    HW172130   7.729   0.455  10.301
23563SOL    HW272131   7.842   0.547  10.259
23564SOL     OW72132   7.455   1.317   9.518
23564SOL    HW172133   7.369   1.331   9.479
23564SOL    HW272134   7.454   1.225   9.546
23565SOL     OW72135   7.545   1.780  10.261
23565SOL    HW172136   7.510   1.706  10.212
23565SOL    HW272137   7.633   1.793  10.224
23566SOL     OW72138   7.488   0.552  10.430
23566SOL    HW172139   7.550   0.550  10.357
23566SOL    HW272140   7.521   0.486  10.492
23567SOL     OW72141   7.633   0.545  11.046
23567SOL    HW172142   7.725   0.569  11.040
23567SOL    HW272143   7.586   0.615  11.001
23568SOL     OW72144   0.255   0.483   9.648
23568SOL    HW172145   0.200   0.405   9.638
23568SOL    HW272146   0.199   0.546   9.694
23569SOL     OW72147   7.692   1.556  11.029
23569SOL    HW172148   7.677   1.631  11.086
23569SOL    HW272149   7.708   1.483  11.088
23570SOL     OW72150   7.912   0.506   9.465
23570SOL    HW172151   7.961   0.582   9.498
23570SOL    HW272152   7.821   0.535   9.465
23571SOL     OW72153   7.572   1.147  10.783
23571SOL    HW172154   7.576   1.108  10.870
23571SOL    HW272155   7.598   1.077  10.723
23572SOL     OW72156   7.518   1.275  10.331
23572SOL    HW172157   7.488   1.285  10.421
23572SOL    HW272158   7.454   1.216  10.291
23573SOL     OW72159   7.604   1.785  11.158
23573SOL    HW172160   7.549   1.725  11.208
23573SOL    HW272161   7.647   1.839  11.225
23574SOL     OW72162   7.738   0.363  10.029
23574SOL    HW172163   7.651   0.380   9.991
23574SOL    HW272164   7.732   0.273  10.061
23575SOL     OW72165   7.803   1.300  10.811
23575SOL    HW172166   7.801   1.378  10.755
23575SOL    HW272167   7.723   1.252  10.788
23576SOL     OW72168  -0.003   1.551   9.745
23576SOL    HW172169   0.046   1.470   9.763
23576SOL    HW272170   0.060   1.621   9.759
23577SOL     OW72171   7.717   1.347   9.592
23577SOL    HW172172   7.623   1.347   9.573
23577SOL    HW272173   7.725   1.396   9.674
23578SOL     OW72174   7.540   1.075  11.058
23578SOL    HW172175   7.466   1.028  11.097
23578SOL    HW272176   7.615   1.017  11.074
23579SOL     OW72177   7.509   0.343   9.344
23579SOL    HW172178   7.435   0.319   9.288
23579SOL    HW272179   7.557   0.410   9.294
23580SOL     OW72180   7.518   0.203   9.587
23580SOL    HW172181   7.513   0.261   9.511
23580SOL    HW272182   7.601   0.157   9.577
23581SOL     OW72183   7.815   1.757  10.865
23581SOL    HW172184   7.727   1.792  10.855
23581SOL    HW272185   7.803   1.670  10.904
23582SOL     OW72186   7.667   1.305  11.170
23582SOL    HW172187   7.662   1.209  11.165
23582SOL    HW272188   7.680   1.324  11.263
23583SOL     OW72189   7.527   1.221   9.981
23583SOL    HW172190   7.581   1.173  10.044
23583SOL    HW272191   7.590   1.258   9.919
23584SOL     OW72192   0.107   1.344  10.876
23584SOL    HW172193   0.043   1.323  10.944
23584SOL    HW272194   0.158   1.416  10.912
23585SOL     OW72195   7.777   0.554  10.578
23585SOL    HW172196   7.837   0.482  10.599
23585SOL    HW272197   7.772   0.554  10.483
23586SOL     OW72198   7.467   1.050   9.609
23586SOL    HW172199   7.559   1.041   9.582
23586SOL    HW272200   7.444   0.965   9.647
23587SOL     OW72201   7.639   0.670  11.308
23587SOL    HW172202   7.555   0.649  11.350
23587SOL    HW272203   7.638   0.619  11.227
23588SOL     OW72204   7.673   0.283  12.151
23588SOL    HW172205   7.706   0.246  12.232
23588SOL    HW272206   7.583   0.251  12.144
23589SOL     OW72207   7.458   0.393  11.806
23589SOL    HW172208   7.370   0.408  11.841
23589SOL    HW272209   7.463   0.298  11.793
23590SOL     OW72210   7.776   1.455  12.145
23590SOL    HW172211   7.695   1.407  12.161
23590SOL    HW272212   7.824   1.450  12.228
23591SOL     OW72213   7.705   1.703  11.646
23591SOL    HW172214   7.711   1.781  11.701
23591SOL    HW272215   7.632   1.722  11.586
23592SOL     OW72216   7.703   1.436  11.696
23592SOL    HW172217   7.703   1.532  11.691
23592SOL    HW272218   7.668   1.417  11.783
23593SOL     OW72219   7.654   1.076  12.057
23593SOL    HW172220   7.680   0.999  12.108
23593SOL    HW272221   7.627   1.140  12.123
23594SOL     OW72222   7.562   0.649  11.731
23594SOL    HW172223   7.530   0.562  11.756
23594SOL    HW272224   7.555   0.700  11.812
23595SOL     OW72225   7.484   1.580  11.295
23595SOL    HW172226   7.470   1.492  11.329
23595SOL    HW272227   7.469   1.637  11.371
23596SOL     OW72228   7.586   0.683   0.254
23596SOL    HW172229   7.633   0.661   0.334
23596SOL    HW272230   7.583   0.779   0.253
23597SOL     OW72231   7.617   0.969  12.362
23597SOL    HW172232   7.706   0.985  12.395
23597SOL    HW272233   7.569   0.935  12.437
23598SOL     OW72234   7.986   0.768  11.430
23598SOL    HW172235   8.072   0.775  11.470
23598SOL    HW272236   7.928   0.740  11.502
23599SOL     OW72237   7.536   0.842  11.932
23599SOL    HW172238   7.612   0.807  11.979
23599SOL    HW272239   7.528   0.932  11.963
23600SOL     OW72240  -0.017   0.237  12.035
23600SOL    HW172241   0.062   0.234  12.089
23600SOL    HW272242  -0.042   0.329  12.034
23601SOL     OW72243   7.818   1.824  12.035
23601SOL    HW172244   7.872   1.751  12.065
23601SOL    HW272245   7.872   1.902  12.048
23602SOL     OW72246   7.761   0.950  11.404
23602SOL    HW172247   7.857   0.948  11.413
23602SOL    HW272248   7.736   0.857  11.406
23603SOL     OW72249   7.674   1.757  12.443
23603SOL    HW172250   7.701   1.665  12.447
23603SOL    HW272251   7.673   1.778  12.350
23604SOL     OW72252   7.818   0.689  11.625
23604SOL    HW172253   7.873   0.642  11.688
23604SOL    HW272254   7.729   0.675  11.656
23605SOL     OW72255   0.033   0.083  11.291
23605SOL    HW172256   0.118   0.042  11.308
23605SOL    HW272257   0.035   0.105  11.198
23606SOL     OW72258   7.767   0.053  11.361
23606SOL    HW172259   7.857   0.075  11.336
23606SOL    HW272260   7.776  -0.020  11.422
23607SOL     OW72261   7.886   1.145  11.917
23607SOL    HW172262   7.821   1.120  11.983
23607SOL    HW272263   7.844   1.128  11.833
23608SOL     OW72264   7.904   0.806  12.450
23608SOL    HW172265   7.955   0.885  12.470
23608SOL    HW272266   7.883   0.770  12.536
23609SOL     OW72267   7.760   1.110  11.671
23609SOL    HW172268   7.777   1.176  11.603
23609SOL    HW272269   7.765   1.026  11.624
23610SOL     OW72270  -0.010   0.534  12.049
23610SOL    HW172271   0.025   0.612  12.006
23610SOL    HW272272   0.028   0.536  12.137
23611SOL     OW72273   7.802   1.514  12.447
23611SOL    HW172274   7.821   1.420  12.443
23611SOL    HW272275   7.874   1.551  12.498
23612SOL     OW72276   7.880   0.756   0.222
23612SOL    HW172277   7.974   0.766   0.235
23612SOL    HW272278   7.852   0.699   0.294
23613SOL     OW72279  -0.010   0.879  12.198
23613SOL    HW172280   0.070   0.919  12.231
23613SOL    HW272281  -0.058   0.851  12.277
23614SOL     OW72282   7.731   0.207  12.411
23614SOL    HW172283   7.737   0.287  12.464
23614SOL    HW272284   7.771   0.139  12.465
23615SOL     OW72285   7.540   1.342  12.441
23615SOL    HW172286   7.605   1.292  12.490
23615SOL    HW272287   7.528   1.422  12.491
23616SOL     OW72288   7.776   0.063  11.831
23616SOL    HW172289   7.792   0.156  11.848
23616SOL    HW272290   7.791   0.021  11.915
23617SOL     OW72291   7.754   0.801  12.085
23617SOL    HW172292   7.838   0.834  12.117
23617SOL    HW272293   7.743   0.717  12.129
23618SOL     OW72294   7.741   0.542  12.170
23618SOL    HW172295   7.714   0.450  12.169
23618SOL    HW272296   7.829   0.542  12.131
23619SOL     OW72297   7.443   1.304  11.360
23619SOL    HW172298   7.350   1.318  11.343
23619SOL    HW272299   7.448   1.218  11.401
23620SOL     OW72300   7.557   1.778  12.115
23620SOL    HW172301   7.542   1.692  12.075
23620SOL    HW272302   7.646   1.801  12.090
23621SOL     OW72303   7.487   0.534  12.309
23621SOL    HW172304   7.559   0.550  12.248
23621SOL    HW272305   7.528   0.523  12.394
23622SOL     OW72306   0.197   0.528  11.463
23622SOL    HW172307   0.173   0.436  11.470
23622SOL    HW272308   0.183   0.563  11.552
23623SOL     OW72309   7.901   0.527  11.312
23623SOL    HW172310   7.951   0.602  11.344
23623SOL    HW272311   7.816   0.533  11.357
23624SOL     OW72312   7.506   1.271  12.183
23624SOL    HW172313   7.523   1.308  12.270
23624SOL    HW272314   7.448   1.197  12.199
23625SOL     OW72315   7.734   0.337  11.885
23625SOL    HW172316   7.648   0.366  11.856
23625SOL    HW272317   7.722   0.317  11.978
23626SOL     OW72318   7.705   1.339  11.448
23626SOL    HW172319   7.611   1.333  11.436
23626SOL    HW272320   7.716   1.378  11.535
23627SOL     OW72321   7.513   0.349  11.222
23627SOL    HW172322   7.418   0.336  11.214
23627SOL    HW272323   7.531   0.426  11.168
23628SOL     OW72324   7.507   0.158  11.422
23628SOL    HW172325   7.517   0.238  11.371
23628SOL    HW272326   7.596   0.124  11.433
23629SOL     OW72327   7.787   1.742   0.246
23629SOL    HW172328   7.746   1.760   0.161
23629SOL    HW272329   7.826   1.655   0.235
23630SOL     OW72330   7.538   1.228  11.847
23630SOL    HW172331   7.569   1.180  11.925
23630SOL    HW272332   7.598   1.202  11.778
23631SOL     OW72333   7.498   1.057  11.468
23631SOL    HW172334   7.590   1.041  11.445
23631SOL    HW272335   7.466   0.971  11.496
23632SOL     OW72336   7.686   2.473  -0.013
23632SOL    HW172337   7.653   2.497   0.074
23632SOL    HW272338   7.700   2.379  -0.009
23633SOL     OW72339   7.661   2.133   1.009
23633SOL    HW172340   7.697   2.103   1.093
23633SOL    HW272341   7.573   2.095   1.005
23634SOL     OW72342   7.433   2.221   0.679
23634SOL    HW172343   7.352   2.255   0.715
23634SOL    HW272344   7.406   2.150   0.621
23635SOL     OW72345   7.784   3.314   1.036
23635SOL    HW172346   7.713   3.252   1.018
23635SOL    HW272347   7.864   3.264   1.018
23636SOL     OW72348   7.903   2.229   1.551
23636SOL    HW172349   7.925   2.176   1.628
23636SOL    HW272350   7.819   2.195   1.521
23637SOL     OW72351   7.646   3.585   0.487
23637SOL    HW172352   7.680   3.656   0.540
23637SOL    HW272353   7.705   3.581   0.412
23638SOL     OW72354   7.655   3.299   0.516
23638SOL    HW172355   7.638   3.391   0.534
23638SOL    HW272356   7.609   3.252   0.586
23639SOL     OW72357   7.697   2.958   0.883
23639SOL    HW172358   7.692   2.870   0.920
23639SOL    HW272359   7.647   3.013   0.944
23640SOL     OW72360   7.583   2.473   0.603
23640SOL    HW172361   7.506   2.418   0.611
23640SOL    HW272362   7.567   2.546   0.664
23641SOL     OW72363   7.485   3.494   0.089
23641SOL    HW172364   7.495   3.408   0.048
23641SOL    HW272365   7.448   3.475   0.175
23642SOL     OW72366   7.575   2.644   1.639
23642SOL    HW172367   7.656   2.635   1.589
23642SOL    HW272368   7.507   2.650   1.573
23643SOL     OW72369   7.638   2.812   1.302
23643SOL    HW172370   7.723   2.774   1.282
23643SOL    HW272371   7.577   2.767   1.243
23644SOL     OW72372   7.760   2.136   1.816
23644SOL    HW172373   7.803   2.207   1.865
23644SOL    HW272374   7.675   2.126   1.857
23645SOL     OW72375   7.537   2.676   0.775
23645SOL    HW172376   7.615   2.679   0.831
23645SOL    HW272377   7.481   2.747   0.806
23646SOL     OW72378   7.560   3.723   1.572
23646SOL    HW172379   7.560   3.707   1.667
23646SOL    HW272380   7.497   3.660   1.537
23647SOL     OW72381   7.917   2.152   0.857
23647SOL    HW172382   7.923   2.081   0.922
23647SOL    HW272383   7.975   2.220   0.890
23648SOL     OW72384   7.817   3.649   0.860
23648SOL    HW172385   7.817   3.556   0.882
23648SOL    HW272386   7.900   3.682   0.895
23649SOL     OW72387   7.736   2.860   0.244
23649SOL    HW172388   7.771   2.925   0.184
23649SOL    HW272389   7.790   2.782   0.229
23650SOL     OW72390   7.952   3.112   1.754
23650SOL    HW172391   7.908   3.120   1.669
23650SOL    HW272392   7.882   3.119   1.818
23651SOL     OW72393   7.661   2.120   1.486
23651SOL    HW172394   7.597   2.190   1.471
23651SOL    HW272395   7.610   2.050   1.527
23652SOL     OW72396   7.723   3.665   1.211
23652SOL    HW172397   7.753   3.582   1.249
23652SOL    HW272398   7.662   3.638   1.143
23653SOL     OW72399   7.808   2.517   0.451
23653SOL    HW172400   7.872   2.460   0.493
23653SOL    HW272401   7.729   2.509   0.505
23654SOL     OW72402   0.073   1.944   0.032
23654SOL    HW172403   0.151   1.931   0.087
23654SOL    HW272404   0.001   1.907   0.084
23655SOL     OW72405   7.961   1.990   0.536
23655SOL    HW172406   7.989   1.899   0.547
23655SOL    HW272407   8.016   2.024   0.466
23656SOL     OW72408   7.926   2.915   0.727
23656SOL    HW172409   7.856   2.938   0.789
23656SOL    HW272410   7.890   2.936   0.641
23657SOL     OW72411   7.995   2.035   1.110
23657SOL    HW172412   8.034   1.956   1.148
23657SOL    HW272413   7.918   2.052   1.164
23658SOL     OW72414   7.881   2.689   1.254
23658SOL    HW172415   7.957   2.696   1.311
23658SOL    HW272416   7.855   2.597   1.260
23659SOL     OW72417   7.516   3.417   1.354
23659SOL    HW172418   7.467   3.427   1.273
23659SOL    HW272419   7.608   3.422   1.327
23660SOL     OW72420   7.821   2.982   0.479
23660SOL    HW172421   7.791   3.069   0.453
23660SOL    HW272422   7.786   2.923   0.413
23661SOL     OW72423  -0.000   2.423   0.861
23661SOL    HW172424   0.029   2.506   0.824
23661SOL    HW272425   0.030   2.424   0.952
23662SOL     OW72426   7.791   3.413   1.287
23662SOL    HW172427   7.791   3.373   1.200
23662SOL    HW272428   7.858   3.366   1.335
23663SOL     OW72429   7.853   2.591   1.595
23663SOL    HW172430   7.942   2.618   1.573
23663SOL    HW272431   7.857   2.495   1.599
23664SOL     OW72432   7.933   1.950   1.735
23664SOL    HW172433   7.892   1.883   1.681
23664SOL    HW272434   7.861   2.010   1.758
23665SOL     OW72435   8.004   2.807   1.038
23665SOL    HW172436   7.989   2.902   1.030
23665SOL    HW272437   7.951   2.780   1.112
23666SOL     OW72438   7.759   2.053   1.245
23666SOL    HW172439   7.727   2.081   1.331
23666SOL    HW272440   7.743   1.958   1.244
23667SOL     OW72441   7.473   3.144   1.299
23667SOL    HW172442   7.517   3.099   1.371
23667SOL    HW272443   7.477   3.237   1.323
23668SOL     OW72444   7.723   1.979   0.678
23668SOL    HW172445   7.803   1.989   0.626
23668SOL    HW272446   7.744   1.909   0.740
23669SOL     OW72447   7.811   2.774   1.822
23669SOL    HW172448   7.889   2.736   1.862
23669SOL    HW272449   7.792   2.718   1.747
23670SOL     OW72450   7.753   2.680   0.945
23670SOL    HW172451   7.845   2.705   0.954
23670SOL    HW272452   7.751   2.586   0.965
23671SOL     OW72453   7.740   2.387   0.941
23671SOL    HW172454   7.738   2.306   0.993
23671SOL    HW272455   7.832   2.397   0.917
23672SOL     OW72456   7.548   3.652   0.939
23672SOL    HW172457   7.508   3.576   0.896
23672SOL    HW272458   7.637   3.656   0.904
23673SOL     OW72459   7.476   2.425   1.119
23673SOL    HW172460   7.562   2.430   1.078
23673SOL    HW272461   7.494   2.412   1.212
23674SOL     OW72462   7.615   2.397   1.748
23674SOL    HW172463   7.638   2.343   1.673
23674SOL    HW272464   7.589   2.481   1.711
23675SOL     OW72465   7.683   3.412   1.738
23675SOL    HW172466   7.643   3.439   1.821
23675SOL    HW272467   7.708   3.321   1.752
23676SOL     OW72468   7.930   2.302   0.197
23676SOL    HW172469   7.907   2.393   0.216
23676SOL    HW272470   7.852   2.266   0.156
23677SOL     OW72471   7.605   3.001   1.492
23677SOL    HW172472   7.597   2.956   1.576
23677SOL    HW272473   7.615   2.931   1.428
23678SOL     OW72474   7.549   3.136   1.035
23678SOL    HW172475   7.529   3.128   1.128
23678SOL    HW272476   7.474   3.183   0.998
23679SOL     OW72477   7.571   3.708   1.849
23679SOL    HW172478   7.537   3.622   1.876
23679SOL    HW272479   7.637   3.730   1.915
23680SOL     OW72480   7.823   3.169   1.525
23680SOL    HW172481   7.870   3.173   1.442
23680SOL    HW272482   7.743   3.119   1.505
23681SOL     OW72483   0.005   3.397   0.415
23681SOL    HW172484  -0.031   3.321   0.460
23681SOL    HW272485   0.075   3.428   0.473
23682SOL     OW72486   7.734   3.194   0.279
23682SOL    HW172487   7.661   3.195   0.217
23682SOL    HW272488   7.698   3.235   0.358
23683SOL     OW72489   7.563   2.925   1.756
23683SOL    HW172490   7.480   2.893   1.791
23683SOL    HW272491   7.626   2.857   1.779
23684SOL     OW72492   7.518   2.010   0.305
23684SOL    HW172493   7.495   2.081   0.246
23684SOL    HW272494   7.613   2.000   0.294
23685SOL     OW72495   7.828   3.610   1.582
23685SOL    HW172496   7.749   3.636   1.535
23685SOL    HW272497   7.803   3.528   1.626
23686SOL     OW72498   7.682   3.153   1.847
23686SOL    HW172499   7.648   3.076   1.803
23686SOL    HW272500   7.621   3.168   1.920
23687SOL     OW72501   7.534   3.093   0.674
23687SOL    HW172502   7.569   3.052   0.753
23687SOL    HW272503   7.560   3.033   0.603
23688SOL     OW72504   0.102   3.338   1.634
23688SOL    HW172505   0.042   3.265   1.652
23688SOL    HW272506   0.067   3.378   1.554
23689SOL     OW72507   7.805   2.426   1.279
23689SOL    HW172508   7.743   2.416   1.351
23689SOL    HW272509   7.817   2.337   1.245
23690SOL     OW72510   7.498   2.940   0.374
23690SOL    HW172511   7.573   2.929   0.316
23690SOL    HW272512   7.474   2.851   0.400
23691SOL     OW72513   7.659   2.492   2.001
23691SOL    HW172514   7.569   2.489   2.034
23691SOL    HW272515   7.651   2.473   1.908
23692SOL     OW72516   7.680   2.145   2.840
23692SOL    HW172517   7.702   2.115   2.928
23692SOL    HW272518   7.590   2.116   2.827
23693SOL     OW72519   7.454   2.233   2.518
23693SOL    HW172520   7.449   2.174   2.593
23693SOL    HW272521   7.417   2.184   2.445
23694SOL     OW72522   7.746   3.301   2.922
23694SOL    HW172523   7.671   3.249   2.892
23694SOL    HW272524   7.811   3.292   2.852
23695SOL     OW72525   7.894   2.214   3.362
23695SOL    HW172526   7.913   2.134   3.410
23695SOL    HW272527   7.799   2.219   3.360
23696SOL     OW72528   7.679   3.587   2.323
23696SOL    HW172529   7.696   3.663   2.379
23696SOL    HW272530   7.764   3.542   2.317
23697SOL     OW72531   7.664   3.308   2.402
23697SOL    HW172532   7.629   3.397   2.411
23697SOL    HW272533   7.612   3.256   2.463
23698SOL     OW72534   7.691   2.942   2.756
23698SOL    HW172535   7.698   2.852   2.786
23698SOL    HW272536   7.642   2.987   2.826
23699SOL     OW72537   7.560   2.509   2.429
23699SOL    HW172538   7.527   2.423   2.457
23699SOL    HW272539   7.549   2.565   2.507
23700SOL     OW72540   7.517   3.459   1.965
23700SOL    HW172541   7.493   3.367   1.980
23700SOL    HW272542   7.485   3.505   2.042
23701SOL     OW72543   7.554   2.672   3.423
23701SOL    HW172544   7.646   2.648   3.433
23701SOL    HW272545   7.516   2.660   3.510
23702SOL     OW72546   7.642   2.810   3.125
23702SOL    HW172547   7.731   2.775   3.131
23702SOL    HW272548   7.594   2.743   3.076
23703SOL     OW72549   7.755   2.186   3.676
23703SOL    HW172550   7.822   2.126   3.709
23703SOL    HW272551   7.675   2.160   3.722
23704SOL     OW72552   7.982   2.606   2.110
23704SOL    HW172553   8.043   2.676   2.129
23704SOL    HW272554   7.929   2.598   2.190
23705SOL     OW72555   7.519   2.691   2.635
23705SOL    HW172556   7.595   2.673   2.690
23705SOL    HW272557   7.480   2.770   2.673
23706SOL     OW72558   7.541   3.652   3.425
23706SOL    HW172559   7.559   3.655   3.519
23706SOL    HW272560   7.486   3.729   3.408
23707SOL     OW72561   0.051   2.114   2.765
23707SOL    HW172562  -0.025   2.064   2.796
23707SOL    HW272563   0.014   2.196   2.732
23708SOL     OW72564   7.822   3.694   2.729
23708SOL    HW172565   7.889   3.626   2.738
23708SOL    HW272566   7.870   3.776   2.738
23709SOL     OW72567   7.740   2.823   2.117
23709SOL    HW172568   7.789   2.845   2.038
23709SOL    HW272569   7.731   2.728   2.114
23710SOL     OW72570   7.919   3.113   3.641
23710SOL    HW172571   7.905   3.114   3.546
23710SOL    HW272572   7.831   3.122   3.678
23711SOL     OW72573   7.618   2.170   3.366
23711SOL    HW172574   7.564   2.156   3.289
23711SOL    HW272575   7.617   2.086   3.412
23712SOL     OW72576   7.679   3.628   3.103
23712SOL    HW172577   7.752   3.574   3.134
23712SOL    HW272578   7.683   3.623   3.008
23713SOL     OW72579   7.822   2.560   2.329
23713SOL    HW172580   7.866   2.481   2.361
23713SOL    HW272581   7.731   2.549   2.356
23714SOL     OW72582   0.007   1.949   2.003
23714SOL    HW172583   0.102   1.934   2.005
23714SOL    HW272584  -0.013   1.955   1.909
23715SOL     OW72585   8.009   1.983   2.414
23715SOL    HW172586   7.935   1.954   2.467
23715SOL    HW272587   8.001   1.934   2.332
23716SOL     OW72588   7.737   1.899   2.064
23716SOL    HW172589   7.829   1.918   2.045
23716SOL    HW272590   7.739   1.839   2.138
23717SOL     OW72591   7.908   2.994   2.601
23717SOL    HW172592   7.835   2.972   2.660
23717SOL    HW272593   7.871   2.984   2.513
23718SOL     OW72594   7.516   2.464   3.244
23718SOL    HW172595   7.601   2.422   3.237
23718SOL    HW272596   7.529   2.536   3.306
23719SOL     OW72597   8.020   2.011   3.055
23719SOL    HW172598   8.000   1.926   3.095
23719SOL    HW272599   7.941   2.063   3.069
23720SOL     OW72600   7.880   2.666   3.133
23720SOL    HW172601   7.957   2.659   3.189
23720SOL    HW272602   7.840   2.580   3.137
23721SOL     OW72603   7.785   2.978   2.351
23721SOL    HW172604   7.779   3.054   2.293
23721SOL    HW272605   7.775   2.903   2.293
23722SOL     OW72606  -0.002   2.411   2.723
23722SOL    HW172607   0.026   2.492   2.681
23722SOL    HW272608   0.027   2.419   2.814
23723SOL     OW72609   7.782   3.381   3.178
23723SOL    HW172610   7.782   3.348   3.089
23723SOL    HW272611   7.873   3.406   3.195
23724SOL     OW72612   7.829   2.602   3.480
23724SOL    HW172613   7.917   2.579   3.450
23724SOL    HW272614   7.790   2.518   3.506
23725SOL     OW72615   7.940   1.974   3.481
23725SOL    HW172616   7.883   1.898   3.471
23725SOL    HW272617   7.950   1.985   3.576
23726SOL     OW72618   7.972   2.780   2.901
23726SOL    HW172619   8.032   2.850   2.928
23726SOL    HW272620   7.940   2.742   2.982
23727SOL     OW72621   7.759   2.072   3.095
23727SOL    HW172622   7.669   2.097   3.113
23727SOL    HW272623   7.759   1.976   3.104
23728SOL     OW72624   7.536   3.226   3.167
23728SOL    HW172625   7.514   3.149   3.219
23728SOL    HW272626   7.628   3.213   3.143
23729SOL     OW72627   7.772   1.936   2.541
23729SOL    HW172628   7.729   2.020   2.527
23729SOL    HW272629   7.738   1.879   2.472
23730SOL     OW72630   7.810   2.781   3.687
23730SOL    HW172631   7.896   2.760   3.724
23730SOL    HW272632   7.804   2.725   3.609
23731SOL     OW72633   7.732   2.670   2.814
23731SOL    HW172634   7.823   2.697   2.828
23731SOL    HW272635   7.730   2.578   2.841
23732SOL     OW72636   7.768   2.399   2.872
23732SOL    HW172637   7.731   2.311   2.861
23732SOL    HW272638   7.843   2.400   2.812
23733SOL     OW72639   7.475   3.179   2.043
23733SOL    HW172640   7.387   3.200   2.014
23733SOL    HW272641   7.467   3.092   2.083
23734SOL     OW72642   7.554   3.644   2.804
23734SOL    HW172643   7.522   3.565   2.761
23734SOL    HW272644   7.642   3.658   2.768
23735SOL     OW72645   7.472   2.446   2.972
23735SOL    HW172646   7.504   2.363   2.936
23735SOL    HW272647   7.495   2.442   3.064
23736SOL     OW72648   7.649   2.405   3.565
23736SOL    HW172649   7.698   2.330   3.600
23736SOL    HW272650   7.579   2.366   3.513
23737SOL     OW72651   0.212   2.388   2.151
23737SOL    HW172652   0.184   2.297   2.158
23737SOL    HW272653   0.185   2.428   2.234
23738SOL     OW72654   7.688   3.395   3.585
23738SOL    HW172655   7.677   3.460   3.655
23738SOL    HW272656   7.693   3.312   3.631
23739SOL     OW72657   7.901   2.358   2.007
23739SOL    HW172658   7.958   2.426   2.043
23739SOL    HW272659   7.813   2.395   2.013
23740SOL     OW72660   7.591   2.987   3.328
23740SOL    HW172661   7.599   2.936   3.409
23740SOL    HW272662   7.608   2.924   3.259
23741SOL     OW72663   7.521   3.139   2.877
23741SOL    HW172664   7.476   3.162   2.958
23741SOL    HW272665   7.462   3.078   2.833
23742SOL     OW72666   7.591   3.661   3.691
23742SOL    HW172667   7.542   3.594   3.739
23742SOL    HW272668   7.639   3.709   3.759
23743SOL     OW72669   7.729   2.216   2.580
23743SOL    HW172670   7.640   2.238   2.551
23743SOL    HW272671   7.718   2.188   2.671
23744SOL     OW72672   7.817   3.148   3.390
23744SOL    HW172673   7.826   3.214   3.322
23744SOL    HW272674   7.742   3.095   3.363
23745SOL     OW72675  -0.018   3.440   2.277
23745SOL    HW172676  -0.006   3.359   2.326
23745SOL    HW272677   0.054   3.496   2.307
23746SOL     OW72678   7.728   3.191   2.170
23746SOL    HW172679   7.644   3.193   2.125
23746SOL    HW272680   7.715   3.243   2.249
23747SOL     OW72681   7.565   2.916   3.608
23747SOL    HW172682   7.485   2.884   3.648
23747SOL    HW272683   7.634   2.860   3.644
23748SOL     OW72684   7.501   2.198   1.910
23748SOL    HW172685   7.427   2.177   1.852
23748SOL    HW272686   7.542   2.274   1.870
23749SOL     OW72687   7.503   2.025   2.150
23749SOL    HW172688   7.493   2.093   2.083
23749SOL    HW272689   7.591   1.990   2.136
23750SOL     OW72690   7.822   3.610   3.423
23750SOL    HW172691   7.728   3.623   3.412
23750SOL    HW272692   7.830   3.520   3.455
23751SOL     OW72693   7.656   3.151   3.717
23751SOL    HW172694   7.621   3.075   3.671
23751SOL    HW272695   7.595   3.166   3.789
23752SOL     OW72696   7.547   3.085   2.532
23752SOL    HW172697   7.571   3.040   2.612
23752SOL    HW272698   7.601   3.044   2.464
23753SOL     OW72699   0.086   3.322   3.414
23753SOL    HW172700   0.050   3.246   3.460
23753SOL    HW272701   0.166   3.342   3.462
23754SOL     OW72702   7.784   2.412   3.157
23754SOL    HW172703   7.833   2.341   3.199
23754SOL    HW272704   7.783   2.388   3.064
23755SOL     OW72705   7.487   2.929   2.177
23755SOL    HW172706   7.578   2.917   2.149
23755SOL    HW272707   7.456   2.840   2.197
23756SOL     OW72708   7.642   2.516   3.838
23756SOL    HW172709   7.561   2.494   3.882
23756SOL    HW272710   7.631   2.482   3.749
23757SOL     OW72711   7.680   2.137   4.704
23757SOL    HW172712   7.704   2.109   4.792
23757SOL    HW272713   7.591   2.104   4.692
23758SOL     OW72714   7.456   2.263   4.374
23758SOL    HW172715   7.373   2.291   4.414
23758SOL    HW272716   7.437   2.178   4.336
23759SOL     OW72717   7.772   3.279   4.785
23759SOL    HW172718   7.694   3.225   4.779
23759SOL    HW272719   7.791   3.306   4.695
23760SOL     OW72720   7.968   2.196   5.301
23760SOL    HW172721   7.952   2.108   5.337
23760SOL    HW272722   7.886   2.219   5.258
23761SOL     OW72723   7.665   3.578   4.196
23761SOL    HW172724   7.687   3.655   4.248
23761SOL    HW272725   7.744   3.561   4.145
23762SOL     OW72726   7.627   3.314   4.262
23762SOL    HW172727   7.639   3.408   4.248
23762SOL    HW272728   7.607   3.306   4.355
23763SOL     OW72729   7.714   2.943   4.637
23763SOL    HW172730   7.701   2.855   4.674
23763SOL    HW272731   7.652   2.998   4.685
23764SOL     OW72732   7.568   2.508   4.285
23764SOL    HW172733   7.526   2.424   4.306
23764SOL    HW272734   7.558   2.561   4.364
23765SOL     OW72735   7.477   3.458   3.826
23765SOL    HW172736   7.417   3.383   3.826
23765SOL    HW272737   7.462   3.500   3.911
23766SOL     OW72738   7.554   2.618   5.314
23766SOL    HW172739   7.642   2.655   5.318
23766SOL    HW272740   7.496   2.694   5.303
23767SOL     OW72741   7.639   2.804   5.006
23767SOL    HW172742   7.722   2.762   4.984
23767SOL    HW272743   7.572   2.748   4.967
23768SOL     OW72744   7.768   2.148   5.575
23768SOL    HW172745   7.774   2.213   5.505
23768SOL    HW272746   7.677   2.153   5.604
23769SOL     OW72747   7.551   2.689   4.485
23769SOL    HW172748   7.613   2.677   4.557
23769SOL    HW272749   7.483   2.745   4.522
23770SOL     OW72750   7.565   3.696   5.294
23770SOL    HW172751   7.572   3.683   5.389
23770SOL    HW272752   7.473   3.718   5.279
23771SOL     OW72753   7.974   2.055   4.627
23771SOL    HW172754   7.941   2.082   4.713
23771SOL    HW272755   7.937   2.117   4.566
23772SOL     OW72756   7.806   3.684   4.589
23772SOL    HW172757   7.886   3.631   4.600
23772SOL    HW272758   7.832   3.772   4.615
23773SOL     OW72759   7.742   2.794   3.960
23773SOL    HW172760   7.765   2.802   3.867
23773SOL    HW272761   7.718   2.702   3.971
23774SOL     OW72762   7.943   3.125   5.478
23774SOL    HW172763   7.910   3.103   5.391
23774SOL    HW272764   7.864   3.134   5.532
23775SOL     OW72765   7.728   3.668   4.932
23775SOL    HW172766   7.748   3.584   4.973
23775SOL    HW272767   7.654   3.649   4.874
23776SOL     OW72768   7.834   2.532   4.210
23776SOL    HW172769   7.843   2.448   4.255
23776SOL    HW272770   7.741   2.553   4.218
23777SOL     OW72771   8.003   1.985   4.277
23777SOL    HW172772   7.918   1.941   4.280
23777SOL    HW272773   8.028   1.983   4.184
23778SOL     OW72774   7.736   1.907   3.908
23778SOL    HW172775   7.819   1.941   3.873
23778SOL    HW272776   7.761   1.826   3.953
23779SOL     OW72777   7.902   3.005   4.464
23779SOL    HW172778   7.841   2.978   4.533
23779SOL    HW272779   7.859   2.981   4.383
23780SOL     OW72780   7.501   2.452   5.100
23780SOL    HW172781   7.561   2.382   5.126
23780SOL    HW272782   7.507   2.516   5.170
23781SOL     OW72783   8.024   2.021   4.917
23781SOL    HW172784   8.002   1.929   4.900
23781SOL    HW272785   7.942   2.061   4.945
23782SOL     OW72786   7.894   2.678   4.991
23782SOL    HW172787   7.904   2.692   5.086
23782SOL    HW272788   7.866   2.587   4.984
23783SOL     OW72789   7.516   3.439   5.084
23783SOL    HW172790   7.486   3.528   5.069
23783SOL    HW272791   7.611   3.443   5.073
23784SOL     OW72792   7.784   2.989   4.181
23784SOL    HW172793   7.870   3.022   4.156
23784SOL    HW272794   7.775   2.907   4.133
23785SOL     OW72795  -0.016   2.425   4.585
23785SOL    HW172796   0.023   2.506   4.552
23785SOL    HW272797   0.021   2.416   4.673
23786SOL     OW72798   7.785   3.414   5.021
23786SOL    HW172799   7.780   3.360   4.942
23786SOL    HW272800   7.879   3.426   5.036
23787SOL     OW72801   7.849   2.593   5.331
23787SOL    HW172802   7.943   2.585   5.318
23787SOL    HW272803   7.815   2.504   5.318
23788SOL     OW72804   7.914   1.942   5.464
23788SOL    HW172805   7.879   1.874   5.407
23788SOL    HW272806   7.838   1.996   5.487
23789SOL     OW72807   7.984   2.766   4.748
23789SOL    HW172808   8.065   2.809   4.776
23789SOL    HW272809   7.945   2.733   4.829
23790SOL     OW72810   7.756   2.063   4.952
23790SOL    HW172811   7.720   2.104   5.031
23790SOL    HW272812   7.735   1.970   4.961
23791SOL     OW72813   7.505   3.175   5.003
23791SOL    HW172814   7.535   3.120   5.075
23791SOL    HW272815   7.501   3.263   5.039
23792SOL     OW72816   7.744   1.896   4.326
23792SOL    HW172817   7.693   1.977   4.328
23792SOL    HW272818   7.756   1.873   4.418
23793SOL     OW72819   7.805   2.820   5.512
23793SOL    HW172820   7.812   2.821   5.607
23793SOL    HW272821   7.822   2.730   5.487
23794SOL     OW72822   7.731   2.668   4.687
23794SOL    HW172823   7.824   2.691   4.692
23794SOL    HW272824   7.729   2.574   4.707
23795SOL     OW72825   7.750   2.394   4.720
23795SOL    HW172826   7.721   2.303   4.708
23795SOL    HW272827   7.828   2.401   4.665
23796SOL     OW72828   7.460   3.155   3.924
23796SOL    HW172829   7.378   3.194   3.892
23796SOL    HW272830   7.443   3.061   3.926
23797SOL     OW72831   7.539   3.635   4.675
23797SOL    HW172832   7.509   3.559   4.627
23797SOL    HW272833   7.628   3.651   4.643
23798SOL     OW72834   7.478   2.447   4.829
23798SOL    HW172835   7.558   2.413   4.787
23798SOL    HW272836   7.499   2.448   4.922
23799SOL     OW72837   7.619   2.385   5.455
23799SOL    HW172838   7.630   2.327   5.379
23799SOL    HW272839   7.578   2.464   5.419
23800SOL     OW72840   0.208   2.357   4.042
23800SOL    HW172841   0.174   2.268   4.032
23800SOL    HW272842   0.269   2.352   4.116
23801SOL     OW72843   7.692   3.404   5.433
23801SOL    HW172844   7.672   3.474   5.495
23801SOL    HW272845   7.697   3.325   5.487
23802SOL     OW72846   7.891   2.440   3.923
23802SOL    HW172847   7.933   2.385   3.857
23802SOL    HW272848   7.801   2.448   3.893
23803SOL     OW72849   7.615   3.003   5.191
23803SOL    HW172850   7.595   2.964   5.276
23803SOL    HW272851   7.616   2.929   5.131
23804SOL     OW72852   7.544   3.127   4.743
23804SOL    HW172853   7.520   3.141   4.835
23804SOL    HW272854   7.467   3.088   4.704
23805SOL     OW72855   7.601   3.646   5.562
23805SOL    HW172856   7.549   3.582   5.611
23805SOL    HW272857   7.645   3.698   5.629
23806SOL     OW72858   7.727   2.198   4.439
23806SOL    HW172859   7.642   2.226   4.405
23806SOL    HW272860   7.709   2.171   4.529
23807SOL     OW72861   7.828   3.168   5.190
23807SOL    HW172862   7.781   3.251   5.198
23807SOL    HW272863   7.760   3.102   5.190
23808SOL     OW72864  -0.002   3.430   4.148
23808SOL    HW172865   0.008   3.346   4.193
23808SOL    HW272866   0.074   3.481   4.176
23809SOL     OW72867   7.556   2.928   5.450
23809SOL    HW172868   7.484   2.890   5.501
23809SOL    HW272869   7.634   2.883   5.482
23810SOL     OW72870   7.494   2.190   3.784
23810SOL    HW172871   7.424   2.131   3.757
23810SOL    HW272872   7.467   2.276   3.752
23811SOL     OW72873   7.509   2.023   4.021
23811SOL    HW172874   7.492   2.101   3.968
23811SOL    HW272875   7.592   1.989   3.986
23812SOL     OW72876   7.829   3.610   5.288
23812SOL    HW172877   7.744   3.649   5.266
23812SOL    HW272878   7.808   3.527   5.330
23813SOL     OW72879   7.687   3.163   5.570
23813SOL    HW172880   7.630   3.091   5.543
23813SOL    HW272881   7.683   3.163   5.666
23814SOL     OW72882   7.553   3.050   4.387
23814SOL    HW172883   7.498   3.026   4.462
23814SOL    HW272884   7.633   2.999   4.399
23815SOL     OW72885   0.089   3.303   5.327
23815SOL    HW172886   0.045   3.264   5.402
23815SOL    HW272887   0.168   3.342   5.363
23816SOL     OW72888   7.807   2.429   4.990
23816SOL    HW172889   7.775   2.362   5.051
23816SOL    HW272890   7.789   2.394   4.903
23817SOL     OW72891   7.513   2.914   4.047
23817SOL    HW172892   7.594   2.887   4.003
23817SOL    HW272893   7.472   2.832   4.074
23818SOL     OW72894   7.682   2.452   5.711
23818SOL    HW172895   7.599   2.484   5.747
23818SOL    HW272896   7.662   2.432   5.619
23819SOL     OW72897   7.459   2.266   6.220
23819SOL    HW172898   7.377   2.290   6.262
23819SOL    HW272899   7.436   2.197   6.158
23820SOL     OW72900   7.755   3.305   6.632
23820SOL    HW172901   7.677   3.251   6.616
23820SOL    HW272902   7.799   3.309   6.548
23821SOL     OW72903   7.862   2.249   7.080
23821SOL    HW172904   7.933   2.203   7.125
23821SOL    HW272905   7.783   2.200   7.105
23822SOL     OW72906   7.658   3.576   6.069
23822SOL    HW172907   7.671   3.657   6.118
23822SOL    HW272908   7.735   3.569   6.013
23823SOL     OW72909   7.670   3.300   6.111
23823SOL    HW172910   7.662   3.395   6.112
23823SOL    HW272911   7.605   3.270   6.174
23824SOL     OW72912   7.726   2.948   6.527
23824SOL    HW172913   7.718   2.853   6.540
23824SOL    HW272914   7.637   2.981   6.542
23825SOL     OW72915   7.573   2.511   6.146
23825SOL    HW172916   7.532   2.425   6.154
23825SOL    HW272917   7.557   2.554   6.231
23826SOL     OW72918   7.489   3.451   5.707
23826SOL    HW172919   7.474   3.359   5.728
23826SOL    HW272920   7.459   3.499   5.784
23827SOL     OW72921   7.558   2.563   7.193
23827SOL    HW172922   7.648   2.595   7.202
23827SOL    HW272923   7.505   2.642   7.188
23828SOL     OW72924   7.643   2.819   6.876
23828SOL    HW172925   7.728   2.775   6.866
23828SOL    HW272926   7.584   2.771   6.818
23829SOL     OW72927   7.735   2.213   7.381
23829SOL    HW172928   7.819   2.232   7.424
23829SOL    HW272929   7.678   2.185   7.452
23830SOL     OW72930   8.024   2.610   5.850
23830SOL    HW172931   7.965   2.678   5.819
23830SOL    HW272932   8.000   2.596   5.941
23831SOL     OW72933   7.534   2.650   6.378
23831SOL    HW172934   7.614   2.673   6.424
23831SOL    HW272935   7.484   2.731   6.375
23832SOL     OW72936   7.552   3.675   7.166
23832SOL    HW172937   7.565   3.693   7.259
23832SOL    HW272938   7.522   3.759   7.130
23833SOL     OW72939   7.895   2.070   6.495
23833SOL    HW172940   7.939   2.073   6.580
23833SOL    HW272941   7.933   2.142   6.445
23834SOL     OW72942   7.803   3.681   6.453
23834SOL    HW172943   7.859   3.629   6.396
23834SOL    HW272944   7.856   3.758   6.473
23835SOL     OW72945   7.953   3.123   7.317
23835SOL    HW172946   7.906   3.125   7.234
23835SOL    HW272947   7.886   3.135   7.384
23836SOL     OW72948   7.615   2.115   7.084
23836SOL    HW172949   7.528   2.141   7.057
23836SOL    HW272950   7.603   2.028   7.122
23837SOL     OW72951   7.720   3.653   6.809
23837SOL    HW172952   7.755   3.574   6.850
23837SOL    HW272953   7.694   3.626   6.721
23838SOL     OW72954   7.849   2.507   6.073
23838SOL    HW172955   7.843   2.444   6.001
23838SOL    HW272956   7.758   2.525   6.097
23839SOL     OW72957   0.019   1.939   5.715
23839SOL    HW172958   0.107   1.973   5.698
23839SOL    HW272959  -0.020   1.929   5.628
23840SOL     OW72960   8.011   1.987   6.150
23840SOL    HW172961   7.921   1.954   6.159
23840SOL    HW272962   8.031   1.977   6.057
23841SOL     OW72963   7.743   1.934   5.752
23841SOL    HW172964   7.762   2.013   5.702
23841SOL    HW272965   7.828   1.895   5.769
23842SOL     OW72966   7.923   2.962   6.340
23842SOL    HW172967   7.852   2.964   6.404
23842SOL    HW272968   7.879   2.966   6.255
23843SOL     OW72969   7.540   2.434   6.955
23843SOL    HW172970   7.633   2.426   6.936
23843SOL    HW272971   7.536   2.488   7.034
23844SOL     OW72972   7.996   2.059   6.745
23844SOL    HW172973   8.047   1.993   6.793
23844SOL    HW272974   7.913   2.065   6.792
23845SOL     OW72975   7.878   2.663   6.858
23845SOL    HW172976   7.967   2.649   6.889
23845SOL    HW272977   7.838   2.576   6.860
23846SOL     OW72978   7.521   3.426   6.955
23846SOL    HW172979   7.487   3.490   6.892
23846SOL    HW272980   7.615   3.420   6.935
23847SOL     OW72981   7.781   2.988   6.107
23847SOL    HW172982   7.789   3.073   6.063
23847SOL    HW272983   7.787   2.924   6.036
23848SOL     OW72984  -0.028   2.444   6.457
23848SOL    HW172985   0.012   2.518   6.412
23848SOL    HW272986   0.018   2.439   6.541
23849SOL     OW72987   7.784   3.387   6.890
23849SOL    HW172988   7.779   3.348   6.803
23849SOL    HW272989   7.876   3.410   6.901
23850SOL     OW72990   7.840   2.589   7.193
23850SOL    HW172991   7.897   2.639   7.134
23850SOL    HW272992   7.884   2.504   7.201
23851SOL     OW72993   7.903   1.977   7.302
23851SOL    HW172994   7.892   1.899   7.248
23851SOL    HW272995   7.815   2.015   7.308
23852SOL     OW72996   8.014   2.806   6.656
23852SOL    HW172997   7.954   2.867   6.612
23852SOL    HW272998   7.957   2.750   6.709
23853SOL     OW72999   7.730   2.058   6.833
23853SOL    HW173000   7.705   2.083   6.922
23853SOL    HW273001   7.719   1.963   6.831
23854SOL     OW73002   7.520   3.170   6.838
23854SOL    HW173003   7.539   3.107   6.907
23854SOL    HW273004   7.510   3.254   6.884
23855SOL     OW73005   7.738   1.936   6.200
23855SOL    HW173006   7.648   1.960   6.180
23855SOL    HW273007   7.733   1.892   6.285
23856SOL     OW73008   7.785   2.774   7.390
23856SOL    HW173009   7.839   2.757   7.467
23856SOL    HW273010   7.809   2.707   7.327
23857SOL     OW73011   7.767   2.668   6.528
23857SOL    HW173012   7.852   2.671   6.483
23857SOL    HW273013   7.752   2.575   6.544
23858SOL     OW73014   7.743   2.347   6.564
23858SOL    HW173015   7.718   2.315   6.478
23858SOL    HW273016   7.834   2.375   6.554
23859SOL     OW73017   7.455   3.184   5.791
23859SOL    HW173018   7.368   3.195   5.754
23859SOL    HW273019   7.458   3.093   5.820
23860SOL     OW73020   7.529   3.640   6.495
23860SOL    HW173021   7.499   3.622   6.405
23860SOL    HW273022   7.623   3.653   6.487
23861SOL     OW73023   7.497   2.353   6.703
23861SOL    HW173024   7.555   2.402   6.644
23861SOL    HW273025   7.511   2.393   6.789
23862SOL     OW73026   0.249   2.348   5.943
23862SOL    HW173027   0.195   2.272   5.926
23862SOL    HW273028   0.188   2.414   5.976
23863SOL     OW73029   7.646   3.399   7.299
23863SOL    HW173030   7.663   3.459   7.371
23863SOL    HW273031   7.671   3.313   7.332
23864SOL     OW73032   7.908   2.361   5.826
23864SOL    HW173033   7.956   2.443   5.818
23864SOL    HW273034   7.824   2.378   5.784
23865SOL     OW73035   7.580   3.006   7.063
23865SOL    HW173036   7.586   2.964   7.149
23865SOL    HW273037   7.602   2.936   7.001
23866SOL     OW73038   7.472   3.165   6.570
23866SOL    HW173039   7.484   3.164   6.665
23866SOL    HW273040   7.448   3.075   6.548
23867SOL     OW73041   7.585   3.669   7.433
23867SOL    HW173042   7.542   3.598   7.480
23867SOL    HW273043   7.639   3.712   7.499
23868SOL     OW73044   7.697   2.227   6.334
23868SOL    HW173045   7.616   2.247   6.287
23868SOL    HW273046   7.716   2.136   6.310
23869SOL     OW73047   7.808   3.169   7.089
23869SOL    HW173048   7.798   3.237   7.022
23869SOL    HW273049   7.732   3.112   7.076
23870SOL     OW73050  -0.006   3.381   6.070
23870SOL    HW173051   0.000   3.328   5.990
23870SOL    HW273052   0.057   3.452   6.056
23871SOL     OW73053   7.715   3.228   5.857
23871SOL    HW173054   7.623   3.217   5.834
23871SOL    HW273055   7.714   3.258   5.947
23872SOL     OW73056   7.563   2.922   7.329
23872SOL    HW173057   7.486   2.887   7.374
23872SOL    HW273058   7.635   2.867   7.357
23873SOL     OW73059   7.507   2.185   5.627
23873SOL    HW173060   7.425   2.150   5.593
23873SOL    HW273061   7.521   2.266   5.577
23874SOL     OW73062   7.523   2.013   5.897
23874SOL    HW173063   7.485   2.090   5.855
23874SOL    HW273064   7.600   1.993   5.844
23875SOL     OW73065   7.833   3.611   7.150
23875SOL    HW173066   7.742   3.635   7.132
23875SOL    HW273067   7.828   3.518   7.173
23876SOL     OW73068   7.694   3.159   7.430
23876SOL    HW173069   7.644   3.081   7.405
23876SOL    HW273070   7.683   3.165   7.525
23877SOL     OW73071   7.515   3.106   6.249
23877SOL    HW173072   7.503   3.040   6.316
23877SOL    HW273073   7.580   3.069   6.189
23878SOL     OW73074   0.103   3.306   7.136
23878SOL    HW173075   0.050   3.240   7.181
23878SOL    HW273076   0.159   3.342   7.205
23879SOL     OW73077   7.794   2.403   6.869
23879SOL    HW173078   7.830   2.351   6.941
23879SOL    HW273079   7.838   2.370   6.791
23880SOL     OW73080   7.501   2.931   5.894
23880SOL    HW173081   7.592   2.922   5.866
23880SOL    HW273082   7.474   2.842   5.919
23881SOL     OW73083   7.618   2.481   7.503
23881SOL    HW173084   7.555   2.498   7.574
23881SOL    HW273085   7.697   2.452   7.547
23882SOL     OW73086   7.683   2.116   8.477
23882SOL    HW173087   7.743   2.069   8.418
23882SOL    HW273088   7.596   2.097   8.442
23883SOL     OW73089   7.439   2.251   8.082
23883SOL    HW173090   7.360   2.280   8.128
23883SOL    HW273091   7.412   2.170   8.038
23884SOL     OW73092   7.767   3.302   8.507
23884SOL    HW173093   7.699   3.235   8.509
23884SOL    HW273094   7.761   3.339   8.419
23885SOL     OW73095   7.859   2.251   8.982
23885SOL    HW173096   7.935   2.198   8.956
23885SOL    HW273097   7.784   2.194   8.967
23886SOL     OW73098   7.673   3.580   7.916
23886SOL    HW173099   7.692   3.659   7.966
23886SOL    HW273100   7.760   3.542   7.898
23887SOL     OW73101   7.661   3.291   7.984
23887SOL    HW173102   7.634   3.380   8.007
23887SOL    HW273103   7.613   3.234   8.044
23888SOL     OW73104   7.733   2.949   8.367
23888SOL    HW173105   7.714   2.861   8.399
23888SOL    HW273106   7.662   3.003   8.404
23889SOL     OW73107   7.577   2.503   8.011
23889SOL    HW173108   7.527   2.424   8.029
23889SOL    HW273109   7.566   2.557   8.089
23890SOL     OW73110   7.489   3.456   7.566
23890SOL    HW173111   7.476   3.362   7.580
23890SOL    HW273112   7.470   3.496   7.650
23891SOL     OW73113   7.546   2.601   9.022
23891SOL    HW173114   7.632   2.641   9.028
23891SOL    HW273115   7.487   2.673   9.003
23892SOL     OW73116   7.635   2.828   8.750
23892SOL    HW173117   7.715   2.776   8.748
23892SOL    HW273118   7.586   2.800   8.672
23893SOL     OW73119   7.753   2.119   9.278
23893SOL    HW173120   7.774   2.209   9.254
23893SOL    HW273121   7.664   2.125   9.315
23894SOL     OW73122   7.979   2.668   7.699
23894SOL    HW173123   8.069   2.635   7.699
23894SOL    HW273124   7.934   2.613   7.763
23895SOL     OW73125   7.552   2.663   8.227
23895SOL    HW173126   7.617   2.690   8.291
23895SOL    HW273127   7.485   2.732   8.229
23896SOL     OW73128   7.576   3.760   9.041
23896SOL    HW173129   7.576   3.723   9.129
23896SOL    HW273130   7.505   3.714   8.996
23897SOL     OW73131   7.931   2.063   8.346
23897SOL    HW173132   7.984   2.122   8.400
23897SOL    HW273133   7.952   2.088   8.256
23898SOL     OW73134   7.809   3.686   8.302
23898SOL    HW173135   7.857   3.609   8.269
23898SOL    HW273136   7.877   3.746   8.331
23899SOL     OW73137   7.754   2.827   7.713
23899SOL    HW173138   7.845   2.807   7.695
23899SOL    HW273139   7.709   2.743   7.707
23900SOL     OW73140   7.935   3.058   9.192
23900SOL    HW173141   7.898   3.081   9.107
23900SOL    HW273142   7.867   3.081   9.255
23901SOL     OW73143   7.635   2.104   8.928
23901SOL    HW173144   7.564   2.160   8.958
23901SOL    HW273145   7.621   2.020   8.972
23902SOL     OW73146   7.710   3.651   8.666
23902SOL    HW173147   7.747   3.563   8.656
23902SOL    HW273148   7.661   3.666   8.585
23903SOL     OW73149   7.832   2.517   7.877
23903SOL    HW173150   7.900   2.526   7.943
23903SOL    HW273151   7.750   2.514   7.926
23904SOL     OW73152   0.003   1.996   7.555
23904SOL    HW173153   0.094   1.968   7.565
23904SOL    HW273154  -0.019   1.974   7.465
23905SOL     OW73155   0.022   1.896   7.988
23905SOL    HW173156  -0.070   1.916   8.003
23905SOL    HW273157   0.051   1.962   7.925
23906SOL     OW73158   7.752   1.907   7.646
23906SOL    HW173159   7.835   1.944   7.616
23906SOL    HW273160   7.777   1.832   7.700
23907SOL     OW73161   7.925   2.955   8.179
23907SOL    HW173162   7.855   2.959   8.244
23907SOL    HW273163   7.879   2.958   8.095
23908SOL     OW73164   7.539   2.401   8.835
23908SOL    HW173165   7.632   2.407   8.815
23908SOL    HW273166   7.524   2.468   8.901
23909SOL     OW73167   7.925   2.061   8.678
23909SOL    HW173168   7.964   1.983   8.639
23909SOL    HW273169   7.995   2.126   8.675
23910SOL     OW73170   7.865   2.674   8.767
23910SOL    HW173171   7.933   2.695   8.703
23910SOL    HW273172   7.843   2.582   8.749
23911SOL     OW73173   7.526   3.437   8.807
23911SOL    HW173174   7.488   3.501   8.746
23911SOL    HW273175   7.619   3.438   8.787
23912SOL     OW73176   7.788   2.977   7.943
23912SOL    HW173177   7.778   3.063   7.902
23912SOL    HW273178   7.773   2.915   7.871
23913SOL     OW73179   7.960   2.456   8.296
23913SOL    HW173180   7.999   2.473   8.210
23913SOL    HW273181   8.034   2.439   8.353
23914SOL     OW73182   7.803   3.380   8.763
23914SOL    HW173183   7.795   3.343   8.675
23914SOL    HW273184   7.896   3.403   8.771
23915SOL     OW73185   7.829   2.634   9.037
23915SOL    HW173186   7.847   2.661   8.947
23915SOL    HW273187   7.860   2.544   9.042
23916SOL     OW73188   7.931   1.928   9.232
23916SOL    HW173189   7.898   1.868   9.165
23916SOL    HW273190   7.862   1.994   9.241
23917SOL     OW73191   0.014   2.749   8.534
23917SOL    HW173192   0.064   2.751   8.453
23917SOL    HW273193  -0.078   2.745   8.507
23918SOL     OW73194   7.445   3.179   8.750
23918SOL    HW173195   7.502   3.125   8.804
23918SOL    HW273196   7.473   3.269   8.767
23919SOL     OW73197   7.764   1.962   8.042
23919SOL    HW173198   7.727   2.039   8.086
23919SOL    HW273199   7.696   1.896   8.047
23920SOL     OW73200   7.825   2.764   9.279
23920SOL    HW173201   7.861   2.696   9.337
23920SOL    HW273202   7.826   2.724   9.192
23921SOL     OW73203   7.775   2.665   8.408
23921SOL    HW173204   7.837   2.647   8.337
23921SOL    HW273205   7.747   2.579   8.439
23922SOL     OW73206   7.755   2.385   8.462
23922SOL    HW173207   7.744   2.290   8.463
23922SOL    HW273208   7.828   2.399   8.401
23923SOL     OW73209   7.455   3.183   7.634
23923SOL    HW173210   7.369   3.197   7.593
23923SOL    HW273211   7.449   3.095   7.672
23924SOL     OW73212   7.556   3.665   8.420
23924SOL    HW173213   7.528   3.582   8.381
23924SOL    HW273214   7.636   3.688   8.374
23925SOL     OW73215   7.492   2.379   8.565
23925SOL    HW173216   7.573   2.394   8.517
23925SOL    HW273217   7.517   2.388   8.657
23926SOL     OW73218   7.648   2.386   9.179
23926SOL    HW173219   7.689   2.344   9.104
23926SOL    HW273220   7.584   2.446   9.141
23927SOL     OW73221   0.206   2.392   7.766
23927SOL    HW173222   0.183   2.301   7.779
23927SOL    HW273223   0.182   2.436   7.848
23928SOL     OW73224   7.693   3.404   9.172
23928SOL    HW173225   7.668   3.460   9.245
23928SOL    HW273226   7.701   3.316   9.210
23929SOL     OW73227   7.830   2.383   7.631
23929SOL    HW173228   7.917   2.356   7.601
23929SOL    HW273229   7.845   2.418   7.719
23930SOL     OW73230   7.593   3.016   8.937
23930SOL    HW173231   7.592   2.967   9.019
23930SOL    HW273232   7.604   2.950   8.869
23931SOL     OW73233   7.559   3.126   8.493
23931SOL    HW173234   7.500   3.127   8.569
23931SOL    HW273235   7.515   3.181   8.429
23932SOL     OW73236   7.613   3.662   9.296
23932SOL    HW173237   7.556   3.595   9.335
23932SOL    HW273238   7.645   3.712   9.371
23933SOL     OW73239   7.693   2.201   8.173
23933SOL    HW173240   7.612   2.227   8.129
23933SOL    HW273241   7.681   2.229   8.264
23934SOL     OW73242   7.832   3.167   8.954
23934SOL    HW173243   7.814   3.242   8.897
23934SOL    HW273244   7.754   3.112   8.946
23935SOL     OW73245  -0.011   3.445   7.860
23935SOL    HW173246   0.020   3.359   7.889
23935SOL    HW273247   0.056   3.506   7.890
23936SOL     OW73248   7.711   3.205   7.732
23936SOL    HW173249   7.620   3.201   7.706
23936SOL    HW273250   7.710   3.248   7.818
23937SOL     OW73251   7.584   2.908   9.196
23937SOL    HW173252   7.502   2.874   9.232
23937SOL    HW273253   7.652   2.851   9.232
23938SOL     OW73254   7.483   2.211   7.508
23938SOL    HW173255   7.415   2.145   7.503
23938SOL    HW273256   7.444   2.283   7.557
23939SOL     OW73257   7.518   2.013   7.758
23939SOL    HW173258   7.516   2.105   7.729
23939SOL    HW273259   7.603   1.981   7.730
23940SOL     OW73260   7.829   3.604   9.032
23940SOL    HW173261   7.771   3.630   8.960
23940SOL    HW273262   7.789   3.524   9.067
23941SOL     OW73263   7.674   3.152   9.291
23941SOL    HW173264   7.641   3.074   9.247
23941SOL    HW273265   7.611   3.168   9.361
23942SOL     OW73266   7.538   3.073   8.114
23942SOL    HW173267   7.512   3.026   8.193
23942SOL    HW273268   7.598   3.014   8.069
23943SOL     OW73269   0.101   3.257   9.032
23943SOL    HW173270   0.012   3.221   9.032
23943SOL    HW273271   0.089   3.349   9.010
23944SOL     OW73272   7.795   2.414   8.738
23944SOL    HW173273   7.866   2.365   8.780
23944SOL    HW273274   7.805   2.395   8.644
23945SOL     OW73275   7.488   2.931   7.752
23945SOL    HW173276   7.581   2.924   7.730
23945SOL    HW273277   7.462   2.842   7.776
23946SOL     OW73278   7.661   2.490   9.434
23946SOL    HW173279   7.572   2.473   9.464
23946SOL    HW273280   7.661   2.462   9.342
23947SOL     OW73281   7.652   2.160  10.291
23947SOL    HW173282   7.687   2.119  10.370
23947SOL    HW273283   7.564   2.122  10.283
23948SOL     OW73284   7.461   2.255   9.942
23948SOL    HW173285   7.375   2.264   9.984
23948SOL    HW273286   7.448   2.186   9.877
23949SOL     OW73287   7.768   3.298  10.356
23949SOL    HW173288   7.695   3.236  10.356
23949SOL    HW273289   7.775   3.326  10.264
23950SOL     OW73290   7.862   2.270  10.817
23950SOL    HW173291   7.942   2.216  10.820
23950SOL    HW273292   7.791   2.208  10.833
23951SOL     OW73293   7.675   3.575   9.780
23951SOL    HW173294   7.689   3.656   9.829
23951SOL    HW273295   7.763   3.549   9.752
23952SOL     OW73296   7.641   3.311   9.862
23952SOL    HW173297   7.641   3.406   9.847
23952SOL    HW273298   7.576   3.298   9.931
23953SOL     OW73299   7.706   2.951  10.202
23953SOL    HW173300   7.699   2.864  10.242
23953SOL    HW273301   7.648   3.006  10.254
23954SOL     OW73302   7.568   2.514   9.874
23954SOL    HW173303   7.535   2.425   9.891
23954SOL    HW273304   7.553   2.561   9.956
23955SOL     OW73305   7.499   3.457   9.432
23955SOL    HW173306   7.483   3.364   9.449
23955SOL    HW273307   7.466   3.502   9.510
23956SOL     OW73308   7.553   2.615  10.893
23956SOL    HW173309   7.630   2.669  10.912
23956SOL    HW273310   7.484   2.678  10.873
23957SOL     OW73311   7.642   2.821  10.617
23957SOL    HW173312   7.723   2.769  10.617
23957SOL    HW273313   7.592   2.787  10.543
23958SOL     OW73314   7.766   2.126  11.124
23958SOL    HW173315   7.816   2.196  11.168
23958SOL    HW273316   7.676   2.138  11.155
23959SOL     OW73317   7.970   2.625   9.554
23959SOL    HW173318   8.055   2.665   9.574
23959SOL    HW273319   7.926   2.616   9.638
23960SOL     OW73320   7.528   2.677  10.091
23960SOL    HW173321   7.609   2.675  10.142
23960SOL    HW273322   7.477   2.747  10.131
23961SOL     OW73323   7.562   3.732  10.896
23961SOL    HW173324   7.572   3.710  10.989
23961SOL    HW273325   7.481   3.688  10.870
23962SOL     OW73326   7.934   2.047  10.196
23962SOL    HW173327   7.974   2.056  10.282
23962SOL    HW273328   7.997   2.086  10.135
23963SOL     OW73329   7.795   3.684  10.173
23963SOL    HW173330   7.854   3.612  10.196
23963SOL    HW273331   7.849   3.762  10.181
23964SOL     OW73332   7.738   2.828   9.563
23964SOL    HW173333   7.793   2.845   9.487
23964SOL    HW273334   7.727   2.733   9.564
23965SOL     OW73335   7.833   3.100  11.066
23965SOL    HW173336   7.837   3.136  10.977
23965SOL    HW273337   7.856   3.008  11.056
23966SOL     OW73338   7.625   2.126  10.824
23966SOL    HW173339   7.555   2.186  10.852
23966SOL    HW273340   7.612   2.048  10.877
23967SOL     OW73341   7.703   3.648  10.533
23967SOL    HW173342   7.747   3.570  10.564
23967SOL    HW273343   7.671   3.625  10.446
23968SOL     OW73344   7.826   2.569   9.781
23968SOL    HW173345   7.869   2.487   9.803
23968SOL    HW273346   7.735   2.555   9.805
23969SOL     OW73347   7.983   1.999   9.837
23969SOL    HW173348   7.898   1.962   9.862
23969SOL    HW273349   8.010   1.947   9.762
23970SOL     OW73350   7.727   1.918   9.501
23970SOL    HW173351   7.781   1.982   9.455
23970SOL    HW273352   7.791   1.855   9.537
23971SOL     OW73353   7.927   2.961  10.042
23971SOL    HW173354   7.851   2.961  10.102
23971SOL    HW273355   7.888   2.963   9.955
23972SOL     OW73356   7.521   2.409  10.713
23972SOL    HW173357   7.612   2.409  10.682
23972SOL    HW273358   7.518   2.482  10.775
23973SOL     OW73359   0.014   2.051  10.463
23973SOL    HW173360   0.048   1.976  10.511
23973SOL    HW273361  -0.057   2.084  10.518
23974SOL     OW73362   7.873   2.660  10.630
23974SOL    HW173363   7.928   2.695  10.561
23974SOL    HW273364   7.847   2.573  10.599
23975SOL     OW73365   7.524   3.438  10.680
23975SOL    HW173366   7.486   3.502  10.619
23975SOL    HW273367   7.617   3.435  10.657
23976SOL     OW73368   7.807   2.975   9.793
23976SOL    HW173369   7.790   3.055   9.743
23976SOL    HW273370   7.784   2.904   9.734
23977SOL     OW73371  -0.009   2.446  10.179
23977SOL    HW173372   0.019   2.524  10.132
23977SOL    HW273373   0.072   2.406  10.209
23978SOL     OW73374   7.794   3.392  10.611
23978SOL    HW173375   7.792   3.351  10.524
23978SOL    HW273376   7.887   3.407  10.627
23979SOL     OW73377   7.879   2.609  10.904
23979SOL    HW173378   7.882   2.642  10.814
23979SOL    HW273379   7.898   2.515  10.896
23980SOL     OW73380   7.934   1.932  11.042
23980SOL    HW173381   7.887   1.872  10.983
23980SOL    HW273382   7.870   2.001  11.061
23981SOL     OW73383   7.989   2.786  10.404
23981SOL    HW173384   8.028   2.850  10.345
23981SOL    HW273385   7.909   2.757  10.360
23982SOL     OW73386   7.664   2.050  10.559
23982SOL    HW173387   7.676   2.082  10.649
23982SOL    HW273388   7.698   1.961  10.561
23983SOL     OW73389   7.498   3.176  10.591
23983SOL    HW173390   7.527   3.123  10.665
23983SOL    HW273391   7.491   3.265  10.626
23984SOL     OW73392   7.735   1.939   9.937
23984SOL    HW173393   7.728   2.033   9.953
23984SOL    HW273394   7.742   1.901  10.025
23985SOL     OW73395   7.818   2.797  11.098
23985SOL    HW173396   7.814   2.750  11.182
23985SOL    HW273397   7.847   2.730  11.035
23986SOL     OW73398   7.771   2.675  10.259
23986SOL    HW173399   7.836   2.662  10.191
23986SOL    HW273400   7.751   2.587  10.291
23987SOL     OW73401   7.754   2.408  10.305
23987SOL    HW173402   7.724   2.318  10.293
23987SOL    HW273403   7.841   2.411  10.265
23988SOL     OW73404   7.477   3.178   9.491
23988SOL    HW173405   7.387   3.198   9.465
23988SOL    HW273406   7.471   3.093   9.535
23989SOL     OW73407   7.537   3.639  10.263
23989SOL    HW173408   7.497   3.567  10.213
23989SOL    HW273409   7.621   3.654  10.219
23990SOL     OW73410   7.467   2.392  10.437
23990SOL    HW173411   7.535   2.389  10.369
23990SOL    HW273412   7.515   2.406  10.518
23991SOL     OW73413   7.624   2.394  11.042
23991SOL    HW173414   7.693   2.358  10.986
23991SOL    HW273415   7.588   2.466  10.991
23992SOL     OW73416   0.212   2.392   9.610
23992SOL    HW173417   0.260   2.319   9.649
23992SOL    HW273418   0.171   2.437   9.684
23993SOL     OW73419   7.691   3.399  11.060
23993SOL    HW173420   7.660   3.482  11.096
23993SOL    HW273421   7.780   3.390  11.092
23994SOL     OW73422   7.905   2.366   9.485
23994SOL    HW173423   7.948   2.448   9.509
23994SOL    HW273424   7.812   2.389   9.478
23995SOL     OW73425   7.589   3.013  10.799
23995SOL    HW173426   7.589   2.967  10.883
23995SOL    HW273427   7.604   2.944  10.734
23996SOL     OW73428   7.550   3.135  10.329
23996SOL    HW173429   7.518   3.141  10.420
23996SOL    HW273430   7.484   3.182  10.278
23997SOL     OW73431   7.599   3.644  11.154
23997SOL    HW173432   7.545   3.583  11.206
23997SOL    HW273433   7.645   3.697  11.220
23998SOL     OW73434   7.726   2.205  10.020
23998SOL    HW173435   7.638   2.231   9.992
23998SOL    HW273436   7.717   2.187  10.114
23999SOL     OW73437   7.810   3.186  10.811
23999SOL    HW173438   7.802   3.253  10.743
23999SOL    HW273439   7.739   3.124  10.792
24000SOL     OW73440  -0.021   3.431   9.731
24000SOL    HW173441  -0.013   3.350   9.782
24000SOL    HW273442   0.052   3.486   9.762
24001SOL     OW73443   7.729   3.192   9.633
24001SOL    HW173444   7.649   3.196   9.580
24001SOL    HW273445   7.706   3.241   9.712
24002SOL     OW73446   7.569   2.939  11.085
24002SOL    HW173447   7.486   2.899  11.111
24002SOL    HW273448   7.634   2.869  11.100
24003SOL     OW73449   7.510   2.208   9.373
24003SOL    HW173450   7.415   2.215   9.368
24003SOL    HW273451   7.542   2.266   9.304
24004SOL     OW73452   7.509   2.071   9.630
24004SOL    HW173453   7.514   2.121   9.548
24004SOL    HW273454   7.564   1.994   9.614
24005SOL     OW73455   7.809   3.600  10.867
24005SOL    HW173456   7.730   3.650  10.847
24005SOL    HW273457   7.776   3.514  10.894
24006SOL     OW73458   7.526   3.050   9.976
24006SOL    HW173459   7.567   3.013  10.054
24006SOL    HW273460   7.597   3.056   9.912
24007SOL     OW73461   0.125   3.340  10.970
24007SOL    HW173462   0.095   3.257  10.934
24007SOL    HW273463   0.090   3.406  10.911
24008SOL     OW73464   7.763   2.403  10.600
24008SOL    HW173465   7.813   2.356  10.667
24008SOL    HW273466   7.814   2.392  10.520
24009SOL     OW73467   7.483   2.932   9.621
24009SOL    HW173468   7.574   2.921   9.594
24009SOL    HW273469   7.455   2.844   9.646
24010SOL     OW73470   7.662   2.502  11.294
24010SOL    HW173471   7.579   2.490  11.341
24010SOL    HW273472   7.645   2.468  11.206
24011SOL     OW73473   7.670   2.138  12.171
24011SOL    HW173474   7.687   2.138  12.266
24011SOL    HW273475   7.581   2.104  12.162
24012SOL     OW73476   7.447   2.269  11.814
24012SOL    HW173477   7.365   2.314  11.836
24012SOL    HW273478   7.427   2.176  11.822
24013SOL     OW73479   7.772   3.305  12.194
24013SOL    HW173480   7.693   3.262  12.225
24013SOL    HW273481   7.787   3.268  12.107
24014SOL     OW73482   7.661   3.578  11.647
24014SOL    HW173483   7.673   3.656  11.702
24014SOL    HW273484   7.749   3.556  11.618
24015SOL     OW73485   7.664   3.292  11.682
24015SOL    HW173486   7.644   3.383  11.704
24015SOL    HW273487   7.619   3.241  11.749
24016SOL     OW73488   7.701   2.951  12.086
24016SOL    HW173489   7.697   2.878  12.148
24016SOL    HW273490   7.648   3.019  12.127
24017SOL     OW73491   7.570   2.520  11.732
24017SOL    HW173492   7.537   2.434  11.758
24017SOL    HW273493   7.559   2.575  11.810
24018SOL     OW73494   7.482   3.444  11.293
24018SOL    HW173495   7.435   3.362  11.308
24018SOL    HW273496   7.462   3.497  11.371
24019SOL     OW73497   7.588   2.575   0.217
24019SOL    HW173498   7.639   2.617   0.286
24019SOL    HW273499   7.523   2.641   0.191
24020SOL     OW73500   7.656   2.817  12.340
24020SOL    HW173501   7.724   2.766  12.385
24020SOL    HW273502   7.588   2.831  12.406
24021SOL     OW73503   0.013   2.615  11.417
24021SOL    HW173504   0.066   2.686  11.454
24021SOL    HW273505  -0.050   2.593  11.485
24022SOL     OW73506   7.524   2.711  11.933
24022SOL    HW173507   7.608   2.692  11.975
24022SOL    HW273508   7.487   2.783  11.984
24023SOL     OW73509   7.966   2.064  12.054
24023SOL    HW173510   7.956   2.065  12.149
24023SOL    HW273511   7.946   2.154  12.027
24024SOL     OW73512   7.813   3.680  12.037
24024SOL    HW173513   7.842   3.605  12.090
24024SOL    HW273514   7.883   3.745  12.049
24025SOL     OW73515   7.763   2.822  11.418
24025SOL    HW173516   7.858   2.837  11.425
24025SOL    HW273517   7.753   2.727  11.427
24026SOL     OW73518   7.700   3.664  12.396
24026SOL    HW173519   7.735   3.584  12.435
24026SOL    HW273520   7.626   3.634  12.344
24027SOL     OW73521   7.823   2.567  11.610
24027SOL    HW173522   7.881   2.531  11.677
24027SOL    HW273523   7.735   2.552  11.644
24028SOL     OW73524   0.021   1.956  11.302
24028SOL    HW173525   0.115   1.938  11.310
24028SOL    HW273526   0.004   1.950  11.208
24029SOL     OW73527   7.972   1.865  11.677
24029SOL    HW173528   7.888   1.897  11.711
24029SOL    HW273529   8.014   1.942  11.640
24030SOL     OW73530   7.745   1.916  11.362
24030SOL    HW173531   7.803   1.973  11.310
24030SOL    HW273532   7.805   1.869  11.420
24031SOL     OW73533   7.911   2.992  11.918
24031SOL    HW173534   7.850   2.969  11.988
24031SOL    HW273535   7.863   2.977  11.837
24032SOL     OW73536   7.970   2.077  12.322
24032SOL    HW173537   8.012   2.022  12.387
24032SOL    HW273538   7.887   2.104  12.362
24033SOL     OW73539   7.880   2.656  12.447
24033SOL    HW173540   7.895   2.662  12.541
24033SOL    HW273541   7.816   2.586  12.437
24034SOL     OW73542   7.768   2.971  11.681
24034SOL    HW173543   7.784   3.048  11.627
24034SOL    HW273544   7.764   2.898  11.619
24035SOL     OW73545  -0.012   2.401  12.025
24035SOL    HW173546   0.014   2.486  11.992
24035SOL    HW273547   0.020   2.399  12.115
24036SOL     OW73548   7.794   3.432  12.490
24036SOL    HW173549   7.753   3.356  12.450
24036SOL    HW273550   7.885   3.405  12.506
24037SOL     OW73551   7.892   2.632   0.223
24037SOL    HW173552   7.986   2.629   0.237
24037SOL    HW273553   7.854   2.594   0.303
24038SOL     OW73554   7.974   2.761  12.208
24038SOL    HW173555   8.056   2.801  12.238
24038SOL    HW273556   7.936   2.723  12.287
24039SOL     OW73557   7.739   1.930  11.798
24039SOL    HW173558   7.720   2.022  11.818
24039SOL    HW273559   7.754   1.889  11.883
24040SOL     OW73560   7.758   2.658  12.065
24040SOL    HW173561   7.830   2.700  12.112
24040SOL    HW273562   7.746   2.574  12.109
24041SOL     OW73563   7.742   2.400  12.147
24041SOL    HW173564   7.722   2.309  12.171
24041SOL    HW273565   7.829   2.396  12.108
24042SOL     OW73566   7.453   3.151  11.330
24042SOL    HW173567   7.364   3.177  11.308
24042SOL    HW273568   7.442   3.072  11.384
24043SOL     OW73569   7.540   3.648  12.103
24043SOL    HW173570   7.513   3.566  12.062
24043SOL    HW273571   7.632   3.658  12.079
24044SOL     OW73572   7.499   2.429  12.276
24044SOL    HW173573   7.570   2.428  12.212
24044SOL    HW273574   7.544   2.436  12.361
24045SOL     OW73575   0.204   2.365  11.472
24045SOL    HW173576   0.175   2.279  11.502
24045SOL    HW273577   0.184   2.424  11.546
24046SOL     OW73578   7.905   2.359  11.304
24046SOL    HW173579   7.964   2.411  11.357
24046SOL    HW273580   7.820   2.402  11.312
24047SOL     OW73581   7.527   3.143  12.168
24047SOL    HW173582   7.518   3.159  12.262
24047SOL    HW273583   7.457   3.082  12.147
24048SOL     OW73584   7.708   2.184  11.893
24048SOL    HW173585   7.629   2.231  11.868
24048SOL    HW273586   7.701   2.172  11.988
24049SOL     OW73587   0.011   3.370  11.581
24049SOL    HW173588   0.011   3.315  11.660
24049SOL    HW273589   0.068   3.444  11.604
24050SOL     OW73590   7.707   3.207  11.427
24050SOL    HW173591   7.612   3.202  11.424
24050SOL    HW273592   7.727   3.249  11.511
24051SOL     OW73593   7.515   2.193  11.206
24051SOL    HW173594   7.420   2.192  11.219
24051SOL    HW273595   7.531   2.271  11.153
24052SOL     OW73596   7.515   2.005  11.488
24052SOL    HW173597   7.497   2.094  11.458
24052SOL    HW273598   7.599   1.983  11.447
24053SOL     OW73599   7.788   3.572   0.249
24053SOL    HW173600   7.726   3.579   0.176
24053SOL    HW273601   7.815   3.480   0.247
24054SOL     OW73602   7.547   3.081  11.836
24054SOL    HW173603   7.547   3.050  11.926
24054SOL    HW273604   7.616   3.031  11.793
24055SOL     OW73605   7.491   2.919  11.475
24055SOL    HW173606   7.585   2.908  11.464
24055SOL    HW273607   7.459   2.831  11.496
24056SOL     OW73608   7.618   4.294   0.057
24056SOL    HW173609   7.593   4.350   0.130
24056SOL    HW273610   7.692   4.340   0.016
24057SOL     OW73611   7.678   4.010   0.994
24057SOL    HW173612   7.705   3.974   1.078
24057SOL    HW273613   7.590   3.976   0.980
24058SOL     OW73614   7.438   4.108   0.643
24058SOL    HW173615   7.361   4.136   0.692
24058SOL    HW273616   7.412   4.026   0.602
24059SOL     OW73617   7.770   5.155   1.052
24059SOL    HW173618   7.694   5.099   1.038
24059SOL    HW273619   7.778   5.206   0.972
24060SOL     OW73620   7.860   4.117   1.548
24060SOL    HW173621   7.941   4.080   1.513
24060SOL    HW273622   7.790   4.064   1.509
24061SOL     OW73623   7.666   5.436   0.489
24061SOL    HW173624   7.686   5.514   0.541
24061SOL    HW273625   7.728   5.440   0.416
24062SOL     OW73626   7.641   5.162   0.531
24062SOL    HW173627   7.667   5.254   0.521
24062SOL    HW273628   7.600   5.158   0.617
24063SOL     OW73629   7.690   4.812   0.879
24063SOL    HW173630   7.695   4.726   0.921
24063SOL    HW273631   7.641   4.866   0.941
24064SOL     OW73632   7.525   4.370   0.563
24064SOL    HW173633   7.499   4.284   0.595
24064SOL    HW273634   7.524   4.426   0.641
24065SOL     OW73635   7.480   5.239   0.144
24065SOL    HW173636   7.391   5.209   0.123
24065SOL    HW273637   7.467   5.319   0.195
24066SOL     OW73638   7.560   4.459   1.579
24066SOL    HW173639   7.645   4.502   1.584
24066SOL    HW273640   7.497   4.530   1.567
24067SOL     OW73641   7.655   4.709   1.285
24067SOL    HW173642   7.727   4.647   1.271
24067SOL    HW273643   7.578   4.665   1.249
24068SOL     OW73644   7.528   4.536   0.779
24068SOL    HW173645   7.607   4.541   0.833
24068SOL    HW273646   7.474   4.608   0.810
24069SOL     OW73647   7.545   5.569   1.584
24069SOL    HW173648   7.549   5.544   1.677
24069SOL    HW273649   7.451   5.579   1.566
24070SOL     OW73650   7.988   3.968   0.867
24070SOL    HW173651   7.971   3.928   0.953
24070SOL    HW273652   7.962   4.059   0.878
24071SOL     OW73653   7.827   5.564   0.856
24071SOL    HW173654   7.894   5.499   0.874
24071SOL    HW273655   7.871   5.649   0.866
24072SOL     OW73656   7.743   4.728   0.217
24072SOL    HW173657   7.787   4.809   0.192
24072SOL    HW273658   7.812   4.662   0.215
24073SOL     OW73659   7.910   4.961   1.796
24073SOL    HW173660   7.936   5.019   1.724
24073SOL    HW273661   7.817   4.980   1.809
24074SOL     OW73662   7.620   3.978   1.518
24074SOL    HW173663   7.539   4.025   1.499
24074SOL    HW273664   7.595   3.886   1.522
24075SOL     OW73665   7.687   5.510   1.229
24075SOL    HW173666   7.767   5.459   1.236
24075SOL    HW273667   7.655   5.492   1.140
24076SOL     OW73668   7.802   4.366   0.502
24076SOL    HW173669   7.833   4.295   0.559
24076SOL    HW273670   7.710   4.376   0.525
24077SOL     OW73671   0.045   3.817   0.055
24077SOL    HW173672   0.111   3.754   0.025
24077SOL    HW273673  -0.037   3.768   0.052
24078SOL     OW73674   7.983   3.865   0.473
24078SOL    HW173675   8.006   3.793   0.533
24078SOL    HW273676   7.891   3.883   0.492
24079SOL     OW73677   7.923   4.816   0.732
24079SOL    HW173678   7.844   4.818   0.786
24079SOL    HW273679   7.890   4.821   0.642
24080SOL     OW73680   7.539   4.269   1.386
24080SOL    HW173681   7.632   4.272   1.363
24080SOL    HW273682   7.529   4.337   1.453
24081SOL     OW73683   7.990   3.903   1.131
24081SOL    HW173684   8.035   3.835   1.181
24081SOL    HW273685   7.909   3.918   1.179
24082SOL     OW73686   7.879   4.544   1.277
24082SOL    HW173687   7.972   4.534   1.295
24082SOL    HW273688   7.844   4.455   1.285
24083SOL     OW73689   7.513   5.306   1.352
24083SOL    HW173690   7.465   5.368   1.296
24083SOL    HW273691   7.604   5.335   1.347
24084SOL     OW73692   7.831   4.838   0.474
24084SOL    HW173693   7.863   4.917   0.432
24084SOL    HW273694   7.769   4.801   0.411
24085SOL     OW73695  -0.020   4.272   0.859
24085SOL    HW173696   0.012   4.354   0.821
24085SOL    HW273697   0.019   4.270   0.946
24086SOL     OW73698   7.803   5.229   1.312
24086SOL    HW173699   7.797   5.211   1.218
24086SOL    HW273700   7.887   5.275   1.322
24087SOL     OW73701   7.850   4.466   1.601
24087SOL    HW173702   7.907   4.518   1.545
24087SOL    HW273703   7.893   4.380   1.606
24088SOL     OW73704   7.844   3.830   1.743
24088SOL    HW173705   7.844   3.756   1.682
24088SOL    HW273706   7.900   3.801   1.815
24089SOL     OW73707   7.990   4.643   1.040
24089SOL    HW173708   8.004   4.738   1.031
24089SOL    HW273709   7.942   4.633   1.122
24090SOL     OW73710   7.746   3.927   1.252
24090SOL    HW173711   7.679   3.951   1.316
24090SOL    HW273712   7.736   3.832   1.243
24091SOL     OW73713   7.510   5.038   1.291
24091SOL    HW173714   7.534   4.994   1.372
24091SOL    HW273715   7.508   5.131   1.314
24092SOL     OW73716   7.756   3.797   0.630
24092SOL    HW173717   7.733   3.885   0.661
24092SOL    HW273718   7.774   3.748   0.710
24093SOL     OW73719   7.783   4.637   1.805
24093SOL    HW173720   7.868   4.678   1.824
24093SOL    HW273721   7.803   4.567   1.743
24094SOL     OW73722   7.747   4.541   0.950
24094SOL    HW173723   7.839   4.566   0.961
24094SOL    HW273724   7.743   4.450   0.980
24095SOL     OW73725   7.753   4.265   1.012
24095SOL    HW173726   7.723   4.174   1.003
24095SOL    HW273727   7.828   4.270   0.953
24096SOL     OW73728   7.584   5.461   0.982
24096SOL    HW173729   7.541   5.401   0.922
24096SOL    HW273730   7.641   5.514   0.926
24097SOL     OW73731   7.479   4.274   1.117
24097SOL    HW173732   7.561   4.279   1.068
24097SOL    HW273733   7.506   4.270   1.209
24098SOL     OW73734   7.659   4.233   1.707
24098SOL    HW173735   7.732   4.229   1.645
24098SOL    HW273736   7.603   4.304   1.674
24099SOL     OW73737   7.687   5.262   1.718
24099SOL    HW173738   7.676   5.338   1.775
24099SOL    HW273739   7.683   5.186   1.777
24100SOL     OW73740   7.930   4.169   0.191
24100SOL    HW173741   7.961   4.250   0.232
24100SOL    HW273742   7.839   4.186   0.170
24101SOL     OW73743   7.668   4.889   1.485
24101SOL    HW173744   7.627   4.851   1.562
24101SOL    HW273745   7.655   4.823   1.416
24102SOL     OW73746   7.543   4.982   1.031
24102SOL    HW173747   7.530   4.993   1.125
24102SOL    HW273748   7.458   5.001   0.993
24103SOL     OW73749   7.599   5.497   1.848
24103SOL    HW173750   7.562   5.437   1.912
24103SOL    HW273751   7.650   5.560   1.900
24104SOL     OW73752   7.702   4.050   0.719
24104SOL    HW173753   7.613   4.078   0.696
24104SOL    HW273754   7.699   4.038   0.814
24105SOL     OW73755  -0.012   5.229   0.494
24105SOL    HW173756  -0.008   5.163   0.425
24105SOL    HW273757   0.038   5.303   0.459
24106SOL     OW73758   7.619   5.039   0.287
24106SOL    HW173759   7.583   5.111   0.236
24106SOL    HW273760   7.644   5.080   0.371
24107SOL     OW73761   7.567   4.795   1.738
24107SOL    HW173762   7.485   4.760   1.771
24107SOL    HW273763   7.633   4.733   1.768
24108SOL     OW73764   7.509   3.879   0.314
24108SOL    HW173765   7.483   3.960   0.270
24108SOL    HW273766   7.604   3.887   0.324
24109SOL     OW73767   7.798   5.462   1.562
24109SOL    HW173768   7.714   5.504   1.543
24109SOL    HW273769   7.775   5.379   1.603
24110SOL     OW73770   7.650   5.025   1.855
24110SOL    HW173771   7.620   4.949   1.804
24110SOL    HW273772   7.590   5.030   1.930
24111SOL     OW73773   7.531   4.933   0.679
24111SOL    HW173774   7.590   4.889   0.740
24111SOL    HW273775   7.583   4.944   0.599
24112SOL     OW73776   0.001   5.126   1.582
24112SOL    HW173777   0.078   5.127   1.639
24112SOL    HW273778   0.008   5.208   1.532
24113SOL     OW73779   7.794   4.283   1.289
24113SOL    HW173780   7.873   4.241   1.322
24113SOL    HW273781   7.794   4.264   1.195
24114SOL     OW73782   7.478   4.819   0.359
24114SOL    HW173783   7.535   4.892   0.335
24114SOL    HW273784   7.472   4.766   0.280
24115SOL     OW73785   7.649   4.319   1.984
24115SOL    HW173786   7.563   4.354   2.011
24115SOL    HW273787   7.648   4.324   1.889
24116SOL     OW73788   7.676   4.005   2.861
24116SOL    HW173789   7.702   3.968   2.946
24116SOL    HW273790   7.588   3.971   2.846
24117SOL     OW73791   7.456   4.111   2.506
24117SOL    HW173792   7.381   4.121   2.564
24117SOL    HW273793   7.434   4.036   2.450
24118SOL     OW73794   7.819   5.086   2.894
24118SOL    HW173795   7.727   5.060   2.892
24118SOL    HW273796   7.821   5.171   2.850
24119SOL     OW73797   7.862   4.138   3.376
24119SOL    HW173798   7.939   4.084   3.393
24119SOL    HW273799   7.789   4.076   3.375
24120SOL     OW73800   7.680   5.449   2.319
24120SOL    HW173801   7.675   5.515   2.389
24120SOL    HW273802   7.765   5.464   2.278
24121SOL     OW73803   7.646   5.163   2.344
24121SOL    HW173804   7.659   5.249   2.383
24121SOL    HW273805   7.608   5.110   2.413
24122SOL     OW73806   7.707   4.804   2.767
24122SOL    HW173807   7.700   4.713   2.796
24122SOL    HW273808   7.648   4.852   2.826
24123SOL     OW73809   7.571   4.367   2.428
24123SOL    HW173810   7.536   4.281   2.450
24123SOL    HW273811   7.557   4.419   2.507
24124SOL     OW73812   7.530   5.306   2.032
24124SOL    HW173813   7.469   5.236   2.014
24124SOL    HW273814   7.483   5.365   2.092
24125SOL     OW73815   7.560   4.470   3.435
24125SOL    HW173816   7.641   4.516   3.457
24125SOL    HW273817   7.494   4.538   3.433
24126SOL     OW73818   7.631   4.695   3.117
24126SOL    HW173819   7.715   4.650   3.117
24126SOL    HW273820   7.567   4.627   3.096
24127SOL     OW73821   7.751   3.990   3.668
24127SOL    HW173822   7.808   4.054   3.711
24127SOL    HW273823   7.665   4.004   3.708
24128SOL     OW73824   7.986   4.459   2.116
24128SOL    HW173825   8.051   4.528   2.124
24128SOL    HW273826   7.935   4.464   2.196
24129SOL     OW73827   7.529   4.541   2.637
24129SOL    HW173828   7.605   4.531   2.694
24129SOL    HW273829   7.487   4.622   2.666
24130SOL     OW73830   7.529   5.524   3.437
24130SOL    HW173831   7.548   5.529   3.531
24130SOL    HW273832   7.508   5.614   3.412
24131SOL     OW73833   7.966   3.934   2.747
24131SOL    HW173834   7.962   3.935   2.843
24131SOL    HW273835   7.960   4.026   2.722
24132SOL     OW73836   7.822   5.549   2.749
24132SOL    HW173837   7.897   5.488   2.752
24132SOL    HW273838   7.862   5.636   2.758
24133SOL     OW73839   7.757   4.697   2.128
24133SOL    HW173840   7.846   4.717   2.099
24133SOL    HW273841   7.740   4.609   2.092
24134SOL     OW73842   7.947   4.979   3.618
24134SOL    HW173843   7.913   4.976   3.529
24134SOL    HW273844   7.869   4.993   3.673
24135SOL     OW73845   7.627   3.991   3.387
24135SOL    HW173846   7.544   4.038   3.394
24135SOL    HW273847   7.645   3.961   3.476
24136SOL     OW73848   7.690   5.515   3.109
24136SOL    HW173849   7.749   5.477   3.174
24136SOL    HW273850   7.728   5.489   3.025
24137SOL     OW73851   7.826   4.436   2.336
24137SOL    HW173852   7.876   4.364   2.375
24137SOL    HW273853   7.735   4.417   2.358
24138SOL     OW73854   0.016   3.829   1.971
24138SOL    HW173855   0.098   3.786   1.995
24138SOL    HW273856   0.042   3.908   1.925
24139SOL     OW73857   7.974   3.746   2.351
24139SOL    HW173858   7.895   3.771   2.400
24139SOL    HW273859   8.011   3.829   2.322
24140SOL     OW73860   7.757   3.764   2.057
24140SOL    HW173861   7.846   3.791   2.033
24140SOL    HW273862   7.769   3.686   2.111
24141SOL     OW73863   7.919   4.852   2.615
24141SOL    HW173864   7.843   4.834   2.671
24141SOL    HW273865   7.886   4.846   2.526
24142SOL     OW73866   7.532   4.275   3.247
24142SOL    HW173867   7.624   4.271   3.223
24142SOL    HW273868   7.527   4.343   3.314
24143SOL     OW73869   7.978   3.921   3.015
24143SOL    HW173870   8.040   3.875   3.071
24143SOL    HW273871   7.895   3.918   3.064
24144SOL     OW73872   7.860   4.540   3.131
24144SOL    HW173873   7.909   4.547   3.213
24144SOL    HW273874   7.831   4.449   3.128
24145SOL     OW73875   7.522   5.261   3.166
24145SOL    HW173876   7.496   5.350   3.141
24145SOL    HW273877   7.618   5.264   3.167
24146SOL     OW73878   7.797   4.842   2.367
24146SOL    HW173879   7.827   4.914   2.312
24146SOL    HW273880   7.776   4.772   2.305
24147SOL     OW73881  -0.024   4.281   2.723
24147SOL    HW173882   0.018   4.355   2.681
24147SOL    HW273883   0.015   4.278   2.810
24148SOL     OW73884   7.796   5.215   3.166
24148SOL    HW173885   7.819   5.162   3.089
24148SOL    HW273886   7.877   5.261   3.189
24149SOL     OW73887   7.870   4.444   3.462
24149SOL    HW173888   7.961   4.472   3.466
24149SOL    HW273889   7.874   4.350   3.443
24150SOL     OW73890   7.927   3.803   3.588
24150SOL    HW173891   7.884   3.737   3.534
24150SOL    HW273892   7.857   3.865   3.609
24151SOL     OW73893   7.971   4.671   2.916
24151SOL    HW173894   8.065   4.665   2.935
24151SOL    HW273895   7.929   4.627   2.990
24152SOL     OW73896   7.725   3.904   3.126
24152SOL    HW173897   7.685   3.940   3.205
24152SOL    HW273898   7.703   3.811   3.127
24153SOL     OW73899   7.742   3.799   2.487
24153SOL    HW173900   7.731   3.892   2.509
24153SOL    HW273901   7.761   3.757   2.571
24154SOL     OW73902   7.753   4.652   3.638
24154SOL    HW173903   7.764   4.658   3.733
24154SOL    HW273904   7.810   4.579   3.612
24155SOL     OW73905   7.737   4.535   2.817
24155SOL    HW173906   7.827   4.563   2.831
24155SOL    HW273907   7.737   4.441   2.838
24156SOL     OW73908   7.745   4.262   2.857
24156SOL    HW173909   7.721   4.170   2.857
24156SOL    HW273910   7.823   4.266   2.802
24157SOL     OW73911   7.480   5.028   2.062
24157SOL    HW173912   7.390   5.046   2.034
24157SOL    HW273913   7.475   4.944   2.108
24158SOL     OW73914   7.547   5.508   2.802
24158SOL    HW173915   7.528   5.425   2.760
24158SOL    HW273916   7.639   5.525   2.780
24159SOL     OW73917   7.489   4.283   2.973
24159SOL    HW173918   7.571   4.280   2.924
24159SOL    HW273919   7.516   4.274   3.065
24160SOL     OW73920   7.616   4.252   3.593
24160SOL    HW173921   7.688   4.217   3.540
24160SOL    HW273922   7.584   4.327   3.543
24161SOL     OW73923   0.208   4.238   2.159
24161SOL    HW173924   0.185   4.150   2.187
24161SOL    HW273925   0.181   4.294   2.231
24162SOL     OW73926   7.701   5.266   3.587
24162SOL    HW173927   7.679   5.333   3.651
24162SOL    HW273928   7.705   5.185   3.638
24163SOL     OW73929   7.907   4.219   2.012
24163SOL    HW173930   7.950   4.297   2.048
24163SOL    HW273931   7.814   4.241   2.011
24164SOL     OW73932   7.580   4.888   3.304
24164SOL    HW173933   7.572   4.842   3.387
24164SOL    HW273934   7.600   4.820   3.240
24165SOL     OW73935   7.544   4.964   2.912
24165SOL    HW173936   7.512   4.920   2.991
24165SOL    HW273937   7.472   4.955   2.850
24166SOL     OW73938   7.602   5.511   3.700
24166SOL    HW173939   7.550   5.449   3.750
24166SOL    HW273940   7.643   5.566   3.766
24167SOL     OW73941   7.724   4.056   2.581
24167SOL    HW173942   7.637   4.086   2.554
24167SOL    HW273943   7.716   4.040   2.675
24168SOL     OW73944   7.823   5.007   3.376
24168SOL    HW173945   7.831   5.086   3.323
24168SOL    HW273946   7.744   4.964   3.343
24169SOL     OW73947   7.962   5.255   2.317
24169SOL    HW173948   8.045   5.210   2.335
24169SOL    HW273949   7.983   5.348   2.325
24170SOL     OW73950   7.538   4.799   3.579
24170SOL    HW173951   7.468   4.758   3.630
24170SOL    HW273952   7.616   4.747   3.598
24171SOL     OW73953   7.510   4.041   1.904
24171SOL    HW173954   7.428   4.007   1.868
24171SOL    HW273955   7.499   4.136   1.903
24172SOL     OW73956   7.521   3.879   2.157
24172SOL    HW173957   7.506   3.949   2.094
24172SOL    HW273958   7.609   3.847   2.139
24173SOL     OW73959   7.791   5.454   3.392
24173SOL    HW173960   7.699   5.480   3.395
24173SOL    HW273961   7.796   5.377   3.449
24174SOL     OW73962   7.676   5.018   3.708
24174SOL    HW173963   7.636   4.943   3.663
24174SOL    HW273964   7.621   5.033   3.784
24175SOL     OW73965   7.555   4.946   2.519
24175SOL    HW173966   7.556   4.896   2.601
24175SOL    HW273967   7.620   4.904   2.464
24176SOL     OW73968   0.098   5.152   3.416
24176SOL    HW173969   0.047   5.101   3.479
24176SOL    HW273970   0.165   5.195   3.470
24177SOL     OW73971   7.785   4.277   3.148
24177SOL    HW173972   7.836   4.230   3.214
24177SOL    HW273973   7.816   4.242   3.065
24178SOL     OW73974   7.491   4.780   2.186
24178SOL    HW173975   7.581   4.768   2.156
24178SOL    HW273976   7.460   4.692   2.207
24179SOL     OW73977   7.661   4.353   3.848
24179SOL    HW173978   7.579   4.346   3.897
24179SOL    HW273979   7.639   4.325   3.760
24180SOL     OW73980   7.684   3.991   4.713
24180SOL    HW173981   7.704   3.967   4.804
24180SOL    HW273982   7.592   3.966   4.701
24181SOL     OW73983   7.446   4.106   4.372
24181SOL    HW173984   7.367   4.141   4.413
24181SOL    HW273985   7.424   4.015   4.352
24182SOL     OW73986   7.749   5.178   4.768
24182SOL    HW173987   7.667   5.131   4.757
24182SOL    HW273988   7.813   5.128   4.716
24183SOL     OW73989   7.875   4.105   5.266
24183SOL    HW173990   7.931   4.038   5.227
24183SOL    HW273991   7.785   4.073   5.252
24184SOL     OW73992   7.657   5.445   4.198
24184SOL    HW173993   7.676   5.514   4.261
24184SOL    HW273994   7.715   5.463   4.124
24185SOL     OW73995   7.673   5.166   4.262
24185SOL    HW173996   7.653   5.259   4.268
24185SOL    HW273997   7.616   5.125   4.327
24186SOL     OW73998   7.709   4.825   4.654
24186SOL    HW173999   7.714   4.756   4.720
24186SOL    HW274000   7.647   4.888   4.689
24187SOL     OW74001   7.500   4.378   4.287
24187SOL    HW174002   7.500   4.289   4.321
24187SOL    HW274003   7.526   4.433   4.361
24188SOL     OW74004   7.491   5.311   3.839
24188SOL    HW174005   7.474   5.220   3.863
24188SOL    HW274006   7.462   5.362   3.914
24189SOL     OW74007   7.550   4.465   5.310
24189SOL    HW174008   7.636   4.506   5.301
24189SOL    HW274009   7.488   4.535   5.289
24190SOL     OW74010   7.755   3.980   5.560
24190SOL    HW174011   7.798   4.063   5.542
24190SOL    HW274012   7.664   4.004   5.579
24191SOL     OW74013   0.054   4.464   3.939
24191SOL    HW174014   0.072   4.556   3.918
24191SOL    HW274015   0.007   4.468   4.023
24192SOL     OW74016   7.536   4.570   4.483
24192SOL    HW174017   7.619   4.553   4.529
24192SOL    HW274018   7.494   4.639   4.535
24193SOL     OW74019   7.558   5.566   5.298
24193SOL    HW174020   7.578   5.562   5.392
24193SOL    HW274021   7.470   5.530   5.290
24194SOL     OW74022   7.960   3.922   4.589
24194SOL    HW174023   7.963   3.925   4.684
24194SOL    HW274024   7.918   4.004   4.563
24195SOL     OW74025   7.807   5.553   4.604
24195SOL    HW174026   7.854   5.474   4.630
24195SOL    HW274027   7.872   5.623   4.611
24196SOL     OW74028   7.748   4.667   3.915
24196SOL    HW174029   7.814   4.669   3.984
24196SOL    HW274030   7.704   4.583   3.927
24197SOL     OW74031   7.944   4.950   5.450
24197SOL    HW174032   7.900   4.966   5.366
24197SOL    HW274033   7.882   4.980   5.516
24198SOL     OW74034   7.622   4.025   5.218
24198SOL    HW174035   7.575   4.100   5.180
24198SOL    HW274036   7.555   3.975   5.264
24199SOL     OW74037   7.706   5.523   4.961
24199SOL    HW174038   7.747   5.442   4.993
24199SOL    HW274039   7.687   5.505   4.869
24200SOL     OW74040   0.010   3.807   3.851
24200SOL    HW174041   0.105   3.797   3.861
24200SOL    HW274042  -0.004   3.807   3.757
24201SOL     OW74043   0.050   3.799   4.301
24201SOL    HW174044  -0.045   3.792   4.302
24201SOL    HW274045   0.069   3.858   4.228
24202SOL     OW74046   7.738   3.779   3.900
24202SOL    HW174047   7.772   3.860   3.862
24202SOL    HW274048   7.816   3.726   3.918
24203SOL     OW74049   7.905   4.872   4.476
24203SOL    HW174050   7.840   4.851   4.543
24203SOL    HW274051   7.885   4.813   4.404
24204SOL     OW74052   7.554   4.268   5.116
24204SOL    HW174053   7.643   4.291   5.089
24204SOL    HW274054   7.528   4.337   5.176
24205SOL     OW74055   7.996   3.928   4.850
24205SOL    HW174056   8.069   3.915   4.910
24205SOL    HW274057   7.919   3.930   4.907
24206SOL     OW74058   7.936   4.532   5.003
24206SOL    HW174059   7.867   4.599   5.000
24206SOL    HW274060   7.889   4.449   5.011
24207SOL     OW74061   7.518   5.304   5.098
24207SOL    HW174062   7.485   5.356   5.025
24207SOL    HW274063   7.611   5.293   5.079
24208SOL     OW74064   7.768   4.845   4.208
24208SOL    HW174065   7.672   4.836   4.206
24208SOL    HW274066   7.800   4.755   4.209
24209SOL     OW74067   7.980   4.266   4.581
24209SOL    HW174068   8.008   4.351   4.548
24209SOL    HW274069   8.012   4.264   4.671
24210SOL     OW74070   7.781   5.262   5.027
24210SOL    HW174071   7.777   5.219   4.942
24210SOL    HW274072   7.874   5.278   5.042
24211SOL     OW74073   7.837   4.471   5.323
24211SOL    HW174074   7.889   4.507   5.251
24211SOL    HW274075   7.860   4.378   5.324
24212SOL     OW74076   7.931   3.800   5.463
24212SOL    HW174077   7.886   3.737   5.408
24212SOL    HW274078   7.863   3.863   5.487
24213SOL     OW74079   7.991   4.631   4.748
24213SOL    HW174080   8.040   4.706   4.781
24213SOL    HW274081   7.967   4.582   4.826
24214SOL     OW74082   7.757   3.932   4.982
24214SOL    HW174083   7.700   3.959   5.054
24214SOL    HW274084   7.741   3.838   4.974
24215SOL     OW74085   7.501   5.045   4.996
24215SOL    HW174086   7.528   4.975   5.055
24215SOL    HW274087   7.500   5.123   5.051
24216SOL     OW74088   7.764   3.788   4.340
24216SOL    HW174089   7.742   3.879   4.361
24216SOL    HW274090   7.770   3.745   4.425
24217SOL     OW74091   7.808   4.649   5.540
24217SOL    HW174092   7.887   4.697   5.516
24217SOL    HW274093   7.808   4.572   5.483
24218SOL     OW74094   7.758   4.520   4.640
24218SOL    HW174095   7.833   4.569   4.672
24218SOL    HW274096   7.737   4.459   4.710
24219SOL     OW74097   7.754   4.250   4.749
24219SOL    HW174098   7.728   4.160   4.734
24219SOL    HW274099   7.820   4.268   4.682
24220SOL     OW74100   7.467   5.037   3.898
24220SOL    HW174101   7.378   5.048   3.864
24220SOL    HW274102   7.464   4.954   3.946
24221SOL     OW74103   7.540   5.502   4.674
24221SOL    HW174104   7.507   5.425   4.628
24221SOL    HW274105   7.627   5.517   4.636
24222SOL     OW74106   7.488   4.249   4.849
24222SOL    HW174107   7.574   4.269   4.812
24222SOL    HW274108   7.502   4.248   4.944
24223SOL     OW74109   7.630   4.249   5.459
24223SOL    HW174110   7.659   4.193   5.386
24223SOL    HW274111   7.592   4.326   5.416
24224SOL     OW74112   0.227   4.221   4.027
24224SOL    HW174113   0.195   4.138   4.063
24224SOL    HW274114   0.201   4.286   4.092
24225SOL     OW74115   7.682   5.267   5.435
24225SOL    HW174116   7.679   5.331   5.506
24225SOL    HW274117   7.698   5.183   5.479
24226SOL     OW74118   7.907   4.224   3.868
24226SOL    HW174119   7.967   4.287   3.909
24226SOL    HW274120   7.821   4.265   3.874
24227SOL     OW74121   7.571   4.867   5.202
24227SOL    HW174122   7.585   4.819   5.284
24227SOL    HW274123   7.607   4.809   5.135
24228SOL     OW74124   7.520   5.016   4.732
24228SOL    HW174125   7.511   5.020   4.827
24228SOL    HW274126   7.455   4.951   4.705
24229SOL     OW74127   7.603   5.516   5.563
24229SOL    HW174128   7.545   5.453   5.605
24229SOL    HW274129   7.646   5.561   5.635
24230SOL     OW74130   7.713   4.038   4.440
24230SOL    HW174131   7.632   4.081   4.412
24230SOL    HW274132   7.702   4.027   4.535
24231SOL     OW74133   7.810   5.022   5.226
24231SOL    HW174134   7.800   5.096   5.166
24231SOL    HW274135   7.738   4.963   5.204
24232SOL     OW74136   0.007   5.179   4.159
24232SOL    HW174137   0.045   5.159   4.244
24232SOL    HW274138  -0.011   5.273   4.161
24233SOL     OW74139   7.719   5.084   4.014
24233SOL    HW174140   7.631   5.071   3.978
24233SOL    HW274141   7.704   5.118   4.102
24234SOL     OW74142   7.567   4.781   5.474
24234SOL    HW174143   7.486   4.748   5.514
24234SOL    HW274144   7.635   4.723   5.508
24235SOL     OW74145   7.509   4.057   3.766
24235SOL    HW174146   7.413   4.058   3.774
24235SOL    HW274147   7.529   4.134   3.712
24236SOL     OW74148   7.513   3.870   4.030
24236SOL    HW174149   7.506   3.957   3.990
24236SOL    HW274150   7.598   3.837   3.999
24237SOL     OW74151   7.826   5.474   5.282
24237SOL    HW174152   7.730   5.481   5.289
24237SOL    HW274153   7.845   5.383   5.303
24238SOL     OW74154   7.689   5.021   5.564
24238SOL    HW174155   7.641   4.947   5.527
24238SOL    HW274156   7.666   5.021   5.657
24239SOL     OW74157   7.533   4.944   4.415
24239SOL    HW174158   7.487   4.892   4.481
24239SOL    HW274159   7.624   4.915   4.421
24240SOL     OW74160   0.101   5.165   5.274
24240SOL    HW174161   0.056   5.095   5.320
24240SOL    HW274162   0.171   5.192   5.334
24241SOL     OW74163   7.809   4.290   5.020
24241SOL    HW174164   7.873   4.229   5.056
24241SOL    HW274165   7.803   4.267   4.928
24242SOL     OW74166   7.514   4.795   4.022
24242SOL    HW174167   7.598   4.776   3.978
24242SOL    HW274168   7.480   4.709   4.047
24243SOL     OW74169   7.662   4.337   5.722
24243SOL    HW174170   7.573   4.336   5.756
24243SOL    HW274171   7.653   4.320   5.629
24244SOL     OW74172   7.678   3.975   6.562
24244SOL    HW174173   7.700   3.970   6.655
24244SOL    HW274174   7.584   3.956   6.558
24245SOL     OW74175   7.470   4.108   6.220
24245SOL    HW174176   7.399   4.147   6.271
24245SOL    HW274177   7.431   4.031   6.179
24246SOL     OW74178   7.770   5.167   6.644
24246SOL    HW174179   7.698   5.115   6.607
24246SOL    HW274180   7.825   5.188   6.569
24247SOL     OW74181   7.855   4.117   7.148
24247SOL    HW174182   7.931   4.059   7.135
24247SOL    HW274183   7.781   4.068   7.111
24248SOL     OW74184   7.668   5.426   6.057
24248SOL    HW174185   7.676   5.501   6.115
24248SOL    HW274186   7.747   5.429   6.003
24249SOL     OW74187   7.682   5.159   6.114
24249SOL    HW174188   7.673   5.253   6.104
24249SOL    HW274189   7.617   5.135   6.180
24250SOL     OW74190   7.719   4.812   6.493
24250SOL    HW174191   7.724   4.719   6.516
24250SOL    HW274192   7.658   4.849   6.557
24251SOL     OW74193   7.577   4.370   6.142
24251SOL    HW174194   7.536   4.285   6.160
24251SOL    HW274195   7.565   4.420   6.223
24252SOL     OW74196   7.470   5.318   5.696
24252SOL    HW174197   7.470   5.227   5.725
24252SOL    HW274198   7.454   5.369   5.775
24253SOL     OW74199   7.634   4.697   6.849
24253SOL    HW174200   7.719   4.662   6.875
24253SOL    HW274201   7.611   4.646   6.771
24254SOL     OW74202   7.758   3.969   7.424
24254SOL    HW174203   7.800   4.051   7.397
24254SOL    HW274204   7.669   3.995   7.450
24255SOL     OW74205   0.025   4.470   5.849
24255SOL    HW174206   0.034   4.564   5.834
24255SOL    HW274207  -0.040   4.463   5.918
24256SOL     OW74208   7.541   4.525   6.359
24256SOL    HW174209   7.605   4.515   6.429
24256SOL    HW274210   7.488   4.600   6.385
24257SOL     OW74211   7.560   5.598   7.171
24257SOL    HW174212   7.566   5.577   7.264
24257SOL    HW274213   7.491   5.539   7.138
24258SOL     OW74214   7.962   3.914   6.476
24258SOL    HW174215   7.896   3.974   6.512
24258SOL    HW274216   7.985   3.952   6.391
24259SOL     OW74217   7.832   5.547   6.459
24259SOL    HW174218   7.907   5.490   6.476
24259SOL    HW274219   7.868   5.636   6.464
24260SOL     OW74220   7.740   4.684   5.834
24260SOL    HW174221   7.790   4.699   5.754
24260SOL    HW274222   7.719   4.590   5.832
24261SOL     OW74223   7.917   4.931   7.318
24261SOL    HW174224   7.885   4.954   7.231
24261SOL    HW274225   7.850   4.966   7.378
24262SOL     OW74226   7.612   4.012   7.076
24262SOL    HW174227   7.578   4.092   7.037
24262SOL    HW274228   7.566   4.005   7.160
24263SOL     OW74229   7.685   5.505   6.811
24263SOL    HW174230   7.741   5.430   6.830
24263SOL    HW274231   7.660   5.493   6.719
24264SOL     OW74232   7.830   4.423   6.037
24264SOL    HW174233   7.869   4.344   6.074
24264SOL    HW274234   7.739   4.420   6.064
24265SOL     OW74235   0.011   3.795   5.731
24265SOL    HW174236   0.106   3.789   5.740
24265SOL    HW274237  -0.003   3.801   5.636
24266SOL     OW74238   7.949   3.726   6.070
24266SOL    HW174239   7.874   3.768   6.113
24266SOL    HW274240   8.005   3.799   6.044
24267SOL     OW74241   7.739   3.795   5.761
24267SOL    HW174242   7.745   3.864   5.695
24267SOL    HW274243   7.831   3.772   5.780
24268SOL     OW74244   7.926   4.837   6.319
24268SOL    HW174245   7.851   4.828   6.378
24268SOL    HW274246   7.888   4.828   6.231
24269SOL     OW74247   7.542   4.275   6.998
24269SOL    HW174248   7.632   4.287   6.967
24269SOL    HW274249   7.526   4.349   7.057
24270SOL     OW74250   8.018   3.883   6.800
24270SOL    HW174251   8.013   3.860   6.707
24270SOL    HW274252   7.933   3.921   6.820
24271SOL     OW74253   7.870   4.549   6.912
24271SOL    HW174254   7.928   4.578   6.842
24271SOL    HW274255   7.829   4.470   6.878
24272SOL     OW74256   7.524   5.287   6.938
24272SOL    HW174257   7.493   5.353   6.876
24272SOL    HW274258   7.620   5.289   6.929
24273SOL     OW74259   7.821   4.832   6.059
24273SOL    HW174260   7.796   4.914   6.017
24273SOL    HW274261   7.787   4.764   6.002
24274SOL     OW74262   0.027   4.262   6.434
24274SOL    HW174263   0.028   4.356   6.415
24274SOL    HW274264   0.001   4.257   6.526
24275SOL     OW74265   7.800   5.256   6.898
24275SOL    HW174266   7.797   5.214   6.812
24275SOL    HW274267   7.894   5.269   6.915
24276SOL     OW74268   7.886   4.488   7.180
24276SOL    HW174269   7.872   4.527   7.094
24276SOL    HW274270   7.861   4.396   7.169
24277SOL     OW74271   7.940   3.808   7.313
24277SOL    HW174272   7.893   3.740   7.265
24277SOL    HW274273   7.871   3.864   7.349
24278SOL     OW74274   8.014   4.625   6.674
24278SOL    HW174275   8.019   4.711   6.633
24278SOL    HW274276   7.935   4.586   6.637
24279SOL     OW74277   7.747   3.923   6.836
24279SOL    HW174278   7.689   3.953   6.906
24279SOL    HW274279   7.733   3.828   6.832
24280SOL     OW74280   7.496   5.023   6.860
24280SOL    HW174281   7.524   4.966   6.932
24280SOL    HW274282   7.503   5.112   6.896
24281SOL     OW74283   7.723   3.798   6.214
24281SOL    HW174284   7.715   3.893   6.221
24281SOL    HW274285   7.736   3.767   6.304
24282SOL     OW74286   7.805   4.600   7.427
24282SOL    HW174287   7.889   4.644   7.412
24282SOL    HW274288   7.785   4.556   7.344
24283SOL     OW74289   7.794   4.221   6.628
24283SOL    HW174290   7.741   4.167   6.570
24283SOL    HW274291   7.778   4.311   6.598
24284SOL     OW74292   7.458   5.045   5.791
24284SOL    HW174293   7.367   5.062   5.764
24284SOL    HW274294   7.456   4.955   5.824
24285SOL     OW74295   7.585   5.479   6.552
24285SOL    HW174296   7.534   5.442   6.480
24285SOL    HW274297   7.666   5.510   6.511
24286SOL     OW74298   7.489   4.266   6.713
24286SOL    HW174299   7.549   4.314   6.656
24286SOL    HW274300   7.528   4.273   6.800
24287SOL     OW74301   7.654   4.230   7.308
24287SOL    HW174302   7.725   4.211   7.246
24287SOL    HW274303   7.617   4.312   7.276
24288SOL     OW74304   0.238   4.235   5.895
24288SOL    HW174305   0.192   4.151   5.896
24288SOL    HW274306   0.195   4.287   5.963
24289SOL     OW74307   7.690   5.273   7.304
24289SOL    HW174308   7.705   5.333   7.377
24289SOL    HW274309   7.703   5.186   7.342
24290SOL     OW74310   7.917   4.228   5.756
24290SOL    HW174311   7.963   4.306   5.786
24290SOL    HW274312   7.825   4.254   5.753
24291SOL     OW74313   7.589   4.856   7.063
24291SOL    HW174314   7.583   4.799   7.139
24291SOL    HW274315   7.600   4.797   6.989
24292SOL     OW74316   7.498   4.995   6.594
24292SOL    HW174317   7.509   4.981   6.688
24292SOL    HW274318   7.469   4.910   6.561
24293SOL     OW74319   7.577   5.529   7.436
24293SOL    HW174320   7.527   5.466   7.487
24293SOL    HW274321   7.636   5.571   7.500
24294SOL     OW74322   7.725   4.055   6.300
24294SOL    HW174323   7.642   4.089   6.265
24294SOL    HW274324   7.705   4.035   6.391
24295SOL     OW74325   7.809   5.029   7.093
24295SOL    HW174326   7.804   5.095   7.023
24295SOL    HW274327   7.735   4.971   7.077
24296SOL     OW74328   0.006   5.252   5.993
24296SOL    HW174329   0.011   5.186   6.062
24296SOL    HW274330   0.065   5.322   6.021
24297SOL     OW74331   7.722   5.054   5.870
24297SOL    HW174332   7.629   5.057   5.846
24297SOL    HW274333   7.727   5.102   5.952
24298SOL     OW74334   7.567   4.789   7.377
24298SOL    HW174335   7.478   4.761   7.398
24298SOL    HW274336   7.611   4.709   7.348
24299SOL     OW74337   7.503   4.056   5.622
24299SOL    HW174338   7.419   4.037   5.581
24299SOL    HW274339   7.530   4.140   5.584
24300SOL     OW74340   7.506   3.877   5.879
24300SOL    HW174341   7.485   3.953   5.824
24300SOL    HW274342   7.593   3.851   5.852
24301SOL     OW74343   7.825   5.477   7.152
24301SOL    HW174344   7.746   5.523   7.122
24301SOL    HW274345   7.794   5.390   7.176
24302SOL     OW74346   7.687   5.028   7.439
24302SOL    HW174347   7.640   4.951   7.407
24302SOL    HW274348   7.680   5.023   7.534
24303SOL     OW74349   7.531   4.977   6.272
24303SOL    HW174350   7.534   4.913   6.344
24303SOL    HW274351   7.584   4.937   6.203
24304SOL     OW74352   0.099   5.162   7.227
24304SOL    HW174353   0.036   5.092   7.213
24304SOL    HW274354   0.084   5.223   7.155
24305SOL     OW74355   7.790   4.275   6.892
24305SOL    HW174356   7.870   4.239   6.929
24305SOL    HW274357   7.793   4.253   6.799
24306SOL     OW74358   7.488   4.791   5.904
24306SOL    HW174359   7.578   4.778   5.872
24306SOL    HW274360   7.459   4.703   5.928
24307SOL     OW74361   7.648   4.359   7.567
24307SOL    HW174362   7.588   4.302   7.519
24307SOL    HW274363   7.688   4.414   7.500
24308SOL     OW74364   7.452   4.110   8.090
24308SOL    HW174365   7.419   4.084   8.176
24308SOL    HW274366   7.424   4.040   8.031
24309SOL     OW74367   7.742   5.179   8.493
24309SOL    HW174368   7.693   5.112   8.446
24309SOL    HW274369   7.817   5.198   8.437
24310SOL     OW74370   7.893   4.057   8.974
24310SOL    HW174371   7.906   4.009   8.893
24310SOL    HW274372   7.798   4.053   8.989
24311SOL     OW74373   7.691   5.436   7.931
24311SOL    HW174374   7.698   5.515   7.984
24311SOL    HW274375   7.778   5.425   7.893
24312SOL     OW74376   7.645   5.170   7.971
24312SOL    HW174377   7.670   5.262   7.970
24312SOL    HW274378   7.619   5.153   8.062
24313SOL     OW74379   7.690   4.815   8.324
24313SOL    HW174380   7.697   4.727   8.361
24313SOL    HW274381   7.638   4.864   8.389
24314SOL     OW74382   7.527   4.368   8.008
24314SOL    HW174383   7.499   4.282   8.040
24314SOL    HW274384   7.527   4.423   8.086
24315SOL     OW74385   7.462   5.339   7.603
24315SOL    HW174386   7.454   5.255   7.559
24315SOL    HW274387   7.507   5.319   7.685
24316SOL     OW74388   7.557   4.456   9.032
24316SOL    HW174389   7.648   4.485   9.030
24316SOL    HW274390   7.506   4.537   9.019
24317SOL     OW74391   7.662   4.680   8.795
24317SOL    HW174392   7.738   4.635   8.758
24317SOL    HW274393   7.594   4.670   8.729
24318SOL     OW74394   7.767   3.963   9.266
24318SOL    HW174395   7.802   4.050   9.248
24318SOL    HW274396   7.678   3.978   9.295
24319SOL     OW74397   7.982   4.463   7.685
24319SOL    HW174398   8.035   4.535   7.650
24319SOL    HW274399   7.931   4.503   7.755
24320SOL     OW74400   7.531   4.554   8.214
24320SOL    HW174401   7.610   4.537   8.265
24320SOL    HW274402   7.490   4.628   8.259
24321SOL     OW74403   7.538   5.522   9.023
24321SOL    HW174404   7.546   5.528   9.119
24321SOL    HW274405   7.538   5.613   8.994
24322SOL     OW74406   7.975   3.930   8.358
24322SOL    HW174407   7.891   3.955   8.395
24322SOL    HW274408   7.980   3.977   8.274
24323SOL     OW74409   7.807   5.537   8.328
24323SOL    HW174410   7.888   5.485   8.325
24323SOL    HW274411   7.837   5.627   8.337
24324SOL     OW74412   7.747   4.684   7.686
24324SOL    HW174413   7.837   4.717   7.693
24324SOL    HW274414   7.742   4.648   7.598
24325SOL     OW74415   7.861   4.963   9.193
24325SOL    HW174416   7.918   4.980   9.118
24325SOL    HW274417   7.869   5.041   9.247
24326SOL     OW74418   7.618   4.028   9.003
24326SOL    HW174419   7.541   4.052   8.951
24326SOL    HW274420   7.612   3.933   9.013
24327SOL     OW74421   7.727   5.512   8.667
24327SOL    HW174422   7.807   5.476   8.705
24327SOL    HW274423   7.725   5.475   8.578
24328SOL     OW74424   7.797   4.406   7.904
24328SOL    HW174425   7.889   4.381   7.910
24328SOL    HW274426   7.761   4.384   7.990
24329SOL     OW74427   0.023   3.808   7.596
24329SOL    HW174428   0.116   3.787   7.607
24329SOL    HW274429   0.013   3.823   7.502
24330SOL     OW74430   7.984   3.741   7.987
24330SOL    HW174431   7.894   3.772   7.998
24330SOL    HW274432   8.025   3.807   7.931
24331SOL     OW74433   7.741   3.784   7.635
24331SOL    HW174434   7.775   3.852   7.576
24331SOL    HW274435   7.819   3.738   7.665
24332SOL     OW74436   7.916   4.824   8.175
24332SOL    HW174437   7.843   4.820   8.236
24332SOL    HW274438   7.875   4.826   8.088
24333SOL     OW74439   7.535   4.275   8.827
24333SOL    HW174440   7.627   4.273   8.801
24333SOL    HW274441   7.532   4.338   8.898
24334SOL     OW74442   8.017   3.936   8.670
24334SOL    HW174443   8.022   3.892   8.585
24334SOL    HW274444   7.924   3.935   8.692
24335SOL     OW74445   7.888   4.543   8.724
24335SOL    HW174446   7.982   4.532   8.742
24335SOL    HW274447   7.853   4.454   8.722
24336SOL     OW74448   7.496   5.316   8.796
24336SOL    HW174449   7.500   5.411   8.802
24336SOL    HW274450   7.588   5.289   8.784
24337SOL     OW74451   7.777   4.839   7.935
24337SOL    HW174452   7.776   4.914   7.876
24337SOL    HW274453   7.759   4.764   7.879
24338SOL     OW74454  -0.006   4.305   8.309
24338SOL    HW174455   0.037   4.382   8.272
24338SOL    HW274456   0.030   4.297   8.397
24339SOL     OW74457   7.738   5.212   8.759
24339SOL    HW174458   7.740   5.195   8.664
24339SOL    HW274459   7.819   5.259   8.777
24340SOL     OW74460   7.848   4.455   9.038
24340SOL    HW174461   7.938   4.473   9.008
24340SOL    HW274462   7.842   4.359   9.039
24341SOL     OW74463   7.997   4.647   8.486
24341SOL    HW174464   8.011   4.741   8.488
24341SOL    HW274465   7.951   4.628   8.568
24342SOL     OW74466   7.765   3.903   8.767
24342SOL    HW174467   7.694   3.956   8.733
24342SOL    HW274468   7.750   3.816   8.730
24343SOL     OW74469   7.484   5.044   8.738
24343SOL    HW174470   7.574   5.024   8.764
24343SOL    HW274471   7.476   5.139   8.750
24344SOL     OW74472   7.727   3.803   8.068
24344SOL    HW174473   7.723   3.897   8.087
24344SOL    HW274474   7.740   3.761   8.153
24345SOL     OW74475   7.780   4.656   9.206
24345SOL    HW174476   7.836   4.676   9.281
24345SOL    HW274477   7.813   4.573   9.173
24346SOL     OW74478   7.744   4.559   8.400
24346SOL    HW174479   7.838   4.579   8.407
24346SOL    HW274480   7.738   4.467   8.426
24347SOL     OW74481   7.771   4.299   8.458
24347SOL    HW174482   7.738   4.210   8.455
24347SOL    HW274483   7.848   4.298   8.400
24348SOL     OW74484   7.446   5.048   7.663
24348SOL    HW174485   7.362   5.070   7.623
24348SOL    HW274486   7.444   4.953   7.673
24349SOL     OW74487   7.532   5.510   8.370
24349SOL    HW174488   7.510   5.427   8.328
24349SOL    HW274489   7.627   5.520   8.356
24350SOL     OW74490   7.470   4.250   8.550
24350SOL    HW174491   7.518   4.182   8.505
24350SOL    HW274492   7.512   4.256   8.636
24351SOL     OW74493   7.631   4.234   9.179
24351SOL    HW174494   7.629   4.161   9.117
24351SOL    HW274495   7.590   4.307   9.132
24352SOL     OW74496   0.230   4.300   7.746
24352SOL    HW174497   0.270   4.213   7.745
24352SOL    HW274498   0.157   4.291   7.807
24353SOL     OW74499   7.663   5.238   9.191
24353SOL    HW174500   7.718   5.312   9.164
24353SOL    HW274501   7.646   5.254   9.284
24354SOL     OW74502   7.901   4.215   7.610
24354SOL    HW174503   7.948   4.293   7.638
24354SOL    HW274504   7.811   4.244   7.596
24355SOL     OW74505   7.525   4.978   8.465
24355SOL    HW174506   7.496   5.000   8.553
24355SOL    HW274507   7.454   4.924   8.429
24356SOL     OW74508   7.581   5.528   9.301
24356SOL    HW174509   7.556   5.448   9.347
24356SOL    HW274510   7.641   5.572   9.361
24357SOL     OW74511   7.728   4.065   8.150
24357SOL    HW174512   7.641   4.094   8.126
24357SOL    HW274513   7.724   4.051   8.245
24358SOL     OW74514   7.788   4.975   8.904
24358SOL    HW174515   7.775   5.062   8.942
24358SOL    HW274516   7.848   4.990   8.831
24359SOL     OW74517  -0.021   5.291   7.877
24359SOL    HW174518   0.039   5.220   7.899
24359SOL    HW274519   0.027   5.371   7.900
24360SOL     OW74520   7.709   5.046   7.739
24360SOL    HW174521   7.617   5.046   7.712
24360SOL    HW274522   7.711   5.100   7.818
24361SOL     OW74523   7.542   4.772   9.159
24361SOL    HW174524   7.463   4.741   9.205
24361SOL    HW274525   7.614   4.730   9.206
24362SOL     OW74526   7.513   4.078   7.480
24362SOL    HW174527   7.431   4.056   7.435
24362SOL    HW274528   7.559   4.136   7.419
24363SOL     OW74529   7.506   3.880   7.738
24363SOL    HW174530   7.492   3.948   7.672
24363SOL    HW274531   7.594   3.848   7.721
24364SOL     OW74532   7.804   5.443   9.036
24364SOL    HW174533   7.718   5.468   9.001
24364SOL    HW274534   7.856   5.422   8.958
24365SOL     OW74535   7.630   4.981   9.376
24365SOL    HW174536   7.691   4.969   9.303
24365SOL    HW274537   7.682   5.026   9.443
24366SOL     OW74538   7.537   4.939   8.122
24366SOL    HW174539   7.582   4.895   8.194
24366SOL    HW274540   7.597   4.928   8.047
24367SOL     OW74541   0.052   5.109   9.055
24367SOL    HW174542   0.136   5.106   9.101
24367SOL    HW274543   0.056   5.189   9.003
24368SOL     OW74544   7.791   4.283   8.732
24368SOL    HW174545   7.857   4.217   8.755
24368SOL    HW274546   7.787   4.278   8.636
24369SOL     OW74547   7.468   4.775   7.712
24369SOL    HW174548   7.561   4.753   7.702
24369SOL    HW274549   7.427   4.737   7.634
24370SOL     OW74550   7.663   4.350   9.427
24370SOL    HW174551   7.576   4.340   9.466
24370SOL    HW274552   7.654   4.315   9.338
24371SOL     OW74553   7.673   4.004  10.290
24371SOL    HW174554   7.701   3.974  10.377
24371SOL    HW274555   7.581   3.977  10.284
24372SOL     OW74556   7.460   4.118   9.948
24372SOL    HW174557   7.381   4.138   9.999
24372SOL    HW274558   7.438   4.039   9.899
24373SOL     OW74559   7.764   5.182  10.367
24373SOL    HW174560   7.698   5.131  10.320
24373SOL    HW274561   7.792   5.249  10.305
24374SOL     OW74562   7.850   4.097  10.909
24374SOL    HW174563   7.917   4.135  10.852
24374SOL    HW274564   7.792   4.050  10.849
24375SOL     OW74565   7.669   5.451   9.783
24375SOL    HW174566   7.677   5.515   9.854
24375SOL    HW274567   7.758   5.441   9.750
24376SOL     OW74568   7.593   5.165   9.803
24376SOL    HW174569   7.613   5.253   9.835
24376SOL    HW274570   7.576   5.114   9.882
24377SOL     OW74571   7.684   4.810  10.210
24377SOL    HW174572   7.693   4.721  10.244
24377SOL    HW274573   7.638   4.858  10.278
24378SOL     OW74574   7.572   4.383   9.868
24378SOL    HW174575   7.539   4.296   9.891
24378SOL    HW274576   7.560   4.435   9.948
24379SOL     OW74577   7.486   5.301   9.434
24379SOL    HW174578   7.400   5.266   9.410
24379SOL    HW274579   7.473   5.340   9.520
24380SOL     OW74580   7.578   4.457  10.914
24380SOL    HW174581   7.672   4.470  10.909
24380SOL    HW274582   7.543   4.542  10.940
24381SOL     OW74583   7.630   4.693  10.582
24381SOL    HW174584   7.713   4.645  10.585
24381SOL    HW274585   7.569   4.633  10.540
24382SOL     OW74586   7.769   3.981  11.153
24382SOL    HW174587   7.856   4.020  11.144
24382SOL    HW274588   7.713   4.032  11.095
24383SOL     OW74589   0.032   4.466   9.553
24383SOL    HW174590   0.093   4.532   9.586
24383SOL    HW274591  -0.035   4.459   9.622
24384SOL     OW74592   7.526   4.561  10.079
24384SOL    HW174593   7.605   4.545  10.130
24384SOL    HW274594   7.483   4.634  10.124
24385SOL     OW74595   7.576   5.600  10.892
24385SOL    HW174596   7.577   5.591  10.988
24385SOL    HW274597   7.521   5.527  10.862
24386SOL     OW74598   7.961   3.897  10.185
24386SOL    HW174599   7.964   3.910  10.279
24386SOL    HW274600   7.960   3.985  10.148
24387SOL     OW74601   7.771   4.695   9.571
24387SOL    HW174602   7.866   4.704   9.572
24387SOL    HW274603   7.756   4.600   9.567
24388SOL     OW74604   7.947   4.974  11.051
24388SOL    HW174605   7.909   4.977  10.964
24388SOL    HW274606   7.871   4.978  11.110
24389SOL     OW74607   7.633   3.990  10.780
24389SOL    HW174608   7.566   4.058  10.780
24389SOL    HW274609   7.592   3.916  10.824
24390SOL     OW74610   7.704   5.503  10.528
24390SOL    HW174611   7.754   5.430  10.566
24390SOL    HW274612   7.736   5.510  10.438
24391SOL     OW74613   7.834   4.438   9.745
24391SOL    HW174614   7.895   4.406   9.811
24391SOL    HW274615   7.747   4.416   9.780
24392SOL     OW74616   0.001   3.824   9.382
24392SOL    HW174617   0.074   3.792   9.435
24392SOL    HW274618   0.022   3.915   9.363
24393SOL     OW74619   7.991   3.731   9.831
24393SOL    HW174620   7.905   3.758   9.865
24393SOL    HW274621   8.020   3.804   9.777
24394SOL     OW74622   7.744   3.788   9.507
24394SOL    HW174623   7.794   3.854   9.459
24394SOL    HW274624   7.810   3.730   9.544
24395SOL     OW74625   7.902   4.852  10.053
24395SOL    HW174626   7.837   4.836  10.121
24395SOL    HW274627   7.855   4.839   9.971
24396SOL     OW74628   7.524   4.276  10.708
24396SOL    HW174629   7.613   4.277  10.673
24396SOL    HW274630   7.523   4.349  10.771
24397SOL     OW74631   7.997   3.917  10.449
24397SOL    HW174632   8.056   3.942  10.520
24397SOL    HW274633   7.909   3.926  10.486
24398SOL     OW74634   7.864   4.541  10.619
24398SOL    HW174635   7.959   4.531  10.622
24398SOL    HW274636   7.831   4.451  10.606
24399SOL     OW74637   7.535   5.308  10.673
24399SOL    HW174638   7.528   5.377  10.606
24399SOL    HW274639   7.627   5.284  10.674
24400SOL     OW74640   7.761   4.845   9.813
24400SOL    HW174641   7.794   4.919   9.763
24400SOL    HW274642   7.760   4.772   9.752
24401SOL     OW74643  -0.026   4.298  10.168
24401SOL    HW174644   0.013   4.378  10.132
24401SOL    HW274645   0.017   4.286  10.253
24402SOL     OW74646   7.792   5.243  10.631
24402SOL    HW174647   7.792   5.208  10.542
24402SOL    HW274648   7.881   5.275  10.643
24403SOL     OW74649   7.849   4.474  10.903
24403SOL    HW174650   7.860   4.533  10.829
24403SOL    HW274651   7.929   4.422  10.904
24404SOL     OW74652   7.932   3.779  11.031
24404SOL    HW174653   7.886   3.716  10.976
24404SOL    HW274654   7.868   3.847  11.050
24405SOL     OW74655  -0.021   4.638  10.337
24405SOL    HW174656   0.054   4.684  10.300
24405SOL    HW274657  -0.029   4.673  10.426
24406SOL     OW74658   7.740   3.917  10.540
24406SOL    HW174659   7.706   3.953  10.622
24406SOL    HW274660   7.725   3.823  10.547
24407SOL     OW74661   7.476   5.051  10.581
24407SOL    HW174662   7.507   4.985  10.643
24407SOL    HW274663   7.499   5.135  10.622
24408SOL     OW74664   7.739   3.796   9.929
24408SOL    HW174665   7.731   3.890   9.948
24408SOL    HW274666   7.746   3.755  10.015
24409SOL     OW74667   7.795   4.577  11.160
24409SOL    HW174668   7.781   4.669  11.136
24409SOL    HW274669   7.829   4.536  11.080
24410SOL     OW74670   7.739   4.537  10.256
24410SOL    HW174671   7.827   4.566  10.277
24410SOL    HW274672   7.737   4.445  10.281
24411SOL     OW74673   7.746   4.262  10.309
24411SOL    HW174674   7.722   4.170  10.299
24411SOL    HW274675   7.825   4.272  10.256
24412SOL     OW74676   7.499   5.507  10.238
24412SOL    HW174677   7.483   5.422  10.197
24412SOL    HW274678   7.594   5.517  10.235
24413SOL     OW74679   7.480   4.248  10.425
24413SOL    HW174680   7.561   4.269  10.378
24413SOL    HW274681   7.498   4.275  10.515
24414SOL     OW74682   7.633   4.210  11.017
24414SOL    HW174683   7.716   4.183  10.977
24414SOL    HW274684   7.611   4.293  10.974
24415SOL     OW74685   0.173   4.187   9.641
24415SOL    HW174686   0.210   4.233   9.565
24415SOL    HW274687   0.165   4.255   9.708
24416SOL     OW74688   7.676   5.263  11.038
24416SOL    HW174689   7.660   5.308  11.121
24416SOL    HW274690   7.685   5.171  11.062
24417SOL     OW74691   7.911   4.232   9.456
24417SOL    HW174692   7.961   4.297   9.505
24417SOL    HW274693   7.821   4.265   9.457
24418SOL     OW74694   7.567   4.866  10.779
24418SOL    HW174695   7.577   4.816  10.860
24418SOL    HW274696   7.593   4.805  10.709
24419SOL     OW74697   7.503   5.017  10.311
24419SOL    HW174698   7.498   5.024  10.406
24419SOL    HW274699   7.445   4.944  10.289
24420SOL     OW74700   7.580   5.554  11.157
24420SOL    HW174701   7.541   5.474  11.193
24420SOL    HW274702   7.637   5.587  11.226
24421SOL     OW74703   7.725   4.055  10.024
24421SOL    HW174704   7.640   4.091   9.996
24421SOL    HW274705   7.714   4.038  10.118
24422SOL     OW74706   7.815   5.013  10.815
24422SOL    HW174707   7.813   5.085  10.752
24422SOL    HW274708   7.731   4.969  10.804
24423SOL     OW74709  -0.021   5.228   9.736
24423SOL    HW174710   0.010   5.166   9.801
24423SOL    HW274711   0.024   5.309   9.757
24424SOL     OW74712   7.764   5.095   9.605
24424SOL    HW174713   7.688   5.110   9.661
24424SOL    HW274714   7.830   5.156   9.638
24425SOL     OW74715   7.549   4.732  11.022
24425SOL    HW174716   7.474   4.705  11.076
24425SOL    HW274717   7.586   4.807  11.069
24426SOL     OW74718   7.513   4.039   9.346
24426SOL    HW174719   7.433   4.008   9.302
24426SOL    HW274720   7.535   4.120   9.300
24427SOL     OW74721   7.503   3.874   9.611
24427SOL    HW174722   7.483   3.944   9.550
24427SOL    HW274723   7.592   3.848   9.590
24428SOL     OW74724   7.835   5.475  10.889
24428SOL    HW174725   7.744   5.500  10.875
24428SOL    HW274726   7.831   5.383  10.917
24429SOL     OW74727   7.550   4.941   9.978
24429SOL    HW174728   7.563   4.901  10.064
24429SOL    HW274729   7.618   4.902   9.923
24430SOL     OW74730   0.095   5.175  10.863
24430SOL    HW174731   0.049   5.108  10.914
24430SOL    HW274732   0.170   5.200  10.918
24431SOL     OW74733   7.763   4.285  10.584
24431SOL    HW174734   7.843   4.249  10.622
24431SOL    HW274735   7.771   4.270  10.490
24432SOL     OW74736   7.495   4.785   9.589
24432SOL    HW174737   7.590   4.784   9.584
24432SOL    HW274738   7.471   4.698   9.620
24433SOL     OW74739   7.663   4.349  11.292
24433SOL    HW174740   7.651   4.393  11.376
24433SOL    HW274741   7.712   4.412  11.239
24434SOL     OW74742   7.686   4.000  12.143
24434SOL    HW174743   7.714   3.975  12.231
24434SOL    HW274744   7.594   3.973  12.139
24435SOL     OW74745   7.443   4.110  11.807
24435SOL    HW174746   7.367   4.143  11.855
24435SOL    HW274747   7.415   4.025  11.774
24436SOL     OW74748   7.766   5.152  12.206
24436SOL    HW174749   7.683   5.105  12.212
24436SOL    HW274750   7.793   5.142  12.115
24437SOL     OW74751   7.683   5.441  11.642
24437SOL    HW174752   7.696   5.521  11.693
24437SOL    HW274753   7.771   5.408  11.625
24438SOL     OW74754   7.644   5.171  11.699
24438SOL    HW174755   7.641   5.266  11.692
24438SOL    HW274756   7.599   5.150  11.781
24439SOL     OW74757   7.665   4.795  12.044
24439SOL    HW174758   7.705   4.713  12.072
24439SOL    HW274759   7.639   4.838  12.126
24440SOL     OW74760   7.568   4.366  11.729
24440SOL    HW174761   7.529   4.283  11.757
24440SOL    HW274762   7.561   4.423  11.805
24441SOL     OW74763   7.500   5.325  11.282
24441SOL    HW174764   7.490   5.232  11.298
24441SOL    HW274765   7.471   5.367  11.363
24442SOL     OW74766   7.597   4.487   0.255
24442SOL    HW174767   7.690   4.467   0.266
24442SOL    HW274768   7.595   4.577   0.222
24443SOL     OW74769   7.615   4.710  12.382
24443SOL    HW174770   7.684   4.654  12.416
24443SOL    HW274771   7.534   4.661  12.399
24444SOL     OW74772   0.021   4.462  11.414
24444SOL    HW174773   0.033   4.557  11.412
24444SOL    HW274774  -0.045   4.447  11.483
24445SOL     OW74775   7.538   4.550  11.932
24445SOL    HW174776   7.618   4.519  11.975
24445SOL    HW274777   7.525   4.638  11.966
24446SOL     OW74778   7.988   3.936  12.035
24446SOL    HW174779   7.981   3.922  12.129
24446SOL    HW274780   7.931   4.012  12.018
24447SOL     OW74781   7.821   5.559  12.041
24447SOL    HW174782   7.882   5.497  12.080
24447SOL    HW274783   7.868   5.643  12.044
24448SOL     OW74784   7.772   4.686  11.416
24448SOL    HW174785   7.860   4.723  11.418
24448SOL    HW274786   7.766   4.642  11.331
24449SOL     OW74787   7.680   5.525  12.397
24449SOL    HW174788   7.722   5.447  12.435
24449SOL    HW274789   7.647   5.495  12.312
24450SOL     OW74790   7.823   4.395  11.602
24450SOL    HW174791   7.882   4.398  11.678
24450SOL    HW274792   7.735   4.390  11.641
24451SOL     OW74793   0.015   3.753  11.298
24451SOL    HW174794   0.100   3.788  11.324
24451SOL    HW274795   0.001   3.787  11.210
24452SOL     OW74796   7.993   3.745  11.700
24452SOL    HW174797   7.904   3.761  11.733
24452SOL    HW274798   8.008   3.816  11.638
24453SOL     OW74799   7.741   3.793  11.344
24453SOL    HW174800   7.751   3.866  11.283
24453SOL    HW274801   7.830   3.764  11.362
24454SOL     OW74802   7.899   4.871  11.909
24454SOL    HW174803   7.826   4.836  11.961
24454SOL    HW274804   7.873   4.854  11.818
24455SOL     OW74805   7.991   3.915  12.297
24455SOL    HW174806   8.041   3.879  12.371
24455SOL    HW274807   7.904   3.933  12.334
24456SOL     OW74808   7.809   4.508  12.437
24456SOL    HW174809   7.892   4.554  12.447
24456SOL    HW274810   7.810   4.477  12.347
24457SOL     OW74811   7.809   4.836  11.653
24457SOL    HW174812   7.791   4.915  11.601
24457SOL    HW274813   7.778   4.764  11.598
24458SOL     OW74814   0.035   4.254  12.038
24458SOL    HW174815  -0.003   4.338  12.014
24458SOL    HW274816   0.031   4.252  12.134
24459SOL     OW74817   7.790   5.289  12.464
24459SOL    HW174818   7.783   5.223  12.395
24459SOL    HW274819   7.876   5.273  12.504
24460SOL     OW74820   7.864   4.457   0.260
24460SOL    HW174821   7.957   4.477   0.250
24460SOL    HW274822   7.855   4.434   0.352
24461SOL     OW74823   0.027   4.629  12.265
24461SOL    HW174824   0.035   4.720  12.237
24461SOL    HW274825  -0.039   4.592  12.207
24462SOL     OW74826   7.743   3.927  12.404
24462SOL    HW174827   7.673   3.964  12.458
24462SOL    HW274828   7.727   3.832  12.406
24463SOL     OW74829   7.544   5.056  12.445
24463SOL    HW174830   7.575   4.985  12.501
24463SOL    HW274831   7.532   5.130  12.505
24464SOL     OW74832   7.737   3.793  11.799
24464SOL    HW174833   7.727   3.886  11.820
24464SOL    HW274834   7.753   3.751  11.883
24465SOL     OW74835   7.761   4.255  12.232
24465SOL    HW174836   7.752   4.176  12.178
24465SOL    HW274837   7.780   4.325  12.170
24466SOL     OW74838   7.430   5.076  11.403
24466SOL    HW174839   7.349   5.083  11.353
24466SOL    HW274840   7.476   5.001  11.365
24467SOL     OW74841   7.555   5.498  12.100
24467SOL    HW174842   7.539   5.416  12.052
24467SOL    HW274843   7.645   5.521  12.077
24468SOL     OW74844   7.501   4.290  12.304
24468SOL    HW174845   7.584   4.278  12.258
24468SOL    HW274846   7.525   4.299  12.396
24469SOL     OW74847   0.199   4.198  11.510
24469SOL    HW174848   0.220   4.240  11.426
24469SOL    HW274849   0.168   4.270  11.565
24470SOL     OW74850   7.922   4.211  11.332
24470SOL    HW174851   7.968   4.289  11.366
24470SOL    HW274852   7.829   4.233  11.338
24471SOL     OW74853   7.516   5.001  12.185
24471SOL    HW174854   7.521   5.023  12.278
24471SOL    HW274855   7.456   4.927  12.181
24472SOL     OW74856   7.720   4.055  11.881
24472SOL    HW174857   7.635   4.091  11.854
24472SOL    HW274858   7.710   4.038  11.975
24473SOL     OW74859  -0.028   5.304  11.587
24473SOL    HW174860  -0.019   5.219  11.632
24473SOL    HW274861   0.048   5.354  11.616
24474SOL     OW74862   7.745   5.039  11.481
24474SOL    HW174863   7.692   5.038  11.401
24474SOL    HW274864   7.694   5.093  11.542
24475SOL     OW74865   7.521   3.875  11.490
24475SOL    HW174866   7.547   3.960  11.524
24475SOL    HW274867   7.600   3.842  11.445
24476SOL     OW74868   7.782   5.449   0.238
24476SOL    HW174869   7.701   5.459   0.187
24476SOL    HW274870   7.821   5.368   0.204
24477SOL     OW74871   7.520   4.958  11.852
24477SOL    HW174872   7.567   4.905  11.916
24477SOL    HW274873   7.564   4.941  11.769
24478SOL     OW74874   7.499   4.775  11.489
24478SOL    HW174875   7.584   4.776  11.445
24478SOL    HW274876   7.480   4.683  11.504
24479SOL     OW74877   7.695   6.159   0.039
24479SOL    HW174878   7.652   6.197   0.116
24479SOL    HW274879   7.630   6.163  -0.030
24480SOL     OW74880   7.706   5.869   1.002
24480SOL    HW174881   7.718   5.832   1.089
24480SOL    HW274882   7.615   5.847   0.979
24481SOL     OW74883   7.448   5.957   0.647
24481SOL    HW174884   7.434   5.922   0.735
24481SOL    HW274885   7.405   5.895   0.589
24482SOL     OW74886   7.754   7.040   1.047
24482SOL    HW174887   7.675   6.987   1.035
24482SOL    HW274888   7.822   6.992   1.000
24483SOL     OW74889   7.856   6.008   1.511
24483SOL    HW174890   7.942   5.969   1.528
24483SOL    HW274891   7.796   5.933   1.508
24484SOL     OW74892   7.719   7.316   0.520
24484SOL    HW174893   7.792   7.255   0.532
24484SOL    HW274894   7.709   7.322   0.425
24485SOL     OW74895   7.626   7.020   0.506
24485SOL    HW174896   7.619   7.108   0.543
24485SOL    HW274897   7.592   6.962   0.575
24486SOL     OW74898   7.713   6.674   0.916
24486SOL    HW174899   7.695   6.583   0.937
24486SOL    HW274900   7.646   6.724   0.963
24487SOL     OW74901   7.403   7.223   0.095
24487SOL    HW174902   7.365   7.136   0.102
24487SOL    HW274903   7.448   7.237   0.179
24488SOL     OW74904   7.581   6.323   1.578
24488SOL    HW174905   7.675   6.336   1.581
24488SOL    HW274906   7.544   6.405   1.611
24489SOL     OW74907   7.644   6.540   1.277
24489SOL    HW174908   7.729   6.495   1.272
24489SOL    HW274909   7.585   6.486   1.224
24490SOL     OW74910   7.765   5.834   1.836
24490SOL    HW174911   7.818   5.912   1.853
24490SOL    HW274912   7.675   5.862   1.851
24491SOL     OW74913   7.514   6.340   0.751
24491SOL    HW174914   7.584   6.355   0.815
24491SOL    HW274915   7.464   6.422   0.752
24492SOL     OW74916   7.975   5.800   0.884
24492SOL    HW174917   7.963   5.793   0.979
24492SOL    HW274918   7.952   5.890   0.864
24493SOL     OW74919   7.816   7.394   0.852
24493SOL    HW174920   7.860   7.311   0.866
24493SOL    HW274921   7.880   7.460   0.878
24494SOL     OW74922   7.770   6.604   0.209
24494SOL    HW174923   7.841   6.656   0.172
24494SOL    HW274924   7.803   6.514   0.208
24495SOL     OW74925   7.942   6.849   1.738
24495SOL    HW174926   7.886   6.853   1.660
24495SOL    HW274927   7.881   6.857   1.811
24496SOL     OW74928   7.629   5.857   1.502
24496SOL    HW174929   7.555   5.915   1.486
24496SOL    HW274930   7.596   5.791   1.563
24497SOL     OW74931   7.713   7.376   1.234
24497SOL    HW174932   7.759   7.322   1.299
24497SOL    HW274933   7.707   7.321   1.156
24498SOL     OW74934   7.823   6.254   0.481
24498SOL    HW174935   7.907   6.223   0.516
24498SOL    HW274936   7.758   6.223   0.544
24499SOL     OW74937   0.066   5.685   0.056
24499SOL    HW174938   0.150   5.686   0.103
24499SOL    HW274939   0.018   5.612   0.093
24500SOL     OW74940   7.980   5.604   0.505
24500SOL    HW174941   7.898   5.630   0.548
24500SOL    HW274942   8.012   5.684   0.464
24501SOL     OW74943   7.917   6.736   0.756
24501SOL    HW174944   7.850   6.711   0.819
24501SOL    HW274945   7.876   6.724   0.670
24502SOL     OW74946   7.530   6.133   1.385
24502SOL    HW174947   7.621   6.133   1.355
24502SOL    HW274948   7.525   6.203   1.450
24503SOL     OW74949   7.990   5.780   1.154
24503SOL    HW174950   8.048   5.739   1.218
24503SOL    HW274951   7.905   5.783   1.198
24504SOL     OW74952   7.881   6.393   1.275
24504SOL    HW174953   7.944   6.387   1.347
24504SOL    HW274954   7.839   6.307   1.273
24505SOL     OW74955   7.531   7.154   1.368
24505SOL    HW174956   7.503   7.232   1.321
24505SOL    HW274957   7.626   7.153   1.358
24506SOL     OW74958   7.838   6.697   0.488
24506SOL    HW174959   7.929   6.691   0.459
24506SOL    HW274960   7.801   6.611   0.468
24507SOL     OW74961  -0.001   6.146   0.853
24507SOL    HW174962   0.036   6.229   0.823
24507SOL    HW274963   0.030   6.138   0.944
24508SOL     OW74964   7.802   7.115   1.309
24508SOL    HW174965   7.792   7.079   1.220
24508SOL    HW274966   7.894   7.138   1.316
24509SOL     OW74967   7.859   6.314   1.605
24509SOL    HW174968   7.938   6.357   1.573
24509SOL    HW274969   7.885   6.223   1.620
24510SOL     OW74970   7.933   5.649   1.712
24510SOL    HW174971   7.884   5.588   1.658
24510SOL    HW274972   7.869   5.714   1.740
24511SOL     OW74973   7.986   6.474   1.033
24511SOL    HW174974   8.064   6.516   1.068
24511SOL    HW274975   7.941   6.440   1.110
24512SOL     OW74976   7.739   5.776   1.261
24512SOL    HW174977   7.697   5.808   1.341
24512SOL    HW274978   7.714   5.683   1.256
24513SOL     OW74979   7.464   6.901   1.298
24513SOL    HW174980   7.505   6.840   1.358
24513SOL    HW274981   7.496   6.987   1.325
24514SOL     OW74982   7.740   5.670   0.619
24514SOL    HW174983   7.725   5.761   0.646
24514SOL    HW274984   7.758   5.623   0.700
24515SOL     OW74985   7.773   6.500   1.791
24515SOL    HW174986   7.805   6.480   1.878
24515SOL    HW274987   7.814   6.435   1.734
24516SOL     OW74988   7.728   6.395   0.937
24516SOL    HW174989   7.817   6.423   0.956
24516SOL    HW274990   7.724   6.304   0.967
24517SOL     OW74991   7.764   6.129   0.989
24517SOL    HW174992   7.741   6.036   0.994
24517SOL    HW274993   7.844   6.131   0.936
24518SOL     OW74994   7.533   7.368   0.924
24518SOL    HW174995   7.503   7.286   0.885
24518SOL    HW274996   7.628   7.368   0.908
24519SOL     OW74997   7.478   6.165   1.108
24519SOL    HW174998   7.527   6.099   1.058
24519SOL    HW274999   7.505   6.152   1.199
24520SOL     OW75000   7.638   6.101   1.730
24520SOL    HW175001   7.703   6.063   1.671
24520SOL    HW275002   7.598   6.172   1.680
24521SOL     OW75003   7.668   7.144   1.733
24521SOL    HW175004   7.645   7.184   1.817
24521SOL    HW275005   7.699   7.056   1.756
24522SOL     OW75006   7.906   6.029   0.183
24522SOL    HW175007   7.953   6.107   0.215
24522SOL    HW275008   7.829   6.064   0.139
24523SOL     OW75009   7.570   6.711   1.468
24523SOL    HW175010   7.604   6.672   1.549
24523SOL    HW275011   7.598   6.651   1.399
24524SOL     OW75012   7.535   6.868   1.032
24524SOL    HW175013   7.505   6.872   1.123
24524SOL    HW275014   7.465   6.822   0.985
24525SOL     OW75015   7.562   7.416   1.852
24525SOL    HW175016   7.522   7.336   1.886
24525SOL    HW275017   7.629   7.439   1.916
24526SOL     OW75018   7.722   5.925   0.720
24526SOL    HW175019   7.632   5.946   0.696
24526SOL    HW275020   7.718   5.904   0.813
24527SOL     OW75021   7.783   6.900   1.520
24527SOL    HW175022   7.810   6.970   1.460
24527SOL    HW275023   7.737   6.838   1.464
24528SOL     OW75024   7.961   7.093   0.453
24528SOL    HW175025   8.015   7.043   0.514
24528SOL    HW275026   8.013   7.171   0.432
24529SOL     OW75027   7.547   6.635   1.749
24529SOL    HW175028   7.475   6.591   1.794
24529SOL    HW275029   7.624   6.581   1.769
24530SOL     OW75030   7.529   5.729   0.317
24530SOL    HW175031   7.504   5.818   0.290
24530SOL    HW275032   7.616   5.739   0.355
24531SOL     OW75033   7.829   7.303   1.575
24531SOL    HW175034   7.760   7.255   1.621
24531SOL    HW275035   7.900   7.240   1.566
24532SOL     OW75036   7.656   6.880   1.850
24532SOL    HW175037   7.667   6.785   1.853
24532SOL    HW275038   7.668   6.909   1.940
24533SOL     OW75039   7.574   6.812   0.671
24533SOL    HW175040   7.517   6.786   0.744
24533SOL    HW275041   7.626   6.734   0.653
24534SOL     OW75042   0.063   7.035   1.566
24534SOL    HW175043   0.035   6.962   1.621
24534SOL    HW275044   0.146   7.064   1.605
24535SOL     OW75045   7.779   6.144   1.283
24535SOL    HW175046   7.828   6.095   1.349
24535SOL    HW275047   7.807   6.107   1.200
24536SOL     OW75048   7.546   6.695   0.340
24536SOL    HW175049   7.589   6.652   0.267
24536SOL    HW275050   7.495   6.626   0.382
24537SOL     OW75051   7.653   6.221   1.986
24537SOL    HW175052   7.567   6.210   2.025
24537SOL    HW275053   7.644   6.187   1.897
24538SOL     OW75054   7.680   5.859   2.843
24538SOL    HW175055   7.708   5.831   2.930
24538SOL    HW275056   7.588   5.835   2.838
24539SOL     OW75057   7.446   5.989   2.509
24539SOL    HW175058   7.364   6.016   2.551
24539SOL    HW275059   7.423   5.909   2.461
24540SOL     OW75060   7.771   7.033   2.887
24540SOL    HW175061   7.698   6.971   2.891
24540SOL    HW275062   7.849   6.978   2.881
24541SOL     OW75063   7.881   5.929   3.319
24541SOL    HW175064   7.939   5.910   3.393
24541SOL    HW275065   7.793   5.909   3.351
24542SOL     OW75066   7.671   7.241   2.395
24542SOL    HW175067   7.692   7.327   2.430
24542SOL    HW275068   7.664   7.255   2.300
24543SOL     OW75069   7.689   6.666   2.759
24543SOL    HW175070   7.690   6.579   2.799
24543SOL    HW275071   7.633   6.718   2.816
24544SOL     OW75072   7.576   6.241   2.426
24544SOL    HW175073   7.534   6.158   2.447
24544SOL    HW275074   7.561   6.297   2.502
24545SOL     OW75075   7.501   7.179   1.982
24545SOL    HW175076   7.478   7.090   2.009
24545SOL    HW275077   7.474   7.234   2.056
24546SOL     OW75078   7.554   6.334   3.440
24546SOL    HW175079   7.642   6.370   3.453
24546SOL    HW275080   7.496   6.410   3.447
24547SOL     OW75081   7.626   6.554   3.149
24547SOL    HW175082   7.710   6.509   3.162
24547SOL    HW275083   7.583   6.504   3.080
24548SOL     OW75084   7.771   5.836   3.694
24548SOL    HW175085   7.828   5.906   3.727
24548SOL    HW275086   7.683   5.867   3.712
24549SOL     OW75087   0.028   6.323   2.102
24549SOL    HW175088   0.094   6.388   2.125
24549SOL    HW275089  -0.034   6.325   2.175
24550SOL     OW75090   7.530   6.424   2.627
24550SOL    HW175091   7.604   6.411   2.686
24550SOL    HW275092   7.487   6.503   2.660
24551SOL     OW75093   7.584   7.420   3.380
24551SOL    HW175094   7.592   7.435   3.474
24551SOL    HW275095   7.490   7.421   3.363
24552SOL     OW75096   7.970   5.783   2.745
24552SOL    HW175097   7.926   5.852   2.795
24552SOL    HW275098   7.985   5.821   2.659
24553SOL     OW75099   7.812   7.389   2.733
24553SOL    HW175100   7.826   7.336   2.812
24553SOL    HW275101   7.894   7.438   2.724
24554SOL     OW75102   7.771   6.547   2.104
24554SOL    HW175103   7.865   6.561   2.117
24554SOL    HW275104   7.757   6.455   2.123
24555SOL     OW75105   7.950   6.826   3.601
24555SOL    HW175106   7.910   6.834   3.514
24555SOL    HW275107   7.881   6.852   3.662
24556SOL     OW75108   7.626   5.866   3.388
24556SOL    HW175109   7.566   5.934   3.357
24556SOL    HW275110   7.617   5.869   3.483
24557SOL     OW75111   7.711   7.382   3.065
24557SOL    HW175112   7.742   7.310   3.120
24557SOL    HW275113   7.617   7.364   3.054
24558SOL     OW75114   7.826   6.318   2.297
24558SOL    HW175115   7.896   6.280   2.351
24558SOL    HW275116   7.745   6.284   2.336
24559SOL     OW75117   0.010   5.613   1.984
24559SOL    HW175118   0.090   5.649   2.021
24559SOL    HW275119  -0.003   5.663   1.903
24560SOL     OW75120   7.946   5.568   2.346
24560SOL    HW175121   7.882   5.613   2.402
24560SOL    HW275122   8.001   5.639   2.311
24561SOL     OW75123   7.742   5.651   2.038
24561SOL    HW175124   7.749   5.724   1.976
24561SOL    HW275125   7.833   5.623   2.052
24562SOL     OW75126   7.897   6.733   2.608
24562SOL    HW175127   7.830   6.707   2.670
24562SOL    HW275128   7.858   6.716   2.522
24563SOL     OW75129   7.528   6.131   3.262
24563SOL    HW175130   7.618   6.136   3.232
24563SOL    HW275131   7.519   6.206   3.322
24564SOL     OW75132   7.843   6.396   3.195
24564SOL    HW175133   7.909   6.417   3.129
24564SOL    HW275134   7.818   6.305   3.176
24565SOL     OW75135   7.514   7.143   3.227
24565SOL    HW175136   7.476   7.203   3.163
24565SOL    HW275137   7.609   7.154   3.219
24566SOL     OW75138   7.769   6.705   2.362
24566SOL    HW175139   7.821   6.745   2.292
24566SOL    HW275140   7.754   6.615   2.332
24567SOL     OW75141  -0.020   6.151   2.718
24567SOL    HW175142   0.009   6.220   2.658
24567SOL    HW275143   0.015   6.178   2.804
24568SOL     OW75144   7.784   7.119   3.160
24568SOL    HW175145   7.783   7.090   3.069
24568SOL    HW275146   7.876   7.140   3.178
24569SOL     OW75147   7.854   6.325   3.459
24569SOL    HW175148   7.849   6.360   3.371
24569SOL    HW275149   7.948   6.318   3.476
24570SOL     OW75150   7.922   5.673   3.525
24570SOL    HW175151   7.864   5.604   3.494
24570SOL    HW275152   7.868   5.725   3.584
24571SOL     OW75153   7.749   5.784   3.092
24571SOL    HW175154   7.740   5.825   3.178
24571SOL    HW275155   7.723   5.693   3.107
24572SOL     OW75156   7.479   6.888   3.153
24572SOL    HW175157   7.518   6.835   3.222
24572SOL    HW275158   7.490   6.979   3.182
24573SOL     OW75159   7.724   5.646   2.502
24573SOL    HW175160   7.713   5.741   2.512
24573SOL    HW275161   7.749   5.616   2.589
24574SOL     OW75162   7.787   6.486   3.673
24574SOL    HW175163   7.866   6.533   3.698
24574SOL    HW275164   7.815   6.427   3.604
24575SOL     OW75165   7.728   6.392   2.822
24575SOL    HW175166   7.817   6.413   2.850
24575SOL    HW275167   7.719   6.298   2.838
24576SOL     OW75168   7.752   6.117   2.867
24576SOL    HW175169   7.727   6.026   2.852
24576SOL    HW275170   7.828   6.131   2.811
24577SOL     OW75171   7.448   6.910   2.062
24577SOL    HW175172   7.359   6.917   2.028
24577SOL    HW275173   7.453   6.822   2.099
24578SOL     OW75174   7.533   7.361   2.732
24578SOL    HW175175   7.496   7.346   2.820
24578SOL    HW275176   7.625   7.380   2.748
24579SOL     OW75177   7.485   6.122   2.985
24579SOL    HW175178   7.567   6.131   2.936
24579SOL    HW275179   7.511   6.128   3.077
24580SOL     OW75180   7.640   6.118   3.585
24580SOL    HW175181   7.729   6.141   3.561
24580SOL    HW275182   7.585   6.184   3.542
24581SOL     OW75183   0.155   6.049   2.175
24581SOL    HW175184   0.206   6.067   2.096
24581SOL    HW275185   0.155   6.132   2.223
24582SOL     OW75186   7.686   7.158   3.588
24582SOL    HW175187   7.652   7.225   3.647
24582SOL    HW275188   7.698   7.081   3.643
24583SOL     OW75189   7.888   6.077   2.019
24583SOL    HW175190   7.950   6.136   2.060
24583SOL    HW275191   7.805   6.125   2.019
24584SOL     OW75192   7.581   6.729   3.348
24584SOL    HW175193   7.580   6.679   3.429
24584SOL    HW275194   7.598   6.664   3.279
24585SOL     OW75195   7.550   6.857   2.895
24585SOL    HW175196   7.538   6.855   2.990
24585SOL    HW275197   7.464   6.883   2.861
24586SOL     OW75198   7.707   5.910   2.572
24586SOL    HW175199   7.624   5.950   2.546
24586SOL    HW275200   7.700   5.901   2.667
24587SOL     OW75201   7.814   6.881   3.371
24587SOL    HW175202   7.804   6.961   3.319
24587SOL    HW275203   7.731   6.835   3.361
24588SOL     OW75204  -0.020   7.109   2.286
24588SOL    HW175205   0.025   7.038   2.333
24588SOL    HW275206   0.030   7.187   2.308
24589SOL     OW75207   7.725   6.949   2.121
24589SOL    HW175208   7.630   6.944   2.135
24589SOL    HW275209   7.756   7.011   2.187
24590SOL     OW75210   7.552   6.594   3.579
24590SOL    HW175211   7.477   6.583   3.637
24590SOL    HW275212   7.627   6.565   3.631
24591SOL     OW75213   7.512   5.919   1.899
24591SOL    HW175214   7.422   5.904   1.869
24591SOL    HW275215   7.543   5.993   1.847
24592SOL     OW75216   7.506   5.740   2.154
24592SOL    HW175217   7.490   5.817   2.100
24592SOL    HW275218   7.594   5.712   2.131
24593SOL     OW75219   7.843   7.325   3.410
24593SOL    HW175220   7.761   7.365   3.384
24593SOL    HW275221   7.818   7.252   3.467
24594SOL     OW75222   7.705   6.901   3.726
24594SOL    HW175223   7.616   6.871   3.708
24594SOL    HW275224   7.708   6.914   3.820
24595SOL     OW75225   7.607   6.856   2.534
24595SOL    HW175226   7.589   6.797   2.608
24595SOL    HW275227   7.652   6.801   2.470
24596SOL     OW75228   0.099   7.028   3.415
24596SOL    HW175229   0.048   6.964   3.465
24596SOL    HW275230   0.166   7.058   3.476
24597SOL     OW75231   7.771   6.136   3.151
24597SOL    HW175232   7.833   6.080   3.197
24597SOL    HW275233   7.793   6.124   3.058
24598SOL     OW75234   7.498   6.650   2.156
24598SOL    HW175235   7.590   6.638   2.135
24598SOL    HW275236   7.467   6.564   2.183
24599SOL     OW75237   7.649   6.183   3.867
24599SOL    HW175238   7.561   6.193   3.903
24599SOL    HW275239   7.640   6.209   3.775
24600SOL     OW75240   7.677   5.870   4.702
24600SOL    HW175241   7.717   5.817   4.771
24600SOL    HW275242   7.586   5.839   4.699
24601SOL     OW75243   7.440   5.972   4.368
24601SOL    HW175244   7.363   6.004   4.415
24601SOL    HW275245   7.410   5.895   4.321
24602SOL     OW75246   7.913   5.916   5.219
24602SOL    HW175247   7.926   5.884   5.307
24602SOL    HW275248   7.818   5.929   5.212
24603SOL     OW75249   7.669   7.297   4.178
24603SOL    HW175250   7.691   7.356   4.251
24603SOL    HW275251   7.713   7.336   4.103
24604SOL     OW75252   7.659   7.031   4.262
24604SOL    HW175253   7.668   7.122   4.233
24604SOL    HW275254   7.620   7.037   4.350
24605SOL     OW75255   7.693   6.683   4.601
24605SOL    HW175256   7.700   6.596   4.641
24605SOL    HW275257   7.636   6.732   4.661
24606SOL     OW75258   7.569   6.231   4.290
24606SOL    HW175259   7.527   6.148   4.312
24606SOL    HW275260   7.554   6.287   4.367
24607SOL     OW75261   7.490   7.158   3.818
24607SOL    HW175262   7.471   7.077   3.865
24607SOL    HW275263   7.468   7.228   3.879
24608SOL     OW75264   7.545   6.338   5.294
24608SOL    HW175265   7.627   6.389   5.293
24608SOL    HW275266   7.476   6.403   5.283
24609SOL     OW75267   7.626   6.541   5.021
24609SOL    HW175268   7.707   6.499   4.991
24609SOL    HW275269   7.574   6.550   4.942
24610SOL     OW75270   7.751   5.859   5.517
24610SOL    HW175271   7.809   5.922   5.558
24610SOL    HW275272   7.667   5.872   5.560
24611SOL     OW75273   7.962   6.324   3.969
24611SOL    HW175274   8.053   6.336   3.941
24611SOL    HW275275   7.964   6.338   4.064
24612SOL     OW75276   7.527   6.391   4.503
24612SOL    HW175277   7.607   6.405   4.554
24612SOL    HW275278   7.468   6.460   4.533
24613SOL     OW75279   7.570   7.407   5.286
24613SOL    HW175280   7.564   7.406   5.382
24613SOL    HW275281   7.567   7.500   5.263
24614SOL     OW75282   7.978   5.773   4.614
24614SOL    HW175283   7.936   5.822   4.685
24614SOL    HW275284   7.973   5.832   4.538
24615SOL     OW75285   7.804   7.376   4.610
24615SOL    HW175286   7.832   7.290   4.640
24615SOL    HW275287   7.878   7.434   4.631
24616SOL     OW75288   7.759   6.556   3.982
24616SOL    HW175289   7.849   6.581   3.962
24616SOL    HW275290   7.749   6.470   3.943
24617SOL     OW75291   7.880   6.757   5.457
24617SOL    HW175292   7.870   6.796   5.370
24617SOL    HW275293   7.819   6.806   5.512
24618SOL     OW75294   7.639   5.866   5.257
24618SOL    HW175295   7.554   5.908   5.268
24618SOL    HW275296   7.672   5.855   5.347
24619SOL     OW75297   7.707   7.361   4.942
24619SOL    HW175298   7.755   7.294   4.991
24619SOL    HW275299   7.710   7.332   4.851
24620SOL     OW75300   7.847   6.251   4.223
24620SOL    HW175301   7.833   6.204   4.141
24620SOL    HW275302   7.759   6.265   4.258
24621SOL     OW75303   0.001   5.622   3.845
24621SOL    HW175304   0.046   5.673   3.912
24621SOL    HW275305   0.011   5.673   3.765
24622SOL     OW75306   7.975   5.571   4.220
24622SOL    HW175307   7.901   5.607   4.268
24622SOL    HW275308   8.015   5.646   4.177
24623SOL     OW75309   7.736   5.653   3.902
24623SOL    HW175310   7.739   5.729   3.845
24623SOL    HW275311   7.827   5.625   3.909
24624SOL     OW75312   7.929   6.650   4.456
24624SOL    HW175313   7.858   6.676   4.515
24624SOL    HW275314   7.893   6.663   4.368
24625SOL     OW75315   7.524   6.141   5.102
24625SOL    HW175316   7.619   6.136   5.087
24625SOL    HW275317   7.515   6.209   5.169
24626SOL     OW75318   7.925   5.804   4.895
24626SOL    HW175319   7.980   5.730   4.917
24626SOL    HW275320   7.973   5.880   4.928
24627SOL     OW75321   7.863   6.401   4.975
24627SOL    HW175322   7.933   6.422   5.037
24627SOL    HW275323   7.833   6.314   5.000
24628SOL     OW75324   7.525   7.153   5.073
24628SOL    HW175325   7.499   7.238   5.037
24628SOL    HW275326   7.620   7.152   5.068
24629SOL     OW75327   7.825   6.701   4.208
24629SOL    HW175328   7.799   6.787   4.175
24629SOL    HW275329   7.787   6.639   4.146
24630SOL     OW75330  -0.024   6.144   4.604
24630SOL    HW175331   0.005   6.227   4.565
24630SOL    HW275332   0.023   6.138   4.687
24631SOL     OW75333   7.803   7.104   5.040
24631SOL    HW175334   7.817   7.088   4.946
24631SOL    HW275335   7.890   7.129   5.072
24632SOL     OW75336   7.845   6.350   5.350
24632SOL    HW175337   7.935   6.329   5.322
24632SOL    HW275338   7.807   6.265   5.371
24633SOL     OW75339   7.929   5.678   5.437
24633SOL    HW175340   7.884   5.601   5.401
24633SOL    HW275341   7.859   5.732   5.472
24634SOL     OW75342   0.045   6.541   4.795
24634SOL    HW175343   0.021   6.630   4.769
24634SOL    HW275344  -0.038   6.501   4.822
24635SOL     OW75345   7.505   6.892   5.008
24635SOL    HW175346   7.546   6.849   5.083
24635SOL    HW275347   7.506   6.985   5.029
24636SOL     OW75348   7.743   5.652   4.353
24636SOL    HW175349   7.730   5.746   4.364
24636SOL    HW275350   7.755   5.619   4.442
24637SOL     OW75351   7.806   6.516   5.566
24637SOL    HW175352   7.841   6.597   5.529
24637SOL    HW275353   7.821   6.450   5.498
24638SOL     OW75354   7.759   6.410   4.660
24638SOL    HW175355   7.844   6.410   4.616
24638SOL    HW275356   7.755   6.326   4.706
24639SOL     OW75357   7.748   6.127   4.744
24639SOL    HW175358   7.715   6.039   4.726
24639SOL    HW275359   7.825   6.135   4.687
24640SOL     OW75360   7.461   6.893   3.921
24640SOL    HW175361   7.374   6.910   3.885
24640SOL    HW275362   7.456   6.804   3.956
24641SOL     OW75363   7.531   7.363   4.656
24641SOL    HW175364   7.503   7.286   4.607
24641SOL    HW275365   7.623   7.373   4.635
24642SOL     OW75366   7.466   6.135   4.834
24642SOL    HW175367   7.549   6.152   4.790
24642SOL    HW275368   7.486   6.141   4.927
24643SOL     OW75369   7.680   6.141   5.433
24643SOL    HW175370   7.629   6.068   5.468
24643SOL    HW275371   7.616   6.196   5.388
24644SOL     OW75372   7.700   7.136   5.444
24644SOL    HW175373   7.677   7.214   5.494
24644SOL    HW275374   7.700   7.065   5.507
24645SOL     OW75375   7.892   6.059   3.865
24645SOL    HW175376   7.953   6.116   3.911
24645SOL    HW275377   7.808   6.104   3.871
24646SOL     OW75378   7.602   6.729   5.215
24646SOL    HW175379   7.592   6.682   5.297
24646SOL    HW275380   7.609   6.660   5.149
24647SOL     OW75381   7.505   6.801   4.756
24647SOL    HW175382   7.518   6.838   4.843
24647SOL    HW275383   7.413   6.820   4.735
24648SOL     OW75384   7.605   7.371   5.564
24648SOL    HW175385   7.553   7.309   5.616
24648SOL    HW275386   7.651   7.424   5.629
24649SOL     OW75387   7.709   5.914   4.430
24649SOL    HW175388   7.625   5.949   4.401
24649SOL    HW275389   7.702   5.909   4.525
24650SOL     OW75390   7.830   6.889   5.227
24650SOL    HW175391   7.819   6.964   5.168
24650SOL    HW275392   7.751   6.836   5.214
24651SOL     OW75393  -0.007   7.121   4.139
24651SOL    HW175394   0.011   7.051   4.201
24651SOL    HW275395   0.029   7.199   4.179
24652SOL     OW75396   7.718   6.921   4.016
24652SOL    HW175397   7.626   6.916   3.990
24652SOL    HW275398   7.717   6.973   4.096
24653SOL     OW75399   7.564   6.623   5.466
24653SOL    HW175400   7.480   6.597   5.503
24653SOL    HW275401   7.628   6.570   5.513
24654SOL     OW75402   7.520   5.915   3.755
24654SOL    HW175403   7.433   5.908   3.715
24654SOL    HW275404   7.549   6.003   3.734
24655SOL     OW75405   7.503   5.739   4.028
24655SOL    HW175406   7.487   5.817   3.975
24655SOL    HW275407   7.592   5.713   4.005
24656SOL     OW75408   7.831   7.324   5.279
24656SOL    HW175409   7.747   7.362   5.255
24656SOL    HW275410   7.809   7.243   5.324
24657SOL     OW75411   7.665   6.877   5.577
24657SOL    HW175412   7.618   6.817   5.520
24657SOL    HW275413   7.602   6.898   5.647
24658SOL     OW75414   7.525   6.794   4.402
24658SOL    HW175415   7.580   6.758   4.471
24658SOL    HW275416   7.586   6.824   4.335
24659SOL     OW75417   0.091   6.995   5.375
24659SOL    HW175418   0.016   6.941   5.350
24659SOL    HW275419   0.084   7.073   5.320
24660SOL     OW75420   7.790   6.133   5.024
24660SOL    HW175421   7.866   6.086   5.056
24660SOL    HW275422   7.792   6.121   4.929
24661SOL     OW75423   7.489   6.643   4.035
24661SOL    HW175424   7.581   6.635   4.010
24661SOL    HW275425   7.462   6.554   4.056
24662SOL     OW75426   7.677   6.205   5.712
24662SOL    HW175427   7.607   6.143   5.731
24662SOL    HW275428   7.681   6.208   5.616
24663SOL     OW75429   7.606   5.895   6.645
24663SOL    HW175430   7.671   5.847   6.697
24663SOL    HW275431   7.637   5.885   6.555
24664SOL     OW75432   7.450   6.006   6.205
24664SOL    HW175433   7.385   5.937   6.214
24664SOL    HW275434   7.529   5.970   6.244
24665SOL     OW75435   7.771   7.000   6.632
24665SOL    HW175436   7.685   6.961   6.618
24665SOL    HW275437   7.787   7.052   6.554
24666SOL     OW75438   7.856   5.988   7.174
24666SOL    HW175439   7.930   5.989   7.113
24666SOL    HW275440   7.792   5.931   7.132
24667SOL     OW75441   7.664   7.300   6.061
24667SOL    HW175442   7.673   7.373   6.122
24667SOL    HW275443   7.747   7.299   6.012
24668SOL     OW75444   7.669   7.033   6.130
24668SOL    HW175445   7.672   7.128   6.117
24668SOL    HW275446   7.597   7.019   6.192
24669SOL     OW75447   7.700   6.686   6.485
24669SOL    HW175448   7.677   6.598   6.515
24669SOL    HW275449   7.632   6.743   6.522
24670SOL     OW75450   7.574   6.243   6.138
24670SOL    HW175451   7.533   6.157   6.152
24670SOL    HW275452   7.565   6.288   6.222
24671SOL     OW75453   7.494   7.180   5.718
24671SOL    HW175454   7.466   7.089   5.732
24671SOL    HW275455   7.465   7.226   5.797
24672SOL     OW75456   7.555   6.330   7.179
24672SOL    HW175457   7.644   6.363   7.167
24672SOL    HW275458   7.499   6.402   7.148
24673SOL     OW75459   7.632   6.519   6.898
24673SOL    HW175460   7.720   6.481   6.887
24673SOL    HW275461   7.595   6.520   6.810
24674SOL     OW75462   7.763   5.835   7.422
24674SOL    HW175463   7.808   5.901   7.369
24674SOL    HW275464   7.674   5.870   7.433
24675SOL     OW75465   8.020   6.314   5.842
24675SOL    HW175466   7.998   6.396   5.797
24675SOL    HW275467   7.957   6.309   5.914
24676SOL     OW75468   7.541   6.392   6.361
24676SOL    HW175469   7.611   6.386   6.427
24676SOL    HW275470   7.483   6.460   6.396
24677SOL     OW75471   7.557   7.436   7.160
24677SOL    HW175472   7.510   7.449   7.243
24677SOL    HW275473   7.567   7.524   7.124
24678SOL     OW75474   7.970   5.782   6.484
24678SOL    HW175475   7.966   5.809   6.576
24678SOL    HW275476   7.906   5.839   6.440
24679SOL     OW75477   7.811   7.425   6.476
24679SOL    HW175478   7.888   7.369   6.483
24679SOL    HW275479   7.846   7.514   6.480
24680SOL     OW75480   7.753   6.550   5.832
24680SOL    HW175481   7.767   6.535   5.738
24680SOL    HW275482   7.733   6.464   5.868
24681SOL     OW75483   7.919   6.787   7.340
24681SOL    HW175484   7.899   6.805   7.248
24681SOL    HW275485   7.851   6.834   7.388
24682SOL     OW75486   7.641   5.847   7.084
24682SOL    HW175487   7.568   5.906   7.064
24682SOL    HW275488   7.600   5.767   7.117
24683SOL     OW75489   7.706   7.366   6.818
24683SOL    HW175490   7.788   7.324   6.845
24683SOL    HW275491   7.703   7.353   6.724
24684SOL     OW75492   7.829   6.286   6.038
24684SOL    HW175493   7.876   6.220   6.087
24684SOL    HW275494   7.737   6.274   6.063
24685SOL     OW75495   0.012   5.671   5.720
24685SOL    HW175496   0.105   5.659   5.739
24685SOL    HW275497   0.008   5.685   5.625
24686SOL     OW75498   7.967   5.585   6.098
24686SOL    HW175499   7.885   5.617   6.136
24686SOL    HW275500   8.008   5.663   6.060
24687SOL     OW75501   7.741   5.644   5.771
24687SOL    HW175502   7.737   5.735   5.741
24687SOL    HW275503   7.834   5.624   5.773
24688SOL     OW75504   7.935   6.613   6.379
24688SOL    HW175505   7.852   6.649   6.411
24688SOL    HW275506   7.971   6.681   6.323
24689SOL     OW75507   7.550   6.121   7.001
24689SOL    HW175508   7.635   6.124   6.957
24689SOL    HW275509   7.547   6.202   7.053
24690SOL     OW75510   7.995   5.814   6.751
24690SOL    HW175511   8.058   5.765   6.804
24690SOL    HW275512   7.910   5.796   6.792
24691SOL     OW75513   7.875   6.381   6.899
24691SOL    HW175514   7.960   6.394   6.856
24691SOL    HW275515   7.847   6.294   6.873
24692SOL     OW75516   7.520   7.158   6.947
24692SOL    HW175517   7.515   7.247   6.912
24692SOL    HW275518   7.610   7.131   6.929
24693SOL     OW75519   0.004   6.156   6.457
24693SOL    HW175520   0.039   6.233   6.413
24693SOL    HW275521   0.039   6.161   6.546
24694SOL     OW75522   7.767   7.060   6.899
24694SOL    HW175523   7.779   7.034   6.807
24694SOL    HW275524   7.845   7.110   6.920
24695SOL     OW75525   7.835   6.339   7.168
24695SOL    HW175526   7.853   6.372   7.080
24695SOL    HW275527   7.895   6.265   7.179
24696SOL     OW75528   7.909   5.614   7.373
24696SOL    HW175529   7.881   5.565   7.295
24696SOL    HW275530   7.854   5.692   7.373
24697SOL     OW75531   0.047   6.531   6.690
24697SOL    HW175532   0.031   6.620   6.658
24697SOL    HW275533  -0.029   6.480   6.659
24698SOL     OW75534   7.754   5.763   6.851
24698SOL    HW175535   7.712   5.793   6.932
24698SOL    HW275536   7.727   5.672   6.843
24699SOL     OW75537   7.434   6.895   6.931
24699SOL    HW175538   7.515   6.844   6.936
24699SOL    HW275539   7.463   6.985   6.918
24700SOL     OW75540   7.720   5.633   6.220
24700SOL    HW175541   7.705   5.726   6.239
24700SOL    HW275542   7.757   5.598   6.301
24701SOL     OW75543   7.808   6.486   7.401
24701SOL    HW175544   7.885   6.542   7.394
24701SOL    HW275545   7.816   6.425   7.327
24702SOL     OW75546   7.761   6.404   6.543
24702SOL    HW175547   7.827   6.412   6.474
24702SOL    HW275548   7.759   6.310   6.563
24703SOL     OW75549   7.770   6.133   6.582
24703SOL    HW175550   7.713   6.070   6.538
24703SOL    HW275551   7.852   6.131   6.533
24704SOL     OW75552   7.467   6.898   5.771
24704SOL    HW175553   7.379   6.922   5.742
24704SOL    HW275554   7.457   6.812   5.811
24705SOL     OW75555   7.538   7.371   6.536
24705SOL    HW175556   7.510   7.297   6.482
24705SOL    HW275557   7.627   7.389   6.506
24706SOL     OW75558   7.471   6.123   6.710
24706SOL    HW175559   7.509   6.045   6.668
24706SOL    HW275560   7.539   6.152   6.771
24707SOL     OW75561   7.649   6.109   7.318
24707SOL    HW175562   7.719   6.075   7.262
24707SOL    HW275563   7.609   6.179   7.266
24708SOL     OW75564   0.243   6.109   5.868
24708SOL    HW175565   0.310   6.083   5.931
24708SOL    HW275566   0.180   6.159   5.920
24709SOL     OW75567   7.638   7.154   7.381
24709SOL    HW175568   7.705   7.191   7.324
24709SOL    HW275569   7.664   7.062   7.393
24710SOL     OW75570   7.918   6.073   5.733
24710SOL    HW175571   7.973   6.139   5.776
24710SOL    HW275572   7.830   6.110   5.738
24711SOL     OW75573   7.593   6.715   7.083
24711SOL    HW175574   7.597   6.672   7.169
24711SOL    HW275575   7.605   6.644   7.020
24712SOL     OW75576   7.568   7.406   7.466
24712SOL    HW175577   7.589   7.325   7.421
24712SOL    HW275578   7.639   7.465   7.444
24713SOL     OW75579   7.814   6.880   7.104
24713SOL    HW175580   7.809   6.947   7.035
24713SOL    HW275581   7.736   6.826   7.091
24714SOL     OW75582  -0.020   7.122   6.012
24714SOL    HW175583   0.056   7.077   6.051
24714SOL    HW275584  -0.008   7.214   6.035
24715SOL     OW75585   7.710   6.895   5.904
24715SOL    HW175586   7.627   6.911   5.858
24715SOL    HW275587   7.706   6.954   5.980
24716SOL     OW75588   7.580   6.636   7.358
24716SOL    HW175589   7.501   6.591   7.388
24716SOL    HW275590   7.651   6.575   7.379
24717SOL     OW75591   7.495   5.737   5.901
24717SOL    HW175592   7.478   5.804   5.836
24717SOL    HW275593   7.588   5.716   5.892
24718SOL     OW75594   7.792   7.291   7.202
24718SOL    HW175595   7.722   7.332   7.152
24718SOL    HW275596   7.857   7.267   7.136
24719SOL     OW75597   7.676   6.886   7.443
24719SOL    HW175598   7.636   6.806   7.408
24719SOL    HW275599   7.686   6.868   7.537
24720SOL     OW75600   7.509   6.833   6.265
24720SOL    HW175601   7.514   6.837   6.361
24720SOL    HW275602   7.591   6.792   6.238
24721SOL     OW75603   0.095   6.969   7.162
24721SOL    HW175604   0.001   6.958   7.179
24721SOL    HW275605   0.103   7.056   7.124
24722SOL     OW75606   7.783   6.125   6.853
24722SOL    HW175607   7.858   6.069   6.871
24722SOL    HW275608   7.774   6.125   6.758
24723SOL     OW75609   7.484   6.651   5.893
24723SOL    HW175610   7.572   6.640   5.857
24723SOL    HW275611   7.457   6.563   5.918
24724SOL     OW75612   7.648   6.198   7.573
24724SOL    HW175613   7.594   6.277   7.566
24724SOL    HW275614   7.668   6.175   7.482
24725SOL     OW75615   7.652   5.884   8.442
24725SOL    HW175616   7.688   5.845   8.522
24725SOL    HW275617   7.565   5.846   8.434
24726SOL     OW75618   7.451   5.990   8.091
24726SOL    HW175619   7.367   6.007   8.134
24726SOL    HW275620   7.434   5.915   8.034
24727SOL     OW75621   7.818   6.971   8.464
24727SOL    HW175622   7.723   6.967   8.457
24727SOL    HW275623   7.834   7.020   8.544
24728SOL     OW75624   7.838   5.979   8.987
24728SOL    HW175625   7.928   5.951   8.970
24728SOL    HW275626   7.784   5.908   8.953
24729SOL     OW75627   7.712   7.300   7.896
24729SOL    HW175628   7.699   7.367   7.963
24729SOL    HW275629   7.807   7.287   7.894
24730SOL     OW75630   7.591   7.042   7.967
24730SOL    HW175631   7.631   7.126   7.942
24730SOL    HW275632   7.611   7.034   8.060
24731SOL     OW75633   7.690   6.667   8.369
24731SOL    HW175634   7.747   6.649   8.444
24731SOL    HW275635   7.632   6.737   8.399
24732SOL     OW75636   7.549   6.243   8.009
24732SOL    HW175637   7.529   6.153   8.037
24732SOL    HW275638   7.551   6.293   8.091
24733SOL     OW75639   7.485   7.178   7.641
24733SOL    HW175640   7.512   7.165   7.550
24733SOL    HW275641   7.433   7.100   7.661
24734SOL     OW75642   7.580   6.335   9.035
24734SOL    HW175643   7.675   6.351   9.034
24734SOL    HW275644   7.543   6.420   9.060
24735SOL     OW75645   7.634   6.543   8.724
24735SOL    HW175646   7.720   6.502   8.724
24735SOL    HW275647   7.576   6.477   8.687
24736SOL     OW75648   7.780   5.860   9.253
24736SOL    HW175649   7.850   5.915   9.217
24736SOL    HW275650   7.706   5.875   9.195
24737SOL     OW75651   0.028   6.323   7.703
24737SOL    HW175652   0.061   6.413   7.702
24737SOL    HW275653  -0.042   6.324   7.768
24738SOL     OW75654   7.538   6.444   8.211
24738SOL    HW175655   7.622   6.487   8.196
24738SOL    HW275656   7.494   6.498   8.276
24739SOL     OW75657   7.581   7.464   9.033
24739SOL    HW175658   7.574   7.446   9.127
24739SOL    HW275659   7.518   7.404   8.993
24740SOL     OW75660   7.913   5.780   8.323
24740SOL    HW175661   7.954   5.794   8.409
24740SOL    HW275662   7.968   5.829   8.262
24741SOL     OW75663   7.811   7.426   8.319
24741SOL    HW175664   7.883   7.367   8.338
24741SOL    HW275665   7.851   7.513   8.319
24742SOL     OW75666   7.765   6.569   7.697
24742SOL    HW175667   7.857   6.593   7.695
24742SOL    HW275668   7.757   6.499   7.633
24743SOL     OW75669   7.957   6.824   9.191
24743SOL    HW175670   7.917   6.826   9.104
24743SOL    HW275671   7.885   6.845   9.251
24744SOL     OW75672   7.683   7.389   8.659
24744SOL    HW175673   7.717   7.311   8.703
24744SOL    HW275674   7.699   7.372   8.566
24745SOL     OW75675   7.831   6.301   7.891
24745SOL    HW175676   7.897   6.264   7.951
24745SOL    HW275677   7.748   6.267   7.924
24746SOL     OW75678   0.073   5.692   7.569
24746SOL    HW175679   0.088   5.781   7.537
24746SOL    HW275680   0.012   5.654   7.507
24747SOL     OW75681   7.939   5.591   7.922
24747SOL    HW175682   7.879   5.630   7.986
24747SOL    HW275683   7.997   5.664   7.897
24748SOL     OW75684   7.742   5.649   7.632
24748SOL    HW175685   7.768   5.716   7.569
24748SOL    HW275686   7.825   5.611   7.663
24749SOL     OW75687   7.895   6.590   8.206
24749SOL    HW175688   7.829   6.642   8.253
24749SOL    HW275689   7.936   6.652   8.146
24750SOL     OW75690   7.514   6.177   8.825
24750SOL    HW175691   7.604   6.149   8.809
24750SOL    HW275692   7.522   6.239   8.898
24751SOL     OW75693   7.999   5.780   8.583
24751SOL    HW175694   8.049   5.725   8.643
24751SOL    HW275695   7.913   5.789   8.625
24752SOL     OW75696   7.859   6.389   8.729
24752SOL    HW175697   7.937   6.393   8.784
24752SOL    HW275698   7.829   6.299   8.736
24753SOL     OW75699   7.476   7.208   8.825
24753SOL    HW175700   7.457   7.255   8.744
24753SOL    HW275701   7.568   7.183   8.817
24754SOL     OW75702   7.765   6.710   7.947
24754SOL    HW175703   7.818   6.784   7.917
24754SOL    HW275704   7.771   6.646   7.876
24755SOL     OW75705  -0.027   6.157   8.301
24755SOL    HW175706   0.025   6.145   8.222
24755SOL    HW275707   0.033   6.134   8.373
24756SOL     OW75708   7.859   6.314   9.059
24756SOL    HW175709   7.947   6.349   9.045
24756SOL    HW275710   7.870   6.219   9.056
24757SOL     OW75711   7.931   5.642   9.174
24757SOL    HW175712   7.882   5.573   9.129
24757SOL    HW275713   7.865   5.708   9.196
24758SOL     OW75714   7.960   6.550   8.500
24758SOL    HW175715   7.996   6.637   8.482
24758SOL    HW275716   7.976   6.537   8.594
24759SOL     OW75717   7.736   5.781   8.689
24759SOL    HW175718   7.679   5.804   8.761
24759SOL    HW275719   7.732   5.685   8.685
24760SOL     OW75720   7.481   6.910   8.731
24760SOL    HW175721   7.516   6.844   8.791
24760SOL    HW275722   7.533   6.988   8.748
24761SOL     OW75723   7.718   5.656   8.089
24761SOL    HW175724   7.722   5.750   8.104
24761SOL    HW275725   7.747   5.617   8.172
24762SOL     OW75726   7.796   6.493   9.271
24762SOL    HW175727   7.874   6.548   9.271
24762SOL    HW275728   7.816   6.423   9.208
24763SOL     OW75729   7.744   6.134   8.438
24763SOL    HW175730   7.712   6.044   8.437
24763SOL    HW275731   7.826   6.131   8.389
24764SOL     OW75732   7.413   6.902   7.679
24764SOL    HW175733   7.335   6.928   7.630
24764SOL    HW275734   7.444   6.823   7.634
24765SOL     OW75735   7.540   7.365   8.375
24765SOL    HW175736   7.517   7.286   8.327
24765SOL    HW275737   7.630   7.384   8.349
24766SOL     OW75738   7.483   6.148   8.552
24766SOL    HW175739   7.569   6.150   8.509
24766SOL    HW275740   7.503   6.153   8.646
24767SOL     OW75741   7.622   6.096   9.161
24767SOL    HW175742   7.675   6.059   9.091
24767SOL    HW275743   7.591   6.180   9.126
24768SOL     OW75744   0.184   6.083   7.803
24768SOL    HW175745   0.275   6.062   7.782
24768SOL    HW275746   0.158   6.146   7.735
24769SOL     OW75747   7.655   7.122   9.185
24769SOL    HW175748   7.725   7.186   9.195
24769SOL    HW275749   7.692   7.040   9.219
24770SOL     OW75750   7.906   6.091   7.611
24770SOL    HW175751   7.951   6.164   7.653
24770SOL    HW275752   7.813   6.115   7.614
24771SOL     OW75753   7.567   6.720   8.918
24771SOL    HW175754   7.579   6.672   9.000
24771SOL    HW275755   7.595   6.659   8.850
24772SOL     OW75756   7.520   6.852   8.464
24772SOL    HW175757   7.508   6.876   8.556
24772SOL    HW275758   7.441   6.803   8.441
24773SOL     OW75759   7.564   7.403   9.295
24773SOL    HW175760   7.523   7.322   9.326
24773SOL    HW275761   7.619   7.432   9.368
24774SOL     OW75762   7.716   5.922   8.158
24774SOL    HW175763   7.628   5.958   8.145
24774SOL    HW275764   7.723   5.907   8.252
24775SOL     OW75765   7.819   6.858   8.962
24775SOL    HW175766   7.828   6.939   8.911
24775SOL    HW275767   7.733   6.824   8.937
24776SOL     OW75768   7.911   6.993   7.911
24776SOL    HW175769   7.984   6.950   7.955
24776SOL    HW275770   7.936   7.085   7.908
24777SOL     OW75771   7.724   6.928   7.721
24777SOL    HW175772   7.650   6.990   7.718
24777SOL    HW275773   7.780   6.961   7.791
24778SOL     OW75774   7.555   6.587   9.161
24778SOL    HW175775   7.480   6.580   9.220
24778SOL    HW275776   7.631   6.565   9.215
24779SOL     OW75777   7.495   5.936   7.486
24779SOL    HW175778   7.438   5.918   7.410
24779SOL    HW275779   7.548   6.011   7.458
24780SOL     OW75780   7.501   5.735   7.729
24780SOL    HW175781   7.490   5.799   7.659
24780SOL    HW275782   7.590   5.701   7.715
24781SOL     OW75783   7.837   7.341   9.010
24781SOL    HW175784   7.748   7.377   9.002
24781SOL    HW275785   7.835   7.261   8.957
24782SOL     OW75786   7.711   6.877   9.309
24782SOL    HW175787   7.625   6.836   9.298
24782SOL    HW275788   7.717   6.895   9.403
24783SOL     OW75789   7.556   6.757   8.106
24783SOL    HW175790   7.571   6.738   8.199
24783SOL    HW275791   7.638   6.735   8.063
24784SOL     OW75792   0.087   7.032   9.002
24784SOL    HW175793   0.050   6.962   9.056
24784SOL    HW275794   0.165   7.061   9.049
24785SOL     OW75795   7.773   6.127   8.748
24785SOL    HW175796   7.826   6.085   8.816
24785SOL    HW275797   7.810   6.097   8.666
24786SOL     OW75798   7.506   6.643   7.784
24786SOL    HW175799   7.594   6.626   7.751
24786SOL    HW275800   7.468   6.555   7.795
24787SOL     OW75801   7.645   6.157   9.453
24787SOL    HW175802   7.561   6.184   9.492
24787SOL    HW275803   7.641   6.190   9.364
24788SOL     OW75804   7.662   5.878  10.294
24788SOL    HW175805   7.695   5.832  10.371
24788SOL    HW275806   7.575   5.840  10.280
24789SOL     OW75807   7.458   5.961   9.950
24789SOL    HW175808   7.378   6.002   9.984
24789SOL    HW275809   7.428   5.877   9.914
24790SOL     OW75810   7.768   7.019  10.354
24790SOL    HW175811   7.686   6.999  10.308
24790SOL    HW275812   7.817   7.072  10.291
24791SOL     OW75813   7.669   7.293   9.794
24791SOL    HW175814   7.661   7.366   9.855
24791SOL    HW275815   7.761   7.292   9.769
24792SOL     OW75816   7.658   7.020   9.827
24792SOL    HW175817   7.659   7.116   9.823
24792SOL    HW275818   7.616   7.000   9.910
24793SOL     OW75819   7.633   6.646  10.205
24793SOL    HW175820   7.707   6.586  10.213
24793SOL    HW275821   7.664   6.727  10.246
24794SOL     OW75822   7.572   6.228   9.873
24794SOL    HW175823   7.527   6.144   9.883
24794SOL    HW275824   7.561   6.272   9.958
24795SOL     OW75825   7.444   7.188   9.428
24795SOL    HW175826   7.468   7.099   9.453
24795SOL    HW275827   7.447   7.238   9.510
24796SOL     OW75828   7.563   6.328  10.884
24796SOL    HW175829   7.652   6.361  10.893
24796SOL    HW275830   7.508   6.406  10.885
24797SOL     OW75831   7.631   6.541  10.594
24797SOL    HW175832   7.716   6.500  10.612
24797SOL    HW275833   7.612   6.517  10.503
24798SOL     OW75834   7.771   5.876  11.150
24798SOL    HW175835   7.817   5.935  11.209
24798SOL    HW275836   7.683   5.871  11.185
24799SOL     OW75837  -0.001   6.312   9.595
24799SOL    HW175838   0.061   6.290   9.526
24799SOL    HW275839   0.014   6.405   9.613
24800SOL     OW75840   7.542   6.376  10.103
24800SOL    HW175841   7.625   6.393  10.148
24800SOL    HW275842   7.513   6.463  10.072
24801SOL     OW75843   7.559   7.467  10.893
24801SOL    HW175844   7.562   7.457  10.989
24801SOL    HW275845   7.494   7.403  10.864
24802SOL     OW75846   7.991   5.818  10.227
24802SOL    HW175847   7.931   5.744  10.217
24802SOL    HW275848   7.967   5.878  10.157
24803SOL     OW75849   7.862   7.378  10.193
24803SOL    HW175850   7.828   7.350  10.109
24803SOL    HW275851   7.863   7.474  10.188
24804SOL     OW75852   7.766   6.574   9.575
24804SOL    HW175853   7.860   6.590   9.581
24804SOL    HW275854   7.755   6.520   9.497
24805SOL     OW75855   7.908   6.774  11.031
24805SOL    HW175856   7.878   6.804  10.946
24805SOL    HW275857   7.847   6.814  11.093
24806SOL     OW75858   7.690   5.844  10.805
24806SOL    HW175859   7.631   5.918  10.817
24806SOL    HW275860   7.649   5.772  10.853
24807SOL     OW75861   7.704   7.368  10.524
24807SOL    HW175862   7.766   7.299  10.549
24807SOL    HW275863   7.694   7.358  10.429
24808SOL     OW75864   7.854   6.263   9.842
24808SOL    HW175865   7.881   6.277   9.752
24808SOL    HW275866   7.759   6.256   9.838
24809SOL     OW75867  -0.001   5.666   9.435
24809SOL    HW175868   0.092   5.674   9.457
24809SOL    HW275869  -0.002   5.661   9.340
24810SOL     OW75870   7.917   5.585   9.751
24810SOL    HW175871   7.883   5.609   9.837
24810SOL    HW275872   7.983   5.652   9.731
24811SOL     OW75873   7.744   5.672   9.517
24811SOL    HW175874   7.828   5.671   9.471
24811SOL    HW275875   7.763   5.631   9.601
24812SOL     OW75876   7.912   6.676  10.090
24812SOL    HW175877   7.836   6.665  10.034
24812SOL    HW275878   7.974   6.727  10.037
24813SOL     OW75879   7.551   6.120  10.708
24813SOL    HW175880   7.640   6.125  10.674
24813SOL    HW275881   7.543   6.196  10.767
24814SOL     OW75882   7.993   5.760  10.546
24814SOL    HW175883   8.046   5.709  10.485
24814SOL    HW275884   7.912   5.778  10.498
24815SOL     OW75885   7.862   6.401  10.633
24815SOL    HW175886   7.925   6.438  10.572
24815SOL    HW275887   7.850   6.311  10.603
24816SOL     OW75888   7.516   7.161  10.670
24816SOL    HW175889   7.495   7.233  10.611
24816SOL    HW275890   7.609   7.145  10.656
24817SOL     OW75891   7.753   6.695   9.843
24817SOL    HW175892   7.832   6.749   9.836
24817SOL    HW275893   7.750   6.646   9.761
24818SOL     OW75894   7.971   6.149  10.176
24818SOL    HW175895   8.010   6.225  10.132
24818SOL    HW275896   8.017   6.145  10.260
24819SOL     OW75897   7.769   7.090  10.619
24819SOL    HW175898   7.786   7.055  10.532
24819SOL    HW275899   7.854   7.120  10.650
24820SOL     OW75900   7.846   6.350  10.901
24820SOL    HW175901   7.852   6.378  10.809
24820SOL    HW275902   7.934   6.317  10.921
24821SOL     OW75903   7.916   5.719  10.987
24821SOL    HW175904   7.888   5.628  10.985
24821SOL    HW275905   7.858   5.761  11.050
24822SOL     OW75906   7.996   6.511  10.412
24822SOL    HW175907   8.026   6.592  10.372
24822SOL    HW275908   7.934   6.474  10.349
24823SOL     OW75909   7.713   5.773  10.543
24823SOL    HW175910   7.689   5.797  10.632
24823SOL    HW275911   7.706   5.677  10.541
24824SOL     OW75912   7.459   6.902  10.584
24824SOL    HW175913   7.505   6.843  10.644
24824SOL    HW275914   7.482   6.990  10.613
24825SOL     OW75915   7.739   5.644   9.961
24825SOL    HW175916   7.734   5.738   9.978
24825SOL    HW275917   7.760   5.605  10.046
24826SOL     OW75918   7.787   6.497  11.125
24826SOL    HW175919   7.867   6.549  11.134
24826SOL    HW275920   7.806   6.436  11.054
24827SOL     OW75921   7.791   6.402  10.242
24827SOL    HW175922   7.866   6.397  10.183
24827SOL    HW275923   7.774   6.312  10.268
24828SOL     OW75924   7.744   6.128  10.310
24828SOL    HW175925   7.713   6.038  10.302
24828SOL    HW275926   7.823   6.132  10.255
24829SOL     OW75927   7.447   6.914   9.513
24829SOL    HW175928   7.354   6.932   9.498
24829SOL    HW275929   7.449   6.825   9.548
24830SOL     OW75930   7.550   7.360  10.258
24830SOL    HW175931   7.516   7.281  10.217
24830SOL    HW275932   7.604   7.401  10.191
24831SOL     OW75933   7.481   6.132  10.429
24831SOL    HW175934   7.552   6.138  10.364
24831SOL    HW275935   7.525   6.128  10.513
24832SOL     OW75936   7.609   6.121  11.060
24832SOL    HW175937   7.683   6.078  11.017
24832SOL    HW275938   7.584   6.190  11.000
24833SOL     OW75939   0.178   6.053   9.652
24833SOL    HW175940   0.234   6.076   9.578
24833SOL    HW275941   0.166   6.136   9.699
24834SOL     OW75942   7.638   7.142  11.076
24834SOL    HW175943   7.709   7.194  11.038
24834SOL    HW275944   7.680   7.059  11.100
24835SOL     OW75945   7.889   6.051   9.521
24835SOL    HW175946   7.966   6.091   9.560
24835SOL    HW275947   7.831   6.124   9.502
24836SOL     OW75948   7.572   6.728  10.780
24836SOL    HW175949   7.580   6.685  10.865
24836SOL    HW275950   7.593   6.660  10.717
24837SOL     OW75951   7.492   6.890  10.305
24837SOL    HW175952   7.490   6.883  10.400
24837SOL    HW275953   7.452   6.809  10.273
24838SOL     OW75954   7.560   7.428  11.162
24838SOL    HW175955   7.558   7.334  11.181
24838SOL    HW275956   7.623   7.464  11.224
24839SOL     OW75957   7.723   5.909  10.026
24839SOL    HW175958   7.640   5.944   9.994
24839SOL    HW275959   7.712   5.903  10.121
24840SOL     OW75960   7.802   6.884  10.815
24840SOL    HW175961   7.809   6.955  10.751
24840SOL    HW275962   7.722   6.838  10.790
24841SOL     OW75963  -0.017   7.134   9.730
24841SOL    HW175964  -0.010   7.050   9.775
24841SOL    HW275965   0.057   7.185   9.764
24842SOL     OW75966   7.713   6.932   9.577
24842SOL    HW175967   7.619   6.935   9.560
24842SOL    HW275968   7.722   6.961   9.668
24843SOL     OW75969   7.558   6.619  11.037
24843SOL    HW175970   7.480   6.593  11.086
24843SOL    HW275971   7.630   6.573  11.079
24844SOL     OW75972   7.505   5.924   9.351
24844SOL    HW175973   7.415   5.906   9.325
24844SOL    HW275974   7.534   5.992   9.290
24845SOL     OW75975   7.808   7.311  10.932
24845SOL    HW175976   7.748   7.351  10.869
24845SOL    HW275977   7.876   7.270  10.878
24846SOL     OW75978   7.699   6.878  11.170
24846SOL    HW175979   7.631   6.813  11.150
24846SOL    HW275980   7.699   6.884  11.266
24847SOL     OW75981   7.531   6.802   9.984
24847SOL    HW175982   7.560   6.746  10.056
24847SOL    HW275983   7.593   6.784   9.913
24848SOL     OW75984   0.107   6.993  10.975
24848SOL    HW175985   0.037   6.929  10.960
24848SOL    HW275986   0.093   7.060  10.907
24849SOL     OW75987   7.792   6.133  10.583
24849SOL    HW175988   7.882   6.107  10.605
24849SOL    HW275989   7.788   6.126  10.487
24850SOL     OW75990   7.487   6.663   9.624
24850SOL    HW175991   7.582   6.665   9.608
24850SOL    HW275992   7.469   6.572   9.649
24851SOL     OW75993   7.648   6.213  11.316
24851SOL    HW175994   7.562   6.196  11.355
24851SOL    HW275995   7.635   6.197  11.222
24852SOL     OW75996   7.669   5.873  12.160
24852SOL    HW175997   7.698   5.841  12.245
24852SOL    HW275998   7.581   5.835  12.149
24853SOL     OW75999   7.444   5.976  11.811
24853SOL    HW176000   7.361   5.998  11.855
24853SOL    HW276001   7.426   5.893  11.767
24854SOL     OW76002   7.760   7.024  12.221
24854SOL    HW176003   7.679   6.982  12.194
24854SOL    HW276004   7.828   6.984  12.167
24855SOL     OW76005   7.700   7.301  11.648
24855SOL    HW176006   7.737   7.363  11.710
24855SOL    HW276007   7.775   7.254  11.612
24856SOL     OW76008   7.649   7.022  11.689
24856SOL    HW176009   7.637   7.112  11.722
24856SOL    HW276010   7.611   6.967  11.758
24857SOL     OW76011   7.691   6.676  12.082
24857SOL    HW176012   7.698   6.585  12.108
24857SOL    HW276013   7.635   6.716  12.149
24858SOL     OW76014   7.560   6.228  11.746
24858SOL    HW176015   7.549   6.141  11.785
24858SOL    HW276016   7.562   6.288  11.821
24859SOL     OW76017   7.590   6.310   0.240
24859SOL    HW176018   7.668   6.366   0.243
24859SOL    HW276019   7.521   6.366   0.206
24860SOL     OW76020   7.641   6.581  12.388
24860SOL    HW176021   7.713   6.521  12.406
24860SOL    HW276022   7.562   6.529  12.399
24861SOL     OW76023   0.016   6.331  11.410
24861SOL    HW176024   0.029   6.425  11.416
24861SOL    HW276025  -0.044   6.310  11.482
24862SOL     OW76026   7.524   6.430  11.935
24862SOL    HW176027   7.599   6.416  11.992
24862SOL    HW276028   7.470   6.494  11.982
24863SOL     OW76029   7.962   5.805  12.047
24863SOL    HW176030   7.968   5.797  12.142
24863SOL    HW276031   7.968   5.900  12.031
24864SOL     OW76032   7.747   6.548  11.432
24864SOL    HW176033   7.839   6.568  11.415
24864SOL    HW276034   7.731   6.464  11.388
24865SOL     OW76035   7.692   7.369  12.402
24865SOL    HW176036   7.723   7.284  12.434
24865SOL    HW276037   7.624   7.347  12.338
24866SOL     OW76038   7.836   6.276  11.615
24866SOL    HW176039   7.893   6.233  11.679
24866SOL    HW276040   7.748   6.262  11.648
24867SOL     OW76041   0.004   5.693  11.297
24867SOL    HW176042   0.090   5.658  11.319
24867SOL    HW276043   0.009   5.710  11.203
24868SOL     OW76044   7.983   5.612  11.664
24868SOL    HW176045   7.902   5.635  11.710
24868SOL    HW276046   8.013   5.695  11.626
24869SOL     OW76047   7.748   5.625  11.369
24869SOL    HW176048   7.832   5.662  11.342
24869SOL    HW276049   7.771   5.545  11.416
24870SOL     OW76050   7.904   6.726  11.923
24870SOL    HW176051   7.833   6.705  11.983
24870SOL    HW276052   7.868   6.709  11.836
24871SOL     OW76053   7.998   5.789  12.314
24871SOL    HW176054   8.039   5.737  12.383
24871SOL    HW276055   7.907   5.799  12.341
24872SOL     OW76056   7.854   6.385  12.448
24872SOL    HW176057   7.879   6.377  12.540
24872SOL    HW276058   7.815   6.301  12.427
24873SOL     OW76059   7.780   6.701  11.672
24873SOL    HW176060   7.776   6.776  11.613
24873SOL    HW276061   7.767   6.625  11.615
24874SOL     OW76062  -0.008   6.124  12.047
24874SOL    HW176063   0.027   6.197  11.996
24874SOL    HW276064   0.027   6.137  12.135
24875SOL     OW76065   7.769   7.121  12.480
24875SOL    HW176066   7.773   7.081  12.393
24875SOL    HW276067   7.858   7.113  12.514
24876SOL     OW76068   7.874   6.356   0.235
24876SOL    HW176069   7.967   6.369   0.254
24876SOL    HW276070   7.841   6.309   0.311
24877SOL     OW76071   7.979   6.483  12.211
24877SOL    HW176072   8.057   6.527  12.244
24877SOL    HW276073   7.945   6.435  12.286
24878SOL     OW76074   7.744   5.787  12.407
24878SOL    HW176075   7.708   5.824  12.487
24878SOL    HW276076   7.724   5.694  12.412
24879SOL     OW76077   7.494   6.925  12.436
24879SOL    HW176078   7.502   6.843  12.484
24879SOL    HW276079   7.550   6.986  12.483
24880SOL     OW76080   7.746   5.660  11.796
24880SOL    HW176081   7.731   5.753  11.818
24880SOL    HW276082   7.765   5.619  11.880
24881SOL     OW76083   7.738   6.399  12.104
24881SOL    HW176084   7.826   6.426  12.133
24881SOL    HW276085   7.730   6.309  12.133
24882SOL     OW76086   7.745   6.129  12.159
24882SOL    HW176087   7.720   6.037  12.162
24882SOL    HW276088   7.832   6.130  12.120
24883SOL     OW76089   7.445   6.903  11.384
24883SOL    HW176090   7.377   6.896  11.317
24883SOL    HW276091   7.456   6.814  11.416
24884SOL     OW76092   7.511   7.356  12.122
24884SOL    HW176093   7.478   7.274  12.085
24884SOL    HW276094   7.593   7.373  12.075
24885SOL     OW76095   7.513   6.169  12.325
24885SOL    HW176096   7.576   6.133  12.263
24885SOL    HW276097   7.480   6.092  12.372
24886SOL     OW76098   0.213   6.094  11.470
24886SOL    HW176099   0.179   6.009  11.496
24886SOL    HW276100   0.185   6.153  11.540
24887SOL     OW76101   7.897   6.086  11.309
24887SOL    HW176102   7.957   6.149  11.349
24887SOL    HW276103   7.810   6.125  11.322
24888SOL     OW76104   7.497   6.881  12.170
24888SOL    HW176105   7.497   6.894  12.265
24888SOL    HW276106   7.430   6.814  12.155
24889SOL     OW76107   7.712   5.918  11.887
24889SOL    HW176108   7.622   5.944  11.867
24889SOL    HW276109   7.712   5.903  11.982
24890SOL     OW76110  -0.018   7.164  11.598
24890SOL    HW176111   0.002   7.076  11.631
24890SOL    HW276112   0.060   7.215  11.618
24891SOL     OW76113   7.712   6.918  11.452
24891SOL    HW176114   7.620   6.915  11.428
24891SOL    HW276115   7.714   6.966  11.535
24892SOL     OW76116   7.507   5.920  11.228
24892SOL    HW176117   7.428   5.889  11.184
24892SOL    HW276118   7.532   5.998  11.179
24893SOL     OW76119   7.513   5.740  11.465
24893SOL    HW176120   7.500   5.812  11.403
24893SOL    HW276121   7.601   5.708  11.446
24894SOL     OW76122   7.754   7.328   0.250
24894SOL    HW176123   7.738   7.306   0.158
24894SOL    HW276124   7.849   7.320   0.260
24895SOL     OW76125   7.556   6.815  11.848
24895SOL    HW176126   7.553   6.776  11.935
24895SOL    HW276127   7.619   6.762  11.799
24896SOL     OW76128   7.491   6.652  11.484
24896SOL    HW176129   7.577   6.625  11.455
24896SOL    HW276130   7.462   6.583  11.544
24897SOL     OW76131   7.690   7.713   1.006
24897SOL    HW176132   7.709   7.686   1.096
24897SOL    HW276133   7.599   7.688   0.993
24898SOL     OW76134   7.428   7.828   0.640
24898SOL    HW176135   7.352   7.878   0.671
24898SOL    HW276136   7.391   7.746   0.606
24899SOL     OW76137   7.890   7.845   1.544
24899SOL    HW176138   7.966   7.791   1.527
24899SOL    HW276139   7.815   7.792   1.516
24900SOL     OW76140   7.509   0.105   0.577
24900SOL    HW176141   7.523   0.012   0.595
24900SOL    HW276142   7.585   0.149   0.613
24901SOL     OW76143   7.741   7.716   1.804
24901SOL    HW176144   7.793   7.796   1.794
24901SOL    HW276145   7.669   7.741   1.861
24902SOL     OW76146   7.970   7.641   0.871
24902SOL    HW176147   7.955   7.659   0.963
24902SOL    HW276148   7.973   7.727   0.829
24903SOL     OW76149   7.625   7.717   1.539
24903SOL    HW176150   7.548   7.761   1.504
24903SOL    HW276151   7.656   7.775   1.609
24904SOL     OW76152   0.041   7.497   0.076
24904SOL    HW176153   0.111   7.552   0.112
24904SOL    HW276154   0.085   7.442   0.011
24905SOL     OW76155   7.960   7.524   0.562
24905SOL    HW176156   8.010   7.570   0.629
24905SOL    HW276157   8.002   7.548   0.480
24906SOL     OW76158   7.532  -0.011   1.392
24906SOL    HW176159   7.588  -0.011   1.469
24906SOL    HW276160   7.485   0.073   1.396
24907SOL     OW76161   8.009   7.646   1.150
24907SOL    HW176162   8.057   7.597   1.217
24907SOL    HW276163   7.923   7.663   1.188
24908SOL     OW76164   0.040   7.960   0.853
24908SOL    HW176165  -0.000   8.043   0.828
24908SOL    HW276166   0.049   7.966   0.948
24909SOL     OW76167   7.924   7.537   1.693
24909SOL    HW176168   7.875   7.462   1.661
24909SOL    HW276169   7.857   7.596   1.729
24910SOL     OW76170   7.750   7.642   1.266
24910SOL    HW176171   7.699   7.667   1.343
24910SOL    HW276172   7.734   7.548   1.257
24911SOL     OW76173   7.750   7.973   0.982
24911SOL    HW176174   7.743   7.878   0.991
24911SOL    HW276175   7.838   7.993   1.016
24912SOL     OW76176   7.491   7.953   1.113
24912SOL    HW176177   7.574   7.959   1.066
24912SOL    HW276178   7.514   7.963   1.205
24913SOL     OW76179   7.636  -0.019   1.664
24913SOL    HW176180   7.688   0.052   1.702
24913SOL    HW276181   7.550  -0.011   1.707
24914SOL     OW76182   7.664   7.706   0.723
24914SOL    HW176183   7.595   7.766   0.695
24914SOL    HW276184   7.683   7.730   0.813
24915SOL     OW76185   7.514   7.598   0.328
24915SOL    HW176186   7.469   7.671   0.286
24915SOL    HW276187   7.607   7.612   0.308
24916SOL     OW76188   7.688   7.716   2.850
24916SOL    HW176189   7.705   7.687   2.939
24916SOL    HW276190   7.597   7.690   2.834
24917SOL     OW76191   7.919   7.806   3.400
24917SOL    HW176192   7.931   7.755   3.480
24917SOL    HW276193   7.830   7.785   3.371
24918SOL     OW76194   7.541   0.076   2.477
24918SOL    HW176195   7.533  -0.017   2.456
24918SOL    HW276196   7.510   0.083   2.568
24919SOL     OW76197   7.787   7.755   3.681
24919SOL    HW176198   7.737   7.836   3.697
24919SOL    HW276199   7.722   7.685   3.690
24920SOL     OW76200   7.967   7.660   2.726
24920SOL    HW176201   7.963   7.642   2.820
24920SOL    HW276202   7.881   7.696   2.705
24921SOL     OW76203   7.654   7.729   3.358
24921SOL    HW176204   7.581   7.790   3.355
24921SOL    HW276205   7.624   7.660   3.418
24922SOL     OW76206   0.018   7.563   1.971
24922SOL    HW176207   0.105   7.528   1.992
24922SOL    HW276208   0.007   7.545   1.878
24923SOL     OW76209   7.986   7.473   2.402
24923SOL    HW176210   7.894   7.484   2.428
24923SOL    HW276211   8.004   7.545   2.342
24924SOL     OW76212   7.759   7.475   2.034
24924SOL    HW176213   7.829   7.535   2.008
24924SOL    HW276214   7.804   7.401   2.076
24925SOL     OW76215   7.522  -0.024   3.301
24925SOL    HW176216   7.587  -0.012   3.232
24925SOL    HW276217   7.467   0.055   3.297
24926SOL     OW76218   7.999   7.635   2.996
24926SOL    HW176219   8.027   7.555   3.041
24926SOL    HW276220   7.918   7.660   3.042
24927SOL     OW76221   0.067   7.974   2.699
24927SOL    HW176222  -0.009   8.021   2.664
24927SOL    HW276223   0.071   8.001   2.791
24928SOL     OW76224   7.932   7.547   3.581
24928SOL    HW176225   7.883   7.471   3.550
24928SOL    HW276226   7.866   7.607   3.614
24929SOL     OW76227   7.750   7.648   3.109
24929SOL    HW176228   7.711   7.676   3.192
24929SOL    HW276229   7.732   7.554   3.105
24930SOL     OW76230   7.723   7.496   2.475
24930SOL    HW176231   7.664   7.571   2.458
24930SOL    HW276232   7.727   7.489   2.570
24931SOL     OW76233   7.770   7.969   2.905
24931SOL    HW176234   7.751   7.877   2.885
24931SOL    HW276235   7.859   7.982   2.872
24932SOL     OW76236   7.498   7.976   2.963
24932SOL    HW176237   7.590   7.962   2.941
24932SOL    HW276238   7.497   8.057   3.014
24933SOL     OW76239   7.640   0.010   3.580
24933SOL    HW176240   7.624  -0.030   3.495
24933SOL    HW276241   7.553   0.036   3.612
24934SOL     OW76242   7.754   7.804   2.597
24934SOL    HW176243   7.686   7.790   2.530
24934SOL    HW276244   7.711   7.782   2.679
24935SOL     OW76245   7.490   7.772   1.891
24935SOL    HW176246   7.466   7.750   1.981
24935SOL    HW276247   7.449   7.858   1.876
24936SOL     OW76248   7.512   7.602   2.122
24936SOL    HW176249   7.511   7.655   2.202
24936SOL    HW276250   7.603   7.573   2.114
24937SOL     OW76251   7.680   7.721   4.718
24937SOL    HW176252   7.704   7.690   4.805
24937SOL    HW276253   7.588   7.694   4.707
24938SOL     OW76254   7.431   7.852   4.354
24938SOL    HW176255   7.343   7.872   4.387
24938SOL    HW276256   7.426   7.760   4.327
24939SOL     OW76257   7.534   0.101   4.295
24939SOL    HW176258   7.503   0.013   4.317
24939SOL    HW276259   7.626   0.102   4.323
24940SOL     OW76260   7.778   7.710   5.563
24940SOL    HW176261   7.800   7.754   5.481
24940SOL    HW276262   7.689   7.740   5.583
24941SOL     OW76263   8.000   7.655   4.608
24941SOL    HW176264   7.982   7.648   4.701
24941SOL    HW276265   7.970   7.743   4.584
24942SOL     OW76266   7.598   7.670   5.221
24942SOL    HW176267   7.530   7.738   5.223
24942SOL    HW276268   7.678   7.716   5.247
24943SOL     OW76269   0.034   7.579   3.841
24943SOL    HW176270   0.116   7.531   3.848
24943SOL    HW276271  -0.004   7.549   3.758
24944SOL     OW76272   8.001   7.498   4.214
24944SOL    HW176273   7.931   7.468   4.271
24944SOL    HW276274   7.962   7.571   4.165
24945SOL     OW76275   7.748   7.477   3.965
24945SOL    HW176276   7.804   7.548   3.933
24945SOL    HW276277   7.712   7.438   3.886
24946SOL     OW76278   7.563  -0.017   5.120
24946SOL    HW176279   7.649  -0.045   5.154
24946SOL    HW276280   7.554   0.074   5.151
24947SOL     OW76281   7.993   7.651   4.877
24947SOL    HW176282   8.032   7.578   4.926
24947SOL    HW276283   7.907   7.665   4.918
24948SOL     OW76284   0.053   7.946   4.571
24948SOL    HW176285  -0.017   7.989   4.520
24948SOL    HW276286   0.052   7.991   4.655
24949SOL     OW76287   7.923   7.490   5.481
24949SOL    HW176288   7.886   7.436   5.410
24949SOL    HW276289   7.866   7.567   5.485
24950SOL     OW76290   7.735   7.630   4.971
24950SOL    HW176291   7.696   7.656   5.054
24950SOL    HW276292   7.720   7.535   4.967
24951SOL     OW76293   7.763   7.478   4.360
24951SOL    HW176294   7.738   7.569   4.378
24951SOL    HW276295   7.772   7.438   4.447
24952SOL     OW76296   7.735   7.985   4.744
24952SOL    HW176297   7.734   7.890   4.734
24952SOL    HW276298   7.765   8.018   4.660
24953SOL     OW76299   7.482   7.937   4.861
24953SOL    HW176300   7.559   7.950   4.806
24953SOL    HW276301   7.513   7.952   4.950
24954SOL     OW76302   7.627   7.969   5.459
24954SOL    HW176303   7.693   7.930   5.402
24954SOL    HW276304   7.649   8.062   5.460
24955SOL     OW76305   7.723   7.732   4.443
24955SOL    HW176306   7.703   7.821   4.416
24955SOL    HW276307   7.705   7.731   4.537
24956SOL     OW76308   7.510   7.792   3.811
24956SOL    HW176309   7.502   7.724   3.744
24956SOL    HW276310   7.477   7.872   3.769
24957SOL     OW76311   7.506   7.601   4.033
24957SOL    HW176312   7.501   7.671   3.968
24957SOL    HW276313   7.595   7.566   4.024
24958SOL     OW76314   7.658   7.746   6.585
24958SOL    HW176315   7.694   7.702   6.662
24958SOL    HW276316   7.572   7.707   6.573
24959SOL     OW76317   7.451   7.831   6.226
24959SOL    HW176318   7.366   7.872   6.243
24959SOL    HW276319   7.429   7.747   6.185
24960SOL     OW76320   7.894   7.850   7.151
24960SOL    HW176321   7.936   7.868   7.066
24960SOL    HW276322   7.814   7.803   7.129
24961SOL     OW76323   7.618   0.057   6.196
24961SOL    HW176324   7.565  -0.023   6.200
24961SOL    HW276325   7.579   0.108   6.125
24962SOL     OW76326   7.753   7.694   7.438
24962SOL    HW176327   7.818   7.763   7.426
24962SOL    HW276328   7.671   7.732   7.408
24963SOL     OW76329   7.940   7.664   6.481
24963SOL    HW176330   7.971   7.663   6.572
24963SOL    HW276331   7.959   7.753   6.451
24964SOL     OW76332   0.021   7.516   5.734
24964SOL    HW176333   0.116   7.511   5.732
24964SOL    HW276334  -0.005   7.506   5.642
24965SOL     OW76335   7.925   7.417   6.043
24965SOL    HW176336   7.869   7.459   6.109
24965SOL    HW276337   7.989   7.485   6.020
24966SOL     OW76338   7.742   7.521   5.762
24966SOL    HW176339   7.757   7.590   5.698
24966SOL    HW276340   7.830   7.495   5.790
24967SOL     OW76341   7.547   0.020   6.971
24967SOL    HW176342   7.576  -0.062   7.010
24967SOL    HW276343   7.558   0.085   7.040
24968SOL     OW76344   7.991   7.636   6.746
24968SOL    HW176345   8.037   7.568   6.795
24968SOL    HW276346   7.905   7.640   6.787
24969SOL     OW76347  -0.035   7.957   6.447
24969SOL    HW176348   0.035   7.966   6.382
24969SOL    HW276349   0.008   7.969   6.531
24970SOL     OW76350   7.922   7.497   7.332
24970SOL    HW176351   7.882   7.426   7.282
24970SOL    HW276352   7.856   7.567   7.330
24971SOL     OW76353   7.729   7.639   6.837
24971SOL    HW176354   7.686   7.673   6.915
24971SOL    HW276355   7.713   7.545   6.840
24972SOL     OW76356   7.729   7.506   6.225
24972SOL    HW176357   7.722   7.601   6.236
24972SOL    HW276358   7.757   7.473   6.310
24973SOL     OW76359   7.747   8.001   6.620
24973SOL    HW176360   7.731   7.908   6.607
24973SOL    HW276361   7.827   8.019   6.571
24974SOL     OW76362   7.475   7.943   6.712
24974SOL    HW176363   7.552   7.933   6.657
24974SOL    HW276364   7.509   7.941   6.802
24975SOL     OW76365   7.617   7.959   7.334
24975SOL    HW176366   7.621   7.898   7.260
24975SOL    HW276367   7.644   8.043   7.297
24976SOL     OW76368   7.715   7.766   6.300
24976SOL    HW176369   7.626   7.797   6.282
24976SOL    HW276370   7.720   7.764   6.396
24977SOL     OW76371   7.511   7.782   5.629
24977SOL    HW176372   7.444   7.761   5.563
24977SOL    HW276373   7.547   7.866   5.600
24978SOL     OW76374   7.504   7.601   5.871
24978SOL    HW176375   7.486   7.670   5.807
24978SOL    HW276376   7.593   7.572   5.852
24979SOL     OW76377   7.669   7.737   8.444
24979SOL    HW176378   7.699   7.699   8.526
24979SOL    HW276379   7.581   7.702   8.432
24980SOL     OW76380   7.430   7.834   8.099
24980SOL    HW176381   7.346   7.855   8.140
24980SOL    HW276382   7.415   7.749   8.058
24981SOL     OW76383   7.854   7.865   8.990
24981SOL    HW176384   7.931   7.852   8.934
24981SOL    HW276385   7.797   7.791   8.969
24982SOL     OW76386   7.507   0.099   8.068
24982SOL    HW176387   7.484   0.007   8.074
24982SOL    HW276388   7.602   0.101   8.073
24983SOL     OW76389   7.760   7.717   9.295
24983SOL    HW176390   7.772   7.804   9.258
24983SOL    HW276391   7.668   7.715   9.321
24984SOL     OW76392   7.952   7.664   8.343
24984SOL    HW176393   7.963   7.664   8.438
24984SOL    HW276394   7.954   7.756   8.318
24985SOL     OW76395   7.619   7.721   8.944
24985SOL    HW176396   7.528   7.746   8.926
24985SOL    HW276397   7.612   7.634   8.982
24986SOL     OW76398   0.044   7.564   7.564
24986SOL    HW176399   0.130   7.524   7.581
24986SOL    HW276400   0.016   7.525   7.481
24987SOL     OW76401   7.969   7.559   8.017
24987SOL    HW176402   7.874   7.546   8.019
24987SOL    HW276403   8.004   7.476   7.986
24988SOL     OW76404   7.780   7.509   7.643
24988SOL    HW176405   7.780   7.578   7.576
24988SOL    HW276406   7.872   7.486   7.653
24989SOL     OW76407   7.568   0.012   8.822
24989SOL    HW176408   7.630  -0.055   8.851
24989SOL    HW276409   7.576   0.082   8.886
24990SOL     OW76410   7.991   7.647   8.608
24990SOL    HW176411   8.035   7.576   8.655
24990SOL    HW276412   7.905   7.654   8.650
24991SOL     OW76413  -0.026   7.948   8.311
24991SOL    HW176414   0.038   7.984   8.249
24991SOL    HW276415   0.009   7.970   8.397
24992SOL     OW76416   7.928   7.533   9.187
24992SOL    HW176417   7.894   7.467   9.127
24992SOL    HW276418   7.853   7.590   9.206
24993SOL     OW76419   7.736   7.648   8.704
24993SOL    HW176420   7.690   7.675   8.783
24993SOL    HW276421   7.715   7.555   8.694
24994SOL     OW76422   7.698   7.505   8.076
24994SOL    HW176423   7.693   7.599   8.093
24994SOL    HW276424   7.734   7.467   8.156
24995SOL     OW76425   7.746   7.996   8.477
24995SOL    HW176426   7.730   7.902   8.466
24995SOL    HW276427   7.827   8.012   8.428
24996SOL     OW76428   7.483   7.948   8.571
24996SOL    HW176429   7.566   7.958   8.524
24996SOL    HW276430   7.507   7.960   8.663
24997SOL     OW76431   7.640   7.949   9.170
24997SOL    HW176432   7.685   7.911   9.095
24997SOL    HW276433   7.579   8.011   9.132
24998SOL     OW76434   7.706   7.762   8.163
24998SOL    HW176435   7.626   7.813   8.147
24998SOL    HW276436   7.713   7.758   8.258
24999SOL     OW76437   7.486   7.797   7.528
24999SOL    HW176438   7.432   7.788   7.450
24999SOL    HW276439   7.544   7.871   7.509
25000SOL     OW76440   7.520   7.605   7.737
25000SOL    HW176441   7.489   7.665   7.669
25000SOL    HW276442   7.611   7.632   7.752
25001SOL     OW76443   7.637   7.764  10.354
25001SOL    HW176444   7.682   7.708  10.417
25001SOL    HW276445   7.585   7.704  10.301
25002SOL     OW76446   7.474   7.816   9.944
25002SOL    HW176447   7.380   7.808   9.959
25002SOL    HW276448   7.505   7.727   9.931
25003SOL     OW76449   7.883   7.840  10.856
25003SOL    HW176450   7.925   7.852  10.771
25003SOL    HW276451   7.807   7.784  10.838
25004SOL     OW76452   7.540   0.088   9.923
25004SOL    HW176453   7.530  -0.007   9.911
25004SOL    HW276454   7.450   0.121   9.923
25005SOL     OW76455   7.760   7.718  11.152
25005SOL    HW176456   7.800   7.802  11.131
25005SOL    HW276457   7.671   7.739  11.177
25006SOL     OW76458   7.975   7.668  10.208
25006SOL    HW176459   7.971   7.667  10.304
25006SOL    HW276460   7.970   7.761  10.185
25007SOL     OW76461   7.635   7.716  10.820
25007SOL    HW176462   7.548   7.749  10.798
25007SOL    HW276463   7.618   7.628  10.855
25008SOL     OW76464   0.016   7.552   9.441
25008SOL    HW176465   0.107   7.524   9.453
25008SOL    HW276466  -0.005   7.530   9.350
25009SOL     OW76467   7.948   7.468   9.855
25009SOL    HW176468   7.870   7.507   9.894
25009SOL    HW276469   7.986   7.539   9.803
25010SOL     OW76470   7.737   7.501   9.492
25010SOL    HW176471   7.778   7.570   9.439
25010SOL    HW276472   7.811   7.448   9.522
25011SOL     OW76473   7.528   0.002  10.684
25011SOL    HW176474   7.618   0.026  10.661
25011SOL    HW276475   7.520   0.022  10.777
25012SOL     OW76476   7.996   7.648  10.479
25012SOL    HW176477   8.033   7.562  10.495
25012SOL    HW276478   7.909   7.645  10.518
25013SOL     OW76479   7.989   7.942  10.185
25013SOL    HW176480   7.958   8.012  10.127
25013SOL    HW276481   8.027   7.988  10.260
25014SOL     OW76482   7.932   7.528  11.054
25014SOL    HW176483   7.893   7.451  11.013
25014SOL    HW276484   7.859   7.587  11.068
25015SOL     OW76485   7.743   7.630  10.575
25015SOL    HW176486   7.702   7.654  10.658
25015SOL    HW276487   7.724   7.537  10.565
25016SOL     OW76488   7.764   7.999  10.343
25016SOL    HW176489   7.712   7.919  10.340
25016SOL    HW276490   7.842   7.980  10.292
25017SOL     OW76491   7.449   7.945  10.427
25017SOL    HW176492   7.503   7.881  10.380
25017SOL    HW276493   7.495   7.959  10.510
25018SOL     OW76494   7.618   8.015  10.950
25018SOL    HW176495   7.641   7.922  10.949
25018SOL    HW276496   7.548   8.022  11.015
25019SOL     OW76497   7.737   7.826  10.032
25019SOL    HW176498   7.646   7.842  10.007
25019SOL    HW276499   7.742   7.731  10.046
25020SOL     OW76500   7.503   7.787   9.364
25020SOL    HW176501   7.442   7.767   9.294
25020SOL    HW276502   7.544   7.870   9.338
25021SOL     OW76503   7.501   7.605   9.600
25021SOL    HW176504   7.487   7.672   9.534
25021SOL    HW276505   7.591   7.574   9.583
25022SOL     OW76506   7.688   7.695  12.154
25022SOL    HW176507   7.709   7.674  12.245
25022SOL    HW276508   7.594   7.681  12.147
25023SOL     OW76509   7.435   7.837  11.817
25023SOL    HW176510   7.352   7.874  11.848
25023SOL    HW276511   7.411   7.752  11.779
25024SOL     OW76512   7.886   7.770   0.194
25024SOL    HW176513   7.973   7.790   0.158
25024SOL    HW276514   7.880   7.675   0.192
25025SOL     OW76515   7.509   0.106  11.770
25025SOL    HW176516   7.482   0.016  11.788
25025SOL    HW276517   7.604   0.106  11.779
25026SOL     OW76518   7.969   7.687  12.029
25026SOL    HW176519   7.958   7.687  12.124
25026SOL    HW276520   7.974   7.780  12.006
25027SOL     OW76521   0.016   7.523  11.314
25027SOL    HW176522   0.111   7.512  11.324
25027SOL    HW276523   0.000   7.513  11.220
25028SOL     OW76524   7.961   7.497  11.726
25028SOL    HW176525   7.881   7.542  11.699
25028SOL    HW276526   8.029   7.530  11.667
25029SOL     OW76527   7.743   7.513  11.354
25029SOL    HW176528   7.776   7.585  11.301
25029SOL    HW276529   7.820   7.459  11.372
25030SOL     OW76530   7.526   0.003   0.049
25030SOL    HW176531   7.619   0.008   0.071
25030SOL    HW276532   7.482   0.050   0.120
25031SOL     OW76533   7.988   7.636  12.296
25031SOL    HW176534   8.049   7.633  12.371
25031SOL    HW276535   7.901   7.629  12.336
25032SOL     OW76536  -0.005   7.963  12.036
25032SOL    HW176537  -0.009   8.056  12.014
25032SOL    HW276538   0.034   7.960  12.124
25033SOL     OW76539   7.823   0.216   0.292
25033SOL    HW176540   7.820   0.311   0.284
25033SOL    HW276541   7.915   0.196   0.306
25034SOL     OW76542   7.740   7.633  12.413
25034SOL    HW176543   7.668   7.671  12.463
25034SOL    HW276544   7.728   7.538  12.422
25035SOL     OW76545   7.709   7.493  11.870
25035SOL    HW176546   7.709   7.589  11.874
25035SOL    HW276547   7.620   7.471  11.840
25036SOL     OW76548   7.734   7.965  12.152
25036SOL    HW176549   7.743   7.870  12.154
25036SOL    HW276550   7.824   7.998  12.152
25037SOL     OW76551   7.496   7.946  12.281
25037SOL    HW176552   7.579   7.957  12.235
25037SOL    HW276553   7.518   7.964  12.373
25038SOL     OW76554   7.697   7.759  11.880
25038SOL    HW176555   7.617   7.806  11.856
25038SOL    HW276556   7.700   7.764  11.976
25039SOL     OW76557   7.513   7.805  11.224
25039SOL    HW176558   7.441   7.776  11.168
25039SOL    HW276559   7.499   7.899  11.235
25040SOL     OW76560   7.508   7.589  11.468
25040SOL    HW176561   7.488   7.666  11.415
25040SOL    HW276562   7.596   7.562  11.439
25041NA      NA76563   0.187   0.789   1.720
25042NA      NA76564   1.260   0.822   1.036
25043NA      NA76565   1.633   0.380   0.506
25044NA      NA76566   1.867   0.156   1.224
25045NA      NA76567   1.887   1.583   3.447
25046NA      NA76568   1.671   1.808   2.701
25047NA      NA76569   1.906   1.822   4.198
25048NA      NA76570   0.476   1.302   4.301
25049NA      NA76571   0.193   1.624   4.903
25050NA      NA76572   0.992   0.688   3.906
25051NA      NA76573   1.878   1.690   4.861
25052NA      NA76574   1.371   1.646   6.353
25053NA      NA76575   1.541   1.018   6.894
25054NA      NA76576   0.894   0.505   7.315
25055NA      NA76577   1.439   0.731   8.665
25056NA      NA76578   0.142   0.219   7.732
25057NA      NA76579   1.519   0.556  10.017
25058NA      NA76580   1.141   1.337   9.956
25059NA      NA76581   0.433   0.546   9.510
25060NA      NA76582   0.193   1.141  10.789
25061NA      NA76583   1.616   1.930  10.341
25062NA      NA76584   0.951   0.331  12.404
25063NA      NA76585   0.634   0.098  11.212
25064NA      NA76586   0.514   2.136   1.649
25065NA      NA76587   1.636   2.068   1.516
25066NA      NA76588   1.121   3.518   0.284
25067NA      NA76589   1.678   3.255   0.031
25068NA      NA76590   1.587   1.872   0.379
25069NA      NA76591   0.628   2.193   0.296
25070NA      NA76592   1.303   2.666   0.983
25071NA      NA76593   0.297   3.361   1.760
25072NA      NA76594   0.204   1.984   2.910
25073NA      NA76595   1.222   2.466   3.603
25074NA      NA76596   1.710   3.240   2.973
25075NA      NA76597   0.708   2.317   5.206
25076NA      NA76598   0.048   3.212   5.125
25077NA      NA76599   1.567   3.182   5.396
25078NA      NA76600   1.421   2.168   4.347
25079NA      NA76601   0.918   3.126   4.032
25080NA      NA76602   0.627   2.822   6.370
25081NA      NA76603   0.269   3.355   6.597
25082NA      NA76604   1.523   2.963   6.318
25083NA      NA76605   0.455   2.126   5.796
25084NA      NA76606   1.670   2.241   6.116
25085NA      NA76607   2.058   3.476   7.138
25086NA      NA76608   0.911   2.520   6.862
25087NA      NA76609   1.019   2.413   7.936
25088NA      NA76610   0.501   2.812   8.463
25089NA      NA76611   1.718   2.848   9.303
25090NA      NA76612   0.132   2.919   9.189
25091NA      NA76613   1.913   3.606   9.693
25092NA      NA76614   0.246   2.620  11.024
25093NA      NA76615   0.991   2.279   9.713
25094NA      NA76616   1.552   2.957  10.037
25095NA      NA76617   1.084   3.129  10.816
25096NA      NA76618   0.517   1.960  11.020
25097NA      NA76619   0.646   3.406  10.237
25098NA      NA76620   0.252   3.372  11.168
25099NA      NA76621   0.829   3.650   9.526
25100NA      NA76622   0.814   3.194  12.010
25101NA      NA76623   1.040   2.054  12.206
25102NA      NA76624   1.664   5.440   0.563
25103NA      NA76625   0.746   4.290   0.167
25104NA      NA76626   1.329   4.785   1.195
25105NA      NA76627   0.113   3.873   0.274
25106NA      NA76628   1.195   4.442   2.590
25107NA      NA76629   0.699   4.148   3.118
25108NA      NA76630   7.998   4.913   2.894
25109NA      NA76631   0.799   5.458   3.100
25110NA      NA76632   0.526   5.114   4.402
25111NA      NA76633   1.241   5.160   5.242
25112NA      NA76634   0.162   3.830   4.509
25113NA      NA76635   7.915   4.977   4.089
25114NA      NA76636   0.966   5.199   3.786
25115NA      NA76637   0.526   4.525   5.874
25116NA      NA76638   0.993   4.115   6.907
25117NA      NA76639   1.493   4.533   6.383
25118NA      NA76640   0.825   5.187   6.441
25119NA      NA76641   0.184   3.836   6.955
25120NA      NA76642   0.477   4.497   7.475
25121NA      NA76643   1.501   3.979   5.731
25122NA      NA76644   0.624   4.635   8.459
25123NA      NA76645   0.807   5.626   8.263
25124NA      NA76646   1.736   4.245   9.488
25125NA      NA76647   0.645   5.488  10.808
25126NA      NA76648   0.840   5.209   9.770
25127NA      NA76649   1.645   5.149   9.221
25128NA      NA76650   0.967   3.847  10.715
25129NA      NA76651   1.331   4.599   9.865
25130NA      NA76652   1.705   5.565  10.161
25131NA      NA76653   1.446   4.536  11.218
25132NA      NA76654   1.431   4.726  12.375
25133NA      NA76655   0.218   4.149  11.930
25134NA      NA76656   0.836   5.642  12.114
25135NA      NA76657   0.501   6.285   1.030
25136NA      NA76658   1.189   7.160   0.037
25137NA      NA76659   0.666   7.054   0.465
25138NA      NA76660   1.488   6.575   1.389
25139NA      NA76661   1.874   7.134   3.460
25140NA      NA76662   1.276   6.332   2.268
25141NA      NA76663   0.648   6.130   4.464
25142NA      NA76664   0.401   6.475   5.598
25143NA      NA76665   0.716   5.827   5.211
25144NA      NA76666   1.694   6.905   4.846
25145NA      NA76667   1.881   7.317   5.963
25146NA      NA76668   0.274   6.550   6.772
25147NA      NA76669   1.438   6.405   5.623
25148NA      NA76670   1.205   6.182   7.325
25149NA      NA76671   1.664   7.207   7.624
25150NA      NA76672   0.438   5.639   7.535
25151NA      NA76673   1.075   6.744   8.956
25152NA      NA76674   1.214   6.217  10.513
25153NA      NA76675   0.428   6.425  11.180
25154NA      NA76676   0.540   6.474   9.793
25155NA      NA76677   0.231   7.694   1.011
25156NA      NA76678   0.780   7.588   3.666
25157NA      NA76679   1.205   7.957   3.081
25158NA      NA76680   1.291   0.341   1.993
25159NA      NA76681   0.152   7.768   2.636
25160NA      NA76682   1.470   7.462   4.162
25161NA      NA76683   0.194   7.855   4.223
25162NA      NA76684   1.723   0.067   5.816
25163NA      NA76685   1.136   7.647   7.050
25164NA      NA76686   1.685   7.601  10.790
25165NA      NA76687   0.934   7.537  10.668
25166NA      NA76688   2.348   0.538   0.166
25167NA      NA76689   2.498   1.756   2.193
25168NA      NA76690   3.059   1.317   2.654
25169NA      NA76691   3.009   0.841   2.111
25170NA      NA76692   2.532   1.307   3.257
25171NA      NA76693   2.325   0.100   4.204
25172NA      NA76694   2.728   1.066   4.229
25173NA      NA76695   3.295   1.057   5.211
25174NA      NA76696   2.676   0.158   5.304
25175NA      NA76697   3.331   1.750   6.317
25176NA      NA76698   3.874   0.715   5.908
25177NA      NA76699   2.783   0.666   6.831
25178NA      NA76700   2.209   1.479   7.329
25179NA      NA76701   2.573   0.844   9.149
25180NA      NA76702   2.124   1.442   8.012
25181NA      NA76703   3.470   1.774   7.915
25182NA      NA76704   2.313   0.313   8.205
25183NA      NA76705   3.271   0.640   8.928
25184NA      NA76706   3.685   1.299   8.959
25185NA      NA76707   3.778   0.216   8.578
25186NA      NA76708   3.312   0.738  10.032
25187NA      NA76709   2.725   0.782  10.626
25188NA      NA76710   3.626   1.761  10.410
25189NA      NA76711   2.387   0.894   9.783
25190NA      NA76712   3.377   0.914  11.982
25191NA      NA76713   3.179   1.401  12.408
25192NA      NA76714   2.626   1.313  11.621
25193NA      NA76715   2.870   1.786   0.637
25194NA      NA76716   2.984   2.797   0.080
25195NA      NA76717   3.130   3.000   2.100
25196NA      NA76718   3.509   2.249   2.411
25197NA      NA76719   2.627   2.192   3.336
25198NA      NA76720   2.043   2.886   2.286
25199NA      NA76721   3.322   2.464   4.034
25200NA      NA76722   2.592   2.667   5.847
25201NA      NA76723   2.775   2.248   7.375
25202NA      NA76724   3.172   2.479   6.032
25203NA      NA76725   2.735   3.481   5.627
25204NA      NA76726   1.825   2.151   8.167
25205NA      NA76727   2.212   2.262   9.276
25206NA      NA76728   3.428   2.732  10.446
25207NA      NA76729   2.332   3.272  11.851
25208NA      NA76730   3.261   2.933  12.035
25209NA      NA76731   3.101   2.438  11.617
25210NA      NA76732   2.070   4.477   1.749
25211NA      NA76733   1.935   5.421   1.372
25212NA      NA76734   2.972   4.370   1.010
25213NA      NA76735   3.269   4.000   0.220
25214NA      NA76736   2.141   4.261   0.877
25215NA      NA76737   3.135   3.921   1.515
25216NA      NA76738   1.952   5.052   0.326
25217NA      NA76739   2.239   3.997   3.746
25218NA      NA76740   3.631   4.685   2.827
25219NA      NA76741   2.735   5.462   3.407
25220NA      NA76742   2.932   4.671   1.937
25221NA      NA76743   2.234   4.377   4.237
25222NA      NA76744   2.458   4.310   5.252
25223NA      NA76745   2.594   5.246   4.116
25224NA      NA76746   2.653   5.023   6.961
25225NA      NA76747   2.140   4.946   6.258
25226NA      NA76748   1.824   4.069   8.045
25227NA      NA76749   2.652   4.332   8.200
25228NA      NA76750   2.468   4.586   9.236
25229NA      NA76751   2.653   5.362   7.985
25230NA      NA76752   3.766   5.255  10.395
25231NA      NA76753   3.430   4.509  10.323
25232NA      NA76754   2.863   3.601  10.431
25233NA      NA76755   2.916   4.217  11.472
25234NA      NA76756   3.179   5.354  11.586
25235NA      NA76757   3.164   6.379   0.371
25236NA      NA76758   2.528   7.121   0.231
25237NA      NA76759   2.309   5.838   3.475
25238NA      NA76760   3.022   6.878   2.705
25239NA      NA76761   2.621   7.230   3.456
25240NA      NA76762   3.632   5.658   2.839
25241NA      NA76763   2.391   6.188   5.109
25242NA      NA76764   3.316   5.806   4.046
25243NA      NA76765   3.765   7.131   4.817
25244NA      NA76766   3.025   7.529   6.069
25245NA      NA76767   2.958   6.213   5.626
25246NA      NA76768   2.416   5.752   6.907
25247NA      NA76769   3.118   6.895   6.829
25248NA      NA76770   2.264   6.548   6.684
25249NA      NA76771   2.054   7.250   8.161
25250NA      NA76772   2.564   5.834   8.878
25251NA      NA76773   3.424   5.691   8.571
25252NA      NA76774   2.528   6.571   9.970
25253NA      NA76775   3.341   6.138   9.896
25254NA      NA76776   2.270   6.806  11.091
25255NA      NA76777   2.464   6.025  10.375
25256NA      NA76778   3.692   6.603  12.036
25257NA      NA76779   1.819   6.700  12.352
25258NA      NA76780   2.878   6.477  11.798
25259NA      NA76781   2.762   5.723  12.180
25260NA      NA76782   2.404   7.645   1.342
25261NA      NA76783   3.240   7.630   1.309
25262NA      NA76784   3.014   0.015   3.186
25263NA      NA76785   2.226   7.955   2.746
25264NA      NA76786   2.017   7.730   4.814
25265NA      NA76787   3.312   7.780   6.981
25266NA      NA76788   3.321   7.788   8.312
25267NA      NA76789   2.371   7.487  10.452
25268NA      NA76790   1.960   7.594   9.469
25269NA      NA76791   2.623   0.032  10.978
25270NA      NA76792   1.991   0.164  11.740
25271NA      NA76793   3.760   7.716  12.377
25272NA      NA76794   3.144   7.385  11.257
25273NA      NA76795   3.854   0.938   0.803
25274NA      NA76796   4.156   1.293   1.764
25275NA      NA76797   5.363   0.777   1.966
25276NA      NA76798   4.124   0.121   0.702
25277NA      NA76799   5.065   1.094   1.165
25278NA      NA76800   5.078   1.748   0.395
25279NA      NA76801   4.027   1.066   2.963
25280NA      NA76802   4.650   0.448   3.219
25281NA      NA76803   4.729   1.545   2.768
25282NA      NA76804   4.127   0.101   2.341
25283NA      NA76805   3.991   1.337   4.086
25284NA      NA76806   3.832   0.185   3.989
25285NA      NA76807   4.637   0.763   6.835
25286NA      NA76808   3.835   1.131   7.073
25287NA      NA76809   4.956   0.331   6.051
25288NA      NA76810   5.399   1.495   6.644
25289NA      NA76811   4.771   0.883   8.191
25290NA      NA76812   5.553   1.200   9.041
25291NA      NA76813   5.433   1.629   8.268
25292NA      NA76814   4.377   1.732   7.942
25293NA      NA76815   5.447   0.443   9.473
25294NA      NA76816   4.189   0.083   9.765
25295NA      NA76817   4.930   0.530  10.628
25296NA      NA76818   3.886   0.558  11.072
25297NA      NA76819   4.716   1.020   9.929
25298NA      NA76820   5.347   1.577  10.269
25299NA      NA76821   3.896   1.214   9.946
25300NA      NA76822   3.897   2.684   1.561
25301NA      NA76823   4.267   2.683   0.366
25302NA      NA76824   4.156   1.958   0.397
25303NA      NA76825   5.288   2.626   0.465
25304NA      NA76826   4.571   3.518   1.450
25305NA      NA76827   5.287   3.579   1.250
25306NA      NA76828   4.398   2.309   3.364
25307NA      NA76829   5.109   2.396   4.812
25308NA      NA76830   4.778   2.796   3.796
25309NA      NA76831   4.925   2.919   7.711
25310NA      NA76832   5.554   2.834   9.902
25311NA      NA76833   5.201   2.280  11.151
25312NA      NA76834   4.598   2.861   9.876
25313NA      NA76835   4.260   3.735  10.290
25314NA      NA76836   4.827   1.808   9.277
25315NA      NA76837   3.766   3.389  11.314
25316NA      NA76838   4.805   3.493  11.460
25317NA      NA76839   5.377   4.862   0.438
25318NA      NA76840   4.045   4.961   0.682
25319NA      NA76841   4.857   4.990   1.076
25320NA      NA76842   3.928   4.087   0.768
25321NA      NA76843   4.485   4.242   1.931
25322NA      NA76844   5.384   5.430   2.060
25323NA      NA76845   5.261   4.072   2.393
25324NA      NA76846   3.648   4.889   1.956
25325NA      NA76847   5.455   5.404   8.445
25326NA      NA76848   3.955   5.330   9.637
25327NA      NA76849   4.805   4.014  10.753
25328NA      NA76850   5.054   5.338   9.123
25329NA      NA76851   4.338   7.379   1.542
25330NA      NA76852   4.384   7.278   0.448
25331NA      NA76853   4.171   5.988   1.233
25332NA      NA76854   3.805   6.166   1.933
25333NA      NA76855   5.374   5.723   3.409
25334NA      NA76856   4.410   6.013   3.396
25335NA      NA76857   4.250   7.283   2.244
25336NA      NA76858   4.266   5.662   2.347
25337NA      NA76859   3.853   7.193   3.269
25338NA      NA76860   4.996   6.971   2.416
25339NA      NA76861   5.028   6.698   3.989
25340NA      NA76862   4.277   6.362   4.728
25341NA      NA76863   4.558   6.090   5.453
25342NA      NA76864   3.973   6.092   5.946
25343NA      NA76865   5.261   6.706   6.647
25344NA      NA76866   4.966   6.956   6.030
25345NA      NA76867   4.746   5.599   7.117
25346NA      NA76868   3.945   7.032   8.001
25347NA      NA76869   3.727   6.925   8.859
25348NA      NA76870   4.429   6.398   8.745
25349NA      NA76871   4.551   7.026   7.486
25350NA      NA76872   4.129   5.835   7.962
25351NA      NA76873   4.099   5.847  11.230
25352NA      NA76874   4.546   6.994  10.501
25353NA      NA76875   4.784   6.059  10.781
25354NA      NA76876   5.204   5.815  10.172
25355NA      NA76877   5.116   6.615  12.081
25356NA      NA76878   4.569   7.492  12.108
25357NA      NA76879   5.187   8.000   0.960
25358NA      NA76880   5.188   0.003   2.851
25359NA      NA76881   4.116   7.480   5.542
25360NA      NA76882   4.487   0.254   4.803
25361NA      NA76883   5.100   7.609   6.686
25362NA      NA76884   3.824   7.934  10.399
25363NA      NA76885   4.497   0.017  10.951
25364NA      NA76886   4.173   7.553  11.331
25365NA      NA76887   5.429   7.873  11.656
25366NA      NA76888   6.089   1.384   1.275
25367NA      NA76889   6.715   0.922   0.851
25368NA      NA76890   7.063   1.068   1.430
25369NA      NA76891   6.989   1.286   2.895
25370NA      NA76892   5.720   1.576   3.124
25371NA      NA76893   5.624   1.615   5.066
25372NA      NA76894   5.788   0.206   4.997
25373NA      NA76895   6.389   0.730   4.624
25374NA      NA76896   7.076   1.082   6.240
25375NA      NA76897   6.645   1.360   6.900
25376NA      NA76898   6.589   0.228   7.290
25377NA      NA76899   6.509   0.801   5.754
25378NA      NA76900   7.343   0.417   6.883
25379NA      NA76901   6.011   0.404   6.101
25380NA      NA76902   5.670   0.579   7.484
25381NA      NA76903   6.184   1.459   8.511
25382NA      NA76904   6.590   0.619   7.939
25383NA      NA76905   7.340   1.332   8.162
25384NA      NA76906   6.437   1.290   7.713
25385NA      NA76907   6.097   1.391  10.002
25386NA      NA76908   6.039   0.244  10.167
25387NA      NA76909   7.430   1.299  11.087
25388NA      NA76910   7.085   0.830   9.302
25389NA      NA76911   6.809   1.591   9.212
25390NA      NA76912   5.808   1.188  11.320
25391NA      NA76913   7.025   0.250  10.423
25392NA      NA76914   6.340   1.238  12.319
25393NA      NA76915   7.353   1.334  11.962
25394NA      NA76916   6.962   0.350  11.440
25395NA      NA76917   5.861   0.554  12.141
25396NA      NA76918   6.508   1.692   0.155
25397NA      NA76919   7.328   0.305   0.155
25398NA      NA76920   5.661   2.609   1.606
25399NA      NA76921   6.511   2.667   1.447
25400NA      NA76922   7.025   1.891   1.776
25401NA      NA76923   6.989   2.391   1.057
25402NA      NA76924   5.902   3.188   2.866
25403NA      NA76925   5.457   3.361   2.150
25404NA      NA76926   6.318   2.719   2.338
25405NA      NA76927   5.717   2.317   3.500
25406NA      NA76928   6.344   3.515   3.476
25407NA      NA76929   7.158   2.719   3.053
25408NA      NA76930   6.924   2.401   2.647
25409NA      NA76931   5.455   3.388   4.033
25410NA      NA76932   6.631   3.074   5.191
25411NA      NA76933   5.786   3.241   5.186
25412NA      NA76934   6.879   2.961   5.987
25413NA      NA76935   5.713   2.720   5.745
25414NA      NA76936   7.454   3.462   7.178
25415NA      NA76937   7.279   3.274   6.464
25416NA      NA76938   5.723   2.172   8.525
25417NA      NA76939   6.145   3.470   8.225
25418NA      NA76940   5.623   2.836   9.134
25419NA      NA76941   5.622   2.351   7.428
25420NA      NA76942   6.993   2.980   9.721
25421NA      NA76943   6.391   3.077  10.111
25422NA      NA76944   6.817   3.786   9.868
25423NA      NA76945   6.720   2.480   9.324
25424NA      NA76946   6.597   1.929  10.010
25425NA      NA76947   6.163   3.370   9.266
25426NA      NA76948   5.778   3.019  11.277
25427NA      NA76949   7.429   2.012  10.543
25428NA      NA76950   6.117   2.857  12.399
25429NA      NA76951   5.508   3.089  12.320
25430NA      NA76952   6.860   2.776  11.758
25431NA      NA76953   6.003   2.114  11.731
25432NA      NA76954   6.676   4.634   0.818
25433NA      NA76955   6.760   5.273   1.509
25434NA      NA76956   5.786   4.223   1.445
25435NA      NA76957   7.401   4.483   0.386
25436NA      NA76958   5.947   4.998   1.355
25437NA      NA76959   7.020   5.375   2.574
25438NA      NA76960   6.800   4.072   2.847
25439NA      NA76961   6.438   5.192   3.065
25440NA      NA76962   5.858   4.261   2.788
25441NA      NA76963   5.725   4.877   3.847
25442NA      NA76964   7.118   3.836   4.074
25443NA      NA76965   6.651   4.309   5.159
25444NA      NA76966   5.691   3.831   5.116
25445NA      NA76967   5.748   4.356   6.476
25446NA      NA76968   6.333   4.697   6.817
25447NA      NA76969   6.938   5.365   5.425
25448NA      NA76970   6.157   5.546   6.510
25449NA      NA76971   7.274   5.078   6.647
25450NA      NA76972   7.241   5.341   7.920
25451NA      NA76973   6.458   4.127   8.531
25452NA      NA76974   7.029   3.657   7.877
25453NA      NA76975   5.603   4.328   8.767
25454NA      NA76976   7.587   4.404   7.784
25455NA      NA76977   6.872   4.475   8.332
25456NA      NA76978   6.518   5.183   8.999
25457NA      NA76979   6.454   5.214  10.584
25458NA      NA76980   6.518   4.851  11.092
25459NA      NA76981   5.868   4.290  10.140
25460NA      NA76982   6.781   3.929  10.831
25461NA      NA76983   5.519   4.922  10.460
25462NA      NA76984   6.541   4.485   9.495
25463NA      NA76985   6.111   5.186   9.655
25464NA      NA76986   5.662   4.409  11.256
25465NA      NA76987   5.453   3.992  11.919
25466NA      NA76988   7.329   5.049  11.962
25467NA      NA76989   6.717   4.063   0.121
25468NA      NA76990   5.707   5.498  12.123
25469NA      NA76991   5.900   6.756   1.713
25470NA      NA76992   7.438   6.848   1.739
25471NA      NA76993   5.753   7.281   0.913
25472NA      NA76994   6.790   7.113   3.429
25473NA      NA76995   5.826   6.104   3.593
25474NA      NA76996   6.617   6.779   2.107
25475NA      NA76997   6.448   6.554   2.982
25476NA      NA76998   6.297   6.817   5.488
25477NA      NA76999   6.434   5.516   4.458
25478NA      NA77000   6.980   6.162   4.767
25479NA      NA77001   5.820   7.371   5.509
25480NA      NA77002   7.054   7.357   6.313
25481NA      NA77003   6.256   6.115   5.751
25482NA      NA77004   5.889   6.815   6.863
25483NA      NA77005   7.598   7.377   7.702
25484NA      NA77006   7.474   6.849   7.903
25485NA      NA77007   5.638   6.358   9.056
25486NA      NA77008   5.533   7.353   9.070
25487NA      NA77009   6.003   5.676   7.832
25488NA      NA77010   7.066   6.120   7.678
25489NA      NA77011   5.442   6.734   7.615
25490NA      NA77012   6.805   7.115   7.377
25491NA      NA77013   7.132   5.860   8.722
25492NA      NA77014   6.173   6.827   9.825
25493NA      NA77015   5.715   6.573  10.829
25494NA      NA77016   6.930   6.658  10.351
25495NA      NA77017   6.955   7.205   9.160
25496NA      NA77018   7.102   5.777  10.496
25497NA      NA77019   7.367   6.267  11.619
25498NA      NA77020   6.151   6.599  12.396
25499NA      NA77021   7.217   7.377   0.080
25500NA      NA77022   6.369   6.892  11.682
25501NA      NA77023   6.592   7.884   2.297
25502NA      NA77024   6.275   7.909   6.796
25503NA      NA77025   6.502   0.330   8.955
25504NA      NA77026   5.931   7.533   7.604
25505NA      NA77027   5.721   7.714  11.002
25506NA      NA77028   6.590   7.316  10.462
25507NA      NA77029   6.164   7.700  12.113
25508NA      NA77030   7.708   0.313   3.874
25509NA      NA77031   7.953   0.684   2.809
25510NA      NA77032   7.504   1.460   4.334
25511NA      NA77033   7.586   1.573   6.780
25512NA      NA77034   7.845   0.121   6.271
25513NA      NA77035   7.646   0.425   8.607
25514NA      NA77036   7.625   0.342  10.907
25515NA      NA77037   7.864   0.765  10.109
25516NA      NA77038   0.067   1.665  11.777
25517NA      NA77039   7.652   2.192   0.781
25518NA      NA77040   7.522   3.462   3.209
25519NA      NA77041   0.033   2.512   4.083
25520NA      NA77042   7.571   3.115   4.159
25521NA      NA77043   7.608   2.150   6.649
25522NA      NA77044   7.548   2.356   7.319
25523NA      NA77045   7.690   2.032   8.704
25524NA      NA77046   0.130   1.990   9.334
25525NA      NA77047   7.645   3.137  11.196
25526NA      NA77048   7.685   3.998   1.751
25527NA      NA77049   7.847   5.030   1.427
25528NA      NA77050   7.447   5.087   3.300
25529NA      NA77051   7.735   5.208   2.134
25530NA      NA77052   7.880   3.779   9.181
25531NA      NA77053   7.732   4.778   9.001
25532NA      NA77054   7.410   4.928   9.421
25533NA      NA77055   7.491   4.219  11.198
25534NA      NA77056   7.362   6.176   0.678
25535NA      NA77057   7.501   7.603   1.732
25536NA      NA77058   7.718   6.861   0.367
25537NA      NA77059   7.626   7.089   2.566
25538NA      NA77060   0.078   5.946   3.186
25539NA      NA77061   7.634   5.686   5.110
25540NA      NA77062   7.872   6.733   5.928
25541NA      NA77063   7.919   6.385   8.344
25542NA      NA77064   7.934   5.792  10.768
25543NA      NA77065   7.706   5.911   9.471
25544NA      NA77066   7.345   7.121  11.431
25545NA      NA77067   7.938   7.473  11.955
25546NA      NA77068   7.751   7.505   0.656
25547CL      CL77069   0.237   1.077   0.941
25548CL      CL77070   0.678   0.716   0.130
25549CL      CL77071   1.021   0.248   0.941
25550CL      CL77072   0.753   1.536   1.558
25551CL      CL77073   0.865   1.708   0.612
25552CL      CL77074   1.587   0.488   2.576
25553CL      CL77075   1.202   1.321   1.967
25554CL      CL77076   0.906   0.793   5.569
25555CL      CL77077   1.510   1.194   4.535
25556CL      CL77078   0.689   1.738   5.472
25557CL      CL77079   0.340   0.803   6.082
25558CL      CL77080   0.273   0.261   6.908
25559CL      CL77081   0.030   1.462   6.633
25560CL      CL77082   0.044   0.337   5.567
25561CL      CL77083   1.725   0.599   7.698
25562CL      CL77084   0.708   0.699   8.612
25563CL      CL77085   1.179   0.116   9.002
25564CL      CL77086   1.346   0.457   8.197
25565CL      CL77087   0.593   0.220  10.544
25566CL      CL77088   0.542   1.593   9.915
25567CL      CL77089   0.001   1.022   9.588
25568CL      CL77090   0.262   0.203  12.161
25569CL      CL77091   1.700   0.826  11.860
25570CL      CL77092   7.929   1.228  12.423
25571CL      CL77093   1.654   1.714  12.322
25572CL      CL77094   1.147   1.304  11.288
25573CL      CL77095   0.064   3.168   1.017
25574CL      CL77096   0.843   2.674   0.233
25575CL      CL77097   1.645   2.264   3.732
25576CL      CL77098   1.176   3.433   3.323
25577CL      CL77099   0.950   2.378   1.812
25578CL      CL77100   1.078   3.182   2.692
25579CL      CL77101   0.863   2.720   4.528
25580CL      CL77102   0.642   3.363   5.008
25581CL      CL77103   0.109   2.552   8.035
25582CL      CL77104   1.065   3.679   7.645
25583CL      CL77105   0.310   1.964   7.582
25584CL      CL77106   1.030   2.000   8.140
25585CL      CL77107   0.584   2.088   9.038
25586CL      CL77108   1.883   3.356   8.357
25587CL      CL77109   0.969   2.295  10.616
25588CL      CL77110   1.709   2.756  11.160
25589CL      CL77111   0.271   2.393  10.300
25590CL      CL77112   0.887   2.711   9.595
25591CL      CL77113   1.024   3.691  11.255
25592CL      CL77114   0.297   2.965  11.625
25593CL      CL77115   1.642   2.454  12.402
25594CL      CL77116   1.711   4.628   0.671
25595CL      CL77117   1.247   4.120   0.983
25596CL      CL77118   0.018   5.016   0.250
25597CL      CL77119   0.377   5.435   1.507
25598CL      CL77120   1.488   4.635   2.014
25599CL      CL77121   1.140   5.418   2.467
25600CL      CL77122   1.344   5.026   3.530
25601CL      CL77123   1.813   4.786   4.593
25602CL      CL77124   0.625   4.130   5.046
25603CL      CL77125   0.638   5.527   6.896
25604CL      CL77126   0.552   3.664   6.198
25605CL      CL77127   0.512   5.084   5.819
25606CL      CL77128   1.602   5.235   7.251
25607CL      CL77129   0.933   5.636   7.716
25608CL      CL77130   1.325   4.252   7.530
25609CL      CL77131   0.379   4.031   7.741
25610CL      CL77132   7.986   5.381   8.788
25611CL      CL77133   1.186   3.906   9.001
25612CL      CL77134   0.706   5.122   9.155
25613CL      CL77135   0.504   4.861  10.164
25614CL      CL77136   0.030   4.194  10.691
25615CL      CL77137   1.566   3.897  10.078
25616CL      CL77138   1.082   4.407  11.892
25617CL      CL77139   0.605   4.668  11.240
25618CL      CL77140   1.542   4.158  11.525
25619CL      CL77141   1.081   6.345   0.436
25620CL      CL77142   0.841   7.219   1.124
25621CL      CL77143   0.902   5.634   1.863
25622CL      CL77144   0.136   6.122   1.666
25623CL      CL77145   1.455   5.681   1.068
25624CL      CL77146   0.605   6.970   2.597
25625CL      CL77147   1.780   6.115   3.701
25626CL      CL77148   1.064   6.372   2.833
25627CL      CL77149   1.183   7.180   1.850
25628CL      CL77150   0.566   6.023   3.517
25629CL      CL77151   1.711   5.788   4.984
25630CL      CL77152   0.868   7.019   4.029
25631CL      CL77153   1.645   6.687   6.637
25632CL      CL77154   0.946   6.706   7.285
25633CL      CL77155   0.004   7.223   6.987
25634CL      CL77156   0.683   6.279   6.728
25635CL      CL77157   0.673   7.224   5.730
25636CL      CL77158   0.526   6.065   6.012
25637CL      CL77159   0.760   6.246   9.401
25638CL      CL77160   0.023   7.274   7.916
25639CL      CL77161   1.485   6.540   7.622
25640CL      CL77162   1.828   6.698   8.319
25641CL      CL77163   1.558   6.334   9.144
25642CL      CL77164   1.377   5.687   8.544
25643CL      CL77165   0.215   6.227   9.385
25644CL      CL77166   1.180   7.521   9.682
25645CL      CL77167   1.412   6.698  10.285
25646CL      CL77168   0.023   7.194  10.745
25647CL      CL77169   0.049   6.821   9.849
25648CL      CL77170   0.383   6.392  12.428
25649CL      CL77171   1.381   7.166  11.697
25650CL      CL77172   1.040   6.616  11.255
25651CL      CL77173   1.345   5.678  12.245
25652CL      CL77174   0.288   7.537   6.227
25653CL      CL77175   1.006   7.648   7.911
25654CL      CL77176   1.944   1.726   0.597
25655CL      CL77177   3.377   0.173   1.704
25656CL      CL77178   2.567   0.687   1.127
25657CL      CL77179   3.249   0.343   0.673
25658CL      CL77180   1.916   1.092   0.301
25659CL      CL77181   2.201   1.501   2.926
25660CL      CL77182   2.476   0.946   1.982
25661CL      CL77183   3.263   0.386   3.498
25662CL      CL77184   2.848   0.537   2.799
25663CL      CL77185   2.258   0.740   3.442
25664CL      CL77186   2.945   1.146   4.774
25665CL      CL77187   2.078   0.637   5.653
25666CL      CL77188   2.757   0.499   6.198
25667CL      CL77189   2.882   0.059   7.026
25668CL      CL77190   1.913   1.351   6.609
25669CL      CL77191   3.526   0.125   6.142
25670CL      CL77192   2.090   0.307   6.265
25671CL      CL77193   2.420   1.016   7.529
25672CL      CL77194   3.286   1.221   8.036
25673CL      CL77195   2.513   0.866   8.614
25674CL      CL77196   1.977   1.047   9.194
25675CL      CL77197   2.512   0.243   8.955
25676CL      CL77198   2.408   1.818   8.499
25677CL      CL77199   1.982   1.105  10.722
25678CL      CL77200   2.775   0.502  11.464
25679CL      CL77201   3.371   2.464   0.984
25680CL      CL77202   2.150   2.987   0.430
25681CL      CL77203   2.758   1.917   1.976
25682CL      CL77204   2.438   2.765   1.077
25683CL      CL77205   2.935   3.272   0.847
25684CL      CL77206   3.656   3.637   1.197
25685CL      CL77207   2.864   3.297   2.251
25686CL      CL77208   2.272   2.649   3.114
25687CL      CL77209   2.175   3.369   2.660
25688CL      CL77210   3.506   2.187   3.182
25689CL      CL77211   2.418   3.184   4.523
25690CL      CL77212   2.834   1.925   4.411
25691CL      CL77213   1.802   3.194   3.830
25692CL      CL77214   1.919   3.646   4.771
25693CL      CL77215   1.773   2.215   4.792
25694CL      CL77216   2.255   3.717   6.993
25695CL      CL77217   2.728   2.594   7.141
25696CL      CL77218   3.371   2.037   9.226
25697CL      CL77219   2.868   2.577   8.437
25698CL      CL77220   2.423   3.008  10.534
25699CL      CL77221   2.263   2.252  10.845
25700CL      CL77222   2.184   2.635   9.745
25701CL      CL77223   2.028   3.632  12.440
25702CL      CL77224   2.481   1.722  11.724
25703CL      CL77225   2.608   2.168  12.490
25704CL      CL77226   3.660   2.752   0.123
25705CL      CL77227   3.692   2.018   0.008
25706CL      CL77228   2.412   3.837   1.722
25707CL      CL77229   3.164   5.502   1.075
25708CL      CL77230   2.736   3.822   0.053
25709CL      CL77231   2.628   5.139   1.680
25710CL      CL77232   2.660   5.267   0.671
25711CL      CL77233   2.170   4.251   2.846
25712CL      CL77234   2.315   5.039   3.331
25713CL      CL77235   1.851   5.023   8.755
25714CL      CL77236   3.046   4.437  10.055
25715CL      CL77237   2.980   4.357  10.819
25716CL      CL77238   2.335   5.317  10.241
25717CL      CL77239   2.158   4.257  10.590
25718CL      CL77240   2.642   4.862  12.235
25719CL      CL77241   1.800   5.362  11.145
25720CL      CL77242   2.184   3.732  11.382
25721CL      CL77243   2.483   5.276  11.672
25722CL      CL77244   2.172   5.840   1.729
25723CL      CL77245   2.337   6.752   0.748
25724CL      CL77246   2.352   6.102   0.105
25725CL      CL77247   2.437   6.570   1.948
25726CL      CL77248   1.853   7.246   1.858
25727CL      CL77249   3.547   7.050   1.888
25728CL      CL77250   2.964   6.102   1.905
25729CL      CL77251   2.140   6.383   2.847
25730CL      CL77252   2.154   5.836   5.507
25731CL      CL77253   3.355   7.319   3.988
25732CL      CL77254   2.730   5.865   4.123
25733CL      CL77255   2.882   7.026   5.036
25734CL      CL77256   3.604   6.572   4.969
25735CL      CL77257   3.399   5.782   4.534
25736CL      CL77258   1.901   6.264   6.189
25737CL      CL77259   3.198   6.265   6.878
25738CL      CL77260   2.204   6.554   7.339
25739CL      CL77261   2.535   7.230   5.724
25740CL      CL77262   3.075   5.865   5.687
25741CL      CL77263   2.202   6.101   8.487
25742CL      CL77264   2.780   6.093   7.778
25743CL      CL77265   3.220   5.672   7.611
25744CL      CL77266   3.404   6.583   9.518
25745CL      CL77267   2.362   6.986   9.528
25746CL      CL77268   2.146   5.912  10.085
25747CL      CL77269   2.772   5.980  11.349
25748CL      CL77270   2.330   7.258  11.420
25749CL      CL77271   2.407   7.560   2.370
25750CL      CL77272   3.681   7.798   5.361
25751CL      CL77273   2.090   7.687   6.601
25752CL      CL77274   2.022   0.002   7.272
25753CL      CL77275   2.484   7.743   7.784
25754CL      CL77276   2.671   7.793   9.519
25755CL      CL77277   2.539   7.821   0.002
25756CL      CL77278   4.298   1.346   0.139
25757CL      CL77279   4.559   0.512   0.366
25758CL      CL77280   4.532   1.296   3.108
25759CL      CL77281   5.394   0.883   3.067
25760CL      CL77282   4.071   0.507   3.140
25761CL      CL77283   3.953   1.083   4.648
25762CL      CL77284   5.402   0.060   5.232
25763CL      CL77285   5.065   1.277   5.088
25764CL      CL77286   4.137   0.677   5.333
25765CL      CL77287   3.774   1.750   5.547
25766CL      CL77288   4.556   0.819   3.984
25767CL      CL77289   4.582   1.673   3.996
25768CL      CL77290   3.922   1.794   6.899
25769CL      CL77291   5.247   0.177   7.314
25770CL      CL77292   4.316   1.407   6.099
25771CL      CL77293   4.098   0.792   7.944
25772CL      CL77294   4.115   0.695   9.082
25773CL      CL77295   4.502   1.656   9.257
25774CL      CL77296   5.220   1.555  10.573
25775CL      CL77297   3.896   1.069  12.076
25776CL      CL77298   5.454   0.861  11.790
25777CL      CL77299   5.425   1.744  11.720
25778CL      CL77300   4.700   0.382  11.092
25779CL      CL77301   3.680   1.316  11.284
25780CL      CL77302   4.424   1.813  12.211
25781CL      CL77303   4.529   1.424  11.450
25782CL      CL77304   3.950   2.091   0.980
25783CL      CL77305   5.419   1.978   1.481
25784CL      CL77306   5.583   3.662   0.269
25785CL      CL77307   4.985   3.482   0.858
25786CL      CL77308   4.558   1.934   1.343
25787CL      CL77309   4.783   2.816   1.161
25788CL      CL77310   4.020   3.370   1.706
25789CL      CL77311   4.924   3.533  12.488
25790CL      CL77312   5.546   2.653   3.145
25791CL      CL77313   4.898   2.897   1.963
25792CL      CL77314   3.724   2.233   4.239
25793CL      CL77315   3.980   2.055   4.976
25794CL      CL77316   4.814   2.456   7.123
25795CL      CL77317   5.178   2.725   6.001
25796CL      CL77318   5.533   2.817   7.223
25797CL      CL77319   5.556   3.367   6.725
25798CL      CL77320   5.209   1.893   5.727
25799CL      CL77321   3.860   2.359   8.869
25800CL      CL77322   3.760   2.023   7.530
25801CL      CL77323   5.291   1.916   8.619
25802CL      CL77324   4.419   2.982  11.083
25803CL      CL77325   3.790   3.474  10.674
25804CL      CL77326   5.681   3.324  10.150
25805CL      CL77327   4.303   2.365  11.987
25806CL      CL77328   5.153   2.368  11.721
25807CL      CL77329   4.228   5.462   0.333
25808CL      CL77330   3.823   4.293   1.412
25809CL      CL77331   5.208   4.294   0.061
25810CL      CL77332   4.878   4.748   1.954
25811CL      CL77333   5.458   5.462   5.146
25812CL      CL77334   5.635   5.272   7.232
25813CL      CL77335   5.746   4.623   9.855
25814CL      CL77336   4.334   4.910   9.758
25815CL      CL77337   5.292   4.858  10.826
25816CL      CL77338   4.133   4.260  10.664
25817CL      CL77339   4.492   4.867  12.236
25818CL      CL77340   5.300   5.503  11.495
25819CL      CL77341   4.628   4.161  11.750
25820CL      CL77342   4.008   4.871  11.617
25821CL      CL77343   4.373   4.138   0.034
25822CL      CL77344   5.050   6.782   0.593
25823CL      CL77345   4.262   6.762   0.318
25824CL      CL77346   5.163   7.213   0.013
25825CL      CL77347   5.121   5.703   1.095
25826CL      CL77348   4.633   6.083   1.856
25827CL      CL77349   3.779   6.635   3.532
25828CL      CL77350   4.314   5.727   3.769
25829CL      CL77351   4.778   5.723   4.416
25830CL      CL77352   5.148   6.708   4.569
25831CL      CL77353   4.050   5.882   5.019
25832CL      CL77354   3.950   6.894   5.624
25833CL      CL77355   4.701   7.255   6.537
25834CL      CL77356   5.114   5.951   6.950
25835CL      CL77357   5.357   6.259   6.131
25836CL      CL77358   5.554   6.190   7.776
25837CL      CL77359   5.037   7.386   8.071
25838CL      CL77360   4.419   5.780   8.594
25839CL      CL77361   4.650   6.745   8.161
25840CL      CL77362   3.938   6.265   9.527
25841CL      CL77363   3.985   7.383  10.632
25842CL      CL77364   5.254   6.167   9.387
25843CL      CL77365   3.909   5.898  12.183
25844CL      CL77366   4.522   5.952  11.334
25845CL      CL77367   5.371   6.182  12.414
25846CL      CL77368   4.633   0.379   1.527
25847CL      CL77369   4.732   7.542   0.697
25848CL      CL77370   5.342   7.831   0.394
25849CL      CL77371   4.430   0.004   3.544
25850CL      CL77372   5.001   0.176   3.608
25851CL      CL77373   4.544   0.219   6.351
25852CL      CL77374   4.378   7.733   8.908
25853CL      CL77375   5.243   7.635   8.608
25854CL      CL77376   4.028   7.501   9.522
25855CL      CL77377   5.195   7.932  12.123
25856CL      CL77378   6.786   1.632   1.408
25857CL      CL77379   5.978   0.828   0.436
25858CL      CL77380   6.525   0.067  12.491
25859CL      CL77381   7.273   1.512   1.045
25860CL      CL77382   6.972   0.605   3.236
25861CL      CL77383   7.427   0.785   2.216
25862CL      CL77384   6.201   0.920   2.835
25863CL      CL77385   6.440   1.739   3.347
25864CL      CL77386   5.586   0.251   2.140
25865CL      CL77387   6.719   1.013   1.924
25866CL      CL77388   7.532   0.237   3.111
25867CL      CL77389   7.224   1.092   3.903
25868CL      CL77390   6.634   0.726   4.160
25869CL      CL77391   6.811   1.563   5.234
25870CL      CL77392   6.166   7.970   4.100
25871CL      CL77393   7.025   0.853   4.734
25872CL      CL77394   5.707   1.043   5.454
25873CL      CL77395   6.085   1.712   5.892
25874CL      CL77396   6.347   0.645   6.792
25875CL      CL77397   6.114   1.133   7.154
25876CL      CL77398   6.953   1.197   7.483
25877CL      CL77399   5.704   0.543   8.882
25878CL      CL77400   7.297   1.186   9.145
25879CL      CL77401   7.399   1.712   9.705
25880CL      CL77402   5.896   0.246  11.032
25881CL      CL77403   6.424   0.585  10.743
25882CL      CL77404   6.580   1.681  10.719
25883CL      CL77405   7.233   0.176   9.946
25884CL      CL77406   5.700   1.342  12.473
25885CL      CL77407   6.242   1.510  11.596
25886CL      CL77408   5.851   2.100   0.983
25887CL      CL77409   6.432   3.274   0.977
25888CL      CL77410   6.313   2.591   1.133
25889CL      CL77411   6.425   2.518   0.222
25890CL      CL77412   7.312   3.384   1.097
25891CL      CL77413   7.150   3.414   2.645
25892CL      CL77414   5.940   1.946   1.998
25893CL      CL77415   6.630   2.826   3.006
25894CL      CL77416   7.463   2.126   3.093
25895CL      CL77417   5.799   2.138   4.716
25896CL      CL77418   7.075   2.022   4.203
25897CL      CL77419   6.977   3.163   3.702
25898CL      CL77420   6.700   2.798   4.725
25899CL      CL77421   5.911   3.558   6.057
25900CL      CL77422   6.941   2.217   6.582
25901CL      CL77423   5.882   2.070   6.882
25902CL      CL77424   7.216   2.207   5.991
25903CL      CL77425   5.876   2.091   9.243
25904CL      CL77426   6.561   2.222   8.916
25905CL      CL77427   7.257   2.374   9.287
25906CL      CL77428   7.083   2.587   8.210
25907CL      CL77429   5.888   2.966   7.955
25908CL      CL77430   6.883   3.260   7.612
25909CL      CL77431   7.464   3.386   8.333
25910CL      CL77432   6.746   2.519  10.717
25911CL      CL77433   5.849   2.058  10.560
25912CL      CL77434   6.362   2.619  10.025
25913CL      CL77435   7.393   3.402  10.125
25914CL      CL77436   5.872   2.153  12.471
25915CL      CL77437   6.396   3.292  11.469
25916CL      CL77438   7.216   1.970  11.927
25917CL      CL77439   5.942   5.457   0.915
25918CL      CL77440   7.186   4.505   1.655
25919CL      CL77441   6.200   4.187   1.300
25920CL      CL77442   7.048   5.190   0.464
25921CL      CL77443   5.853   5.500   3.162
25922CL      CL77444   7.088   4.903   4.553
25923CL      CL77445   5.986   4.660   5.530
25924CL      CL77446   6.892   4.485   3.656
25925CL      CL77447   7.175   4.106   5.103
25926CL      CL77448   6.119   4.197   7.192
25927CL      CL77449   6.975   4.148   6.273
25928CL      CL77450   7.101   3.947   9.225
25929CL      CL77451   6.279   4.606   8.621
25930CL      CL77452   5.963   5.212  10.943
25931CL      CL77453   7.231   4.572  10.521
25932CL      CL77454   6.674   4.463  11.589
25933CL      CL77455   6.404   4.722  12.439
25934CL      CL77456   6.103   6.773   0.913
25935CL      CL77457   7.080   6.506   0.991
25936CL      CL77458   6.849   6.126   0.211
25937CL      CL77459   6.257   5.972   1.336
25938CL      CL77460   5.767   7.423   1.806
25939CL      CL77461   7.423   5.831   0.919
25940CL      CL77462   6.518   5.468   2.407
25941CL      CL77463   6.578   6.456   3.402
25942CL      CL77464   6.799   6.060   2.106
25943CL      CL77465   6.073   6.091   1.946
25944CL      CL77466   7.391   7.315   3.004
25945CL      CL77467   5.966   7.338   3.338
25946CL      CL77468   5.607   6.826   2.522
25947CL      CL77469   6.841   6.794   5.175
25948CL      CL77470   5.960   7.404   4.663
25949CL      CL77471   6.165   5.704   5.464
25950CL      CL77472   5.590   6.949   5.024
25951CL      CL77473   5.946   6.090   4.728
25952CL      CL77474   5.872   6.827   3.990
25953CL      CL77475   5.648   6.352   6.760
25954CL      CL77476   6.273   6.604   8.123
25955CL      CL77477   7.174   6.168   9.820
25956CL      CL77478   6.469   6.963   9.403
25957CL      CL77479   5.575   7.245  11.100
25958CL      CL77480   6.764   7.152  11.901
25959CL      CL77481   6.566   6.131  11.124
25960CL      CL77482   6.084   7.164  12.388
25961CL      CL77483   7.040   6.539  12.111
25962CL      CL77484   6.443   7.955   1.752
25963CL      CL77485   6.157   7.710   5.391
25964CL      CL77486   6.791   0.252   5.663
25965CL      CL77487   7.092   7.655   6.506
25966CL      CL77488   7.006   0.064   8.412
25967CL      CL77489   6.758   7.669   9.004
25968CL      CL77490   5.693   7.613   9.751
25969CL      CL77491   6.818   7.868  11.487
25970CL      CL77492   7.825   0.544   0.447
25971CL      CL77493   7.716   1.728   2.324
25972CL      CL77494   7.621   1.113   3.273
25973CL      CL77495   7.832   0.041   4.380
25974CL      CL77496   0.318   0.357   3.977
25975CL      CL77497   7.570   1.056   5.466
25976CL      CL77498   7.566   1.711   8.080
25977CL      CL77499   7.914   1.055   8.308
25978CL      CL77500   7.503   2.374   1.428
25979CL      CL77501   7.688   2.237   5.199
25980CL      CL77502   0.005   2.015   3.776
25981CL      CL77503   7.821   2.853   5.823
25982CL      CL77504   7.714   2.171  12.485
25983CL      CL77505   7.505   3.208  12.462
25984CL      CL77506   7.701   4.720   4.967
25985CL      CL77507   7.906   4.587   4.171
25986CL      CL77508   7.541   4.499   7.222
25987CL      CL77509   7.730   4.519   6.598
25988CL      CL77510   7.692   4.015   8.453
25989CL      CL77511   7.809   5.541  10.241
25990CL      CL77512   7.660   4.978  11.174
25991CL      CL77513   7.817   4.513  12.074
25992CL      CL77514   0.016   6.381   2.937
25993CL      CL77515   7.619   7.501   3.670
25994CL      CL77516   7.909   7.119   4.747
25995CL      CL77517   0.206   6.056   4.046
25996CL      CL77518   7.477   6.885   6.570
25997CL      CL77519   7.711   5.905   6.358
25998CL      CL77520   7.498   5.949   5.651
25999CL      CL77521   7.529   5.813   8.924
26000CL      CL77522   7.758   7.115   8.779
26001CL      CL77523   7.545   7.743   2.389
26002CL      CL77524   7.845   7.832   5.288
26003CL      CL77525   7.601   7.749   7.108
26004CL      CL77526   7.653   7.527   9.998
   8.00000   8.00000  12.50000
