Protein in water
77526
    1DC     O5'    1   4.879   3.614   6.533 -0.0627 -0.2114 -0.7760
    1DC     H5T    2   4.957   3.589   6.483 -0.1109  0.7674 -1.3669
    1DC     C5'    3   4.829   3.723   6.458 -0.0806 -0.0809 -0.5736
    1DC    H5'1    4   4.825   3.691   6.354 -0.9452 -0.5447 -0.4143
    1DC    H5'2    5   4.907   3.798   6.453 -0.1753  0.0646  0.0512
    1DC     C4'    6   4.695   3.780   6.505  0.1647 -0.1504  0.2246
    1DC     H4'    7   4.671   3.871   6.450 -0.7276  0.6488  1.8527
    1DC     O4'    8   4.596   3.683   6.479 -0.0568  0.0340  0.3777
    1DC     C1'    9   4.515   3.683   6.594 -0.5337 -0.1711  0.0483
    1DC     H1'   10   4.447   3.767   6.592 -1.0457 -0.5469  0.9291
    1DC      N1   11   4.437   3.558   6.580 -0.8685 -0.0560  0.8396
    1DC      C6   12   4.471   3.444   6.647  0.2764 -0.0555  0.2816
    1DC      H6   13   4.566   3.444   6.697  1.5039  2.8883 -1.7997
    1DC      C5   14   4.388   3.337   6.640  0.1295  0.0626  0.2274
    1DC      H5   15   4.410   3.248   6.696  0.9013  0.1793  0.1218
    1DC      C4   16   4.264   3.348   6.569  0.1447 -0.4012  0.1303
    1DC      N4   17   4.172   3.250   6.569  0.2599 -0.5130 -0.2224
    1DC     H41   18   4.211   3.161   6.597  2.7175  0.0748 -1.5151
    1DC     H42   19   4.081   3.264   6.527 -0.1288 -0.0804  0.7061
    1DC      N3   20   4.234   3.464   6.510  0.1851 -0.5015 -0.0881
    1DC      C2   21   4.319   3.570   6.508 -0.2484 -0.1490 -0.2074
    1DC      O2   22   4.288   3.675   6.453 -0.1805  0.0192  0.0696
    1DC     C3'   23   4.697   3.813   6.654 -0.0037 -0.0179  0.1973
    1DC     H3'   24   4.796   3.829   6.697 -0.4465  1.4989  0.7241
    1DC     C2'   25   4.615   3.696   6.709 -0.0664 -0.2331 -0.3473
    1DC    H2'1   26   4.682   3.611   6.718 -0.0376 -0.1548  0.2535
    1DC    H2'2   27   4.557   3.725   6.797 -0.5927  0.9394 -1.0402
    1DC     O3'   28   4.635   3.936   6.685 -0.3692 -0.1263 -0.1021
    2DG       P   29   4.677   4.036   6.804 -0.0024 -0.2217 -0.1526
    2DG     O1P   30   4.758   4.145   6.746 -0.1795 -0.1652 -0.2961
    2DG     O2P   31   4.722   3.963   6.925  0.5053 -0.1162 -0.2760
    2DG     O5'   32   4.539   4.104   6.849  0.4040  0.3500  0.2451
    2DG     C5'   33   4.489   4.224   6.793 -0.2805 -0.1229 -0.1757
    2DG    H5'1   34   4.488   4.206   6.686 -0.9206 -1.6693  0.0569
    2DG    H5'2   35   4.556   4.304   6.824 -0.0370  0.3217 -1.7614
    2DG     C4'   36   4.346   4.254   6.837 -0.1468 -0.3044  0.4040
    2DG     H4'   37   4.320   4.349   6.790  0.7209  0.4151  1.3316
    2DG     O4'   38   4.255   4.150   6.812 -0.3813  0.0266 -0.1464
    2DG     C1'   39   4.227   4.075   6.928  0.7489 -0.1206  0.0430
    2DG     H1'   40   4.129   4.110   6.962  1.1393  0.8159  0.2453
    2DG      N9   41   4.227   3.931   6.895  0.5442 -0.1146  0.0100
    2DG      C8   42   4.333   3.845   6.907  0.7245  0.0875 -0.1135
    2DG      H8   43   4.434   3.882   6.909  0.5536  0.9509 -3.0081
    2DG      N7   44   4.309   3.718   6.887  0.1702  0.2336 -0.3912
    2DG      C5   45   4.170   3.718   6.873  0.0551 -0.1166  0.6237
    2DG      C6   46   4.079   3.610   6.864 -0.1461  0.1198 -0.2789
    2DG      O6   47   4.112   3.491   6.867 -0.6531 -0.0098  0.2874
    2DG      N1   48   3.944   3.645   6.867 -0.1920 -0.0809 -0.0130
    2DG      H1   49   3.876   3.575   6.894 -1.5253  1.0784 -0.3024
    2DG      C2   50   3.909   3.777   6.881 -0.0261 -0.0741  0.3801
    2DG      N2   51   3.781   3.798   6.913 -0.0007  0.4813  0.1327
    2DG     H21   52   3.710   3.730   6.936  0.2193  0.8407  2.0864
    2DG     H22   53   3.741   3.891   6.921 -3.7067 -0.6248 -2.5875
    2DG      N3   54   3.991   3.883   6.880  0.2859 -0.3147  0.2371
    2DG      C4   55   4.121   3.846   6.879  0.3896  0.0387  0.2031
    2DG     C3'   56   4.347   4.267   6.989 -0.1535  0.1729  0.3657
    2DG     H3'   57   4.444   4.299   7.027 -1.1611  1.1314  2.2930
    2DG     C2'   58   4.320   4.125   7.038  0.3729  0.0424  0.2895
    2DG    H2'1   59   4.414   4.071   7.043 -0.9968 -2.5661 -0.1767
    2DG    H2'2   60   4.266   4.115   7.132  1.1979 -1.5121  0.6276
    2DG     O3'   61   4.259   4.370   7.026 -0.2870  0.2570 -0.1731
    3DA       P   62   4.209   4.393   7.178  0.0745 -0.0099 -0.0137
    3DA     O1P   63   4.139   4.523   7.183 -0.4336 -0.2214 -1.2039
    3DA     O2P   64   4.328   4.374   7.265  0.1918 -0.3377 -0.2418
    3DA     O5'   65   4.102   4.277   7.211 -0.1275  0.1712 -0.0350
    3DA     C5'   66   3.976   4.275   7.148 -0.1457 -0.0923  0.0109
    3DA    H5'1   67   3.987   4.285   7.040 -0.0619 -0.3946 -0.0101
    3DA    H5'2   68   3.924   4.368   7.170 -2.6418 -1.0284 -1.4313
    3DA     C4'   69   3.884   4.162   7.194 -0.3435  0.2082  0.3583
    3DA     H4'   70   3.790   4.190   7.147  0.1479 -0.8123 -1.3083
    3DA     O4'   71   3.922   4.035   7.145 -0.2434  0.3409  0.0858
    3DA     C1'   72   3.900   3.941   7.249  0.4460  0.0465 -0.0282
    3DA     H1'   73   3.792   3.924   7.248  0.1439  1.7480 -0.5478
    3DA      N9   74   3.979   3.818   7.234  0.0808 -0.2216  0.2357
    3DA      C8   75   4.114   3.798   7.228  0.0866 -0.1186 -0.0173
    3DA      H8   76   4.181   3.880   7.251  1.8814 -1.1750 -1.1987
    3DA      N7   77   4.149   3.673   7.214  0.2582 -0.0338 -0.3587
    3DA      C5   78   4.031   3.601   7.209  0.4523 -0.3337 -0.6977
    3DA      C6   79   4.003   3.465   7.189 -0.4022 -0.2935  0.1113
    3DA      N6   80   4.091   3.368   7.159  0.2501  0.0803  0.8013
    3DA     H61   81   4.190   3.386   7.148  0.5723 -1.5749  0.7423
    3DA     H62   82   4.047   3.281   7.135 -0.2681  0.4420  0.4041
    3DA      N1   83   3.875   3.426   7.193 -0.3429 -0.4509  0.5354
    3DA      C2   84   3.780   3.518   7.204 -0.1367  0.1007 -1.7842
    3DA      H2   85   3.678   3.483   7.207 -0.3159  0.5434  2.2877
    3DA      N3   86   3.799   3.648   7.218  0.4140 -0.1537  0.1812
    3DA      C4   87   3.928   3.691   7.220  0.4869 -0.3054 -0.5880
    3DA     C3'   88   3.868   4.156   7.346 -0.3153  0.5168  0.3725
    3DA     H3'   89   3.918   4.238   7.398  0.4824  0.3887 -0.1756
    3DA     C2'   90   3.932   4.021   7.375 -0.8312  0.2317  0.1919
    3DA    H2'1   91   4.039   4.040   7.385 -1.3006  2.0185  3.1449
    3DA    H2'2   92   3.893   3.973   7.464  0.7984  1.6724  1.7630
    3DA     O3'   93   3.730   4.160   7.376 -0.3923 -0.0784  0.1126
    4DC       P   94   3.687   4.202   7.526 -0.2796 -0.0933  0.1490
    4DC     O1P   95   3.580   4.304   7.518 -0.7575 -0.6233 -0.3323
    4DC     O2P   96   3.806   4.224   7.611 -0.0086 -0.4365 -0.1370
    4DC     O5'   97   3.632   4.062   7.584  0.3073 -0.0964  0.7144
    4DC     C5'   98   3.510   4.005   7.542  0.4389  0.3216 -0.2777
    4DC    H5'1   99   3.517   3.985   7.436  1.6729  0.7367 -0.2828
    4DC    H5'2  100   3.426   4.067   7.575 -0.4200 -1.9394  2.1560
    4DC     C4'  101   3.493   3.867   7.606  0.2297  0.4045 -0.1518
    4DC     H4'  102   3.396   3.825   7.577 -0.6456  1.4891  1.0520
    4DC     O4'  103   3.588   3.778   7.552 -0.1795 -0.0516 -0.1207
    4DC     C1'  104   3.616   3.677   7.647  0.4788  0.3966  0.1637
    4DC     H1'  105   3.528   3.615   7.662  0.0218  1.1072  0.4924
    4DC      N1  106   3.732   3.599   7.601  0.3053 -0.0845  0.5273
    4DC      C6  107   3.858   3.652   7.609  0.4301 -0.2818 -0.0567
    4DC      H6  108   3.870   3.752   7.647 -0.1618 -0.4192  0.5151
    4DC      C5  109   3.966   3.578   7.577  0.2756 -0.5807  0.1067
    4DC      H5  110   4.060   3.631   7.583  0.3123 -0.5805 -0.3802
    4DC      C4  111   3.945   3.447   7.522  0.1467 -0.5498  0.0814
    4DC      N4  112   4.049   3.368   7.490  0.9400  0.4928  0.0001
    4DC     H41  113   4.145   3.396   7.494  1.2620 -0.6579  1.2867
    4DC     H42  114   4.029   3.274   7.458 -2.1182  0.0244  2.7540
    4DC      N3  115   3.825   3.390   7.512 -0.0749 -0.0513 -0.1181
    4DC      C2  116   3.723   3.469   7.555  0.1486 -0.0066  0.3375
    4DC      O2  117   3.613   3.415   7.548  0.2096 -0.1419  0.4131
    4DC     C3'  118   3.516   3.865   7.757 -0.3274  0.5795 -0.0617
    4DC     H3'  119   3.564   3.957   7.792  2.1912  0.9156 -3.7624
    4DC     C2'  120   3.622   3.758   7.776 -0.6927  0.2807  0.3039
    4DC    H2'1  121   3.714   3.817   7.777 -0.5228  0.0328 -0.4106
    4DC    H2'2  122   3.622   3.690   7.862  0.6354 -0.3277 -0.1563
    4DC     O3'  123   3.390   3.852   7.820 -0.2785  0.0390 -0.0759
    5DT       P  124   3.371   3.834   7.978  0.0947 -0.5669 -0.0971
    5DT     O1P  125   3.230   3.869   8.005  0.1906 -0.1332 -0.1527
    5DT     O2P  126   3.476   3.900   8.059 -0.0792 -0.2164 -0.1569
    5DT     O5'  127   3.393   3.674   7.986  0.4708 -0.5073  0.0953
    5DT     C5'  128   3.307   3.589   7.914  0.4663  0.1725 -0.7259
    5DT    H5'1  129   3.278   3.627   7.816 -0.0446  0.1026 -0.6049
    5DT    H5'2  130   3.212   3.573   7.965  0.2460 -0.1491 -1.2298
    5DT     C4'  131   3.366   3.449   7.904 -0.0023 -0.0349 -0.6136
    5DT     H4'  132   3.309   3.380   7.842 -0.8887  0.9366 -0.9054
    5DT     O4'  133   3.497   3.458   7.854  0.2259 -0.0625 -0.0264
    5DT     C1'  134   3.558   3.332   7.871 -0.2942 -0.3163 -0.0475
    5DT     H1'  135   3.522   3.274   7.786 -1.6856  0.1825  0.1832
    5DT      N1  136   3.705   3.328   7.867 -0.2831  0.1804 -0.1856
    5DT      C6  137   3.772   3.437   7.914  0.0451  0.0018 -0.2387
    5DT      H6  138   3.723   3.522   7.958  0.5175  0.8404 -1.2697
    5DT      C5  139   3.906   3.444   7.898  0.0449  0.0192 -0.2304
    5DT      C7  140   3.981   3.570   7.934  1.1140 -0.3633 -1.0666
    5DT     H71  141   3.919   3.642   7.986  1.3053 -0.5478 -0.5818
    5DT     H72  142   4.055   3.544   8.009  1.5751  1.3477 -0.8849
    5DT     H73  143   4.033   3.618   7.850  1.3919  1.3513  0.0337
    5DT      C4  144   3.980   3.336   7.837  0.2697 -0.2673  0.5390
    5DT      O4  145   4.098   3.344   7.802  0.0881 -0.0100 -0.0305
    5DT      N3  146   3.906   3.220   7.816  0.3488 -0.2480  0.1428
    5DT      H3  147   3.953   3.135   7.790  1.3778 -0.1650  1.6044
    5DT      C2  148   3.768   3.211   7.829  0.3331  0.3129  0.4165
    5DT      O2  149   3.711   3.107   7.796  0.3622  0.5466 -0.3722
    5DT     C3'  150   3.391   3.386   8.041 -0.2599 -0.2535 -0.6666
    5DT     H3'  151   3.418   3.455   8.121 -1.4783 -1.5382  0.9375
    5DT     C2'  152   3.503   3.289   8.007 -0.0086 -0.2394  0.0919
    5DT    H2'1  153   3.585   3.293   8.078  0.8171  2.1135 -0.8900
    5DT    H2'2  154   3.473   3.189   7.973  2.5462 -0.1259 -2.9986
    5DT     O3'  155   3.279   3.306   8.072 -0.1737 -0.2412 -0.3184
    6DC       P  156   3.268   3.242   8.220 -0.0402  0.2862 -0.0781
    6DC     O1P  157   3.132   3.184   8.232  0.2018 -0.2412  0.1347
    6DC     O2P  158   3.311   3.334   8.327 -0.2634 -0.1223  0.3655
    6DC     O5'  159   3.376   3.124   8.206 -0.2008  0.1396 -0.0915
    6DC     C5'  160   3.343   3.000   8.147  0.0503  0.0434 -0.0325
    6DC    H5'1  161   3.343   3.013   8.039  2.5609  1.5512  0.0581
    6DC    H5'2  162   3.243   2.972   8.181  0.5735 -1.3895  0.3900
    6DC     C4'  163   3.444   2.889   8.176 -0.0467 -0.1261 -0.3370
    6DC     H4'  164   3.393   2.801   8.137  0.2664  0.6365 -2.5740
    6DC     O4'  165   3.566   2.911   8.110 -0.0444  0.1743 -0.2346
    6DC     C1'  166   3.675   2.884   8.196 -0.1260 -0.0233 -0.1933
    6DC     H1'  167   3.692   2.776   8.191  0.1798  0.0772 -1.8595
    6DC      N1  168   3.793   2.962   8.153 -0.3527  0.0897 -0.6196
    6DC      C6  169   3.799   3.097   8.174 -0.0489  0.0243 -0.2863
    6DC      H6  170   3.712   3.156   8.200  0.8163  1.5498 -0.7690
    6DC      C5  171   3.911   3.166   8.147  0.3099 -0.4167  0.0512
    6DC      H5  172   3.910   3.274   8.159  1.0210 -0.2829 -0.9279
    6DC      C4  173   4.023   3.096   8.091  0.2223  0.0356 -0.7119
    6DC      N4  174   4.136   3.162   8.063  0.7115 -0.6496 -0.3975
    6DC     H41  175   4.145   3.262   8.062 -0.2019 -0.5491 -0.2627
    6DC     H42  176   4.215   3.108   8.031  0.3538 -0.5701 -1.4535
    6DC      N3  177   4.020   2.963   8.075 -0.1130  0.0079 -0.4501
    6DC      C2  178   3.903   2.899   8.099 -0.0017  0.0285  0.1563
    6DC      O2  179   3.905   2.779   8.070  0.7888 -0.2284  1.1919
    6DC     C3'  180   3.468   2.872   8.326  0.3983 -0.1110 -0.4053
    6DC     H3'  181   3.406   2.950   8.371  0.5017  0.4186 -1.1590
    6DC     C2'  182   3.612   2.921   8.330  0.2472  0.3192 -0.1115
    6DC    H2'1  183   3.604   3.028   8.347  1.2933  0.1560  1.6703
    6DC    H2'2  184   3.667   2.890   8.419  0.4444  1.0531  0.0299
    6DC     O3'  185   3.447   2.741   8.375 -0.3558  0.2588  0.2904
    7DT       P  186   3.492   2.698   8.524 -0.0109  0.0445  0.1267
    7DT     O1P  187   3.427   2.567   8.542  0.1933 -0.0764 -0.0117
    7DT     O2P  188   3.476   2.809   8.621  0.1335  0.4194 -0.2731
    7DT     O5'  189   3.651   2.676   8.508  0.0456  0.1528  0.5277
    7DT     C5'  190   3.704   2.558   8.453 -0.0693  0.2486  0.2099
    7DT    H5'1  191   3.652   2.543   8.358  0.6321  0.4862 -0.2168
    7DT    H5'2  192   3.677   2.478   8.521 -0.2143 -0.5272 -0.7268
    7DT     C4'  193   3.854   2.568   8.431 -0.0479  0.0506  0.2655
    7DT     H4'  194   3.883   2.484   8.368 -0.3178  1.8842 -2.4771
    7DT     O4'  195   3.895   2.684   8.362  0.0640 -0.0611  0.1415
    7DT     C1'  196   4.027   2.711   8.404  0.2308 -0.0027 -0.4226
    7DT     H1'  197   4.085   2.652   8.333 -0.3100 -0.7733 -0.2422
    7DT      N1  198   4.074   2.849   8.387 -0.0105  0.1906  0.4469
    7DT      C6  199   3.993   2.952   8.425 -0.4529 -0.0661  0.1969
    7DT      H6  200   3.893   2.935   8.463 -0.1687  0.5588  1.2426
    7DT      C5  201   4.044   3.077   8.432  0.2890 -0.3592  0.1097
    7DT      C7  202   3.948   3.185   8.476 -0.1060 -0.7588  0.2324
    7DT     H71  203   3.970   3.227   8.574 -1.1785 -0.2522  0.2715
    7DT     H72  204   3.956   3.259   8.397  2.2397 -1.9220 -0.6846
    7DT     H73  205   3.844   3.152   8.477 -0.5719  0.6682  0.8211
    7DT      C4  206   4.179   3.113   8.397  0.1582 -0.0152 -0.0465
    7DT      O4  207   4.231   3.224   8.390  0.1845  0.0031  0.4173
    7DT      N3  208   4.258   3.001   8.373  0.1093 -0.1484  0.4080
    7DT      H3  209   4.356   3.007   8.351 -0.0798 -1.4026 -0.9569
    7DT      C2  210   4.209   2.871   8.366  0.0463 -0.1282  0.4780
    7DT      O2  211   4.286   2.778   8.345  0.3500  0.3284 -0.5184
    7DT     C3'  212   3.922   2.567   8.567 -0.0283  0.1195  0.2568
    7DT     H3'  213   3.852   2.604   8.642 -1.3249  0.9500 -1.3055
    7DT     C2'  214   4.035   2.668   8.550 -0.1709  0.1757 -0.3500
    7DT    H2'1  215   4.034   2.749   8.623  0.6557 -0.1352  0.0080
    7DT    H2'2  216   4.123   2.607   8.569 -0.3020 -1.2407 -3.6457
    7DT     O3'  217   3.963   2.434   8.593  0.3023  0.1796  0.0446
    8DA       P  218   4.005   2.390   8.742  0.0851  0.3133  0.1457
    8DA     O1P  219   3.971   2.246   8.749 -0.1917  0.3506 -0.3740
    8DA     O2P  220   3.943   2.474   8.847 -0.3857 -0.7518  0.7348
    8DA     O5'  221   4.164   2.412   8.750  0.0638  0.5885 -0.1878
    8DA     C5'  222   4.241   2.318   8.679  0.2231  0.6587 -0.1079
    8DA    H5'1  223   4.204   2.311   8.577 -0.3016  0.0844  0.1164
    8DA    H5'2  224   4.231   2.218   8.721 -0.1465  0.3665 -0.8835
    8DA     C4'  225   4.389   2.357   8.682  0.4814 -0.3023  0.1241
    8DA     H4'  226   4.442   2.289   8.616  0.4129  1.9617 -2.4269
    8DA     O4'  227   4.406   2.482   8.620 -0.1828 -0.1508  0.2407
    8DA     C1'  228   4.498   2.563   8.690 -0.0340 -0.1757  0.0724
    8DA     H1'  229   4.597   2.543   8.647  0.8185 -0.5380  2.1115
    8DA      N9  230   4.466   2.706   8.673 -0.1275 -0.2099 -0.0389
    8DA      C8  231   4.347   2.768   8.703  0.0811  0.2810 -0.2239
    8DA      H8  232   4.267   2.720   8.757  3.1121 -1.5740  3.1022
    8DA      N7  233   4.347   2.898   8.689 -0.1343  0.2844 -0.1905
    8DA      C5  234   4.474   2.922   8.637 -0.1699 -0.1448 -0.4796
    8DA      C6  235   4.548   3.035   8.601  0.3990 -0.3480  0.0503
    8DA      N6  236   4.503   3.162   8.600  0.2968 -0.3813  0.3956
    8DA     H61  237   4.410   3.193   8.622  0.3409  1.0565 -1.2738
    8DA     H62  238   4.569   3.232   8.568  0.5850 -0.4424  0.8512
    8DA      N1  239   4.679   3.032   8.572  0.3129  0.1987 -0.4161
    8DA      C2  240   4.738   2.914   8.576 -0.2350 -0.0743 -0.4237
    8DA      H2  241   4.840   2.915   8.542 -0.4028 -1.7855 -1.0906
    8DA      N3  242   4.677   2.797   8.592 -0.2634 -0.0481 -0.3384
    8DA      C4  243   4.549   2.808   8.632 -0.1326 -0.1455  0.1102
    8DA     C3'  244   4.455   2.365   8.820 -0.1771 -0.1998  0.4364
    8DA     H3'  245   4.386   2.346   8.902  0.8361  2.9804  2.2135
    8DA     C2'  246   4.490   2.513   8.833  0.0101 -0.2090  0.0638
    8DA    H2'1  247   4.406   2.563   8.883  0.8571  1.2515  0.0777
    8DA    H2'2  248   4.587   2.526   8.880 -0.0728 -0.4592  0.3091
    8DA     O3'  249   4.566   2.278   8.820 -0.2595 -0.3079  0.1110
    9DC       P  250   4.623   2.215   8.957  0.0730 -0.6005 -0.1611
    9DC     O1P  251   4.710   2.099   8.928  0.7707 -0.0640 -0.2542
    9DC     O2P  252   4.512   2.203   9.054  0.2166 -0.3056  0.0442
    9DC     O5'  253   4.713   2.331   9.024 -0.4229  0.0167 -0.5421
    9DC     C5'  254   4.845   2.354   8.982 -0.3213  0.4766  0.0113
    9DC    H5'1  255   4.840   2.379   8.876 -1.3169 -1.3808 -0.4235
    9DC    H5'2  256   4.925   2.284   9.007  0.0186  0.6713 -0.4988
    9DC     C4'  257   4.889   2.487   9.042 -0.2847  0.3647  0.2310
    9DC     H4'  258   4.996   2.491   9.021 -0.2534 -0.6310  0.1511
    9DC     O4'  259   4.817   2.581   8.966  0.2754  0.3299 -0.3461
    9DC     C1'  260   4.786   2.682   9.059  0.2671  0.0471 -0.0377
    9DC     H1'  261   4.879   2.727   9.094 -0.6484  0.2051  2.3523
    9DC      N1  262   4.714   2.795   8.998 -0.0700 -0.0341  0.2097
    9DC      C6  263   4.579   2.797   9.020 -0.0275 -0.2919  0.5020
    9DC      H6  264   4.526   2.711   9.057  0.7790 -0.8308  0.4187
    9DC      C5  265   4.512   2.909   8.984 -0.0065 -0.5416 -0.3374
    9DC      H5  266   4.405   2.911   8.999 -0.2601  3.2043 -1.6111
    9DC      C4  267   4.587   3.021   8.935  0.2664 -0.7640 -0.4372
    9DC      N4  268   4.529   3.140   8.911  0.6063 -0.5067  0.0126
    9DC     H41  269   4.433   3.165   8.926  0.2908 -0.2267 -2.1655
    9DC     H42  270   4.594   3.216   8.891  0.8091 -0.6366  0.1679
    9DC      N3  271   4.720   3.024   8.925  0.3047  0.2977  0.1749
    9DC      C2  272   4.783   2.910   8.962 -0.1783 -0.0927 -0.1933
    9DC      O2  273   4.906   2.919   8.960 -0.1771 -0.0459  0.0414
    9DC     C3'  274   4.854   2.511   9.189 -0.1215 -0.1696  0.3630
    9DC     H3'  275   4.821   2.423   9.244 -0.9378 -0.1888 -0.1368
    9DC     C2'  276   4.734   2.605   9.179  0.3083  0.3655  0.1863
    9DC    H2'1  277   4.642   2.552   9.155  0.5095 -0.5702  1.3432
    9DC    H2'2  278   4.700   2.661   9.267 -1.7598 -1.1444  0.4233
    9DC     O3'  279   4.960   2.565   9.264  0.3993 -0.1739 -0.3591
   10DG       P  280   5.061   2.462   9.336  0.0134 -0.0422  0.3856
   10DG     O1P  281   5.141   2.397   9.229  0.2093  0.7287  0.0568
   10DG     O2P  282   4.987   2.382   9.436 -0.2707 -0.1163  0.1218
   10DG     O5'  283   5.157   2.558   9.421 -0.2413  0.0884  0.5282
   10DG     C5'  284   5.253   2.633   9.351  0.4969 -0.6661  0.7085
   10DG    H5'1  285   5.220   2.639   9.247  0.4903 -1.0468  0.6878
   10DG    H5'2  286   5.337   2.565   9.342  0.2722 -0.9344  0.6539
   10DG     C4'  287   5.279   2.778   9.395 -0.6774 -0.2342  0.0019
   10DG     H4'  288   5.380   2.812   9.374 -0.4252  0.0453  1.5704
   10DG     O4'  289   5.194   2.854   9.311  0.0527 -0.2295 -0.7409
   10DG     C1'  290   5.127   2.935   9.404  0.0656 -1.0779  0.0165
   10DG     H1'  291   5.181   3.028   9.417  1.8671 -1.3684 -3.9635
   10DG      N9  292   4.995   2.970   9.348  0.3617 -0.2263 -0.1587
   10DG      C8  293   4.878   2.898   9.345  0.2503 -0.0438 -0.1976
   10DG      H8  294   4.879   2.794   9.375 -0.5719  0.2732  0.9871
   10DG      N7  295   4.773   2.962   9.303  0.3181 -0.1174 -0.4838
   10DG      C5  296   4.828   3.087   9.275  0.1948  0.0870  0.1653
   10DG      C6  297   4.760   3.203   9.228 -0.1691 -0.0315  0.3891
   10DG      O6  298   4.642   3.218   9.198 -0.1160 -0.5081 -0.0837
   10DG      N1  299   4.845   3.312   9.214 -0.2328 -0.0498 -0.2030
   10DG      H1  300   4.805   3.401   9.188 -0.4659 -0.0204  0.2389
   10DG      C2  301   4.971   3.314   9.270 -0.3612 -0.3571  0.1028
   10DG      N2  302   5.038   3.430   9.264 -0.1543 -0.4668  0.2721
   10DG     H21  303   4.982   3.508   9.234  1.1401  0.6646  0.6654
   10DG     H22  304   5.123   3.450   9.315  0.9402 -2.6094 -0.5673
   10DG      N3  305   5.039   3.206   9.312  0.3459 -0.2716 -0.7877
   10DG      C4  306   4.959   3.098   9.313  0.1647 -0.1429  0.3347
   10DG     C3'  307   5.257   2.803   9.543  0.1014 -0.1148  0.0963
   10DG     H3'  308   5.257   2.716   9.609  0.8199  0.2656  0.6204
   10DG     C2'  309   5.118   2.866   9.540  0.1354 -0.0128  0.5698
   10DG    H2'1  310   5.041   2.790   9.529  1.8360 -1.4921 -2.6302
   10DG    H2'2  311   5.095   2.944   9.613 -2.8943  1.3583 -1.6650
   10DG     O3'  312   5.352   2.894   9.596  0.3762 -0.4019  0.1008
   11DG       P  313   5.356   2.925   9.754 -0.2384  0.2948 -0.0157
   11DG     O1P  314   5.497   2.924   9.798 -0.2702  0.1752  0.0876
   11DG     O2P  315   5.270   2.829   9.828  0.3209 -0.2064 -0.0090
   11DG     O5'  316   5.290   3.070   9.775 -0.6479  0.0733  0.2454
   11DG     C5'  317   5.343   3.174   9.696  0.2024 -0.4411  0.1357
   11DG    H5'1  318   5.365   3.140   9.595  2.3157 -0.8091  0.6715
   11DG    H5'2  319   5.427   3.224   9.744 -2.3964  3.5346  0.9776
   11DG     C4'  320   5.246   3.291   9.692  0.2430 -0.3980  0.3994
   11DG     H4'  321   5.293   3.374   9.640 -1.0394 -0.0646 -0.2693
   11DG     O4'  322   5.129   3.252   9.624 -0.2337  0.2487  0.8432
   11DG     C1'  323   5.025   3.345   9.648 -0.2937  0.1722  0.8755
   11DG     H1'  324   5.055   3.438   9.601 -0.7398 -0.1403 -0.0438
   11DG      N9  325   4.893   3.291   9.609  0.1464  0.1198 -0.5926
   11DG      C8  326   4.846   3.163   9.626  0.4818  0.1173  0.3831
   11DG      H8  327   4.911   3.078   9.637  2.2753  0.9670 -2.3947
   11DG      N7  328   4.720   3.154   9.595  0.6111  0.2111 -0.1854
   11DG      C5  329   4.687   3.282   9.552  0.8980  0.1281 -0.6636
   11DG      C6  330   4.565   3.331   9.498  0.6188  0.1767  0.0019
   11DG      O6  331   4.465   3.265   9.471  0.7917 -0.3732  0.6575
   11DG      N1  332   4.556   3.469   9.487 -0.0447  0.1298 -0.0286
   11DG      H1  333   4.474   3.511   9.445 -0.2890  0.4562  0.7466
   11DG      C2  334   4.669   3.547   9.496  0.0036  0.1621 -0.8777
   11DG      N2  335   4.646   3.677   9.475 -0.0269  0.2062 -0.5688
   11DG     H21  336   4.555   3.703   9.438 -1.5065 -0.9086  2.0315
   11DG     H22  337   4.707   3.752   9.504  1.7835 -0.4489 -2.4718
   11DG      N3  338   4.787   3.505   9.541 -0.0748  0.6336 -0.2215
   11DG      C4  339   4.790   3.372   9.566  0.4624  0.6003 -0.4531
   11DG     C3'  340   5.191   3.345   9.823  0.2180  0.2335  0.1324
   11DG     H3'  341   5.202   3.269   9.901 -0.5266  0.9328  0.9526
   11DG     C2'  342   5.042   3.370   9.798  0.1242  0.3732  0.7939
   11DG    H2'1  343   4.982   3.299   9.854 -1.7794  1.2674 -0.0135
   11DG    H2'2  344   5.027   3.477   9.812 -1.5869  0.3033 -0.2345
   11DG     O3'  345   5.264   3.455   9.872  0.0978  0.3939 -0.0454
   12DA       P  346   5.230   3.513  10.019  0.1713  0.3553 -0.0143
   12DA     O1P  347   5.341   3.587  10.083  0.4354 -0.4687  0.5107
   12DA     O2P  348   5.170   3.402  10.097 -0.6819  0.2345 -0.8211
   12DA     O5'  349   5.106   3.613   9.996 -0.3886 -0.4182 -0.4242
   12DA     C5'  350   5.123   3.738   9.932 -0.1220  0.0369  0.5129
   12DA    H5'1  351   5.156   3.718   9.830  0.8087  0.4818  0.7184
   12DA    H5'2  352   5.200   3.797   9.980 -0.7103  1.6518 -0.4512
   12DA     C4'  353   4.997   3.825   9.925  0.0824  0.3157  0.2956
   12DA     H4'  354   5.020   3.916   9.870 -0.8714  1.8381  2.3073
   12DA     O4'  355   4.892   3.752   9.866 -0.2554  0.3242  0.8852
   12DA     C1'  356   4.770   3.780   9.932 -0.8438  0.3061 -0.1828
   12DA     H1'  357   4.728   3.874   9.898 -1.7715  0.4812  1.3579
   12DA      N9  358   4.687   3.665   9.890  0.0286 -0.4405  0.1149
   12DA      C8  359   4.701   3.533   9.926  0.0370 -0.4202  0.1868
   12DA      H8  360   4.785   3.510   9.989 -0.6204 -0.1671  1.1915
   12DA      N7  361   4.599   3.459   9.892 -0.3335  0.1136  0.1277
   12DA      C5  362   4.519   3.543   9.814  0.0886  0.1139 -0.3082
   12DA      C6  363   4.394   3.534   9.750 -0.1305 -0.0159  0.1345
   12DA      N6  364   4.327   3.419   9.742 -0.1999  0.0254  0.1192
   12DA     H61  365   4.354   3.350   9.811 -1.9386 -1.1021 -0.2819
   12DA     H62  366   4.239   3.406   9.694 -1.1830 -0.4417  1.9642
   12DA      N1  367   4.340   3.641   9.691  0.3245  0.0715 -0.1313
   12DA      C2  368   4.400   3.758   9.697  0.1000  0.2000 -0.3331
   12DA      H2  369   4.354   3.842   9.647  0.5529  0.5032 -0.2481
   12DA      N3  370   4.516   3.779   9.759 -0.2076  0.0787  0.2932
   12DA      C4  371   4.571   3.670   9.816  0.1904  0.0693 -0.1056
   12DA     C3'  372   4.946   3.866  10.063 -0.4059 -0.0809  0.2377
   12DA     H3'  373   5.012   3.829  10.141  0.0964  1.4492  0.5857
   12DA     C2'  374   4.819   3.783  10.076 -0.6746  0.2469 -0.2394
   12DA    H2'1  375   4.856   3.687  10.114 -0.4834  0.9829  1.5176
   12DA    H2'2  376   4.749   3.815  10.153 -0.8600  0.3191 -0.4398
   12DA     O3'  377   4.931   4.006  10.076  0.4355  0.0251  0.1449
   13DA       P  378   4.846   4.081  10.190  0.1609 -0.0364 -0.0194
   13DA     O1P  379   4.895   4.221  10.192 -0.1423  0.0690  0.0482
   13DA     O2P  380   4.838   4.007  10.318  0.0503  0.4853  0.2803
   13DA     O5'  381   4.702   4.073  10.118 -0.1324 -0.0540  0.5608
   13DA     C5'  382   4.684   4.156  10.006 -0.2170 -0.0494  0.5770
   13DA    H5'1  383   4.716   4.106   9.915  0.1167 -0.0101  0.6708
   13DA    H5'2  384   4.746   4.246  10.002  0.2132 -0.2377  2.2304
   13DA     C4'  385   4.535   4.186   9.993 -0.1493  0.0611  0.0189
   13DA     H4'  386   4.514   4.262   9.917  0.1428 -2.2146 -2.4516
   13DA     O4'  387   4.455   4.080   9.949 -0.3417  0.4152 -0.4902
   13DA     C1'  388   4.373   4.036  10.055  0.3411 -0.0747 -0.1601
   13DA     H1'  389   4.269   4.056  10.029 -0.2225 -1.0150  1.2676
   13DA      N9  390   4.367   3.890  10.070 -0.5588  0.0380  0.6516
   13DA      C8  391   4.438   3.802  10.147  0.0614 -0.2313 -0.2207
   13DA      H8  392   4.507   3.838  10.222 -3.3970 -0.8347  3.6359
   13DA      N7  393   4.397   3.678  10.140  0.4955 -0.4114  0.3237
   13DA      C5  394   4.290   3.688  10.052  0.8074 -0.5128 -0.0706
   13DA      C6  395   4.188   3.600  10.012 -0.0705  0.4580 -0.0373
   13DA      N6  396   4.170   3.472  10.047 -0.2945  0.5907  0.3362
   13DA     H61  397   4.230   3.429  10.116 -1.4219  1.9949  2.2603
   13DA     H62  398   4.096   3.421  10.000 -0.6198  1.1579  0.2225
   13DA      N1  399   4.083   3.637   9.938 -0.1392 -0.0289 -0.1894
   13DA      C2  400   4.078   3.767   9.910 -0.0746  0.1267  0.4986
   13DA      H2  401   3.992   3.800   9.854 -0.2580  0.8501  1.1931
   13DA      N3  402   4.162   3.865   9.939  0.4956 -0.1722 -0.0965
   13DA      C4  403   4.264   3.817  10.014 -0.1537 -0.4985  0.5970
   13DA     C3'  404   4.485   4.229  10.131 -0.2018  0.1766 -0.0360
   13DA     H3'  405   4.573   4.254  10.191 -0.3917  3.2467 -0.8842
   13DA     C2'  406   4.414   4.106  10.185  0.4865 -0.2576 -0.1084
   13DA    H2'1  407   4.476   4.041  10.248  0.6626 -0.2991 -0.3242
   13DA    H2'2  408   4.324   4.141  10.235  0.0807 -1.1861 -0.1677
   13DA     O3'  409   4.401   4.342  10.127  0.3262  0.5687 -0.2358
   14DG       P  410   4.353   4.426  10.256 -0.0201 -0.1819  0.1326
   14DG     O1P  411   4.343   4.568  10.215 -0.1259 -0.0191  0.7181
   14DG     O2P  412   4.438   4.388  10.371  0.4206  0.4051  0.0085
   14DG     O5'  413   4.204   4.375  10.286 -0.1436  0.0782 -0.0355
   14DG     C5'  414   4.093   4.442  10.229 -0.1640  0.4330  0.4144
   14DG    H5'1  415   4.098   4.448  10.121 -2.2174  0.0148  0.2655
   14DG    H5'2  416   4.099   4.542  10.273  0.1363  0.2097  0.8957
   14DG     C4'  417   3.959   4.379  10.265 -0.0351 -0.3721 -0.4801
   14DG     H4'  418   3.885   4.446  10.220  0.4664  0.8757  0.4970
   14DG     O4'  419   3.947   4.250  10.209 -0.1652 -0.3798 -0.4348
   14DG     C1'  420   3.904   4.165  10.313 -0.6307  0.0475 -0.2712
   14DG     H1'  421   3.797   4.154  10.330 -0.9680  1.1163 -1.5317
   14DG      N9  422   3.957   4.030  10.288 -0.2687  0.1003  0.1965
   14DG      C8  423   4.085   3.987  10.312 -0.4299 -0.6050 -0.1694
   14DG      H8  424   4.164   4.059  10.329  0.4431 -1.7427  0.7807
   14DG      N7  425   4.098   3.857  10.304  0.3377 -0.5768  0.4998
   14DG      C5  426   3.971   3.816  10.267 -0.0348  0.0418  1.0662
   14DG      C6  427   3.919   3.684  10.254  0.0142  0.1147  0.0701
   14DG      O6  428   3.979   3.578  10.266 -0.4700 -0.1943 -0.2080
   14DG      N1  429   3.787   3.679  10.212  0.0511 -0.0303 -0.0319
   14DG      H1  430   3.745   3.589  10.197 -0.8167  0.6335 -1.8706
   14DG      C2  431   3.703   3.789  10.221 -0.0524 -0.0555 -0.6214
   14DG      N2  432   3.570   3.779  10.209 -0.0805  0.2589 -0.5946
   14DG     H21  433   3.523   3.699  10.168 -1.4684  0.7906 -0.0820
   14DG     H22  434   3.511   3.858  10.229 -0.0783 -0.1718  1.3383
   14DG      N3  435   3.747   3.914  10.242 -0.0693 -0.1477 -0.0214
   14DG      C4  436   3.881   3.919  10.259 -0.1401 -0.0852  0.5629
   14DG     C3'  437   3.918   4.380  10.412  0.0754 -0.3498 -0.4494
   14DG     H3'  438   3.982   4.444  10.472 -0.6712 -0.7773  0.8271
   14DG     C2'  439   3.947   4.233  10.442 -0.0802 -0.3385 -0.2477
   14DG    H2'1  440   4.054   4.222  10.458 -0.1390  0.1250  0.5615
   14DG    H2'2  441   3.890   4.193  10.527 -1.6084  1.0255 -0.5792
   14DG     O3'  442   3.785   4.426  10.423  0.2147  0.0419 -0.4084
   15DG       P  443   3.692   4.432  10.553  0.4798 -0.1898 -0.2069
   15DG     O1P  444   3.584   4.531  10.530 -0.0981 -0.6612  0.4029
   15DG     O2P  445   3.784   4.455  10.667 -0.2016 -0.4473  0.4112
   15DG     O5'  446   3.638   4.280  10.550  0.0472 -0.0313 -0.6214
   15DG     C5'  447   3.531   4.235  10.471 -0.3432  0.2080 -0.2326
   15DG    H5'1  448   3.571   4.215  10.371 -0.2387 -0.7983  0.0106
   15DG    H5'2  449   3.447   4.306  10.470 -0.0991  0.5121 -1.3478
   15DG     C4'  450   3.473   4.101  10.513 -0.2867  0.1887 -0.2184
   15DG     H4'  451   3.379   4.081  10.462 -0.6161 -1.4145  0.9097
   15DG     O4'  452   3.562   4.003  10.464 -0.0098  0.3690 -0.0769
   15DG     C1'  453   3.567   3.907  10.568  0.2250  0.4505 -0.0126
   15DG     H1'  454   3.477   3.847  10.556  0.4715 -0.3049  1.6641
   15DG      N9  455   3.684   3.818  10.554 -0.0563 -0.0161  0.5504
   15DG      C8  456   3.813   3.848  10.590  0.2151  0.3136 -0.6377
   15DG      H8  457   3.846   3.949  10.610  0.9248 -0.2231  1.1495
   15DG      N7  458   3.894   3.745  10.589  0.1829  0.2838 -0.3982
   15DG      C5  459   3.807   3.639  10.565 -0.1366  0.3452  0.4703
   15DG      C6  460   3.833   3.500  10.557  0.0560  0.4323 -0.5015
   15DG      O6  461   3.942   3.448  10.577 -0.2928 -0.0108  0.2934
   15DG      N1  462   3.725   3.417  10.531  0.2049  0.0033  0.2106
   15DG      H1  463   3.738   3.318  10.515 -1.6904 -0.3624  0.6810
   15DG      C2  464   3.598   3.471  10.523  0.0328 -0.5057 -0.6456
   15DG      N2  465   3.495   3.386  10.515  0.4837 -1.0559 -0.6794
   15DG     H21  466   3.515   3.287  10.508 -1.5249 -1.4038 -3.0128
   15DG     H22  467   3.399   3.417  10.520  0.7509 -0.3431  0.1401
   15DG      N3  468   3.569   3.601  10.540  0.3173 -0.5229 -0.0178
   15DG      C4  469   3.678   3.681  10.546 -0.0476  0.0499 -0.9002
   15DG     C3'  470   3.447   4.088  10.663  0.1309 -0.7952 -0.2182
   15DG     H3'  471   3.457   4.182  10.718 -1.9195 -0.3808 -0.4648
   15DG     C2'  472   3.557   3.989  10.697  0.2615 -0.4011  0.5370
   15DG    H2'1  473   3.654   4.038  10.711  0.4084 -0.3723 -0.5064
   15DG    H2'2  474   3.526   3.923  10.778 -3.2657  0.0357 -0.3095
   15DG     O3'  475   3.322   4.028  10.686 -0.2020 -0.0978 -0.1727
   16DG       P  476   3.256   4.046  10.832 -0.1608 -0.1660 -0.1453
   16DG     O1P  477   3.110   4.063  10.817 -0.1298  0.5944  0.3717
   16DG     O2P  478   3.330   4.146  10.912  0.2037 -0.2202 -0.4099
   16DG     O5'  479   3.281   3.903  10.901  0.1746  0.0035  0.0917
   16DG     C5'  480   3.207   3.789  10.861  0.1166 -0.0980  0.4846
   16DG    H5'1  481   3.211   3.792  10.752 -1.8775  1.6892  0.3871
   16DG    H5'2  482   3.099   3.795  10.876 -0.3975 -2.9835 -1.3013
   16DG     C4'  483   3.270   3.662  10.917  0.0697 -0.2536  0.1864
   16DG     H4'  484   3.212   3.577  10.881  0.8129 -1.1653  1.0709
   16DG     O4'  485   3.397   3.639  10.861  0.0042 -0.3788  0.0906
   16DG     C1'  486   3.437   3.521  10.926 -0.2212 -0.2879  0.3959
   16DG     H1'  487   3.390   3.432  10.885  0.7343 -2.1271  3.0001
   16DG      N9  488   3.582   3.508  10.903 -0.1926 -0.0774  0.4614
   16DG      C8  489   3.683   3.601  10.907 -0.0879 -0.1614 -0.2012
   16DG      H8  490   3.672   3.708  10.909  2.7444  0.2052  0.8310
   16DG      N7  491   3.805   3.556  10.894  0.1156  0.4537 -0.4457
   16DG      C5  492   3.780   3.420  10.876 -0.2577  0.4830 -0.1620
   16DG      C6  493   3.866   3.312  10.844 -0.7135  0.3302 -0.9011
   16DG      O6  494   3.988   3.309  10.829 -0.4266  0.1052  1.2136
   16DG      N1  495   3.801   3.190  10.827 -0.7164  0.2071 -0.0473
   16DG      H1  496   3.855   3.109  10.800  0.1762  1.1406 -1.1646
   16DG      C2  497   3.666   3.172  10.851 -0.8137 -0.0041 -0.7288
   16DG      N2  498   3.628   3.044  10.845 -0.0925 -0.2654 -0.0530
   16DG     H21  499   3.699   2.974  10.831  0.2868 -0.3103  1.8849
   16DG     H22  500   3.530   3.021  10.853  0.0901 -1.5451 -1.1796
   16DG      N3  501   3.582   3.270  10.885 -0.2510  0.0861  0.4703
   16DG      C4  502   3.647   3.389  10.885 -0.1467  0.0302 -0.1064
   16DG     C3'  503   3.290   3.644  11.068 -0.0285  0.5063  0.2953
   16DG     H3'  504   3.327   3.737  11.110  0.5345  0.9161 -1.0502
   16DG     C2'  505   3.407   3.547  11.073 -0.3147  0.1588  0.2991
   16DG    H2'1  506   3.494   3.601  11.112  0.4382  0.1440 -1.2781
   16DG    H2'2  507   3.381   3.453  11.122  0.6410  0.3585  1.2395
   16DG     O3'  508   3.177   3.591  11.134  0.2668 -0.3994  0.0881
   17DC       P  509   3.183   3.534  11.284 -0.3073  0.2208  0.3522
   17DC     O1P  510   3.046   3.541  11.341 -0.3902 -0.3722  0.2356
   17DC     O2P  511   3.281   3.616  11.358  0.0852 -0.3576  0.4752
   17DC     O5'  512   3.225   3.379  11.281 -0.8067  0.0782  0.6021
   17DC     C5'  513   3.135   3.273  11.257 -0.1258 -0.3973  0.1067
   17DC    H5'1  514   3.073   3.282  11.168  2.5059  0.5612 -1.7699
   17DC    H5'2  515   3.073   3.255  11.345 -1.3441  0.2247 -0.6017
   17DC     C4'  516   3.214   3.144  11.239  0.4494 -0.0006 -0.2379
   17DC     H4'  517   3.146   3.066  11.204  1.1173  0.0730 -1.8068
   17DC     O4'  518   3.317   3.147  11.142  0.1685 -0.2164 -0.5467
   17DC     C1'  519   3.411   3.049  11.178 -0.0005 -0.1431  0.1062
   17DC     H1'  520   3.421   2.972  11.102 -0.4547 -2.1660  2.0108
   17DC      N1  521   3.545   3.110  11.194 -0.1019  0.1671 -0.2167
   17DC      C6  522   3.557   3.241  11.227  0.3187  0.1666 -0.3596
   17DC      H6  523   3.467   3.301  11.235 -0.9546 -1.7632  0.4766
   17DC      C5  524   3.679   3.296  11.215  0.2629  0.2355 -0.6347
   17DC      H5  525   3.692   3.404  11.220  2.0796  0.2107 -3.0375
   17DC      C4  526   3.793   3.213  11.189  0.1719 -0.3475  0.7591
   17DC      N4  527   3.915   3.268  11.176 -0.1526  0.0617 -0.6678
   17DC     H41  528   3.932   3.363  11.207 -1.7199  0.0351  0.4317
   17DC     H42  529   3.988   3.204  11.152 -0.2731 -0.0656 -0.6947
   17DC      N3  530   3.785   3.082  11.164  0.1513 -0.2126  0.0360
   17DC      C2  531   3.658   3.033  11.169 -0.0219  0.2298 -0.0484
   17DC      O2  532   3.644   2.916  11.133 -0.0884  0.2388 -0.0524
   17DC     C3'  533   3.276   3.095  11.369  0.1110  0.1335 -0.0256
   17DC     H3'  534   3.337   3.174  11.414 -0.8802  0.8439  0.0904
   17DC     C2'  535   3.368   2.988  11.311 -0.0018 -0.0564  0.1455
   17DC    H2'1  536   3.456   2.982  11.375  0.6290 -0.9385 -0.7648
   17DC    H2'2  537   3.317   2.892  11.307  0.0784 -0.0877 -0.1363
   17DC     O3'  538   3.190   3.032  11.461  0.1638  0.2686  0.1165
   18DA       P  539   3.236   2.986  11.609  0.0618 -0.0218  0.0568
   18DA     O1P  540   3.111   2.936  11.670  0.0253 -0.5683 -0.4490
   18DA     O2P  541   3.301   3.098  11.680 -0.2275  0.2376 -0.0886
   18DA     O5'  542   3.336   2.859  11.604 -0.4718 -0.4483  0.1086
   18DA     C5'  543   3.303   2.726  11.571  0.2707 -0.4141 -0.8049
   18DA    H5'1  544   3.288   2.724  11.464 -0.4139 -0.7630 -0.7049
   18DA    H5'2  545   3.212   2.699  11.625 -0.0360  2.2911  0.2065
   18DA     C4'  546   3.415   2.626  11.602  0.2264 -0.2233  0.0014
   18DA     H4'  547   3.385   2.526  11.572 -1.6832  0.2351  0.2577
   18DA     O4'  548   3.535   2.665  11.539  0.0166 -0.0802 -0.3153
   18DA     C1'  549   3.619   2.710  11.643 -0.3281  0.3954 -0.2400
   18DA     H1'  550   3.698   2.635  11.650 -0.3153  0.2476 -1.5914
   18DA      N9  551   3.685   2.831  11.589 -0.0647  0.3154 -0.1022
   18DA      C8  552   3.642   2.962  11.589 -0.2283  0.2630 -0.1827
   18DA      H8  553   3.539   2.982  11.613 -0.5181 -1.2663 -0.0538
   18DA      N7  554   3.723   3.052  11.540 -0.1381  0.3582  0.1399
   18DA      C5  555   3.836   2.974  11.514 -0.3562 -0.0062  0.2841
   18DA      C6  556   3.962   3.014  11.468 -0.4612  0.0121  0.0062
   18DA      N6  557   4.020   3.134  11.450 -0.3735 -0.0461 -0.0988
   18DA     H61  558   3.964   3.217  11.462  0.3213  0.9177 -2.7911
   18DA     H62  559   4.112   3.144  11.410 -1.6870  1.2947 -3.0762
   18DA      N1  560   4.051   2.915  11.450 -0.3604  0.2211 -0.6642
   18DA      C2  561   4.019   2.789  11.474 -0.1370  0.3044  0.1059
   18DA      H2  562   4.092   2.713  11.451  0.1376  0.4215  0.5847
   18DA      N3  563   3.903   2.742  11.517 -0.1206 -0.1628 -0.3521
   18DA      C4  564   3.812   2.841  11.538 -0.1447 -0.1738 -0.4029
   18DA     C3'  565   3.445   2.617  11.751 -0.3412  0.0634  0.1394
   18DA     H3'  566   3.353   2.638  11.805 -2.3613 -1.4255 -2.5142
   18DA     C2'  567   3.548   2.727  11.776 -0.1347 -0.0786 -0.0773
   18DA    H2'1  568   3.494   2.820  11.796 -1.0010 -1.0551  2.6845
   18DA    H2'2  569   3.616   2.708  11.860  0.7504  1.2100 -0.4720
   18DA     O3'  570   3.493   2.488  11.782 -0.8080 -0.0422  0.4207
   19DT       P  571   3.565   2.439  11.918  0.1741  0.2312  0.0038
   19DT     O1P  572   3.551   2.292  11.926  0.2324  0.1815 -0.6861
   19DT     O2P  573   3.517   2.519  12.033  0.1114 -0.0926  0.2023
   19DT     O5'  574   3.724   2.459  11.897  0.2479 -0.0745  0.2759
   19DT     C5'  575   3.790   2.392  11.792 -0.0275 -0.4969  0.3668
   19DT    H5'1  576   3.745   2.416  11.696 -1.1665  0.8510  1.1856
   19DT    H5'2  577   3.781   2.285  11.809 -1.9803 -0.8267 -2.1793
   19DT     C4'  578   3.942   2.406  11.797 -0.1492  0.9872  0.3739
   19DT     H4'  579   3.970   2.323  11.733  0.1460  1.4259 -0.0761
   19DT     O4'  580   3.993   2.525  11.742  0.7420  0.1365 -0.6879
   19DT     C1'  581   4.083   2.587  11.830  0.6852 -0.1171 -0.4527
   19DT     H1'  582   4.186   2.570  11.797  1.2679 -0.1779  1.2844
   19DT      N1  583   4.057   2.732  11.824  0.3575 -0.1315  0.4244
   19DT      C6  584   3.949   2.785  11.889  0.1628 -0.1844  0.1495
   19DT      H6  585   3.886   2.718  11.946 -0.0473 -1.0220 -1.0318
   19DT      C5  586   3.920   2.917  11.887  0.6051 -0.0869  0.0402
   19DT      C7  587   3.801   2.970  11.961  0.4556  0.2787 -0.4554
   19DT     H71  588   3.771   3.063  11.914 -1.4307 -0.7929 -1.4777
   19DT     H72  589   3.711   2.908  11.957 -0.1915  0.9058  2.2025
   19DT     H73  590   3.821   2.988  12.067  0.0607 -0.7045 -0.2008
   19DT      C4  591   3.994   3.004  11.799  0.0847  0.1540 -0.1629
   19DT      O4  592   3.966   3.117  11.759 -0.2282  0.1444  0.0304
   19DT      N3  593   4.111   2.945  11.752 -0.2189 -0.1911 -0.4928
   19DT      H3  594   4.173   3.001  11.695  0.4422 -2.1540 -1.8225
   19DT      C2  595   4.153   2.814  11.768  0.1149 -0.0049  0.1916
   19DT      O2  596   4.254   2.776  11.709 -0.1310 -0.2211 -0.0929
   19DT     C3'  597   4.016   2.375  11.927 -0.0119 -0.0150  0.0599
   19DT     H3'  598   3.948   2.327  11.998  0.8041  0.3603  1.1264
   19DT     C2'  599   4.057   2.517  11.964  0.0152  0.1130 -0.4594
   19DT    H2'1  600   3.974   2.559  12.020 -0.1021 -1.3638  0.5364
   19DT    H2'2  601   4.148   2.512  12.024 -0.1808 -1.1113 -0.2290
   19DT     O3'  602   4.132   2.296  11.908  0.0179  0.0452 -0.0116
   20DC       P  603   4.215   2.247  12.037 -0.2815 -0.4033  0.0150
   20DC     O1P  604   4.275   2.117  11.999 -0.3421 -0.3511 -0.2633
   20DC     O2P  605   4.135   2.253  12.161  0.0514  0.2169  0.2076
   20DC     O5'  606   4.338   2.348  12.058 -0.2168 -0.4684 -0.0495
   20DC     C5'  607   4.455   2.339  11.979  0.2169  0.0772  0.5222
   20DC    H5'1  608   4.435   2.341  11.872  1.2204 -1.2845  0.2857
   20DC    H5'2  609   4.496   2.239  11.997  1.8303  0.5528 -0.3282
   20DC     C4'  610   4.555   2.448  12.016  0.2904  0.1218  0.1932
   20DC     H4'  611   4.648   2.445  11.960 -0.3774  0.0265 -0.9283
   20DC     O4'  612   4.500   2.577  12.000  0.0291 -0.0107  0.0353
   20DC     C1'  613   4.525   2.662  12.109  0.0707  0.1328 -0.0873
   20DC     H1'  614   4.626   2.704  12.102 -1.0692  2.9452 -1.0422
   20DC      N1  615   4.428   2.773  12.098 -0.0827 -0.0719 -0.8335
   20DC      C6  616   4.304   2.751  12.149  0.2249  0.2844  0.1085
   20DC      H6  617   4.270   2.657  12.190  1.6744 -0.0460  0.5955
   20DC      C5  618   4.216   2.854  12.149  0.1266  0.2015  0.1982
   20DC      H5  619   4.117   2.843  12.190 -0.6418  1.0796 -1.3450
   20DC      C4  620   4.258   2.975  12.084 -0.3265  0.0961 -0.2993
   20DC      N4  621   4.172   3.075  12.063 -0.1370  0.3876  0.2785
   20DC     H41  622   4.087   3.084  12.118 -0.2411 -0.6655  0.3200
   20DC     H42  623   4.215   3.151  12.013 -2.3634  1.6762  0.2114
   20DC      N3  624   4.379   2.990  12.029 -0.0577 -0.0952  0.2284
   20DC      C2  625   4.471   2.890  12.038  0.5868  0.5351  0.7655
   20DC      O2  626   4.576   2.900  11.975  0.4212 -0.2426  0.3505
   20DC     C3'  627   4.598   2.449  12.163  0.3096 -0.0303  0.1897
   20DC     H3'  628   4.563   2.360  12.215  0.9682  1.9393  4.4035
   20DC     C2'  629   4.526   2.567  12.228  0.4106  0.1700 -0.0581
   20DC    H2'1  630   4.419   2.549  12.236 -0.1507  3.0934  0.1814
   20DC    H2'2  631   4.576   2.620  12.309  2.5457 -1.6610 -0.0835
   20DC     O3'  632   4.738   2.459  12.165  0.3010  0.2596 -0.3734
   21DT       P  633   4.826   2.467  12.301 -0.0672  0.2783 -0.1357
   21DT     O1P  634   4.952   2.395  12.272 -0.3927 -0.4129  0.1414
   21DT     O2P  635   4.743   2.419  12.414  0.0315 -0.4096 -0.3521
   21DT     O5'  636   4.849   2.625  12.324  0.0168  0.1240  0.8904
   21DT     C5'  637   4.948   2.697  12.254 -0.3976 -0.0888  0.0603
   21DT    H5'1  638   4.931   2.703  12.147  1.8780 -0.1790 -0.3461
   21DT    H5'2  639   5.048   2.661  12.281 -0.2392 -1.0382 -1.6736
   21DT     C4'  640   4.931   2.840  12.304  0.3297  0.1311 -0.3037
   21DT     H4'  641   5.003   2.904  12.253  0.4485  0.7974  0.6752
   21DT     O4'  642   4.800   2.891  12.288  0.1045 -0.2079  0.3944
   21DT     C1'  643   4.796   3.012  12.361 -0.2330 -0.3372  0.5907
   21DT     H1'  644   4.846   3.090  12.304 -2.1447  0.2260 -0.4131
   21DT      N1  645   4.654   3.051  12.376 -0.0550  0.4255  0.3574
   21DT      C6  646   4.569   2.954  12.420 -0.0463  0.3642  0.2451
   21DT      H6  647   4.613   2.856  12.428  3.8876  2.0810  2.2239
   21DT      C5  648   4.436   2.977  12.436 -0.1034  0.0645  0.2059
   21DT      C7  649   4.341   2.867  12.475 -0.0650 -0.0415  0.0051
   21DT     H71  650   4.346   2.867  12.584  0.7762 -0.6350 -0.0181
   21DT     H72  651   4.242   2.895  12.442 -0.8950 -0.0876  2.2812
   21DT     H73  652   4.374   2.772  12.433 -1.4719 -0.8492  0.6412
   21DT      C4  653   4.381   3.106  12.403 -0.1717  0.0816  0.3814
   21DT      O4  654   4.264   3.139  12.388 -0.2245 -0.3081 -0.1038
   21DT      N3  655   4.475   3.206  12.381 -0.2017 -0.0520 -0.4124
   21DT      H3  656   4.437   3.294  12.349  0.9174  1.0959  1.1835
   21DT      C2  657   4.612   3.182  12.370 -0.0952  0.3950 -0.1129
   21DT      O2  658   4.693   3.271  12.345 -0.1179  0.7698  1.1021
   21DT     C3'  659   4.955   2.857  12.454 -0.2527  0.0970 -0.2015
   21DT     H3'  660   4.917   2.778  12.519 -0.8153  0.4839 -0.0628
   21DT     C2'  661   4.880   2.985  12.486 -0.3037 -0.1434  0.6802
   21DT    H2'1  662   4.817   2.959  12.571  0.4378  3.0081  2.3558
   21DT    H2'2  663   4.948   3.069  12.504 -1.7688  0.6902  2.6783
   21DT     O3'  664   5.088   2.863  12.500 -0.3637 -0.3222  0.1821
   22DG       P  665   5.126   2.890  12.654 -0.1762  0.0662  0.0695
   22DG     O1P  666   5.273   2.875  12.666 -0.1941 -0.2712 -0.1327
   22DG     O2P  667   5.037   2.808  12.739 -0.1676 -0.1338 -0.1156
   22DG     O5'  668   5.096   3.046  12.676  0.0541  0.2168 -0.6689
   22DG     C5'  669   5.170   3.156  12.626  0.4019  0.4769  0.3911
   22DG    H5'1  670   5.146   3.170  12.521  4.4462  0.5206 -0.7073
   22DG    H5'2  671   5.277   3.143  12.644  0.2547  0.6946  1.5069
   22DG     C4'  672   5.147   3.284  12.705  0.0391  0.6282  0.0370
   22DG     H4'  673   5.211   3.366  12.672 -0.5282  0.8088 -0.6582
   22DG     O4'  674   5.016   3.327  12.671 -0.3723 -0.2464  0.4913
   22DG     C1'  675   4.936   3.348  12.785 -0.0120  0.2561  0.6565
   22DG     H1'  676   4.936   3.453  12.812 -1.9903  0.5934 -0.5021
   22DG      N9  677   4.799   3.309  12.749  0.1485 -0.1500  0.4765
   22DG      C8  678   4.737   3.188  12.730 -0.3216  0.2060 -0.3309
   22DG      H8  679   4.783   3.092  12.750 -0.5648  0.1231 -0.1680
   22DG      N7  680   4.611   3.192  12.698 -0.5817  0.3571  0.6594
   22DG      C5  681   4.590   3.326  12.669 -0.0129  0.0988 -1.0726
   22DG      C6  682   4.473   3.398  12.636 -0.4794 -0.0826  0.1409
   22DG      O6  683   4.365   3.352  12.597 -0.7479 -0.2044  1.0146
   22DG      N1  684   4.485   3.536  12.640  0.3118 -0.1251 -0.5627
   22DG      H1  685   4.411   3.593  12.604 -2.3847 -2.0550  1.4974
   22DG      C2  686   4.601   3.595  12.687  0.2707 -0.1395 -0.4438
   22DG      N2  687   4.605   3.728  12.706  0.7293 -0.1555 -0.4050
   22DG     H21  688   4.519   3.782  12.702  0.9462  0.2361  0.2265
   22DG     H22  689   4.687   3.768  12.748  2.4035 -2.5940 -1.1496
   22DG      N3  690   4.715   3.531  12.717  0.0167 -0.5275 -0.2951
   22DG      C4  691   4.700   3.397  12.712  0.0168 -0.5329 -0.0872
   22DG     C3'  692   5.156   3.271  12.856 -0.2540  0.2920  0.0251
   22DG     H3'  693   5.217   3.182  12.875 -1.1664 -0.1328  1.1415
   22DG     C2'  694   5.007   3.263  12.891 -0.1084  0.1482  0.6341
   22DG    H2'1  695   4.964   3.163  12.879 -1.5626  0.5070  2.4866
   22DG    H2'2  696   4.987   3.300  12.991 -3.3999 -0.1180  0.1746
   22DG     O3'  697   5.223   3.388  12.896  0.4198 -0.2857  0.6010
   23DC       P  698   5.267   3.415  13.049  0.1484 -0.0111  0.6297
   23DC     O1P  699   5.391   3.495  13.045  0.0378  0.1373  0.1487
   23DC     O2P  700   5.270   3.288  13.125  0.0621 -0.6343 -0.3803
   23DC     O5'  701   5.145   3.503  13.107 -0.3615 -0.2482 -0.0659
   23DC     C5'  702   5.131   3.635  13.059 -0.3826 -0.1532  0.1987
   23DC    H5'1  703   5.158   3.631  12.953  3.7858  0.3728  1.0625
   23DC    H5'2  704   5.215   3.688  13.103 -1.2316  1.3607  0.0575
   23DC     C4'  705   4.993   3.693  13.087 -0.4205 -0.0915 -0.1107
   23DC     H4'  706   4.991   3.791  13.039  0.8882  0.4328  0.8418
   23DC     O4'  707   4.895   3.622  13.014 -0.1236  0.1682 -0.7647
   23DC     C1'  708   4.768   3.658  13.063  0.1108  0.0675 -0.0791
   23DC     H1'  709   4.745   3.746  13.004  1.7188 -0.2660 -1.2785
   23DC      N1  710   4.659   3.559  13.053  0.1018  0.0444  0.2205
   23DC      C6  711   4.683   3.425  13.047 -0.4240 -0.0754  0.7552
   23DC      H6  712   4.785   3.390  13.046 -0.1585  0.6893 -0.3939
   23DC      C5  713   4.585   3.332  13.046 -0.1226 -0.3958 -0.2519
   23DC      H5  714   4.608   3.227  13.055 -0.6178 -0.4311  0.7748
   23DC      C4  715   4.460   3.385  13.002 -0.0626 -0.2930 -0.2993
   23DC      N4  716   4.362   3.299  12.966  0.1188 -0.4425 -0.4397
   23DC     H41  717   4.390   3.202  12.975  2.7666  0.1577 -1.3125
   23DC     H42  718   4.275   3.332  12.928 -0.2721  1.0224  1.5682
   23DC      N3  719   4.438   3.517  12.995  0.0197 -0.2627  0.0368
   23DC      C2  720   4.532   3.609  13.028  0.3622 -0.0710 -1.4403
   23DC      O2  721   4.501   3.728  13.035 -0.4183 -0.3385 -0.1229
   23DC     C3'  722   4.943   3.711  13.230 -0.4498  0.0091 -0.1333
   23DC     H3'  723   4.969   3.628  13.296 -1.9673 -0.9507 -0.6960
   23DC     C2'  724   4.793   3.703  13.207 -0.4780  0.0838  0.0183
   23DC    H2'1  725   4.739   3.626  13.262 -4.0052  1.8618 -0.6512
   23DC    H2'2  726   4.742   3.797  13.227 -0.7274  0.0912 -0.6016
   23DC     O3'  727   4.988   3.833  13.286  0.9164 -0.7345  0.4370
   24DG       P  728   4.948   3.879  13.435  0.1072  0.1074 -0.0348
   24DG     O1P  729   5.030   4.000  13.460  0.1360  0.0376  0.2086
   24DG     O2P  730   4.963   3.764  13.527  0.2080  0.0214 -0.1585
   24DG     O5'  731   4.793   3.922  13.432  0.0804 -0.0347 -0.8281
   24DG     C5'  732   4.745   4.055  13.420 -0.3135 -0.1468 -0.5269
   24DG    H5'1  733   4.734   4.086  13.317 -1.1884 -0.5306 -0.5586
   24DG    H5'2  734   4.798   4.123  13.487  0.9413 -1.4064 -0.1874
   24DG     C4'  735   4.599   4.055  13.463 -0.1587  0.2225  0.0076
   24DG     H4'  736   4.565   4.159  13.453  0.2599  0.6413  2.3496
   24DG     O4'  737   4.527   3.972  13.375 -0.1318  0.2739 -0.0629
   24DG     C1'  738   4.432   3.907  13.456  0.2193  0.1195  0.2262
   24DG     H1'  739   4.343   3.967  13.471 -0.3669 -0.6257 -0.2159
   24DG      N9  740   4.392   3.777  13.400  0.0466  0.3443 -0.1749
   24DG      C8  741   4.472   3.666  13.386 -0.3829 -0.0587  0.4947
   24DG      H8  742   4.577   3.667  13.411 -0.2123  0.3278 -0.2130
   24DG      N7  743   4.412   3.560  13.339  0.0703 -0.0538 -0.1058
   24DG      C5  744   4.281   3.605  13.324  0.1015  0.0563 -0.0466
   24DG      C6  745   4.168   3.536  13.272 -0.1559  0.3428  0.1260
   24DG      O6  746   4.156   3.421  13.231 -0.8111  0.4704 -0.0443
   24DG      N1  747   4.050   3.606  13.287 -0.3096  0.1879 -0.3502
   24DG      H1  748   3.961   3.561  13.269  0.4234 -1.1227 -0.8268
   24DG      C2  749   4.048   3.741  13.316  0.3913  0.1284  0.0093
   24DG      N2  750   3.928   3.800  13.307  0.2264 -0.1711  0.2258
   24DG     H21  751   3.850   3.738  13.289  0.0431 -0.3222  1.5039
   24DG     H22  752   3.926   3.901  13.310 -0.9925 -0.1971  0.8707
   24DG      N3  753   4.157   3.814  13.340  0.2416  0.3391  0.0549
   24DG      C4  754   4.269   3.738  13.352 -0.0352 -0.0317  0.3256
   24DG     C3'  755   4.557   4.022  13.606  0.4031  0.3067  0.1937
   24DG     H3'  756   4.643   4.012  13.673 -0.3491 -0.6847  1.0458
   24DG     C2'  757   4.504   3.880  13.588  0.2371  0.3590  0.2665
   24DG    H2'1  758   4.587   3.810  13.575  0.2387  0.5066 -0.5989
   24DG    H2'2  759   4.436   3.847  13.667 -0.1270  0.2448 -0.0921
   24DG     O3'  760   4.459   4.114  13.648 -0.0743 -0.2491  0.3083
   25DC       P  761   4.388   4.112  13.792 -0.2707 -0.2426  0.2115
   25DC     O1P  762   4.378   4.254  13.833  0.0040 -0.1665  0.0185
   25DC     O2P  763   4.450   4.010  13.879 -0.5211 -0.6619 -0.0981
   25DC     O5'  764   4.238   4.062  13.759 -0.4197  0.2237  0.1798
   25DC     C5'  765   4.150   4.143  13.684  0.0659  0.3093 -0.3022
   25DC    H5'1  766   4.183   4.150  13.580  0.1213  4.0375 -0.1993
   25DC    H5'2  767   4.146   4.239  13.736  1.1871  0.6211 -0.7449
   25DC     C4'  768   4.011   4.081  13.695  0.3254 -0.2055  0.1160
   25DC     H4'  769   3.950   4.152  13.639  1.1409  0.3613 -0.0856
   25DC     O4'  770   4.011   3.962  13.619  0.0269  0.1006 -0.3701
   25DC     C1'  771   3.948   3.862  13.695  0.0718  0.4451  0.1268
   25DC     H1'  772   3.849   3.870  13.651  1.3845  2.7834 -2.7664
   25DC      N1  773   4.012   3.730  13.675 -0.5644  0.1362  0.0874
   25DC      C6  774   4.147   3.714  13.682 -0.5964  0.1709  0.8510
   25DC      H6  775   4.208   3.792  13.725 -1.4410  0.6405  1.2199
   25DC      C5  776   4.203   3.592  13.662 -1.0571  0.0102  0.5427
   25DC      H5  777   4.309   3.576  13.670 -1.1260 -0.6010  0.3219
   25DC      C4  778   4.121   3.485  13.614 -0.3994 -0.2011 -0.1254
   25DC      N4  779   4.178   3.365  13.595  1.0075  0.5016 -0.4013
   25DC     H41  780   4.270   3.346  13.633  0.9264 -0.7107 -0.7802
   25DC     H42  781   4.122   3.295  13.550  2.3907 -1.3399  0.6120
   25DC      N3  782   3.988   3.499  13.608 -0.4289 -0.3150  0.1910
   25DC      C2  783   3.936   3.621  13.636 -0.2205 -0.3730  0.8261
   25DC      O2  784   3.814   3.627  13.621 -0.1360 -0.7442 -0.0159
   25DC     C3'  785   3.955   4.057  13.834  0.3390 -0.3409  0.0981
   25DC     H3'  786   4.029   4.082  13.910 -1.7823  0.2807  2.0864
   25DC     C2'  787   3.933   3.906  13.840  0.2767 -0.3208  0.3855
   25DC    H2'1  788   4.024   3.870  13.889  1.0249  0.1810 -0.5997
   25DC    H2'2  789   3.840   3.886  13.893 -0.2858  1.5725  0.1918
   25DC     O3'  790   3.840   4.137  13.854  0.3909 -0.2008 -0.1607
   25DC     H3T  791   3.866   4.225  13.881 -2.0557  1.2291 -2.0831
   26G      O5'  792   3.456   2.713   0.809 -0.1139  0.2377  0.3753
   26G      H5T  793   3.471   2.683   0.719 -2.0937  0.3554 -0.0410
   26G      C5'  794   3.318   2.735   0.825 -0.1082  0.2460  0.4115
   26G     H5'1  795   3.263   2.648   0.861  0.5859 -0.7947 -0.9912
   26G     H5'2  796   3.277   2.755   0.726  0.2445 -1.9092 -0.2190
   26G      C4'  797   3.280   2.852   0.916 -0.4659  0.3596  0.1150
   26G      H4'  798   3.176   2.847   0.947 -0.0795 -0.6484  1.2876
   26G      O4'  799   3.347   2.855   1.040 -0.0442  0.4397 -0.1141
   26G      C1'  800   3.388   2.987   1.068  0.2189  0.2572  0.3702
   26G      H1'  801   3.352   3.010   1.168 -2.3523 -0.5397 -0.3120
   26G       N9  802   3.534   3.009   1.061  0.2255  0.2254  0.4216
   26G       C8  803   3.625   2.913   1.025 -0.0536 -0.0580  0.4705
   26G       H8  804   3.596   2.814   0.992 -1.4578  0.5357 -0.1704
   26G       N7  805   3.747   2.957   1.018 -0.0764 -0.0179  0.3290
   26G       C5  806   3.734   3.092   1.052 -0.2121 -0.0099  0.2442
   26G       C6  807   3.832   3.193   1.068 -0.0559 -0.1025 -0.1228
   26G       O6  808   3.955   3.189   1.056  0.0170  0.6410  0.3554
   26G       N1  809   3.780   3.318   1.097  0.4697 -0.0111  0.4590
   26G       H1  810   3.857   3.380   1.118  0.8333 -1.3821  3.6683
   26G       C2  811   3.649   3.344   1.134  0.4162  0.1056  0.1890
   26G       N2  812   3.603   3.466   1.163  0.4054  0.3457 -0.8084
   26G      H21  813   3.672   3.539   1.159  1.1266 -0.3528 -1.3137
   26G      H22  814   3.507   3.477   1.194  0.0545 -0.4136 -1.5791
   26G       N3  815   3.559   3.245   1.122  0.0088  0.5019 -0.0343
   26G       C4  816   3.604   3.126   1.077 -0.2233  0.6586 -0.6834
   26G      C3'  817   3.315   2.980   0.841 -0.1387  0.2061  0.0032
   26G      H3'  818   3.412   2.976   0.792 -0.0162  0.1196  0.2514
   26G      C2'  819   3.324   3.075   0.960 -0.0283 -0.0923  0.2307
   26G     H2'1  820   3.391   3.158   0.942  1.2418 -1.0860  0.2262
   26G      O2'  821   3.197   3.128   0.990  0.2138  0.1845  0.7969
   26G     HO'2  822   3.143   3.121   0.910  0.7015 -2.4077  0.6015
   26G      O3'  823   3.216   3.034   0.756 -0.0865 -0.1346 -0.2740
   27C        P  824   3.244   3.095   0.609  0.1336 -0.3338 -0.3150
   27C      O1P  825   3.118   3.110   0.533 -0.0398 -0.3766 -0.0390
   27C      O2P  826   3.358   3.026   0.545  0.6253  0.1845 -0.0056
   27C      O5'  827   3.289   3.246   0.643 -0.0521 -0.5153  0.8024
   27C      C5'  828   3.193   3.337   0.691 -0.1423  0.0347 -0.3823
   27C     H5'1  829   3.129   3.294   0.768  1.5997  0.6384  1.4814
   27C     H5'2  830   3.129   3.368   0.608  2.0501  4.3112 -0.7882
   27C      C4'  831   3.259   3.462   0.748  0.6585 -0.4243 -0.2852
   27C      H4'  832   3.181   3.524   0.792  0.6159 -0.1368 -0.7573
   27C      O4'  833   3.352   3.429   0.849  0.2622 -0.0860  0.1990
   27C      C1'  834   3.462   3.516   0.838  0.2683 -0.0643  0.4433
   27C      H1'  835   3.472   3.574   0.930 -0.9544 -1.2633  1.3660
   27C       N1  836   3.589   3.452   0.799  0.1771  0.0824 -0.1026
   27C       C6  837   3.589   3.325   0.751 -0.6368  0.2325 -0.5028
   27C       H6  838   3.500   3.264   0.740 -0.0395 -0.6572 -0.4710
   27C       C5  839   3.708   3.268   0.723 -0.1764  0.5713  0.7152
   27C       H5  840   3.709   3.169   0.679 -0.5436  0.1135  1.7066
   27C       C4  841   3.827   3.338   0.760  0.4186 -0.1116  0.1070
   27C       N4  842   3.942   3.270   0.741  0.4274 -0.2083  0.4981
   27C      H41  843   3.944   3.181   0.695 -1.0671  0.7136 -1.5112
   27C      H42  844   4.023   3.326   0.763  0.3428 -0.3614  1.2303
   27C       N3  845   3.828   3.459   0.817  0.5666 -0.1732  0.2355
   27C       C2  846   3.707   3.520   0.824  0.4408 -0.3810 -0.0867
   27C       O2  847   3.703   3.635   0.867 -0.6035 -0.6133  0.4767
   27C      C3'  848   3.336   3.544   0.645  0.1105  0.1882 -0.2175
   27C      H3'  849   3.389   3.475   0.581 -0.6542  0.2080 -0.8799
   27C      C2'  850   3.424   3.627   0.740  0.0094 -0.2870  0.2941
   27C     H2'1  851   3.512   3.662   0.687 -0.6921  0.5132 -0.3672
   27C      O2'  852   3.350   3.721   0.814  0.2481  0.0978  0.0445
   27C     HO'2  853   3.273   3.749   0.764  0.3832  1.8287  0.7280
   27C      O3'  854   3.257   3.625   0.561  0.2702  0.4375 -0.1312
   28G        P  855   3.307   3.665   0.413  0.1239  0.0547 -0.2864
   28G      O1P  856   3.201   3.742   0.344  0.2049  0.0075 -0.4650
   28G      O2P  857   3.368   3.544   0.353  0.6673  0.0123  0.3363
   28G      O5'  858   3.432   3.759   0.452  0.2214 -0.3778  0.4577
   28G      C5'  859   3.413   3.884   0.513  0.2814 -0.2051  0.1211
   28G     H5'1  860   3.340   3.887   0.594  0.6108  0.3597  0.4034
   28G     H5'2  861   3.367   3.952   0.441 -0.5690 -0.8521  0.0357
   28G      C4'  862   3.542   3.946   0.567  0.0160  0.2131  0.2797
   28G      H4'  863   3.523   4.035   0.628 -0.0308 -0.2387  0.9306
   28G      O4'  864   3.607   3.858   0.655  0.5157 -0.4119 -0.7028
   28G      C1'  865   3.747   3.870   0.640  0.6676  0.2073  1.0011
   28G      H1'  866   3.797   3.873   0.736  1.5617 -2.1689  0.6710
   28G       N9  867   3.799   3.753   0.566 -0.1077  0.2903  0.2975
   28G       C8  868   3.739   3.641   0.517 -0.1220  0.1740  0.5817
   28G       H8  869   3.632   3.633   0.500 -0.1006 -0.5542  0.7323
   28G       N7  870   3.827   3.552   0.480 -0.1846  0.3779 -0.0646
   28G       C5  871   3.954   3.601   0.508 -0.0247 -0.1638  0.1804
   28G       C6  872   4.085   3.551   0.487  0.0245 -0.1467  0.4554
   28G       O6  873   4.122   3.441   0.447 -0.5832 -0.2857  0.2688
   28G       N1  874   4.186   3.638   0.524  0.3376 -0.0804 -0.5343
   28G       H1  875   4.280   3.622   0.489 -0.0042  0.1273 -1.5686
   28G       C2  876   4.153   3.765   0.567  0.3148  0.0130 -0.8291
   28G       N2  877   4.258   3.843   0.595 -0.0992  0.4426 -0.4435
   28G      H21  878   4.347   3.800   0.617  0.6538  1.3191 -1.6194
   28G      H22  879   4.233   3.939   0.615  0.0095  0.1847  0.9907
   28G       N3  880   4.031   3.815   0.591  0.2279 -0.6653  0.1891
   28G       C4  881   3.934   3.727   0.557 -0.2041 -0.0877 -0.0852
   28G      C3'  882   3.650   3.994   0.470  0.0815  1.0061  0.7327
   28G      H3'  883   3.650   3.911   0.399 -2.3815  0.0577  1.7089
   28G      C2'  884   3.775   3.996   0.558  0.4412 -0.2141  0.2682
   28G     H2'1  885   3.868   3.992   0.501  0.8082  0.3979  0.8175
   28G      O2'  886   3.773   4.112   0.638  0.0468  0.2986 -0.4736
   28G     HO'2  887   3.859   4.153   0.653 -0.6876  1.6539  0.2208
   28G      O3'  888   3.618   4.113   0.403 -0.3041  0.5684  0.1248
   29C        P  889   3.639   4.130   0.244  0.4318 -0.1333  0.1414
   29C      O1P  890   3.590   4.266   0.211  0.5381 -0.2479 -0.4911
   29C      O2P  891   3.584   4.011   0.175  0.3401 -0.1070  0.1691
   29C      O5'  892   3.800   4.128   0.238  0.4187 -0.3656 -0.1665
   29C      C5'  893   3.870   4.245   0.275 -0.1341  0.0695 -0.4566
   29C     H5'1  894   3.835   4.277   0.373  1.5840  3.8580 -0.9105
   29C     H5'2  895   3.846   4.329   0.212  0.7970  0.7188  0.0230
   29C      C4'  896   4.023   4.233   0.275 -0.1080  0.3883 -0.1608
   29C      H4'  897   4.071   4.323   0.313 -1.7754  1.1628  0.2163
   29C      O4'  898   4.067   4.125   0.355 -0.1431  0.6629  0.2317
   29C      C1'  899   4.178   4.059   0.299 -0.5107  0.2376 -0.0111
   29C      H1'  900   4.271   4.061   0.357 -0.0266 -1.5843 -0.6656
   29C       N1  901   4.157   3.919   0.260 -0.6597  0.1714  0.3010
   29C       C6  902   4.036   3.865   0.226 -0.2326 -0.2751 -0.5694
   29C       H6  903   3.950   3.930   0.231 -1.1874 -1.5303 -0.4001
   29C       C5  904   4.022   3.737   0.187 -0.4042 -0.2187 -0.6929
   29C       H5  905   3.922   3.700   0.171 -1.0330  1.1291  0.0002
   29C       C4  906   4.139   3.655   0.185 -0.0866  0.1999  0.0975
   29C       N4  907   4.131   3.526   0.147 -0.3520  0.2188  0.0865
   29C      H41  908   4.051   3.473   0.117  0.5872 -2.3300  1.8164
   29C      H42  909   4.220   3.478   0.143  0.4930  1.7525 -0.5337
   29C       N3  910   4.260   3.703   0.217 -0.0990  0.5702 -0.3953
   29C       C2  911   4.267   3.835   0.247 -0.3873  0.6616 -0.7207
   29C       O2  912   4.378   3.884   0.263  0.1132 -0.6672  0.0191
   29C      C3'  913   4.079   4.205   0.136 -0.1502 -0.2832 -0.0462
   29C      H3'  914   4.011   4.135   0.087 -0.7939 -0.6955  1.3634
   29C      C2'  915   4.212   4.141   0.175  0.0119  0.1058  0.0417
   29C     H2'1  916   4.243   4.071   0.097 -0.2718 -2.3968  2.0477
   29C      O2'  917   4.307   4.239   0.213  0.2876 -0.3170  0.4532
   29C     HO'2  918   4.288   4.322   0.170 -0.0023 -0.7958 -0.3742
   29C      O3'  919   4.100   4.325   0.065 -0.2071 -0.1776  0.1159
   30A        P  920   4.106   4.321  -0.096 -0.0094 -0.2274  0.1247
   30A      O1P  921   4.117   4.459  -0.146 -0.1561 -0.3947 -0.3686
   30A      O2P  922   3.985   4.246  -0.137 -0.3863  0.3348  0.2123
   30A      O5'  923   4.240   4.240  -0.131  0.3036  0.1933  0.3387
   30A      C5'  924   4.360   4.314  -0.136  0.1273  0.4439 -0.2399
   30A     H5'1  925   4.368   4.374  -0.046 -1.3374 -0.3667  0.4548
   30A     H5'2  926   4.362   4.377  -0.225  2.2006 -1.7458 -1.8866
   30A      C4'  927   4.479   4.218  -0.147 -0.0967  0.0663  0.5598
   30A      H4'  928   4.573   4.271  -0.137 -0.8795  1.5224  0.5401
   30A      O4'  929   4.467   4.116  -0.051 -0.9437 -0.3722  0.0021
   30A      C1'  930   4.523   3.993  -0.093  0.2447  0.0283  0.3741
   30A      H1'  931   4.602   3.956  -0.028 -1.1880 -1.9797  1.0867
   30A       N9  932   4.423   3.885  -0.106  0.4238 -0.0950  0.0218
   30A       C8  933   4.289   3.890  -0.135  0.4916 -0.6442 -0.4090
   30A       H8  934   4.229   3.979  -0.139 -2.5667 -2.5603 -0.2449
   30A       N7  935   4.224   3.777  -0.131 -0.0255 -0.3323  0.2135
   30A       C5  936   4.329   3.687  -0.116  0.1264 -0.2179 -0.1537
   30A       C6  937   4.338   3.547  -0.116 -0.0005 -0.2270 -0.4303
   30A       N6  938   4.236   3.461  -0.117 -0.5060  0.3695 -0.9496
   30A      H61  939   4.142   3.497  -0.126 -0.8509 -0.2479 -0.0135
   30A      H62  940   4.256   3.363  -0.132  0.7751  0.2830  0.9873
   30A       N1  941   4.458   3.487  -0.110 -0.0042 -0.2324 -0.4261
   30A       C2  942   4.566   3.561  -0.096  0.0014 -0.3749  0.3060
   30A       H2  943   4.664   3.519  -0.077  0.3333  0.3420  0.2418
   30A       N3  944   4.571   3.693  -0.086 -0.0213 -0.3443 -0.0709
   30A       C4  945   4.449   3.750  -0.104  0.1340 -0.1619 -0.5276
   30A      C3'  946   4.488   4.145  -0.281  0.2513  0.5256  0.3282
   30A      H3'  947   4.388   4.110  -0.310 -0.1860 -0.9904  3.1996
   30A      C2'  948   4.573   4.027  -0.233 -0.1580  0.2053  0.2737
   30A     H2'1  949   4.551   3.941  -0.296  0.8864 -0.1766  0.4248
   30A      O2'  950   4.711   4.050  -0.225 -0.1172  0.0274  0.0974
   30A     HO'2  951   4.739   4.056  -0.316 -2.5172 -1.2980 -0.8049
   30A      O3'  952   4.546   4.222  -0.383 -0.2202  0.3633 -0.0665
   31G        P  953   4.584   4.155  -0.525 -0.0442  0.0857  0.1113
   31G      O1P  954   4.635   4.262  -0.614 -0.3330 -0.2318 -0.4387
   31G      O2P  955   4.467   4.075  -0.567 -0.0754 -0.0956  0.5373
   31G      O5'  956   4.706   4.055  -0.492  0.4202  0.5040 -0.3178
   31G      C5'  957   4.743   3.960  -0.588 -0.3812  0.1702 -0.3041
   31G     H5'1  958   4.799   4.018  -0.662 -2.8840 -1.1198 -3.4599
   31G     H5'2  959   4.658   3.913  -0.639 -0.6587 -1.0350  1.2051
   31G      C4'  960   4.833   3.848  -0.535 -0.7318 -0.0500 -0.1746
   31G      H4'  961   4.924   3.901  -0.510 -1.8794  1.7516  0.3737
   31G      O4'  962   4.785   3.791  -0.415 -0.1049  0.2918  0.2442
   31G      C1'  963   4.797   3.651  -0.426  0.2540  0.3251  0.1976
   31G      H1'  964   4.820   3.604  -0.330  0.0513  1.9411  1.0668
   31G       N9  965   4.663   3.597  -0.458  0.4684  0.0337 -0.2179
   31G       C8  966   4.546   3.668  -0.450  0.2856 -0.2187 -0.6199
   31G       H8  967   4.548   3.776  -0.444 -2.0767 -0.1404 -0.1456
   31G       N7  968   4.441   3.596  -0.423  0.5682 -0.1680  0.7094
   31G       C5  969   4.488   3.466  -0.437 -0.0321 -0.2949 -0.2455
   31G       C6  970   4.420   3.341  -0.426  0.1573 -0.4183 -0.4816
   31G       O6  971   4.300   3.315  -0.426  0.0555  0.0062  0.2761
   31G       N1  972   4.503   3.230  -0.428  0.1315 -0.4534  0.2109
   31G       H1  973   4.457   3.141  -0.416 -1.9326  0.5387  0.0195
   31G       C2  974   4.641   3.243  -0.430  0.0898  0.0629  0.5225
   31G       N2  975   4.719   3.135  -0.416  0.2429  0.1367  0.2329
   31G      H21  976   4.677   3.046  -0.395  1.8682 -1.0827 -1.3304
   31G      H22  977   4.818   3.151  -0.404 -0.3637  1.8874  4.8383
   31G       N3  978   4.708   3.359  -0.438 -0.1092  0.1240 -0.3392
   31G       C4  979   4.625   3.466  -0.442 -0.0210  0.2055  0.0316
   31G      C3'  980   4.867   3.741  -0.638 -0.3862  0.1799 -0.2979
   31G      H3'  981   4.768   3.727  -0.682  0.1195 -2.8155 -0.6598
   31G      C2'  982   4.894   3.627  -0.541 -0.0108  0.4696 -0.0580
   31G     H2'1  983   4.864   3.531  -0.584 -0.7578  1.2634 -1.3760
   31G      O2'  984   5.024   3.622  -0.486  0.2186 -0.5062 -0.6598
   31G     HO'2  985   5.069   3.698  -0.522  0.7753 -0.5402 -0.0463
   31G      O3'  986   4.968   3.765  -0.734  0.2044 -0.4499  0.1641
   32A        P  987   4.942   3.729  -0.888 -0.0555 -0.0324  0.1095
   32A      O1P  988   5.059   3.793  -0.953 -0.0905  0.1119  0.1899
   32A      O2P  989   4.808   3.777  -0.929  0.0963 -0.1619 -0.5562
   32A      O5'  990   4.940   3.570  -0.914  0.3698 -0.0274  0.0351
   32A      C5'  991   5.047   3.487  -0.875  0.6908  0.2673 -0.2121
   32A     H5'1  992   5.106   3.545  -0.804 -0.6764  0.0405  1.1723
   32A     H5'2  993   5.117   3.475  -0.957  2.4015 -0.9493  1.3389
   32A      C4'  994   5.009   3.345  -0.831 -0.3950  0.5268 -0.2862
   32A      H4'  995   5.094   3.289  -0.794  0.4345  0.7067 -1.8217
   32A      O4'  996   4.915   3.339  -0.726 -0.0980  0.0535 -0.0465
   32A      C1'  997   4.826   3.231  -0.743 -0.3301  0.2687 -0.1998
   32A      H1'  998   4.839   3.157  -0.664 -2.7410 -0.9665 -0.8731
   32A       N9  999   4.685   3.270  -0.761 -0.2269  0.7428  0.0042
   32A       C8 1000   4.638   3.396  -0.786 -0.6174  0.5187 -0.4022
   32A       H8 1001   4.702   3.483  -0.797  1.6447 -1.2895 -2.4920
   32A       N7 1002   4.507   3.405  -0.787 -0.6302  0.3157 -0.5748
   32A       C5 1003   4.467   3.277  -0.753  0.2172  0.2352  0.1621
   32A       C6 1004   4.343   3.214  -0.735  0.1292  0.3437 -0.0579
   32A       N6 1005   4.220   3.268  -0.730 -0.2791 -0.5395 -0.4096
   32A      H61 1006   4.221   3.368  -0.735 -0.6046 -0.5111 -0.0220
   32A      H62 1007   4.136   3.212  -0.727  0.5184 -1.7732  0.0451
   32A       N1 1008   4.341   3.082  -0.710 -0.1761  0.3160 -0.2272
   32A       C2 1009   4.455   3.017  -0.695 -0.1141  0.4370 -0.1715
   32A       H2 1010   4.439   2.916  -0.660 -0.5209  0.2117 -0.9892
   32A       N3 1011   4.579   3.061  -0.708  0.0081  0.0807 -0.2223
   32A       C4 1012   4.574   3.193  -0.737  0.1532  0.0053 -0.5901
   32A      C3' 1013   4.943   3.265  -0.944  0.4553 -0.2725 -0.2261
   32A      H3' 1014   4.863   3.318  -0.995 -2.4847  0.6366  4.6705
   32A      C2' 1015   4.875   3.154  -0.865  0.1137  0.1346  0.0601
   32A     H2'1 1016   4.793   3.107  -0.919  2.8489 -3.1162 -1.6822
   32A      O2' 1017   4.967   3.059  -0.815 -0.2098 -0.1296  0.1542
   32A     HO'2 1018   4.934   2.980  -0.860 -2.9663  1.5159 -0.9776
   32A      O3' 1019   5.043   3.218  -1.032  0.4809  0.2090 -0.4569
   33U        P 1020   5.015   3.162  -1.180  0.0741 -0.5336 -0.1053
   33U      O1P 1021   5.147   3.127  -1.235  0.1189  0.5668 -0.7406
   33U      O2P 1022   4.924   3.257  -1.248  0.0092 -0.2972  0.3053
   33U      O5' 1023   4.944   3.019  -1.160 -0.9445  0.0659  0.7054
   33U      C5' 1024   5.004   2.904  -1.103 -0.3860  0.1062  0.2088
   33U     H5'1 1025   5.054   2.930  -1.010 -0.2735  0.5643  0.0244
   33U     H5'2 1026   5.082   2.866  -1.169  0.8074  3.1366 -0.3182
   33U      C4' 1027   4.894   2.804  -1.070 -0.5997  0.1815 -0.2520
   33U      H4' 1028   4.947   2.719  -1.025  0.6587  0.9270 -0.2756
   33U      O4' 1029   4.801   2.845  -0.972  0.3070  0.3146  0.5791
   33U      C1' 1030   4.670   2.797  -0.996  0.3840  0.5125 -0.2868
   33U      H1' 1031   4.643   2.741  -0.906  3.0235  1.3577  1.1697
   33U       N1 1032   4.565   2.896  -1.026  0.0926  0.4181  0.4014
   33U       C6 1033   4.602   3.022  -1.061  0.3615  0.2608  0.1145
   33U       H6 1034   4.706   3.043  -1.084  0.4618  0.0364  0.3540
   33U       C5 1035   4.511   3.121  -1.074  0.3019  0.1814 -0.0776
   33U       H5 1036   4.545   3.219  -1.102  0.5340 -0.6046 -2.8961
   33U       C4 1037   4.371   3.098  -1.044  0.4961 -0.0432  0.7040
   33U       O4 1038   4.291   3.191  -1.037  0.2374 -0.2268  0.2141
   33U       N3 1039   4.339   2.966  -1.016 -0.3104 -0.0164 -0.0437
   33U       H3 1040   4.244   2.940  -0.993  0.7866 -3.3657  1.2982
   33U       C2 1041   4.434   2.868  -0.993  0.1088  0.5172  0.5488
   33U       O2 1042   4.393   2.760  -0.951  0.2492  0.2521  0.0136
   33U      C3' 1043   4.817   2.748  -1.189 -0.1816 -0.0446 -0.4205
   33U      H3' 1044   4.780   2.829  -1.251 -0.0586  0.9427  0.7502
   33U      C2' 1045   4.698   2.697  -1.108  0.1825 -0.0251  0.1376
   33U     H2'1 1046   4.610   2.690  -1.173  0.8565  0.2487 -0.8253
   33U      O2' 1047   4.721   2.567  -1.060 -0.5519 -0.3128 -0.2594
   33U     HO'2 1048   4.798   2.530  -1.104 -0.4289 -0.7824  0.3416
   33U      O3' 1049   4.870   2.641  -1.263  0.0053  0.0144 -0.3729
   34G        P 1050   4.822   2.610  -1.414  0.0927  0.1100 -0.4204
   34G      O1P 1051   4.909   2.501  -1.462  0.4253  0.3579 -0.3863
   34G      O2P 1052   4.821   2.744  -1.477 -0.0488  0.3279  0.0402
   34G      O5' 1053   4.672   2.553  -1.411  0.3271 -0.4854  0.1051
   34G      C5' 1054   4.643   2.417  -1.386  0.3419 -0.4012  0.6036
   34G     H5'1 1055   4.696   2.381  -1.298 -1.1953 -2.6851  0.6911
   34G     H5'2 1056   4.681   2.356  -1.468 -2.1129  0.5077 -1.3656
   34G      C4' 1057   4.498   2.378  -1.354  0.1961 -0.3063  0.0666
   34G      H4' 1058   4.499   2.273  -1.324  0.7984  0.0195  1.2477
   34G      O4' 1059   4.444   2.455  -1.249 -0.0266 -0.3960  0.0182
   34G      C1' 1060   4.309   2.486  -1.278 -0.0448  0.0096  0.5279
   34G      H1' 1061   4.239   2.460  -1.199 -0.0303  1.0732  0.9037
   34G       N9 1062   4.298   2.632  -1.296 -0.0573 -0.0474  0.0585
   34G       C8 1063   4.397   2.723  -1.322 -0.0040  0.0052  0.4324
   34G       H8 1064   4.498   2.697  -1.351 -0.8567 -1.7381 -1.1989
   34G       N7 1065   4.350   2.844  -1.323  0.4046  0.1674 -0.2929
   34G       C5 1066   4.214   2.827  -1.302  0.4693 -0.3341 -0.2716
   34G       C6 1067   4.117   2.931  -1.295  0.4479 -0.3600 -0.1986
   34G       O6 1068   4.122   3.052  -1.318 -0.1576 -0.3355 -0.1973
   34G       N1 1069   3.991   2.880  -1.269  0.6356 -0.4121  0.6492
   34G       H1 1070   3.920   2.951  -1.259  0.4656 -0.5431  0.3836
   34G       C2 1071   3.959   2.746  -1.264 -0.2673 -0.1935  0.9170
   34G       N2 1072   3.829   2.711  -1.267 -0.3550  0.1891 -0.3579
   34G      H21 1073   3.759   2.782  -1.253 -1.2860 -1.0495  1.7282
   34G      H22 1074   3.814   2.613  -1.249 -0.2978  0.3361  0.5194
   34G       N3 1075   4.051   2.649  -1.272 -0.1202  0.0256 -0.1858
   34G       C4 1076   4.177   2.696  -1.284  0.0350 -0.0471  1.0676
   34G      C3' 1077   4.412   2.399  -1.478  0.2434 -0.1125  0.0646
   34G      H3' 1078   4.442   2.496  -1.518 -0.3737  0.0054 -0.1249
   34G      C2' 1079   4.278   2.410  -1.407  0.4564 -0.0971  0.4643
   34G     H2'1 1080   4.217   2.472  -1.473  0.6835  0.0806  0.4211
   34G      O2' 1081   4.217   2.284  -1.392  0.2195 -0.0180  0.1672
   34G     HO'2 1082   4.283   2.216  -1.410 -1.7488 -2.8156  2.5625
   34G      O3' 1083   4.432   2.295  -1.571  0.3811  0.0409 -0.0781
   35C        P 1084   4.393   2.325  -1.725 -0.4359  0.2653  0.1677
   35C      O1P 1085   4.385   2.191  -1.786 -0.4412  0.2396  0.2244
   35C      O2P 1086   4.492   2.422  -1.776 -0.3218  0.1997  0.2648
   35C      O5' 1087   4.246   2.392  -1.727 -0.5930 -0.0846 -0.1811
   35C      C5' 1088   4.133   2.310  -1.716 -0.5051 -0.2492 -0.4797
   35C     H5'1 1089   4.147   2.231  -1.641 -2.3446  0.5246  0.7539
   35C     H5'2 1090   4.132   2.265  -1.815  2.5130 -0.5573 -0.4602
   35C      C4' 1091   4.000   2.385  -1.699 -0.3006 -0.0459  0.2783
   35C      H4' 1092   3.927   2.313  -1.662 -1.0322  0.1738 -0.7091
   35C      O4' 1093   4.021   2.476  -1.594  0.7611  0.2181 -0.1412
   35C      C1' 1094   3.926   2.579  -1.615  0.5274 -0.0109 -0.2095
   35C      H1' 1095   3.855   2.578  -1.532 -1.1139 -0.5107 -1.5674
   35C       N1 1096   3.983   2.713  -1.634 -0.0914  0.2630 -0.1686
   35C       C6 1097   4.117   2.725  -1.659 -0.0506 -0.1036 -0.1276
   35C       H6 1098   4.177   2.636  -1.674  0.6492  0.5370 -1.2453
   35C       C5 1099   4.169   2.847  -1.682  0.0959 -0.2740 -0.7196
   35C       H5 1100   4.274   2.860  -1.703  0.4194 -2.6537 -0.7899
   35C       C4 1101   4.081   2.959  -1.665  0.5623  0.0186 -0.2129
   35C       N4 1102   4.128   3.084  -1.655  0.4842 -0.0133  0.6083
   35C      H41 1103   4.228   3.095  -1.668  0.3160  2.1936  0.6807
   35C      H42 1104   4.066   3.164  -1.661  1.5486  1.0212  2.3508
   35C       N3 1105   3.948   2.947  -1.654  0.5433  0.0168 -0.4336
   35C       C2 1106   3.898   2.822  -1.641 -0.0596  0.3061  0.0949
   35C       O2 1107   3.777   2.815  -1.624  0.0178  0.2652  0.6546
   35C      C3' 1108   3.947   2.466  -1.817 -0.4520 -0.1607  0.2670
   35C      H3' 1109   4.018   2.540  -1.853  0.0155 -0.6580  0.1543
   35C      C2' 1110   3.841   2.542  -1.737 -0.1914  0.2854  0.1934
   35C     H2'1 1111   3.796   2.624  -1.792  2.2292  0.1065 -2.2704
   35C      O2' 1112   3.738   2.455  -1.697  0.0428 -0.2351 -0.3085
   35C     HO'2 1113   3.729   2.395  -1.771  0.5622 -0.5486 -0.1178
   35C      O3' 1114   3.885   2.396  -1.922 -0.0796 -0.0364 -0.0414
   36C        P 1115   3.867   2.469  -2.064 -0.0252  0.2063  0.0757
   36C      O1P 1116   3.824   2.364  -2.160 -0.8485  0.3777  0.2436
   36C      O2P 1117   3.984   2.557  -2.085 -0.3417  0.7106  0.3954
   36C      O5' 1118   3.739   2.564  -2.040 -0.2222 -0.1165  0.3099
   36C      C5' 1119   3.608   2.511  -2.036 -0.2957  0.0241 -0.1836
   36C     H5'1 1120   3.606   2.432  -1.961 -0.0447 -0.6970 -0.9261
   36C     H5'2 1121   3.573   2.467  -2.129 -0.7968 -0.4555  0.2207
   36C      C4' 1122   3.502   2.612  -1.995 -0.3480 -0.1685  0.1563
   36C      H4' 1123   3.416   2.556  -1.956 -0.1997  0.1494  0.9641
   36C      O4' 1124   3.550   2.694  -1.890 -0.4577  0.0963  0.0020
   36C      C1' 1125   3.506   2.828  -1.896  0.0450  0.2638  0.0315
   36C      H1' 1126   3.461   2.852  -1.799  0.5342  1.8306 -0.1091
   36C       N1 1127   3.619   2.921  -1.910  0.1894  0.2108  0.8003
   36C       C6 1128   3.735   2.880  -1.969 -0.2663  0.0338  0.0181
   36C       H6 1129   3.736   2.782  -2.015 -2.4872 -0.6851  1.3405
   36C       C5 1130   3.851   2.948  -1.960 -0.0743 -0.2051 -0.5792
   36C       H5 1131   3.947   2.908  -1.988 -0.3136 -1.0681 -0.1777
   36C       C4 1132   3.838   3.082  -1.910 -0.3459 -0.4848  0.1184
   36C       N4 1133   3.946   3.161  -1.899 -0.2131 -0.6689  0.1240
   36C      H41 1134   4.032   3.115  -1.927 -0.1016  0.3440 -1.2944
   36C      H42 1135   3.932   3.251  -1.856  0.7221 -0.1872 -0.5577
   36C       N3 1136   3.721   3.134  -1.870  0.2421  0.1186  1.0976
   36C       C2 1137   3.611   3.055  -1.875  0.2286  0.1403  1.0768
   36C       O2 1138   3.501   3.102  -1.849 -0.3013 -0.2573 -0.3484
   36C      C3' 1139   3.450   2.714  -2.097 -0.0384  0.1421  0.3076
   36C      H3' 1140   3.537   2.740  -2.158 -0.7649  0.3779 -0.6416
   36C      C2' 1141   3.403   2.828  -2.008 -0.1311  0.1926  0.1920
   36C     H2'1 1142   3.409   2.916  -2.073 -0.7854 -0.1900 -0.3980
   36C      O2' 1143   3.273   2.817  -1.954  0.0390  0.1007  0.5829
   36C     HO'2 1144   3.221   2.779  -2.025  3.5394 -0.4631 -1.9774
   36C      O3' 1145   3.349   2.669  -2.184 -0.0453  0.0846  0.3452
   37C        P 1146   3.332   2.729  -2.332 -0.0684 -0.1933  0.2337
   37C      O1P 1147   3.200   2.681  -2.378  0.3100 -0.5045 -0.5495
   37C      O2P 1148   3.457   2.691  -2.402 -0.2325 -0.1486 -0.0849
   37C      O5' 1149   3.322   2.889  -2.315 -0.3512 -0.0563 -1.0707
   37C      C5' 1150   3.199   2.954  -2.295 -0.0260  0.2550 -0.0216
   37C     H5'1 1151   3.150   2.909  -2.208  0.3517 -0.5293 -0.2030
   37C     H5'2 1152   3.139   2.936  -2.384 -0.7949 -1.3127  0.7668
   37C      C4' 1153   3.206   3.105  -2.276 -0.3853  0.2580  0.0970
   37C      H4' 1154   3.102   3.132  -2.258 -0.3207  0.5189  0.0881
   37C      O4' 1155   3.302   3.149  -2.183 -0.5882  0.2274  0.3214
   37C      C1' 1156   3.357   3.271  -2.227 -0.2402  0.0155  0.1641
   37C      H1' 1157   3.328   3.362  -2.174 -1.2255  0.4345 -1.0396
   37C       N1 1158   3.504   3.276  -2.236 -0.2537  0.2202  0.0478
   37C       C6 1159   3.572   3.158  -2.253  0.4756  0.6186  0.1745
   37C       H6 1160   3.506   3.074  -2.265 -1.7136  2.0643  1.4202
   37C       C5 1161   3.706   3.150  -2.240  0.4120  0.1467  0.5457
   37C       H5 1162   3.758   3.055  -2.244  1.7591  0.8394 -3.7187
   37C       C4 1163   3.769   3.277  -2.216  0.3032  0.2651  0.2147
   37C       N4 1164   3.902   3.281  -2.202  0.3637  0.9296 -0.4972
   37C      H41 1165   3.952   3.193  -2.211 -2.0084 -0.5855  0.1556
   37C      H42 1166   3.956   3.366  -2.194 -0.0868  1.1465  0.3474
   37C       N3 1167   3.708   3.396  -2.217  0.2853  0.2595  0.4815
   37C       C2 1168   3.573   3.395  -2.230  0.3382 -0.1123 -0.0651
   37C       O2 1169   3.514   3.503  -2.233  0.6283  0.0345 -0.6857
   37C      C3' 1170   3.250   3.161  -2.412  0.0127 -0.1366  0.0626
   37C      H3' 1171   3.330   3.097  -2.449 -1.1075 -1.6843  0.1779
   37C      C2' 1172   3.298   3.298  -2.365 -0.5432 -0.0138  0.2874
   37C     H2'1 1173   3.366   3.354  -2.429 -1.4435  1.9876  1.0111
   37C      O2' 1174   3.190   3.386  -2.347  0.1278  0.9374 -0.2167
   37C     HO'2 1175   3.143   3.384  -2.431 -1.4555  0.3332  0.6281
   37C      O3' 1176   3.152   3.180  -2.511 -0.1615 -0.1861  0.2248
   38U        P 1177   3.197   3.209  -2.663 -0.5156 -0.1741  0.1198
   38U      O1P 1178   3.068   3.217  -2.733 -0.4682 -0.3298  0.0155
   38U      O2P 1179   3.290   3.098  -2.696  0.2640  0.5085 -0.0118
   38U      O5' 1180   3.272   3.351  -2.675 -0.0177 -0.4430  0.0211
   38U      C5' 1181   3.191   3.466  -2.676 -0.0084 -0.4374 -0.1173
   38U     H5'1 1182   3.103   3.462  -2.612 -0.1361  0.1868 -0.2424
   38U     H5'2 1183   3.147   3.476  -2.775 -2.2311  0.2094  0.8803
   38U      C4' 1184   3.284   3.584  -2.650 -0.1959 -0.2158 -0.4388
   38U      H4' 1185   3.222   3.673  -2.635 -2.2581 -1.5746 -0.6113
   38U      O4' 1186   3.357   3.564  -2.530 -0.1581  0.1265 -0.4013
   38U      C1' 1187   3.481   3.628  -2.546 -0.0869  0.0842 -0.0251
   38U      H1' 1188   3.494   3.696  -2.462 -1.7385  0.5419 -0.1195
   38U       N1 1189   3.598   3.539  -2.531 -0.0945  0.0817  0.0224
   38U       C6 1190   3.590   3.406  -2.561  0.2282  0.2257 -0.7256
   38U       H6 1191   3.498   3.362  -2.594 -0.6718  1.6520 -0.1897
   38U       C5 1192   3.703   3.332  -2.560  0.1777  0.1439  0.6945
   38U       H5 1193   3.696   3.225  -2.568  1.0308  0.1241  0.0370
   38U       C4 1194   3.831   3.387  -2.521  0.7111 -0.2825 -0.4316
   38U       O4 1195   3.934   3.322  -2.502  0.6696 -0.1223  0.3395
   38U       N3 1196   3.831   3.525  -2.505 -0.0470 -0.3764  0.3862
   38U       H3 1197   3.916   3.572  -2.479  0.4489 -1.5760  1.0055
   38U       C2 1198   3.717   3.605  -2.509  0.0447 -0.2508  0.2774
   38U       O2 1199   3.726   3.727  -2.494  0.2483 -0.2211 -0.0619
   38U      C3' 1200   3.381   3.632  -2.757  0.3161  0.3467  0.2625
   38U      H3' 1201   3.435   3.541  -2.783  1.0086  0.1967  2.1072
   38U      C2' 1202   3.483   3.710  -2.674  0.4005  0.3538  0.1516
   38U     H2'1 1203   3.577   3.711  -2.729  0.1655 -0.6457 -0.2855
   38U      O2' 1204   3.433   3.834  -2.629  0.4973  0.5343 -0.2245
   38U     HO'2 1205   3.413   3.880  -2.711 -1.0462 -0.1330 -0.2615
   38U      O3' 1206   3.324   3.697  -2.868 -0.0238 -0.0418  0.2079
   39U        P 1207   3.369   3.668  -3.020 -0.2948  0.2841  0.0627
   39U      O1P 1208   3.267   3.720  -3.113 -0.6887 -0.1904  0.2251
   39U      O2P 1209   3.413   3.527  -3.031  0.2274  0.4536 -0.0409
   39U      O5' 1210   3.499   3.761  -3.036  0.2152 -0.5142 -0.5166
   39U      C5' 1211   3.486   3.902  -3.036  0.4249 -0.4868  0.4748
   39U     H5'1 1212   3.410   3.926  -2.962 -0.8290  0.8071 -1.1604
   39U     H5'2 1213   3.449   3.932  -3.134 -0.8352 -0.1031  1.0469
   39U      C4' 1214   3.620   3.963  -2.998  0.4755 -0.1530 -0.2233
   39U      H4' 1215   3.605   4.068  -2.971 -2.5729 -0.4792 -0.3504
   39U      O4' 1216   3.674   3.896  -2.886  0.4341 -0.2320 -0.2502
   39U      C1' 1217   3.815   3.895  -2.891  0.4505 -0.0239  0.0871
   39U      H1' 1218   3.852   3.958  -2.811 -0.6203 -2.1715  2.4205
   39U       N1 1219   3.875   3.762  -2.873 -0.1254 -0.3250 -0.1624
   39U       C6 1220   3.797   3.652  -2.896 -0.0700 -0.3761 -0.1072
   39U       H6 1221   3.693   3.662  -2.923  0.2080  0.7172 -0.8761
   39U       C5 1222   3.848   3.530  -2.869 -0.0351 -0.1984  0.6351
   39U       H5 1223   3.780   3.447  -2.886 -0.3267  0.3676 -1.1538
   39U       C4 1224   3.987   3.511  -2.834  0.2588  0.4136 -0.1698
   39U       O4 1225   4.034   3.398  -2.826 -0.0778  0.2992  0.2424
   39U       N3 1226   4.059   3.627  -2.809 -0.4119  0.6877  0.5653
   39U       H3 1227   4.159   3.624  -2.793 -0.4130  1.6354  0.8392
   39U       C2 1228   4.007   3.754  -2.832 -0.1802  0.7246  0.2426
   39U       O2 1229   4.076   3.855  -2.814  0.5796  0.4058 -0.7522
   39U      C3' 1230   3.730   3.944  -3.103  0.1921 -0.1313 -0.5246
   39U      H3' 1231   3.723   3.842  -3.138 -1.7799 -0.5976  1.0325
   39U      C2' 1232   3.857   3.963  -3.021  0.0635 -0.4286 -0.2538
   39U     H2'1 1233   3.933   3.910  -3.079  0.3292  0.5260 -0.8053
   39U      O2' 1234   3.904   4.094  -2.998 -0.2488 -0.3759  0.0916
   39U     HO'2 1235   3.994   4.098  -3.033 -0.3151 -0.9393 -0.1603
   39U      O3' 1236   3.719   4.041  -3.205 -0.2250  0.1548 -0.2191
   40C        P 1237   3.802   4.032  -3.343  0.0699  0.1654 -0.0439
   40C      O1P 1238   3.761   4.153  -3.417  0.5133  0.6359  0.4675
   40C      O2P 1239   3.787   3.896  -3.399 -0.1378  0.2347 -0.1585
   40C      O5' 1240   3.957   4.043  -3.302  0.0606  0.5756 -0.1171
   40C      C5' 1241   4.009   4.173  -3.280 -0.3453  0.6844  0.2162
   40C     H5'1 1242   3.941   4.229  -3.216 -1.3697 -0.5351  0.2424
   40C     H5'2 1243   4.020   4.227  -3.374  1.4003  0.3167  0.1671
   40C      C4' 1244   4.146   4.167  -3.213 -0.0386 -0.5432 -0.4843
   40C      H4' 1245   4.178   4.265  -3.177  1.2364 -1.7154  1.7660
   40C      O4' 1246   4.146   4.082  -3.101 -0.0796 -0.0906 -0.1424
   40C      C1' 1247   4.269   4.016  -3.091 -0.0079 -0.0160 -0.5205
   40C      H1' 1248   4.305   4.031  -2.989 -0.8540 -2.8878  0.3066
   40C       N1 1249   4.255   3.870  -3.106 -0.2860 -0.0538  0.0832
   40C       C6 1250   4.156   3.812  -3.180 -0.5830  0.3532  0.1625
   40C       H6 1251   4.088   3.875  -3.235  0.1692  1.6563  0.6801
   40C       C5 1252   4.141   3.678  -3.175 -0.4300  0.3377  0.1971
   40C       H5 1253   4.072   3.631  -3.244  0.3132 -1.2859  0.5140
   40C       C4 1254   4.238   3.599  -3.105  0.0423  0.7028 -0.0421
   40C       N4 1255   4.221   3.467  -3.092  0.1978  0.6628 -0.2416
   40C      H41 1256   4.151   3.422  -3.149  0.0300 -0.0432  0.5007
   40C      H42 1257   4.268   3.406  -3.026 -2.3614 -1.8507 -0.5324
   40C       N3 1258   4.343   3.655  -3.043  0.1979 -0.0130  0.3496
   40C       C2 1259   4.348   3.790  -3.041 -0.1626  0.0082 -0.0192
   40C       O2 1260   4.441   3.843  -2.980  0.3924 -0.4008 -0.5023
   40C      C3' 1261   4.259   4.117  -3.303  0.3576 -0.1178 -0.2265
   40C      H3' 1262   4.217   4.030  -3.353  1.1965  0.0257 -1.2004
   40C      C2' 1263   4.361   4.065  -3.202  0.3837 -0.0115 -0.1963
   40C     H2'1 1264   4.412   3.977  -3.241 -0.3401 -1.1640  1.3440
   40C      O2' 1265   4.442   4.161  -3.137 -0.1941  0.3621 -0.0300
   40C     HO'2 1266   4.533   4.153  -3.165 -0.3279  0.6991 -0.5685
   40C      O3' 1267   4.306   4.208  -3.400  0.7676  0.0310  0.1096
   41C        P 1268   4.398   4.166  -3.525 -0.0991 -0.0202 -0.5194
   41C      O1P 1269   4.401   4.285  -3.612 -0.4563  0.4168  0.0641
   41C      O2P 1270   4.338   4.043  -3.581 -0.7517  0.0311  0.0563
   41C      O5' 1271   4.547   4.120  -3.482  0.0556  0.8616 -0.0835
   41C      C5' 1272   4.626   4.207  -3.405  0.0057  0.3473  0.5602
   41C     H5'1 1273   4.571   4.262  -3.330 -0.3459  0.8192 -0.0368
   41C     H5'2 1274   4.667   4.286  -3.468  1.4468  0.0097  1.0265
   41C      C4' 1275   4.745   4.143  -3.332  0.3960  0.1713 -0.2184
   41C      H4' 1276   4.800   4.216  -3.273  1.3937  0.3445 -1.3113
   41C      O4' 1277   4.683   4.049  -3.248  0.3185  0.1193 -0.3324
   41C      C1' 1278   4.774   3.943  -3.224  0.0909  0.0988  0.4721
   41C      H1' 1279   4.811   3.961  -3.123 -0.2143 -0.4947  0.6988
   41C       N1 1280   4.708   3.813  -3.247  0.4517  0.0550 -0.3520
   41C       C6 1281   4.586   3.805  -3.307  0.6819 -0.5954 -0.7386
   41C       H6 1282   4.538   3.888  -3.356  1.2666 -0.7902 -1.6707
   41C       C5 1283   4.519   3.688  -3.314 -0.5739  0.0606 -0.0241
   41C       H5 1284   4.422   3.672  -3.357 -1.1788  2.3043  0.3876
   41C       C4 1285   4.589   3.575  -3.261 -0.1818  0.3829  0.1538
   41C       N4 1286   4.527   3.456  -3.257 -0.0819  0.3267  0.0422
   41C      H41 1287   4.434   3.439  -3.293 -0.8727  0.1253  2.0555
   41C      H42 1288   4.581   3.375  -3.229 -0.5898  0.7672  2.5503
   41C       N3 1289   4.718   3.570  -3.224 -0.1413  0.1239 -0.0159
   41C       C2 1290   4.773   3.694  -3.218  0.2214 -0.0276 -0.1717
   41C       O2 1291   4.891   3.698  -3.184 -0.0967  0.5460  0.9192
   41C      C3' 1292   4.844   4.066  -3.418  0.2052 -0.1306 -0.1699
   41C      H3' 1293   4.802   4.019  -3.507  3.7105 -1.5512 -1.2615
   41C      C2' 1294   4.895   3.967  -3.314 -0.3655 -0.6134 -0.3456
   41C     H2'1 1295   4.921   3.869  -3.355 -0.1796 -1.7602  2.2905
   41C      O2' 1296   5.010   4.023  -3.255 -0.2497 -0.5842 -0.5980
   41C     HO'2 1297   5.065   4.075  -3.314 -1.3113 -0.8643 -1.8767
   41C      O3' 1298   4.952   4.147  -3.459  0.0625 -0.0148 -0.3155
   42G        P 1299   5.018   4.154  -3.606  0.0030 -0.2709 -0.3564
   42G      O1P 1300   5.108   4.272  -3.604 -0.0688 -0.2214  0.4153
   42G      O2P 1301   4.909   4.139  -3.705 -0.0906 -0.4515 -0.2247
   42G      O5' 1302   5.105   4.019  -3.619 -0.0163 -0.3445  0.2657
   42G      C5' 1303   5.232   4.009  -3.559  0.2898 -0.3648 -0.3791
   42G     H5'1 1304   5.238   4.047  -3.457  0.6331 -2.3155  0.3751
   42G     H5'2 1305   5.296   4.064  -3.628 -0.1654  0.1817 -0.3746
   42G      C4' 1306   5.269   3.861  -3.549  0.4059 -0.3250 -0.2079
   42G      H4' 1307   5.368   3.857  -3.505  0.8382 -2.9042 -1.2011
   42G      O4' 1308   5.176   3.791  -3.470 -0.1075 -0.0736 -0.5770
   42G      C1' 1309   5.188   3.654  -3.500 -0.0422 -0.2257  0.1130
   42G      H1' 1310   5.221   3.590  -3.418 -1.6220 -0.4276  0.6315
   42G       N9 1311   5.052   3.620  -3.547 -0.0666  0.0322 -0.0036
   42G       C8 1312   4.944   3.703  -3.567 -0.1184  0.1436  0.7121
   42G       H8 1313   4.944   3.810  -3.582  0.2356 -0.0969 -1.3206
   42G       N7 1314   4.834   3.634  -3.569  0.0293 -0.0890 -0.6166
   42G       C5 1315   4.868   3.500  -3.556  0.0577 -0.0476 -0.2532
   42G       C6 1316   4.791   3.381  -3.552 -0.0451  0.0275  0.0532
   42G       O6 1317   4.669   3.365  -3.566 -0.0044  0.0725 -0.3817
   42G       N1 1318   4.866   3.267  -3.527  0.0649  0.1041  0.0719
   42G       H1 1319   4.810   3.182  -3.525 -2.4543  1.6610 -0.0660
   42G       C2 1320   4.999   3.274  -3.492  0.0330 -0.0464  0.2280
   42G       N2 1321   5.058   3.160  -3.453 -0.1619 -0.0929  0.3859
   42G      H21 1322   5.001   3.077  -3.444  1.0450 -0.7983  2.1541
   42G      H22 1323   5.157   3.148  -3.439  0.4402 -0.5321 -3.1912
   42G       N3 1324   5.076   3.382  -3.506 -0.0619  0.0233  0.2446
   42G       C4 1325   5.003   3.492  -3.539  0.0449 -0.0188 -0.1395
   42G      C3' 1326   5.263   3.788  -3.683 -0.3501  0.1010 -0.4174
   42G      H3' 1327   5.169   3.792  -3.738  0.3508 -1.5429 -1.8258
   42G      C2' 1328   5.275   3.647  -3.625 -0.0780  0.3160  0.0569
   42G     H2'1 1329   5.247   3.563  -3.689 -2.0543 -0.9375  2.4216
   42G      O2' 1330   5.408   3.623  -3.585 -0.1503 -0.8549 -0.3780
   42G     HO'2 1331   5.459   3.650  -3.662  0.3496  2.9487  1.0972
   42G      O3' 1332   5.376   3.809  -3.766 -0.0411 -0.0071 -0.0266
   43U        P 1333   5.371   3.782  -3.924 -0.0156  0.2752 -0.0773
   43U      O1P 1334   5.506   3.811  -3.977  0.1877 -0.5048  0.0081
   43U      O2P 1335   5.258   3.864  -3.974 -0.2434  0.1699  0.2572
   43U      O5' 1336   5.344   3.624  -3.940  0.1769  0.2556 -0.2136
   43U      C5' 1337   5.452   3.533  -3.932  0.0535  0.0425 -0.9595
   43U     H5'1 1338   5.514   3.548  -3.844  0.3770  1.6459 -1.4175
   43U     H5'2 1339   5.510   3.539  -4.024  3.3795 -1.3431  0.8740
   43U      C4' 1340   5.397   3.391  -3.929  0.2976 -0.0378 -0.3600
   43U      H4' 1341   5.484   3.326  -3.914 -0.3031 -0.9884 -0.9020
   43U      O4' 1342   5.304   3.385  -3.823  0.0476  0.2196 -0.5646
   43U      C1' 1343   5.208   3.286  -3.852 -0.2151  0.4099 -0.3483
   43U      H1' 1344   5.219   3.202  -3.783  0.8172 -0.6470 -1.7533
   43U       N1 1345   5.068   3.333  -3.850 -0.3451  0.0378 -0.7628
   43U       C6 1346   5.032   3.462  -3.873  0.0902  0.3537  0.2830
   43U       H6 1347   5.111   3.535  -3.883  0.4918 -0.1964 -0.7178
   43U       C5 1348   4.903   3.497  -3.890  0.0075 -0.0522  0.0799
   43U       H5 1349   4.869   3.597  -3.911 -0.7346 -0.3534 -0.2230
   43U       C4 1350   4.798   3.398  -3.881 -0.3583  0.3092 -0.1774
   43U       O4 1351   4.677   3.414  -3.895 -0.4424 -0.2264 -0.0788
   43U       N3 1352   4.845   3.269  -3.859 -0.1385  0.3489 -0.4179
   43U       H3 1353   4.783   3.191  -3.873  2.3784 -1.6261 -1.3149
   43U       C2 1354   4.977   3.230  -3.837 -0.2487  0.0012 -0.3722
   43U       O2 1355   5.008   3.113  -3.818  0.3267  0.2792  0.4958
   43U      C3' 1356   5.331   3.333  -4.053 -0.1625 -0.1270 -0.0760
   43U      H3' 1357   5.268   3.415  -4.086  0.1992  1.0813  2.0693
   43U      C2' 1358   5.243   3.227  -3.988 -0.0054 -0.2244 -0.0225
   43U     H2'1 1359   5.157   3.215  -4.053  1.8042 -0.5341 -2.4960
   43U      O2' 1360   5.315   3.111  -3.951 -0.1634 -0.3451 -0.0941
   43U     HO'2 1361   5.322   3.056  -4.030  0.8153  0.4073 -0.5601
   43U      O3' 1362   5.420   3.279  -4.149 -0.0791  0.4970 -0.3570
   44A        P 1363   5.364   3.240  -4.295 -0.3528  0.0443 -0.1352
   44A      O1P 1364   5.484   3.213  -4.378 -0.1132 -0.5447  0.3905
   44A      O2P 1365   5.271   3.350  -4.328 -0.6801 -0.1315  0.1936
   44A      O5' 1366   5.276   3.106  -4.288 -0.5897  0.1715 -0.6059
   44A      C5' 1367   5.348   2.985  -4.278 -0.0028  0.5465 -0.2855
   44A     H5'1 1368   5.426   2.994  -4.202  2.5681 -0.6425 -2.6294
   44A     H5'2 1369   5.404   2.961  -4.368  0.7634 -0.6018  0.4767
   44A      C4' 1370   5.249   2.876  -4.237  0.8042  0.1561  0.6903
   44A      H4' 1371   5.312   2.790  -4.217 -1.4407 -1.9801 -0.8973
   44A      O4' 1372   5.172   2.905  -4.123 -0.3871  0.4542 -0.1770
   44A      C1' 1373   5.042   2.851  -4.135 -0.3186  0.3592 -0.5002
   44A      H1' 1374   5.029   2.787  -4.047 -0.6180 -2.4818 -2.4569
   44A       N9 1375   4.940   2.954  -4.160 -0.8711  0.0895  0.5836
   44A       C8 1376   4.969   3.081  -4.201  0.2144 -0.0991  0.7307
   44A       H8 1377   5.067   3.121  -4.222  0.6507 -1.6284 -0.3360
   44A       N7 1378   4.861   3.153  -4.212  0.1123 -0.3643 -0.0536
   44A       C5 1379   4.755   3.076  -4.166 -0.2206  0.0273 -0.1543
   44A       C6 1380   4.616   3.085  -4.144 -0.2076  0.2740 -0.1634
   44A       N6 1381   4.543   3.195  -4.161 -0.2535  0.2659 -0.0244
   44A      H61 1382   4.594   3.277  -4.194 -0.4280  0.6675  0.6854
   44A      H62 1383   4.452   3.196  -4.118 -0.6647 -1.1104 -0.8133
   44A       N1 1384   4.544   2.980  -4.102 -0.0927  0.5638  0.7885
   44A       C2 1385   4.607   2.863  -4.095 -0.2941  0.3358 -0.7172
   44A       H2 1386   4.555   2.782  -4.046 -3.1868  1.2704 -2.0133
   44A       N3 1387   4.736   2.837  -4.112 -0.1543 -0.3348  1.1402
   44A       C4 1388   4.803   2.949  -4.147 -0.9315 -0.2435 -0.1265
   44A      C3' 1389   5.154   2.821  -4.343  1.0971 -0.1638  0.5891
   44A      H3' 1390   5.115   2.908  -4.396  0.8680 -1.1069 -0.8256
   44A      C2' 1391   5.049   2.755  -4.253  0.2881  0.0260 -0.1993
   44A     H2'1 1392   4.954   2.733  -4.302 -0.1112  0.7657  0.2354
   44A      O2' 1393   5.094   2.633  -4.197 -0.2543 -0.2131 -0.2789
   44A     HO'2 1394   5.096   2.561  -4.260  0.1957 -0.3792 -0.0755
   44A      O3' 1395   5.213   2.738  -4.439 -0.0643  0.0758 -0.3590
   45G        P 1396   5.144   2.694  -4.578  0.1819 -0.2242 -0.3905
   45G      O1P 1397   5.232   2.600  -4.649  0.0789  0.0297 -0.8600
   45G      O2P 1398   5.107   2.819  -4.648  0.3831 -0.0282 -0.1504
   45G      O5' 1399   5.006   2.622  -4.535  0.0355  0.2038 -0.1356
   45G      C5' 1400   5.002   2.488  -4.494  0.0450  0.3872  0.4817
   45G     H5'1 1401   5.073   2.467  -4.415  0.5617  4.7608  1.3818
   45G     H5'2 1402   5.025   2.435  -4.587 -1.9944 -3.4789  1.9396
   45G      C4' 1403   4.865   2.443  -4.443  0.1346 -0.0932  0.3044
   45G      H4' 1404   4.875   2.338  -4.414  1.3054 -0.6743 -1.9618
   45G      O4' 1405   4.821   2.526  -4.338 -0.0483  0.2681 -0.0597
   45G      C1' 1406   4.681   2.536  -4.351 -0.0864  0.3363  0.3784
   45G      H1' 1407   4.635   2.514  -4.255  1.5342 -0.6901  0.9513
   45G       N9 1408   4.636   2.673  -4.379 -0.3785  0.2161  0.2548
   45G       C8 1409   4.709   2.778  -4.429 -0.2867  0.0506  0.0453
   45G       H8 1410   4.815   2.767  -4.449 -0.5063 -0.9093 -0.6988
   45G       N7 1411   4.636   2.885  -4.440  0.2135  0.3972  0.0683
   45G       C5 1412   4.507   2.845  -4.407  0.2547  0.3169  0.1307
   45G       C6 1413   4.386   2.919  -4.407 -0.1014 -0.2573  0.4267
   45G       O6 1414   4.365   3.038  -4.432 -0.5288 -0.4423 -0.1215
   45G       N1 1415   4.269   2.849  -4.380 -0.0868 -0.4787 -0.0732
   45G       H1 1416   4.181   2.899  -4.383 -0.2549 -0.7804 -0.2173
   45G       C2 1417   4.276   2.716  -4.347  0.2438 -0.4479 -0.0238
   45G       N2 1418   4.167   2.653  -4.300  0.0768 -0.1725 -0.0443
   45G      H21 1419   4.074   2.692  -4.297  0.0542 -0.0973 -1.1264
   45G      H22 1420   4.177   2.554  -4.286  0.9876 -0.0952 -0.0356
   45G       N3 1421   4.390   2.645  -4.346  0.2367 -0.4563  0.3664
   45G       C4 1422   4.503   2.710  -4.382 -0.3525  0.2693 -0.2049
   45G      C3' 1423   4.759   2.444  -4.552  0.0832 -0.4838  0.3470
   45G      H3' 1424   4.761   2.539  -4.605 -2.5757 -1.0541 -0.9728
   45G      C2' 1425   4.637   2.438  -4.460  0.2818 -0.1226  0.6363
   45G     H2'1 1426   4.544   2.467  -4.509  1.5235  2.1524 -0.5811
   45G      O2' 1427   4.621   2.316  -4.393  0.2806 -0.7706 -0.5156
   45G     HO'2 1428   4.682   2.256  -4.437  1.1247 -0.2865 -0.0220
   45G      O3' 1429   4.755   2.331  -4.636 -0.2897 -0.2182  0.0003
   46A        P 1430   4.681   2.321  -4.779 -0.0253 -0.1242 -0.1440
   46A      O1P 1431   4.705   2.183  -4.827 -0.2253 -0.1997 -0.0314
   46A      O2P 1432   4.727   2.435  -4.860  0.5630 -0.1523  0.1420
   46A      O5' 1433   4.524   2.351  -4.762 -0.1190 -0.3959 -0.5286
   46A      C5' 1434   4.435   2.261  -4.699 -0.6711  0.3255 -0.2694
   46A     H5'1 1435   4.484   2.243  -4.603  0.6052 -0.8621 -1.1121
   46A     H5'2 1436   4.430   2.166  -4.750 -0.2154  0.8581 -1.3331
   46A      C4' 1437   4.287   2.296  -4.683 -0.8216 -0.5362  0.2481
   46A      H4' 1438   4.231   2.214  -4.637  0.3251 -0.4388  1.9113
   46A      O4' 1439   4.275   2.407  -4.598 -0.0188 -0.2778  0.0372
   46A      C1' 1440   4.176   2.501  -4.635 -0.1019 -0.1938  0.4622
   46A      H1' 1441   4.101   2.521  -4.559 -2.9996 -1.3757 -1.8719
   46A       N9 1442   4.239   2.627  -4.676 -0.1424 -0.1381  0.5694
   46A       C8 1443   4.366   2.658  -4.718 -0.5105  0.2564 -0.2903
   46A       H8 1444   4.447   2.586  -4.718 -0.2031  0.5654  1.2029
   46A       N7 1445   4.382   2.784  -4.745  0.2590  0.1952 -0.1352
   46A       C5 1446   4.261   2.848  -4.719  0.4410  0.1508  0.8698
   46A       C6 1447   4.203   2.976  -4.717 -0.1750 -0.1191  0.6132
   46A       N6 1448   4.259   3.093  -4.750 -0.3600 -0.2006  0.0079
   46A      H61 1449   4.357   3.095  -4.772 -0.2307 -0.2098  0.5813
   46A      H62 1450   4.219   3.184  -4.731  2.3717  1.1257 -0.1201
   46A       N1 1451   4.072   2.992  -4.698 -0.2253  0.1754  0.0308
   46A       C2 1452   3.997   2.887  -4.670 -0.1144  0.0285 -0.2135
   46A       H2 1453   3.893   2.909  -4.649 -0.0363 -0.0473  0.2814
   46A       N3 1454   4.044   2.764  -4.652  0.1781  0.1568 -0.0926
   46A       C4 1455   4.176   2.749  -4.678  0.2250  0.0516  0.2009
   46A      C3' 1456   4.217   2.331  -4.814  0.4223  0.4152 -0.1808
   46A      H3' 1457   4.288   2.393  -4.869 -0.4779  1.5739 -0.0799
   46A      C2' 1458   4.116   2.429  -4.756  0.1645 -0.1171  0.2830
   46A     H2'1 1459   4.090   2.502  -4.834  1.7891 -1.7583 -1.9316
   46A      O2' 1460   3.997   2.362  -4.720 -0.1367  0.6376  0.7272
   46A     HO'2 1461   3.929   2.378  -4.786 -0.6869 -2.7160  0.3224
   46A      O3' 1462   4.172   2.220  -4.888  0.6347  0.1934  0.0222
   47G        P 1463   4.150   2.233  -5.047  0.0527 -0.1213  0.0772
   47G      O1P 1464   4.113   2.100  -5.101 -0.2107  0.2090 -0.5641
   47G      O2P 1465   4.262   2.302  -5.114 -0.1840 -0.3929 -0.6078
   47G      O5' 1466   4.022   2.331  -5.051  0.0487 -0.1417 -0.3925
   47G      C5' 1467   3.894   2.279  -5.022  0.4403 -0.3578  1.0731
   47G     H5'1 1468   3.899   2.213  -4.936 -0.6273 -1.0070  0.6563
   47G     H5'2 1469   3.869   2.232  -5.117  0.6658  3.1750 -0.9173
   47G      C4' 1470   3.782   2.380  -5.000  0.2244 -0.3276 -0.0753
   47G      H4' 1471   3.691   2.332  -4.964 -0.9400  0.9245 -1.2143
   47G      O4' 1472   3.831   2.476  -4.909 -0.1178 -0.5340  0.3292
   47G      C1' 1473   3.769   2.600  -4.932  0.6269 -0.1996  0.0876
   47G      H1' 1474   3.712   2.633  -4.845  0.3060  1.3168 -0.6498
   47G       N9 1475   3.864   2.709  -4.960  0.1505  0.1707 -0.1043
   47G       C8 1476   3.990   2.704  -5.015  0.1922  0.8591 -0.0852
   47G       H8 1477   4.044   2.613  -5.034  0.0787  0.3682  1.7357
   47G       N7 1478   4.041   2.819  -5.048  0.4079  0.6441 -0.5087
   47G       C5 1479   3.944   2.911  -5.009 -0.4133 -0.0978 -0.7670
   47G       C6 1480   3.944   3.053  -5.003  0.0481 -0.1367  0.2944
   47G       O6 1481   4.032   3.129  -5.042 -0.1099 -0.3903 -0.5771
   47G       N1 1482   3.824   3.105  -4.956 -0.2930 -0.4271 -0.2411
   47G       H1 1483   3.819   3.206  -4.960  1.4028 -0.2567  0.7455
   47G       C2 1484   3.718   3.031  -4.908 -0.1248 -0.1053  0.6644
   47G       N2 1485   3.615   3.109  -4.872  0.1802  0.3513  0.5515
   47G      H21 1486   3.625   3.208  -4.853  0.7003 -0.0615  2.7191
   47G      H22 1487   3.525   3.063  -4.867 -0.0196  0.8283  1.6804
   47G       N3 1488   3.720   2.897  -4.913 -0.1884 -0.0897  0.1573
   47G       C4 1489   3.835   2.844  -4.960 -0.4924  0.0398 -0.7535
   47G      C3' 1490   3.747   2.468  -5.120 -0.1523 -0.1323  0.1739
   47G      H3' 1491   3.843   2.494  -5.165  0.4741 -2.2638  0.1362
   47G      C2' 1492   3.678   2.587  -5.054  0.5333  0.3123  0.0974
   47G     H2'1 1493   3.681   2.677  -5.115  0.0736  0.9198  0.9511
   47G      O2' 1494   3.549   2.559  -5.004  0.4381  0.2817 -0.1637
   47G     HO'2 1495   3.514   2.633  -4.954 -0.9731 -0.4859  0.0378
   47G      O3' 1496   3.662   2.405  -5.213 -0.6466  0.2609  0.3567
   48U        P 1497   3.649   2.443  -5.369  0.1003  0.0116  0.2284
   48U      O1P 1498   3.574   2.332  -5.435  0.0008  0.1228  0.1542
   48U      O2P 1499   3.784   2.474  -5.421  0.3028  0.1997  0.8696
   48U      O5' 1500   3.563   2.578  -5.379 -0.2949 -0.2186  0.4697
   48U      C5' 1501   3.439   2.593  -5.313 -0.3864 -0.0957  0.2723
   48U     H5'1 1502   3.440   2.541  -5.218  0.1084  0.6806  0.6968
   48U     H5'2 1503   3.360   2.556  -5.379  1.5498 -1.5660 -1.3715
   48U      C4' 1504   3.409   2.738  -5.278  0.2703  0.0445  0.2713
   48U      H4' 1505   3.307   2.747  -5.239 -0.3770 -3.7155 -0.1778
   48U      O4' 1506   3.507   2.795  -5.194  0.0948  0.2694  0.3239
   48U      C1' 1507   3.517   2.931  -5.230  0.2908  0.0053 -0.6523
   48U      H1' 1508   3.492   2.995  -5.145 -0.9325 -1.1767 -0.0837
   48U       N1 1509   3.651   2.974  -5.273  0.5690  0.1832  0.3774
   48U       C6 1510   3.740   2.895  -5.340 -0.0319  0.5097 -0.8278
   48U       H6 1511   3.707   2.796  -5.366 -0.4971  0.6119 -0.6428
   48U       C5 1512   3.864   2.938  -5.371  0.4608 -0.4998 -0.2839
   48U       H5 1513   3.939   2.876  -5.419  0.7363  0.1763 -0.7462
   48U       C4 1514   3.907   3.072  -5.340 -0.2754 -0.2367 -0.3738
   48U       O4 1515   4.022   3.115  -5.354 -0.2735 -0.2303 -0.3406
   48U       N3 1516   3.810   3.152  -5.282  0.1251  0.3568 -0.5055
   48U       H3 1517   3.835   3.248  -5.268  2.2893  0.3449 -3.4516
   48U       C2 1518   3.682   3.107  -5.250  0.2807  0.3039  0.0695
   48U       O2 1519   3.601   3.186  -5.200  0.0792 -0.2923  0.6911
   48U      C3' 1520   3.409   2.822  -5.405 -0.4201  0.1883  0.3594
   48U      H3' 1521   3.491   2.798  -5.472  1.0272  1.1317  1.7045
   48U      C2' 1522   3.414   2.960  -5.340  0.0496  0.4877 -0.3030
   48U     H2'1 1523   3.469   3.032  -5.401  4.4654 -0.2527  2.3649
   48U      O2' 1524   3.292   3.007  -5.287 -0.1105  0.1024 -0.3273
   48U     HO'2 1525   3.297   3.103  -5.287 -0.5191  0.1252 -0.2598
   48U      O3' 1526   3.290   2.804  -5.477  0.1759 -0.2451 -0.5302
   49C        P 1527   3.258   2.871  -5.621 -0.5226  0.0712 -0.2336
   49C      O1P 1528   3.119   2.836  -5.657 -0.5106 -0.0182 -0.1936
   49C      O2P 1529   3.370   2.843  -5.714 -0.6013 -0.0984 -0.2775
   49C      O5' 1530   3.274   3.027  -5.582 -0.1531  0.0770 -0.4060
   49C      C5' 1531   3.162   3.099  -5.535 -0.3449 -0.4089 -0.1097
   49C     H5'1 1532   3.109   3.049  -5.454  0.0410  0.8303  0.9395
   49C     H5'2 1533   3.099   3.119  -5.622 -0.6707  0.4328  0.3187
   49C      C4' 1534   3.207   3.238  -5.493  0.4010 -0.5291 -0.4842
   49C      H4' 1535   3.133   3.270  -5.420 -1.4197 -4.1702 -0.5330
   49C      O4' 1536   3.332   3.241  -5.428  0.3946  0.6028 -0.5121
   49C      C1' 1537   3.391   3.367  -5.451 -0.2826  1.1814  0.8013
   49C      H1' 1538   3.403   3.436  -5.367 -2.1865  2.2855  0.2322
   49C       N1 1539   3.520   3.346  -5.521 -0.8562  0.1009  0.0491
   49C       C6 1540   3.554   3.227  -5.579  0.4733  0.2500  0.4892
   49C       H6 1541   3.477   3.160  -5.613  0.6667  1.0031 -1.5466
   49C       C5 1542   3.681   3.199  -5.614  0.1835 -0.8059  0.2466
   49C       H5 1543   3.695   3.106  -5.666 -1.7721  0.2049 -2.3505
   49C       C4 1544   3.775   3.305  -5.591 -0.1273 -0.4272 -0.2036
   49C       N4 1545   3.904   3.279  -5.611  0.0735 -0.0066  0.5064
   49C      H41 1546   3.936   3.187  -5.638 -0.2203 -0.5793  2.0326
   49C      H42 1547   3.972   3.351  -5.591 -0.9201  0.6840  1.5266
   49C       N3 1548   3.748   3.422  -5.530 -0.3518 -0.0154 -1.0708
   49C       C2 1549   3.617   3.443  -5.503 -0.2242 -0.5236  0.0137
   49C       O2 1550   3.589   3.552  -5.455 -0.4037 -0.4165 -0.3306
   49C      C3' 1551   3.213   3.344  -5.602 -0.1349  0.1559  0.1462
   49C      H3' 1552   3.265   3.309  -5.691 -1.2885  1.3661 -1.0520
   49C      C2' 1553   3.291   3.453  -5.528 -0.0662  0.4326 -0.3305
   49C     H2'1 1554   3.350   3.520  -5.590 -0.8466  0.9857 -0.4838
   49C      O2' 1555   3.218   3.523  -5.430  0.0144  0.1668 -0.0812
   49C     HO'2 1556   3.132   3.547  -5.465  0.5119  2.9775  0.3963
   49C      O3' 1557   3.089   3.398  -5.642 -0.3710 -0.2721  0.2933
   50G        P 1558   3.072   3.457  -5.791 -0.0802 -0.1671  0.3000
   50G      O1P 1559   2.938   3.516  -5.813 -0.2884 -0.7375 -0.0048
   50G      O2P 1560   3.120   3.351  -5.883 -0.5667 -0.1805  0.0535
   50G      O5' 1561   3.186   3.570  -5.794 -0.0412 -0.2041  0.4246
   50G      C5' 1562   3.153   3.703  -5.761  0.2713  0.0990 -0.4588
   50G     H5'1 1563   3.112   3.719  -5.661 -2.3229 -0.2685 -1.3851
   50G     H5'2 1564   3.071   3.726  -5.829 -3.0491 -0.8522  2.8539
   50G      C4' 1565   3.273   3.795  -5.781  0.0609  0.4800  0.0066
   50G      H4' 1566   3.252   3.892  -5.735 -1.0609 -0.0053  0.5486
   50G      O4' 1567   3.388   3.738  -5.723 -0.2893  0.2188  0.4440
   50G      C1' 1568   3.503   3.753  -5.802 -0.5503 -0.2435 -0.0358
   50G      H1' 1569   3.586   3.807  -5.755  0.5809 -1.4607 -0.5594
   50G       N9 1570   3.564   3.623  -5.836  0.0854  0.1059 -0.2517
   50G       C8 1571   3.507   3.501  -5.856 -0.0748  0.2443 -0.6409
   50G       H8 1572   3.403   3.482  -5.833  0.5770 -1.7897  0.9223
   50G       N7 1573   3.591   3.405  -5.881  0.4330  0.5788 -0.2244
   50G       C5 1574   3.714   3.471  -5.884  0.3764  0.6751 -0.4860
   50G       C6 1575   3.844   3.427  -5.917  0.2202 -0.0103 -0.2017
   50G       O6 1576   3.877   3.311  -5.943  0.0876 -0.1436  0.2086
   50G       N1 1577   3.942   3.525  -5.908 -0.1613  0.3933 -0.3900
   50G       H1 1578   4.041   3.502  -5.915 -0.3467 -1.0844  1.0322
   50G       C2 1579   3.916   3.655  -5.871  0.4223  0.4052  0.0008
   50G       N2 1580   4.016   3.741  -5.897  0.2265  0.5482 -0.2910
   50G      H21 1581   4.104   3.715  -5.938 -0.0434  0.4548 -0.8265
   50G      H22 1582   3.992   3.838  -5.880 -0.8697  0.4947 -1.3714
   50G       N3 1583   3.792   3.702  -5.854  0.4257  0.4767 -0.1640
   50G       C4 1584   3.698   3.605  -5.862  0.3368  0.4789  0.7391
   50G      C3' 1585   3.306   3.817  -5.929  0.0906  0.5543  0.0236
   50G      H3' 1586   3.291   3.727  -5.989 -0.9082  1.9872 -1.9900
   50G      C2' 1587   3.458   3.829  -5.926  0.1537 -0.1548 -0.2448
   50G     H2'1 1588   3.499   3.794  -6.021  0.7234  1.9517 -0.8328
   50G      O2' 1589   3.500   3.962  -5.909 -0.2595  0.0140 -0.5293
   50G     HO'2 1590   3.418   4.013  -5.912 -0.8234 -0.9026 -1.7313
   50G      O3' 1591   3.241   3.927  -5.988 -0.4200  0.0752 -0.3232
   50G      H3T 1592   3.196   3.896  -6.067 -0.2122  1.4475 -1.0168
   51SOL     OW 1593   5.344   3.121  11.339 -0.5819 -0.1482 -0.7196
   51SOL    HW1 1594   5.270   3.116  11.278 -2.0573  0.4045  0.9470
   51SOL    HW2 1595   5.420   3.101  11.285 -2.0706 -2.4588 -2.1737
   52SOL     OW 1596   2.741   0.825   2.401  0.3658 -0.1052 -0.2652
   52SOL    HW1 1597   2.676   0.895   2.407 -0.3237 -0.8004  0.6018
   52SOL    HW2 1598   2.718   0.778   2.320  0.5162  0.3595 -0.5787
   53SOL     OW 1599   3.045   5.931   9.341 -0.7064 -0.0153  0.2431
   53SOL    HW1 1600   3.108   6.002   9.333 -0.8315  0.1520  0.7410
   53SOL    HW2 1601   3.031   5.901   9.251 -1.6305  1.4513 -0.1274
   54SOL     OW 1602   7.213   7.215   8.684  0.6649  0.0981  0.1883
   54SOL    HW1 1603   7.272   7.164   8.629 -0.0572  0.7555 -1.2300
   54SOL    HW2 1604   7.206   7.299   8.640 -1.2886  0.0542  0.3358
   55SOL     OW 1605   7.294   2.004   0.354  0.3676 -0.1291  0.1145
   55SOL    HW1 1606   7.215   1.964   0.318  0.3952 -0.9651  0.9487
   55SOL    HW2 1607   7.270   2.096   0.367 -0.1468 -0.1641 -0.5432
   56SOL     OW 1608   6.072   3.500   0.338 -0.1554 -0.0973 -0.0345
   56SOL    HW1 1609   6.117   3.449   0.406  0.8164  1.1636  0.3030
   56SOL    HW2 1610   6.099   3.590   0.354 -1.0360  0.4068 -1.2450
   57SOL     OW 1611   2.309   3.575   9.511 -0.2886 -0.1334 -0.1057
   57SOL    HW1 1612   2.251   3.553   9.438 -0.6250 -0.8902  0.3696
   57SOL    HW2 1613   2.256   3.630   9.569 -0.1805  0.0652 -0.1946
   58SOL     OW 1614   5.427   2.634   6.259 -0.2032  0.4671 -0.1011
   58SOL    HW1 1615   5.440   2.580   6.337 -0.6005  1.1262  0.4362
   58SOL    HW2 1616   5.412   2.571   6.188  0.9917 -0.1660  0.1843
   59SOL     OW 1617   5.992   7.920   4.735 -0.0715 -0.1323  0.2844
   59SOL    HW1 1618   5.907   7.897   4.774  0.1146 -1.5284 -0.1124
   59SOL    HW2 1619   6.016   7.845   4.682  1.7108 -0.0004  0.8354
   60SOL     OW 1620   6.233   3.323   3.147 -0.0451  0.0561  0.0278
   60SOL    HW1 1621   6.253   3.268   3.223 -0.3137  2.6420  2.1078
   60SOL    HW2 1622   6.183   3.266   3.088 -0.5649 -1.8127  2.1611
   61SOL     OW 1623   3.915   5.280   5.279 -0.0672 -0.1879  0.1610
   61SOL    HW1 1624   3.913   5.276   5.374  0.1959  2.3650  0.3455
   61SOL    HW2 1625   4.007   5.299   5.257 -0.2954  0.1836 -0.5225
   62SOL     OW 1626   6.413   1.917   7.411  0.1609 -0.1127  0.3648
   62SOL    HW1 1627   6.476   1.917   7.339  1.8049  0.0230  1.7382
   62SOL    HW2 1628   6.358   1.841   7.395 -1.0301  1.1588 -2.2420
   63SOL     OW 1629   2.185   1.806  12.273  0.2945 -0.0656 -0.3276
   63SOL    HW1 1630   2.229   1.771  12.350 -0.5140  1.4916  0.9089
   63SOL    HW2 1631   2.210   1.747  12.202  0.8641 -1.6966  1.1570
   64SOL     OW 1632   7.459   3.488   1.019  0.2478 -0.4684 -0.1433
   64SOL    HW1 1633   7.437   3.478   0.926  0.8077 -0.3845 -0.2897
   64SOL    HW2 1634   7.425   3.409   1.061 -2.3100  0.6063  0.0262
   65SOL     OW 1635   2.377   5.791   5.287 -0.0758 -0.3577  0.0928
   65SOL    HW1 1636   2.297   5.777   5.236  0.4751  0.2483 -0.9775
   65SOL    HW2 1637   2.377   5.885   5.305  0.1395 -0.4410  0.5353
   66SOL     OW 1638   2.672   6.785   9.747  0.2265 -0.5660  0.0367
   66SOL    HW1 1639   2.611   6.736   9.802 -0.0986  0.5470  0.6985
   66SOL    HW2 1640   2.755   6.783   9.795 -0.0411  0.3516  0.5659
   67SOL     OW 1641   0.184   0.229  11.567  0.5139 -0.1680 -1.0987
   67SOL    HW1 1642   0.194   0.142  11.605 -1.8065  1.1948  3.2842
   67SOL    HW2 1643   0.258   0.279  11.601 -1.7082  1.1262  2.3990
   68SOL     OW 1644   5.399   2.892   0.811  0.4554 -0.1450 -0.2575
   68SOL    HW1 1645   5.423   2.963   0.751  0.8864 -2.4529 -3.0334
   68SOL    HW2 1646   5.305   2.881   0.799  0.0963  0.8225  1.3025
   69SOL     OW 1647   0.249   1.006   3.935 -0.3382  0.2167 -0.3182
   69SOL    HW1 1648   0.341   1.005   3.909 -0.0747 -1.2021  0.5828
   69SOL    HW2 1649   0.225   1.099   3.934  0.2273  0.4328 -3.4574
   70SOL     OW 1650   6.913   6.277  11.891 -0.1768 -0.4277  0.5209
   70SOL    HW1 1651   6.904   6.368  11.921  2.0784  0.5508 -1.4355
   70SOL    HW2 1652   7.006   6.258  11.901 -0.0572 -1.4210 -1.9446
   71SOL     OW 1653   1.322   5.337   4.273  0.0590 -0.1033  0.2370
   71SOL    HW1 1654   1.249   5.299   4.225  0.4124  0.3930 -0.7191
   71SOL    HW2 1655   1.343   5.273   4.341 -1.1692 -0.3048  0.4333
   72SOL     OW 1656   2.990   0.321  11.197 -0.4112  0.2961  0.4313
   72SOL    HW1 1657   3.006   0.248  11.256 -2.2419 -1.5291 -1.1568
   72SOL    HW2 1658   2.954   0.390  11.252 -1.4807 -1.1131  1.5455
   73SOL     OW 1659   0.072   3.111  11.660  0.1511 -0.0390 -0.2594
   73SOL    HW1 1660   0.084   3.086  11.752  0.4727 -2.0384 -0.7971
   73SOL    HW2 1661   0.006   3.181  11.663  0.3604  0.1370  1.5016
   74SOL     OW 1662   2.813   7.282  11.944 -0.0890 -0.0129  0.3508
   74SOL    HW1 1663   2.874   7.261  12.015 -1.1895 -0.7178  1.1104
   74SOL    HW2 1664   2.806   7.378  11.947  0.7059  0.0480  0.4792
   75SOL     OW 1665   5.562   6.098   0.868 -0.3498  0.0414  0.3446
   75SOL    HW1 1666   5.506   6.021   0.881 -0.8556  0.5072  1.0283
   75SOL    HW2 1667   5.595   6.089   0.779  0.6645 -1.6519  0.8577
   76SOL     OW 1668   6.893   6.500  10.833  0.4020  0.1488 -0.2923
   76SOL    HW1 1669   6.890   6.421  10.887 -2.6494  1.8665  2.4170
   76SOL    HW2 1670   6.819   6.491  10.774  1.6605 -0.1115 -1.9197
   77SOL     OW 1671   4.059   6.327   1.515 -0.1819 -0.6472 -0.3506
   77SOL    HW1 1672   4.009   6.350   1.594  0.4488  2.6191 -0.7350
   77SOL    HW2 1673   4.142   6.293   1.547 -0.6125 -1.0528  0.3524
   78SOL     OW 1674   5.989   1.456   0.049 -0.4052  0.2354  0.5166
   78SOL    HW1 1675   6.028   1.378   0.009 -0.4336  0.5539 -0.1367
   78SOL    HW2 1676   6.060   1.496   0.098 -0.1437  0.3059  0.0856
   79SOL     OW 1677   5.762   6.588   7.206  0.4671  0.1036  0.1978
   79SOL    HW1 1678   5.775   6.631   7.121 -0.3373  0.9692  0.5022
   79SOL    HW2 1679   5.734   6.500   7.183 -2.1369  1.0312 -0.4987
   80SOL     OW 1680   2.393   5.514   2.672  0.6189  0.0087  0.4703
   80SOL    HW1 1681   2.353   5.490   2.589 -0.8482  2.5432  0.3407
   80SOL    HW2 1682   2.377   5.439   2.729  1.3362 -1.6285 -1.3815
   81SOL     OW 1683   2.234   3.025   2.935  0.2876  0.1229 -0.2106
   81SOL    HW1 1684   2.149   2.982   2.945 -0.2785  1.3159  0.3223
   81SOL    HW2 1685   2.278   2.975   2.866 -1.7691  0.8296 -2.1831
   82SOL     OW 1686   3.157   0.124   1.124 -0.3850  0.4461  0.5905
   82SOL    HW1 1687   3.191   0.145   1.211  0.5826 -0.3581  0.4228
   82SOL    HW2 1688   3.226   0.153   1.064  0.1136 -1.3673  0.2504
   83SOL     OW 1689   2.727   2.085   5.909 -0.0710 -0.6654  0.2689
   83SOL    HW1 1690   2.672   2.142   5.963 -0.3283  1.0069 -1.6270
   83SOL    HW2 1691   2.732   2.003   5.958 -0.9056  0.4881  2.4167
   84SOL     OW 1692   3.340   2.966   3.028 -0.6882 -0.0316 -0.4195
   84SOL    HW1 1693   3.352   2.881   3.072 -2.2809  0.4516  1.0790
   84SOL    HW2 1694   3.251   2.992   3.052 -0.7989  1.3577 -2.1454
   85SOL     OW 1695   3.426   0.180   1.628  0.2269  0.1797  0.0031
   85SOL    HW1 1696   3.335   0.209   1.615  0.2527  0.6018  0.6913
   85SOL    HW2 1697   3.455   0.152   1.541 -0.0153  1.6256 -0.5747
   86SOL     OW 1698   3.535   2.591   5.837 -0.3045 -0.2121  0.4182
   86SOL    HW1 1699   3.501   2.656   5.776 -0.1994 -2.0111 -1.6969
   86SOL    HW2 1700   3.604   2.637   5.886 -0.6613  1.4073 -0.5480
   87SOL     OW 1701   4.755   7.082  11.012 -0.2025 -0.0509  0.2263
   87SOL    HW1 1702   4.710   7.121  10.937  0.7759  0.3891 -0.1478
   87SOL    HW2 1703   4.725   7.133  11.087 -1.2294 -0.5292  0.1637
   88SOL     OW 1704   4.332   4.420   9.306  0.6976 -0.4307  0.1559
   88SOL    HW1 1705   4.321   4.409   9.400 -1.0260 -0.4085 -0.0135
   88SOL    HW2 1706   4.380   4.342   9.278  0.9311 -0.5943  0.9963
   89SOL     OW 1707   4.987   3.564   6.795  0.3130 -0.7372 -0.4488
   89SOL    HW1 1708   4.964   3.642   6.846 -0.0671  1.5016 -3.6918
   89SOL    HW2 1709   4.940   3.576   6.712  1.7845 -3.4839 -1.8052
   90SOL     OW 1710   4.040   4.797   6.662  0.1233 -0.2758 -0.4365
   90SOL    HW1 1711   3.969   4.753   6.709  0.0594  0.2906  0.0123
   90SOL    HW2 1712   4.009   4.887   6.652  1.0320  0.1333  0.3066
   91SOL     OW 1713   5.220   5.683   9.689 -0.3762 -0.1357 -0.2583
   91SOL    HW1 1714   5.140   5.691   9.637 -1.0569 -1.2310  0.5823
   91SOL    HW2 1715   5.237   5.589   9.692 -0.2011 -0.0781  1.2537
   92SOL     OW 1716   3.966   7.249   9.768  0.1059 -0.0961  0.4424
   92SOL    HW1 1717   4.027   7.303   9.816 -2.9520  1.6390  2.7531
   92SOL    HW2 1718   3.902   7.311   9.733 -1.1156 -1.8778 -0.6578
   93SOL     OW 1719   5.910   6.091   9.747 -0.5391 -0.3787 -0.2974
   93SOL    HW1 1720   5.919   6.129   9.834 -0.4635 -0.9246 -0.0613
   93SOL    HW2 1721   5.928   6.163   9.687  0.1590 -0.1703  0.1443
   94SOL     OW 1722   3.292   4.993   2.206 -0.0421  0.5739  0.8712
   94SOL    HW1 1723   3.249   4.919   2.250  0.0369 -0.9637 -1.4944
   94SOL    HW2 1724   3.378   4.959   2.181 -0.4982  0.9615 -1.4214
   95SOL     OW 1725   3.854   0.771   6.172  0.0854 -0.1034  0.0961
   95SOL    HW1 1726   3.874   0.831   6.244  0.2280 -0.0153 -0.0139
   95SOL    HW2 1727   3.763   0.788   6.150  0.3608  0.7099 -0.5125
   96SOL     OW 1728   5.752   1.256   8.829 -0.1679 -0.4123  0.8693
   96SOL    HW1 1729   5.784   1.329   8.882  2.9289 -1.3821  0.5426
   96SOL    HW2 1730   5.717   1.194   8.892  1.2976 -0.5163  1.6310
   97SOL     OW 1731   6.081   7.594   6.298  0.0285 -0.3634 -0.1373
   97SOL    HW1 1732   6.055   7.520   6.353  0.8653  1.1386  2.4694
   97SOL    HW2 1733   6.047   7.671   6.343 -0.7300  0.9150 -2.7103
   98SOL     OW 1734   0.369   0.203   2.375 -0.2144  0.5256  0.1884
   98SOL    HW1 1735   0.351   0.275   2.436  0.1924  0.3282  0.5532
   98SOL    HW2 1736   0.414   0.138   2.429 -1.7185 -0.5588  0.1614
   99SOL     OW 1737   6.010   0.396   5.252  0.0723  0.2729 -0.0987
   99SOL    HW1 1738   5.918   0.403   5.227 -0.2137  2.0893  1.2199
   99SOL    HW2 1739   6.014   0.440   5.337  2.7359  3.3415 -1.5952
  100SOL     OW 1740   6.682   5.781   3.394  0.1515 -0.0062 -0.0090
  100SOL    HW1 1741   6.764   5.738   3.418  0.9773  1.1232 -0.6458
  100SOL    HW2 1742   6.614   5.718   3.415  1.1702 -0.8929  0.7480
  101SOL     OW 1743   6.825   6.949   5.885  0.7952 -0.0143 -0.2440
  101SOL    HW1 1744   6.833   7.041   5.862 -0.2023 -0.1618 -1.2718
  101SOL    HW2 1745   6.744   6.945   5.938  0.6902 -0.3352 -0.4280
  102SOL     OW 1746   1.281   3.454   8.385 -0.1283  0.6353  0.2949
  102SOL    HW1 1747   1.286   3.363   8.414 -0.8901  0.2639 -0.6876
  102SOL    HW2 1748   1.225   3.496   8.450 -0.5641  0.1712  0.2266
  103SOL     OW 1749   4.324   4.512   0.164  0.3550 -0.0130  0.1621
  103SOL    HW1 1750   4.233   4.534   0.146  0.2066 -1.6229 -1.3858
  103SOL    HW2 1751   4.338   4.539   0.254 -1.6950  0.1594  0.4787
  104SOL     OW 1752   5.866   7.211   0.829  0.2893  0.7009  0.1731
  104SOL    HW1 1753   5.779   7.227   0.866  0.9975  2.0359  1.3291
  104SOL    HW2 1754   5.902   7.298   0.812  0.2342  0.1807 -3.2683
  105SOL     OW 1755   5.273   4.654   7.030 -0.0699 -0.0507 -0.3063
  105SOL    HW1 1756   5.190   4.688   6.997  0.1393  0.5455 -0.2312
  105SOL    HW2 1757   5.333   4.659   6.956  0.6666  2.2093  0.3824
  106SOL     OW 1758   2.173   2.397   7.828 -0.3238  0.5445  0.2093
  106SOL    HW1 1759   2.231   2.333   7.870 -0.8878 -0.7305 -0.8906
  106SOL    HW2 1760   2.087   2.381   7.866 -0.7679 -0.3847 -1.1356
  107SOL     OW 1761   3.904   3.420   2.413 -0.1052  0.2252 -0.2056
  107SOL    HW1 1762   3.875   3.331   2.431  0.1303  0.1898 -0.0042
  107SOL    HW2 1763   3.962   3.442   2.485  0.9434  0.0354 -0.9634
  108SOL     OW 1764   3.585   2.219   0.914 -0.0832  0.1291  0.0029
  108SOL    HW1 1765   3.643   2.144   0.923 -1.0074 -0.5229  0.8502
  108SOL    HW2 1766   3.534   2.201   0.835 -0.2401 -0.1052  0.1545
  109SOL     OW 1767   5.240   2.064   1.006  0.6330 -0.7162  0.8560
  109SOL    HW1 1768   5.256   2.158   1.015 -0.7241 -0.5590  2.0522
  109SOL    HW2 1769   5.327   2.026   0.993  1.6678  0.3371  3.8768
  110SOL     OW 1770   7.867   1.839   8.496  0.3260  0.2394 -0.4995
  110SOL    HW1 1771   7.942   1.818   8.441 -0.2082  1.6716 -1.8356
  110SOL    HW2 1772   7.894   1.815   8.585  1.6601 -0.9649 -1.1940
  111SOL     OW 1773   0.309   1.250   1.072 -0.6942 -0.1782  0.3097
  111SOL    HW1 1774   0.394   1.221   1.039 -0.5226  0.3743  0.2425
  111SOL    HW2 1775   0.273   1.303   1.000 -1.0275 -0.2809  0.3984
  112SOL     OW 1776   3.537   0.221   3.710 -0.3585 -0.3571  0.3841
  112SOL    HW1 1777   3.622   0.189   3.741 -0.2676 -0.1492  0.3474
  112SOL    HW2 1778   3.538   0.203   3.616  0.6310  1.8241 -0.0767
  113SOL     OW 1779   0.451   4.145   9.821  0.0878 -0.0765 -0.2231
  113SOL    HW1 1780   0.363   4.158   9.785 -0.1078 -1.2195 -0.2148
  113SOL    HW2 1781   0.507   4.135   9.744  0.4031  1.6723 -0.2451
  114SOL     OW 1782   7.342   7.243  11.845 -0.2164  0.4498 -0.2097
  114SOL    HW1 1783   7.374   7.311  11.786 -0.9081  1.3399  0.3979
  114SOL    HW2 1784   7.277   7.194  11.794 -0.1886  0.6706 -0.4571
  115SOL     OW 1785   4.938   5.466   4.788 -0.1586  0.2876  0.0121
  115SOL    HW1 1786   4.847   5.489   4.768 -0.6171  1.1773  2.7443
  115SOL    HW2 1787   4.990   5.520   4.728 -1.4092  0.5796 -0.8505
  116SOL     OW 1788   0.188   4.821   6.381  0.6402 -0.0664 -0.3717
  116SOL    HW1 1789   0.256   4.851   6.320  0.7214 -1.4118 -0.9778
  116SOL    HW2 1790   0.236   4.771   6.447  0.3800  0.1446 -0.0184
  117SOL     OW 1791   2.457   2.841   3.197  0.2175 -0.0425  0.1024
  117SOL    HW1 1792   2.521   2.774   3.217  2.0801  1.5002 -0.3496
  117SOL    HW2 1793   2.386   2.795   3.152  1.4322 -1.6736 -0.2115
  118SOL     OW 1794   2.231   7.266   9.559  0.5513  0.3163  0.5022
  118SOL    HW1 1795   2.200   7.219   9.637  1.7595 -0.7795  0.3654
  118SOL    HW2 1796   2.326   7.251   9.559  0.6613  0.9066 -0.7940
  119SOL     OW 1797   5.154   6.800  12.170  0.2574  0.2025 -0.0252
  119SOL    HW1 1798   5.138   6.885  12.213  0.7775 -0.0996  0.7995
  119SOL    HW2 1799   5.211   6.822  12.096  0.3254  0.5857  0.1373
  120SOL     OW 1800   1.703   0.033   1.054 -0.1574  0.0904 -0.4731
  120SOL    HW1 1801   1.752   0.114   1.040 -1.5788  0.9065 -0.9067
  120SOL    HW2 1802   1.613   0.061   1.069 -0.5211 -1.3681  0.3246
  121SOL     OW 1803   5.212   0.784  12.123  0.3267 -0.2101 -0.2036
  121SOL    HW1 1804   5.294   0.737  12.140 -0.1142 -0.8343  0.2478
  121SOL    HW2 1805   5.190   0.825  12.207  0.4127  0.3409 -0.4470
  122SOL     OW 1806   2.423   7.496   2.495 -0.3053 -0.3380 -0.2688
  122SOL    HW1 1807   2.483   7.430   2.458  0.2109  0.0749 -0.1911
  122SOL    HW2 1808   2.376   7.530   2.419 -0.9084 -1.1165 -0.2534
  123SOL     OW 1809   3.645   4.177   1.186 -0.6282 -0.1675 -0.1646
  123SOL    HW1 1810   3.648   4.177   1.090  1.3064 -0.2172 -0.1338
  123SOL    HW2 1811   3.655   4.269   1.210  0.5454 -0.3296  0.0019
  124SOL     OW 1812   1.510   0.797   6.621  0.4803  0.0489 -0.2811
  124SOL    HW1 1813   1.497   0.704   6.643 -0.4625  0.6422  2.0060
  124SOL    HW2 1814   1.436   0.818   6.563  0.9083 -0.6891 -1.1260
  125SOL     OW 1815   6.434   0.839   3.930  0.2176  0.2594  0.5113
  125SOL    HW1 1816   6.473   0.927   3.929 -1.9815  1.3004  1.0980
  125SOL    HW2 1817   6.490   0.788   3.871  2.6472  1.5079  1.5722
  126SOL     OW 1818   4.724   3.150   3.039 -0.1012 -0.0757  0.6862
  126SOL    HW1 1819   4.693   3.072   3.086 -0.6543 -0.0800  0.3072
  126SOL    HW2 1820   4.815   3.129   3.017 -0.4569 -0.9131 -0.0417
  127SOL     OW 1821   4.178   6.380   0.224  0.6067  0.1956  0.0550
  127SOL    HW1 1822   4.177   6.293   0.185  0.0320 -0.1116  0.7441
  127SOL    HW2 1823   4.137   6.436   0.159  0.9807 -0.0376 -0.3929
  128SOL     OW 1824   5.727   0.987  11.620 -0.1539 -0.0714 -0.6393
  128SOL    HW1 1825   5.797   0.924  11.639  0.2453  0.4059 -0.5055
  128SOL    HW2 1826   5.743   1.059  11.681  0.1595  0.7411 -1.6579
  129SOL     OW 1827   7.403   3.498   4.057  0.3351 -0.4999  0.0847
  129SOL    HW1 1828   7.411   3.490   4.152 -0.8178  2.3361  0.5089
  129SOL    HW2 1829   7.309   3.501   4.041  0.5215  0.7755 -0.9135
  130SOL     OW 1830   6.910   4.801   1.633 -0.1733 -0.5524  0.0560
  130SOL    HW1 1831   6.864   4.756   1.562 -0.1595  0.5740 -0.6858
  130SOL    HW2 1832   6.941   4.883   1.593  0.4787 -0.2446  1.1641
  131SOL     OW 1833   3.404   6.449   8.882 -0.1862 -0.0371 -0.0568
  131SOL    HW1 1834   3.351   6.447   8.803 -0.4704 -0.2906  0.1344
  131SOL    HW2 1835   3.363   6.516   8.937 -1.1353 -1.1301  0.6382
  132SOL     OW 1836   0.346   6.136   6.963  0.0464  0.3175  0.3926
  132SOL    HW1 1837   0.427   6.086   6.959 -1.4819 -2.2392 -1.0063
  132SOL    HW2 1838   0.344   6.185   6.881  0.1854  0.4876  0.4869
  133SOL     OW 1839   0.743   5.928  11.045  0.1757  0.5303  0.3676
  133SOL    HW1 1840   0.682   5.904  11.115 -0.3870  0.8043 -0.0209
  133SOL    HW2 1841   0.687   5.938  10.967  1.0721 -2.2831 -0.7629
  134SOL     OW 1842   2.979   3.361   7.565 -0.0497  0.1527 -0.2705
  134SOL    HW1 1843   3.045   3.422   7.532  0.8494  0.2744  1.6381
  134SOL    HW2 1844   2.897   3.409   7.556  0.3027  0.6279 -1.1573
  135SOL     OW 1845   0.798   2.435  10.825 -0.1313 -0.1606 -0.3611
  135SOL    HW1 1846   0.814   2.389  10.907  0.0472 -0.8387 -0.7673
  135SOL    HW2 1847   0.842   2.520  10.836 -0.4620 -0.0777  0.3917
  136SOL     OW 1848   4.726   0.062   0.775  0.4357 -0.1350  0.3072
  136SOL    HW1 1849   4.693   0.128   0.835  0.4811 -0.9215  1.2063
  136SOL    HW2 1850   4.816   0.090   0.757  0.1350  0.5931 -0.1229
  137SOL     OW 1851   1.747   7.020   3.299 -0.3964 -0.3752  0.0152
  137SOL    HW1 1852   1.676   7.050   3.241 -0.8050  0.1249  0.7612
  137SOL    HW2 1853   1.826   7.059   3.261 -0.8089  0.9576  0.4438
  138SOL     OW 1854   1.938   3.850   8.252  0.0391 -0.2144 -0.1810
  138SOL    HW1 1855   1.994   3.776   8.276  1.0667  0.1679 -1.2973
  138SOL    HW2 1856   1.943   3.854   8.157 -2.8889 -0.9061 -0.4388
  139SOL     OW 1857   0.324   3.242  10.483 -0.1406 -0.0823 -0.2184
  139SOL    HW1 1858   0.368   3.257  10.399  1.1513  0.5103  0.5371
  139SOL    HW2 1859   0.337   3.323  10.532 -2.7557  0.4156 -0.2033
  140SOL     OW 1860   2.610   5.111   8.256  0.4051  0.3459 -0.6188
  140SOL    HW1 1861   2.630   5.068   8.339  1.5705  1.0710 -0.5163
  140SOL    HW2 1862   2.544   5.054   8.216 -0.4581  0.1712  0.9450
  141SOL     OW 1863   4.457   3.989  11.538 -0.1220  0.1089  0.2587
  141SOL    HW1 1864   4.367   4.012  11.515 -0.5740 -1.0717  0.7633
  141SOL    HW2 1865   4.470   4.026  11.625  0.5902  2.0208 -0.6092
  142SOL     OW 1866   1.190   2.867   9.145  0.4109  0.1686  0.2240
  142SOL    HW1 1867   1.218   2.781   9.112  2.1528  1.1689 -1.0788
  142SOL    HW2 1868   1.272   2.911   9.168 -0.3680  1.8530 -0.0987
  143SOL     OW 1869   0.349   2.465   7.517  0.2146 -0.3859 -0.2805
  143SOL    HW1 1870   0.386   2.509   7.593 -0.2037  1.4674 -1.0824
  143SOL    HW2 1871   0.410   2.483   7.446  0.0680 -1.1908 -0.6251
  144SOL     OW 1872   3.212   6.573   3.672  0.3529 -0.4014  0.3102
  144SOL    HW1 1873   3.173   6.658   3.655 -0.5666 -0.3754  2.2296
  144SOL    HW2 1874   3.297   6.592   3.713  0.5814 -0.4189 -0.1546
  145SOL     OW 1875   5.206   4.548   9.900  0.4861  0.5762  0.1926
  145SOL    HW1 1876   5.152   4.504   9.834  1.1815 -1.3659  0.8308
  145SOL    HW2 1877   5.149   4.557   9.976  0.1895  1.2506 -0.1081
  146SOL     OW 1878   7.337   0.458  10.100 -0.4071 -0.2190  0.1995
  146SOL    HW1 1879   7.372   0.546  10.083 -1.1886 -0.0638 -0.7194
  146SOL    HW2 1880   7.341   0.414  10.015  0.2750 -1.2035  0.7190
  147SOL     OW 1881   5.143   2.685   4.294  0.3511  0.8484  0.1660
  147SOL    HW1 1882   5.206   2.619   4.268  1.4866  2.5446 -1.7000
  147SOL    HW2 1883   5.066   2.636   4.323  1.8005 -1.2467  0.6795
  148SOL     OW 1884   7.846   0.124   6.230  0.0128 -0.7111 -0.2495
  148SOL    HW1 1885   7.906   0.198   6.224  0.1865 -0.8488 -0.2256
  148SOL    HW2 1886   7.820   0.122   6.322 -3.4046  1.9934 -0.9704
  149SOL     OW 1887   7.159   3.785   3.167 -0.2105  0.4138  0.0418
  149SOL    HW1 1888   7.112   3.791   3.251 -1.8561 -1.6006 -0.6375
  149SOL    HW2 1889   7.246   3.753   3.191 -0.4201  0.5664  1.0633
  150SOL     OW 1890   4.177   4.065   9.714 -0.6695  0.0103 -0.5671
  150SOL    HW1 1891   4.150   3.983   9.672  0.0208 -0.6340  0.1936
  150SOL    HW2 1892   4.176   4.045   9.808  1.8986  0.0647 -0.4582
  151SOL     OW 1893   5.697   2.736   0.521  0.2801 -0.3425  0.0978
  151SOL    HW1 1894   5.603   2.754   0.530 -0.5310 -3.3340 -0.9776
  151SOL    HW2 1895   5.713   2.743   0.427  1.0800 -0.1536  0.2430
  152SOL     OW 1896   0.262   2.673   4.085  0.3187 -0.2327  0.0091
  152SOL    HW1 1897   0.206   2.628   4.022 -0.2402 -0.5152  0.6875
  152SOL    HW2 1898   0.244   2.766   4.071  0.3671 -0.2868 -0.4046
  153SOL     OW 1899   1.127   0.536   0.189 -0.5343 -0.3559  0.4177
  153SOL    HW1 1900   1.148   0.445   0.208  0.6110  0.0300  1.1349
  153SOL    HW2 1901   1.179   0.586   0.253 -0.0400  0.8346 -0.8671
  154SOL     OW 1902   0.278   3.582   6.340  0.2130 -0.6521  0.4636
  154SOL    HW1 1903   0.289   3.505   6.396 -0.1328  0.0470  1.5367
  154SOL    HW2 1904   0.214   3.556   6.275  0.1781 -1.3028  0.7484
  155SOL     OW 1905   2.992   1.361   1.632  0.1307 -0.0409 -0.3068
  155SOL    HW1 1906   2.940   1.288   1.600  1.4829 -2.4038  2.3857
  155SOL    HW2 1907   2.941   1.396   1.706 -0.1123  1.2573 -1.0558
  156SOL     OW 1908   0.928   3.659   8.751  0.1887  0.1336  0.3543
  156SOL    HW1 1909   0.875   3.587   8.718 -3.3137  1.7267  1.8803
  156SOL    HW2 1910   0.910   3.661   8.845  1.4198  2.0136  0.6151
  157SOL     OW 1911   0.002   7.340   2.558 -0.1803 -0.9925 -0.1225
  157SOL    HW1 1912   0.074   7.399   2.535 -1.2007 -0.0809 -1.0872
  157SOL    HW2 1913  -0.020   7.362   2.648  0.0877 -0.5746 -0.1573
  158SOL     OW 1914   6.778   6.712   1.808  0.6027 -0.4214  0.6355
  158SOL    HW1 1915   6.820   6.628   1.824  2.0072  0.0985 -0.1856
  158SOL    HW2 1916   6.849   6.776   1.811 -0.0632  0.4576 -0.9964
  159SOL     OW 1917   4.046   0.755   9.059  0.0883 -0.4400  0.5034
  159SOL    HW1 1918   3.979   0.742   9.126  0.9689 -0.2133  1.4612
  159SOL    HW2 1919   4.071   0.667   9.032  0.3356 -0.5536  1.0974
  160SOL     OW 1920   3.400   4.258   9.146 -0.1390  0.0165 -0.2034
  160SOL    HW1 1921   3.414   4.275   9.239 -0.0210 -1.5883  0.0960
  160SOL    HW2 1922   3.306   4.270   9.133 -0.0651  0.8453 -0.0205
  161SOL     OW 1923   1.945   2.972   2.800 -0.0568  0.2760 -0.0129
  161SOL    HW1 1924   1.911   3.048   2.847  0.9045  0.1934  0.8339
  161SOL    HW2 1925   1.956   3.002   2.710 -1.4611  0.5727 -0.1111
  162SOL     OW 1926   3.949   6.489   4.630  0.1734 -0.3447 -0.5325
  162SOL    HW1 1927   3.970   6.570   4.677 -1.2626  0.2685 -0.8994
  162SOL    HW2 1928   3.885   6.516   4.564 -0.2466 -1.7664 -0.7303
  163SOL     OW 1929   2.983   2.232  11.163  0.2100  0.0545 -0.1659
  163SOL    HW1 1930   2.960   2.177  11.089 -0.4867  0.3223 -0.1601
  163SOL    HW2 1931   3.022   2.173  11.227  0.0518 -0.3198 -0.4155
  164SOL     OW 1932   1.504   3.316   1.230  0.4248 -0.4407 -0.1591
  164SOL    HW1 1933   1.569   3.255   1.194  0.0233 -0.5601 -0.6859
  164SOL    HW2 1934   1.433   3.316   1.166  0.2000  0.2028  0.0829
  165SOL     OW 1935   0.634   1.432   2.051 -0.6067 -0.0654 -0.2205
  165SOL    HW1 1936   0.573   1.506   2.048  0.4347  0.8932  0.9338
  165SOL    HW2 1937   0.671   1.436   2.140 -0.4214 -1.8993 -0.1796
  166SOL     OW 1938   7.449   4.702   1.764  0.4418  0.5113  0.0155
  166SOL    HW1 1939   7.364   4.660   1.752  1.2162 -1.1400  0.1181
  166SOL    HW2 1940   7.497   4.685   1.683  1.5058 -0.6553  0.8465
  167SOL     OW 1941   5.720   0.534   4.395  0.4177  0.7134  0.5699
  167SOL    HW1 1942   5.710   0.610   4.452 -1.4299  1.7461 -0.9915
  167SOL    HW2 1943   5.760   0.467   4.450 -1.4388  1.5773  3.1348
  168SOL     OW 1944   5.441   7.677   2.183 -0.0685  0.0496 -0.1180
  168SOL    HW1 1945   5.396   7.757   2.210 -0.6856 -0.6950  1.1215
  168SOL    HW2 1946   5.371   7.618   2.154 -0.1011 -1.4837  2.7592
  169SOL     OW 1947   1.490   3.609  10.029 -0.1171 -0.4872 -0.8050
  169SOL    HW1 1948   1.462   3.693   9.994 -0.7583 -0.3446  0.0092
  169SOL    HW2 1949   1.422   3.547  10.001 -0.1960 -0.5276 -0.5346
  170SOL     OW 1950   1.457   7.749   2.494  0.0282 -0.1401  0.4123
  170SOL    HW1 1951   1.446   7.809   2.421  2.0078 -0.0010  0.1619
  170SOL    HW2 1952   1.456   7.806   2.572  0.0481 -0.0163  0.3221
  171SOL     OW 1953   0.376   6.417  10.480 -0.3424  0.0200 -0.2802
  171SOL    HW1 1954   0.458   6.397  10.436 -0.3070  1.4105 -0.8840
  171SOL    HW2 1955   0.382   6.510  10.501 -2.0536  0.3215 -0.9695
  172SOL     OW 1956   1.149   6.213   1.545  0.5012  0.4089  0.1265
  172SOL    HW1 1957   1.142   6.304   1.573  1.0973  0.3385  0.5470
  172SOL    HW2 1958   1.226   6.180   1.593 -0.0396 -0.4689  0.4164
  173SOL     OW 1959   6.134   2.073   0.853 -0.1521 -0.3049  0.6407
  173SOL    HW1 1960   6.079   2.150   0.867  1.1741  0.9539 -0.7737
  173SOL    HW2 1961   6.208   2.105   0.801  1.2589 -2.2110  1.3592
  174SOL     OW 1962   5.494   5.378   1.039 -0.1318 -0.2546  0.4182
  174SOL    HW1 1963   5.460   5.386   1.128  0.4192  0.0480  0.6003
  174SOL    HW2 1964   5.419   5.400   0.983  0.1373  1.9811  0.8372
  175SOL     OW 1965   5.339   1.321   8.271 -0.3486 -0.1746  0.8585
  175SOL    HW1 1966   5.315   1.387   8.336 -0.8289  0.0892  0.4097
  175SOL    HW2 1967   5.264   1.262   8.268 -0.5298  0.0844  0.1913
  176SOL     OW 1968   2.703   6.304   6.995  0.1895 -0.0954 -0.5587
  176SOL    HW1 1969   2.622   6.347   7.020  0.9024  1.0120 -0.0610
  176SOL    HW2 1970   2.766   6.330   7.063  0.5815 -2.2043 -0.0297
  177SOL     OW 1971   3.614   3.296   8.431 -0.3791 -0.4323 -0.1059
  177SOL    HW1 1972   3.613   3.233   8.503  0.1490 -1.7958 -1.2575
  177SOL    HW2 1973   3.524   3.296   8.398 -0.5322 -0.0848  0.2995
  178SOL     OW 1974   4.002   1.000   2.602  0.0624 -0.2893  0.5709
  178SOL    HW1 1975   3.949   0.922   2.584 -0.0285 -0.4884  1.5940
  178SOL    HW2 1976   3.939   1.068   2.622  0.1535 -0.4697  1.5738
  179SOL     OW 1977   4.686   2.725   0.316 -0.6903  0.2812  0.2807
  179SOL    HW1 1978   4.640   2.735   0.399 -0.2202  1.2426  0.4467
  179SOL    HW2 1979   4.776   2.751   0.335 -0.1906 -1.0569 -0.1599
  180SOL     OW 1980   3.662   6.038   0.800  0.2041 -0.1869 -0.3412
  180SOL    HW1 1981   3.582   6.049   0.852 -0.2534  0.1480 -1.1089
  180SOL    HW2 1982   3.724   6.100   0.839 -0.6065  1.1453 -1.1175
  181SOL     OW 1983   1.235   6.888   6.493  0.7345 -0.0572  0.4744
  181SOL    HW1 1984   1.231   6.883   6.589 -2.1010  0.5921  0.4992
  181SOL    HW2 1985   1.162   6.946   6.470  0.6625 -1.0679 -2.1456
  182SOL     OW 1986   4.218   6.466  12.167 -0.5301  0.0041  0.0031
  182SOL    HW1 1987   4.187   6.546  12.209  0.1431  0.1930  0.1587
  182SOL    HW2 1988   4.263   6.496  12.088 -1.4779 -0.3263 -0.6743
  183SOL     OW 1989   0.826   4.079   9.863  0.6928  0.3322  0.4138
  183SOL    HW1 1990   0.896   4.121   9.813  0.3179  1.8191  1.0862
  183SOL    HW2 1991   0.750   4.135   9.850 -0.1653 -0.8035  0.3776
  184SOL     OW 1992   7.265   6.085   9.741 -1.0158  0.1208 -0.1328
  184SOL    HW1 1993   7.172   6.073   9.725 -1.4667  1.8610  0.9628
  184SOL    HW2 1994   7.290   6.010   9.795 -1.3238 -1.3318 -1.9040
  185SOL     OW 1995   6.062   2.072   2.833  0.6619 -0.1773 -0.0025
  185SOL    HW1 1996   6.015   2.096   2.753  0.3882 -1.5556 -0.2749
  185SOL    HW2 1997   5.995   2.074   2.901  0.6602 -0.0575 -0.0081
  186SOL     OW 1998   3.251   4.527   5.375  0.0272 -0.2183  0.4266
  186SOL    HW1 1999   3.229   4.437   5.400  0.8096 -0.7579 -0.7181
  186SOL    HW2 2000   3.322   4.551   5.435  1.3358 -1.2042 -0.6503
  187SOL     OW 2001   4.078   3.058  10.094 -0.2170 -0.5630  0.1767
  187SOL    HW1 2002   4.053   3.076  10.003 -1.8401  0.0048  0.7079
  187SOL    HW2 2003   4.008   3.002  10.127  1.3456 -2.3829  0.5415
  188SOL     OW 2004   1.617   0.631   7.642 -0.6041 -0.2552  0.4505
  188SOL    HW1 2005   1.571   0.707   7.605 -0.7905 -0.4281  0.3297
  188SOL    HW2 2006   1.626   0.570   7.569  0.1074 -0.0922  0.3851
  189SOL     OW 2007   4.731   6.889  10.250  0.3324  0.4985  0.0552
  189SOL    HW1 2008   4.760   6.862  10.163  0.1991 -0.1014  0.1896
  189SOL    HW2 2009   4.638   6.866  10.253  0.1090  1.3591  0.0332
  190SOL     OW 2010   4.156   4.639   1.626 -1.2472  0.0614  0.2493
  190SOL    HW1 2011   4.174   4.546   1.638 -0.5435  0.2974  1.0681
  190SOL    HW2 2012   4.097   4.642   1.551 -0.9354 -1.0115 -0.0552
  191SOL     OW 2013   3.014   2.597   4.700  0.4023  0.2306 -0.0236
  191SOL    HW1 2014   2.961   2.518   4.714  0.9683  0.0659  1.3096
  191SOL    HW2 2015   2.950   2.663   4.672 -0.4401 -0.1005  1.0609
  192SOL     OW 2016   3.017   0.089   3.418  0.2888  0.1084  0.4950
  192SOL    HW1 2017   3.042   0.176   3.450 -0.9367  1.1464 -1.1811
  192SOL    HW2 2018   3.001   0.102   3.325 -1.4616 -1.5684  0.5049
  193SOL     OW 2019   0.161   4.414   3.420  0.4088  0.0077  0.0107
  193SOL    HW1 2020   0.229   4.349   3.434  1.0150  0.4464 -0.8400
  193SOL    HW2 2021   0.153   4.460   3.504  1.9579  0.6986 -0.1929
  194SOL     OW 2022   1.199   7.565   6.931 -0.6353  0.0339  0.0693
  194SOL    HW1 2023   1.183   7.546   7.024 -2.8204 -0.6732 -0.4177
  194SOL    HW2 2024   1.291   7.594   6.929 -0.6911  0.6369  2.5237
  195SOL     OW 2025   2.078   3.012   8.367  0.4612 -0.5482  0.3368
  195SOL    HW1 2026   2.106   3.100   8.341 -1.1363  0.4450  1.8062
  195SOL    HW2 2027   2.148   2.981   8.424  2.8187 -1.7915 -2.9051
  196SOL     OW 2028   2.184   7.356   6.213  0.6704 -0.0518 -0.3713
  196SOL    HW1 2029   2.264   7.306   6.228  0.3917 -0.8041 -1.2606
  196SOL    HW2 2030   2.134   7.347   6.294  1.1348 -0.2539 -0.1050
  197SOL     OW 2031   6.950   6.582  11.679 -0.1523  0.2220 -0.2645
  197SOL    HW1 2032   6.934   6.503  11.628 -0.6853 -0.5648  1.0952
  197SOL    HW2 2033   7.045   6.592  11.678 -0.1561  0.2417 -1.4295
  198SOL     OW 2034   1.309   5.638   6.154  0.2446 -0.1148 -0.4783
  198SOL    HW1 2035   1.400   5.617   6.131 -0.3589 -1.8557 -1.4368
  198SOL    HW2 2036   1.317   5.714   6.212  2.2363  0.4918 -1.4252
  199SOL     OW 2037   1.895   1.898   9.521 -0.0750 -0.0943  0.2523
  199SOL    HW1 2038   1.855   1.851   9.594 -0.0565 -1.3810 -0.5366
  199SOL    HW2 2039   1.858   1.986   9.526 -1.6228 -0.7280  0.6220
  200SOL     OW 2040   0.390   4.640   9.076  0.4501 -0.1435  0.5461
  200SOL    HW1 2041   0.460   4.626   9.013 -0.0003  0.6615 -0.1464
  200SOL    HW2 2042   0.314   4.661   9.023  0.1767  1.0049  1.3671
  201SOL     OW 2043   2.566   2.569   0.145 -0.5783  0.4941 -0.1106
  201SOL    HW1 2044   2.506   2.598   0.076  0.5033  1.1913 -0.7999
  201SOL    HW2 2045   2.543   2.478   0.161 -0.9337  0.3528 -1.3219
  202SOL     OW 2046   6.302   5.571   4.589 -0.1048 -0.0459  0.3365
  202SOL    HW1 2047   6.309   5.666   4.580  1.1356 -0.0569  0.9599
  202SOL    HW2 2048   6.264   5.558   4.676  0.8176 -0.1109  0.7495
  203SOL     OW 2049   3.462   5.660  10.446 -0.2043 -0.3012  0.1633
  203SOL    HW1 2050   3.429   5.739  10.488  1.2392  1.1828 -1.3261
  203SOL    HW2 2051   3.432   5.667  10.355 -0.8110 -1.9364  0.2141
  204SOL     OW 2052   7.479   1.927   1.889 -0.2336  0.3030 -0.4635
  204SOL    HW1 2053   7.408   1.913   1.827 -2.1362  0.1533  1.6080
  204SOL    HW2 2054   7.543   1.860   1.867 -0.8023  0.3004 -2.2692
  205SOL     OW 2055   5.647   3.991   5.173  0.2836  0.3076 -0.2334
  205SOL    HW1 2056   5.681   3.999   5.263  0.0659  1.1947 -0.2175
  205SOL    HW2 2057   5.704   4.048   5.122  1.0396 -0.9607 -0.8576
  206SOL     OW 2058   2.062   3.453  10.208 -0.3563  0.1714  0.7084
  206SOL    HW1 2059   2.123   3.423  10.140 -0.9898 -0.0905  0.2504
  206SOL    HW2 2060   2.024   3.534  10.172  1.6571  1.8534  2.1025
  207SOL     OW 2061   2.302   0.669   5.506  0.0372  0.1425 -0.6559
  207SOL    HW1 2062   2.214   0.653   5.540 -0.0706  0.1389 -0.9374
  207SOL    HW2 2063   2.296   0.650   5.412  0.2269  0.5636 -0.7568
  208SOL     OW 2064   2.807   7.750   7.117 -0.5170  0.2007  0.0891
  208SOL    HW1 2065   2.789   7.738   7.024 -1.5986 -1.7024  0.4809
  208SOL    HW2 2066   2.809   7.661   7.152  1.8568  0.7678  1.5608
  209SOL     OW 2067   5.824   4.708   4.912  0.2017  0.5518 -0.1938
  209SOL    HW1 2068   5.832   4.783   4.970 -0.3355 -0.1595  0.8271
  209SOL    HW2 2069   5.912   4.670   4.910  0.3369  0.8620 -0.2483
  210SOL     OW 2070   1.172   5.905   7.729  0.3859 -0.8295  0.1397
  210SOL    HW1 2071   1.165   5.845   7.655 -0.5520  1.0612 -1.3993
  210SOL    HW2 2072   1.102   5.879   7.789 -1.2224 -0.1740 -1.3874
  211SOL     OW 2073   0.698   1.687   5.996 -0.3508 -0.2502  0.4704
  211SOL    HW1 2074   0.636   1.701   6.068 -1.9730 -0.4395 -0.8346
  211SOL    HW2 2075   0.711   1.592   5.994  0.2025 -0.1883  0.9046
  212SOL     OW 2076   4.849   7.723   0.700 -0.0087 -0.0648  0.1858
  212SOL    HW1 2077   4.869   7.717   0.794  2.3838  0.1826 -0.2313
  212SOL    HW2 2078   4.776   7.784   0.695  0.5056  0.7471  1.8466
  213SOL     OW 2079   1.965   5.998   0.337  0.0054 -0.0847  1.0373
  213SOL    HW1 2080   1.890   6.048   0.304 -0.5465 -0.5265  1.6061
  213SOL    HW2 2081   2.040   6.034   0.290 -0.6543 -0.1615 -0.1217
  214SOL     OW 2082   3.316   5.642  10.218 -0.3036  0.1484  0.6799
  214SOL    HW1 2083   3.345   5.673  10.132 -1.3006 -0.2189  0.1946
  214SOL    HW2 2084   3.279   5.555  10.200  1.5222 -0.9523  1.8444
  215SOL     OW 2085   5.815   5.304  11.208  0.4883  0.3743 -0.0050
  215SOL    HW1 2086   5.769   5.388  11.205  1.8071  1.1048 -0.2292
  215SOL    HW2 2087   5.810   5.278  11.300 -0.2632  0.4944 -0.0024
  216SOL     OW 2088   7.623   1.599   4.882 -0.1422  0.7246  0.0745
  216SOL    HW1 2089   7.602   1.551   4.962 -0.1986 -0.2767 -0.5157
  216SOL    HW2 2090   7.715   1.623   4.892  0.7784 -2.0316 -0.7999
  217SOL     OW 2091   2.478   7.008   0.249 -0.2807  0.4163  0.6981
  217SOL    HW1 2092   2.455   7.073   0.315  0.4392  1.5532 -0.1087
  217SOL    HW2 2093   2.470   7.056   0.166 -0.9349 -0.9020 -0.0220
  218SOL     OW 2094   5.860   0.514   3.672  0.5020  0.0888 -0.8028
  218SOL    HW1 2095   5.899   0.434   3.708  0.3699 -0.1493 -1.1802
  218SOL    HW2 2096   5.791   0.536   3.734  2.0612  1.2726  0.6016
  219SOL     OW 2097   2.571   7.820   8.613 -0.4023  0.0759 -0.4992
  219SOL    HW1 2098   2.529   7.739   8.584  1.1983 -0.1660 -2.3436
  219SOL    HW2 2099   2.520   7.890   8.572 -0.8417 -0.0667 -0.1971
  220SOL     OW 2100   6.817   0.116   1.019 -0.4101 -0.5411  0.2622
  220SOL    HW1 2101   6.889   0.177   1.001  0.6777 -1.4683  1.2847
  220SOL    HW2 2102   6.746   0.171   1.051 -0.3880  0.4567 -1.2820
  221SOL     OW 2103   2.228   4.458   5.112  0.2317  0.1050 -0.3380
  221SOL    HW1 2104   2.213   4.552   5.117 -0.5157  0.0424 -1.0506
  221SOL    HW2 2105   2.322   4.449   5.097  0.6420  0.6390  1.6753
  222SOL     OW 2106   3.588   0.144  10.338 -0.0225  0.3318 -0.1116
  222SOL    HW1 2107   3.648   0.102  10.400  0.9814  1.9276  0.0744
  222SOL    HW2 2108   3.553   0.072  10.285 -0.7903 -1.0777  2.1626
  223SOL     OW 2109   3.041   1.546   9.339 -0.0673  0.2096 -0.1423
  223SOL    HW1 2110   3.041   1.629   9.291 -0.9803  0.5032  0.3442
  223SOL    HW2 2111   3.079   1.483   9.278  0.1376  0.8750 -0.7115
  224SOL     OW 2112   4.576   7.749   5.715 -1.0243  0.2579 -0.5709
  224SOL    HW1 2113   4.606   7.803   5.788 -1.9589  0.2828 -0.1934
  224SOL    HW2 2114   4.518   7.683   5.755 -0.1002 -0.8858 -1.0498
  225SOL     OW 2115   3.280   1.879  11.951  0.6272  0.2629  0.4568
  225SOL    HW1 2116   3.280   1.844  12.040  1.9019 -1.7349 -0.2788
  225SOL    HW2 2117   3.188   1.877  11.925  0.3122  0.3006  1.4880
  226SOL     OW 2118   7.764   0.873   1.440 -0.2056 -0.4934 -0.2575
  226SOL    HW1 2119   7.747   0.851   1.348 -1.6087  0.2960 -0.2014
  226SOL    HW2 2120   7.819   0.801   1.471  0.0152 -0.9440 -1.6231
  227SOL     OW 2121   5.288   6.788   7.393 -0.6536 -0.6350  0.2584
  227SOL    HW1 2122   5.195   6.786   7.414 -0.7550 -0.6523 -0.1854
  227SOL    HW2 2123   5.332   6.780   7.478 -1.0470  0.7955  0.6277
  228SOL     OW 2124   7.116   3.154   3.008 -0.2443  0.2144 -0.3160
  228SOL    HW1 2125   7.043   3.102   2.974 -1.3868  1.0823  0.7185
  228SOL    HW2 2126   7.151   3.102   3.080  1.1724 -0.8929 -1.7167
  229SOL     OW 2127   4.185   1.497   5.922 -0.1516  0.0098  0.0756
  229SOL    HW1 2128   4.113   1.544   5.881 -0.8236  1.2113  2.4280
  229SOL    HW2 2129   4.262   1.517   5.868 -0.9880  1.3735 -0.6538
  230SOL     OW 2130   0.168   7.732  11.853  0.2893 -0.4207 -0.0741
  230SOL    HW1 2131   0.145   7.674  11.926 -0.6138 -0.0216 -0.0208
  230SOL    HW2 2132   0.198   7.673  11.784  4.4705 -0.6829  1.6501
  231SOL     OW 2133   1.080   5.156   7.551  0.4719 -0.6160 -0.2182
  231SOL    HW1 2134   1.030   5.190   7.625  1.0913 -3.2927  1.5376
  231SOL    HW2 2135   1.133   5.231   7.522 -1.3733  1.0849  0.5879
  232SOL     OW 2136   0.914   6.435  10.415 -0.0549 -0.6061 -0.2836
  232SOL    HW1 2137   0.978   6.368  10.390  0.4734 -0.2851  0.1811
  232SOL    HW2 2138   0.966   6.503  10.458 -0.6858 -0.2522 -0.0687
  233SOL     OW 2139   5.003   7.771   5.405 -0.3980 -0.7965  0.0359
  233SOL    HW1 2140   5.032   7.702   5.345  1.8327  0.9548 -1.0303
  233SOL    HW2 2141   5.052   7.848   5.379 -0.9608  0.6199  2.7733
  234SOL     OW 2142   7.284   5.399   3.719  0.3683  0.0532  0.1074
  234SOL    HW1 2143   7.338   5.324   3.693 -1.7230 -1.8031  0.8200
  234SOL    HW2 2144   7.197   5.362   3.734 -0.4802  2.4363  1.6535
  235SOL     OW 2145   4.834   3.329   6.856 -0.6497 -0.3517  0.2734
  235SOL    HW1 2146   4.807   3.304   6.768 -1.1035  1.1025 -0.0347
  235SOL    HW2 2147   4.893   3.404   6.843 -0.8293 -0.0349  1.1933
  236SOL     OW 2148   6.311   4.909   7.750 -0.6243 -0.1231  0.6569
  236SOL    HW1 2149   6.371   4.842   7.718 -0.5848 -0.1505  0.7873
  236SOL    HW2 2150   6.299   4.968   7.676  0.3176  0.4207  0.9232
  237SOL     OW 2151   2.657   0.933  12.203  0.6835 -0.4438  0.4224
  237SOL    HW1 2152   2.570   0.908  12.232  1.4630 -1.5558  1.9502
  237SOL    HW2 2153   2.686   0.998  12.267  1.8712 -1.8780  1.4401
  238SOL     OW 2154   1.857   6.267   1.113  0.1245 -0.4596 -0.1287
  238SOL    HW1 2155   1.795   6.316   1.059  0.3360 -1.1414 -1.0154
  238SOL    HW2 2156   1.829   6.284   1.203  0.1337  1.1905 -0.4059
  239SOL     OW 2157   3.366   6.251   5.030  0.6548  0.6645 -0.3869
  239SOL    HW1 2158   3.460   6.241   5.020  0.5184 -2.6954  0.5375
  239SOL    HW2 2159   3.355   6.287   5.118  1.0785 -0.8227  0.3043
  240SOL     OW 2160   5.627   7.245   1.204 -0.0098  0.1858 -0.2858
  240SOL    HW1 2161   5.615   7.285   1.118 -1.1798  1.6250  0.4923
  240SOL    HW2 2162   5.722   7.234   1.212  0.0966 -0.2425 -1.8473
  241SOL     OW 2163   2.158   1.867   3.148  0.2194 -0.0416  0.7823
  241SOL    HW1 2164   2.136   1.797   3.087 -0.4000 -0.9211  1.9851
  241SOL    HW2 2165   2.074   1.894   3.185  0.4284  1.4576  0.2333
  242SOL     OW 2166   5.772   1.736   2.956 -0.3244 -0.0156 -0.0218
  242SOL    HW1 2167   5.708   1.763   3.022 -0.6431 -1.1063  0.1347
  242SOL    HW2 2168   5.718   1.702   2.884  0.0627 -1.8964  0.5207
  243SOL     OW 2169   2.450   4.724   3.306 -0.0380  0.0114  0.3260
  243SOL    HW1 2170   2.405   4.805   3.284 -1.2628 -0.3113  1.5165
  243SOL    HW2 2171   2.487   4.740   3.393 -0.0794 -0.6335  0.4661
  244SOL     OW 2172   2.094   4.592   7.853 -0.5822  0.3210  0.3566
  244SOL    HW1 2173   2.097   4.657   7.923  1.4909  0.5058  0.1319
  244SOL    HW2 2174   2.155   4.524   7.881 -0.0198  0.2050 -1.0906
  245SOL     OW 2175   6.245   4.021   0.790 -0.1801  0.6759 -0.4332
  245SOL    HW1 2176   6.157   3.992   0.817  0.4869 -1.3873 -0.3165
  245SOL    HW2 2177   6.234   4.049   0.699 -1.6400  3.9213  0.6006
  246SOL     OW 2178   7.582   3.681   8.323 -0.3995 -0.2349 -0.0726
  246SOL    HW1 2179   7.650   3.728   8.274 -1.3863  1.2587 -0.0663
  246SOL    HW2 2180   7.627   3.604   8.358  1.5142  1.1409  0.6678
  247SOL     OW 2181   0.791   7.784  11.691  0.7552  0.4242  0.4064
  247SOL    HW1 2182   0.853   7.717  11.663  1.1192  0.8787  0.1331
  247SOL    HW2 2183   0.841   7.842  11.749  0.7002  1.0244 -0.1378
  248SOL     OW 2184   6.858   0.475   4.760 -0.2820 -0.0477  0.2606
  248SOL    HW1 2185   6.900   0.476   4.674 -0.7102 -0.9359  0.0204
  248SOL    HW2 2186   6.851   0.567   4.785 -0.4000  0.2380 -0.7774
  249SOL     OW 2187   1.412   2.903   0.277 -0.0838 -0.0718  0.1533
  249SOL    HW1 2188   1.448   2.907   0.189  0.2560 -0.9898  0.2409
  249SOL    HW2 2189   1.358   2.982   0.285  1.7853  1.2776 -0.0304
  250SOL     OW 2190   5.659   1.454   1.880  0.5763  0.1890 -0.4264
  250SOL    HW1 2191   5.608   1.375   1.866  0.9868 -0.0721 -0.4522
  250SOL    HW2 2192   5.612   1.522   1.831 -0.0923  0.0904  0.0679
  251SOL     OW 2193   4.510   4.066   4.067  0.2641 -0.1144  0.0733
  251SOL    HW1 2194   4.486   4.085   3.976 -1.3676 -1.2585  0.2160
  251SOL    HW2 2195   4.580   4.002   4.060 -0.5923 -1.0326 -0.4254
  252SOL     OW 2196   6.261   4.027   3.242  0.1626 -0.0251  0.1927
  252SOL    HW1 2197   6.225   3.999   3.158 -0.5383  0.9166  0.1636
  252SOL    HW2 2198   6.203   3.988   3.308 -0.5963  1.0047  0.1617
  253SOL     OW 2199   7.195   6.350   2.715 -0.3775  0.4059 -0.2198
  253SOL    HW1 2200   7.108   6.387   2.701 -0.9905 -1.7187 -2.7864
  253SOL    HW2 2201   7.242   6.365   2.633  1.2591  0.3907  0.6695
  254SOL     OW 2202   0.667   2.803   3.641 -0.4197  0.7532  0.3294
  254SOL    HW1 2203   0.727   2.731   3.659 -0.5446  0.6922  0.4985
  254SOL    HW2 2204   0.580   2.763   3.639 -0.3079  0.4974 -1.8003
  255SOL     OW 2205   6.000   1.431   8.995 -0.5902  0.2311 -0.0776
  255SOL    HW1 2206   6.034   1.462   8.911 -0.6310  0.2620 -0.0826
  255SOL    HW2 2207   5.948   1.504   9.028 -1.0800 -0.0109 -0.3157
  256SOL     OW 2208   1.556   1.881  12.020  0.1586 -0.2081  0.0146
  256SOL    HW1 2209   1.470   1.918  11.997  0.8190  2.6887  1.6384
  256SOL    HW2 2210   1.602   1.874  11.937 -1.1983 -0.5542 -0.7424
  257SOL     OW 2211   6.268   6.450   1.128 -0.1660 -0.2347 -0.2517
  257SOL    HW1 2212   6.208   6.385   1.093  0.0567 -0.7577  0.3093
  257SOL    HW2 2213   6.290   6.506   1.054  0.0223 -1.0993 -0.8649
  258SOL     OW 2214   0.382   4.727   9.465  0.7748  0.4633 -0.2593
  258SOL    HW1 2215   0.433   4.733   9.384  2.3041 -2.5437  0.3323
  258SOL    HW2 2216   0.439   4.767   9.532  0.3874  1.1059 -0.3031
  259SOL     OW 2217   5.795   4.683  11.223  0.0322 -0.1859 -0.1337
  259SOL    HW1 2218   5.866   4.735  11.261 -0.4377  0.2717  0.1455
  259SOL    HW2 2219   5.837   4.603  11.191  0.4661 -0.5239  1.2374
  260SOL     OW 2220   2.052   7.330   6.505 -0.0723  0.0027  0.3427
  260SOL    HW1 2221   1.995   7.261   6.472  0.1485  0.1317 -0.3134
  260SOL    HW2 2222   1.992   7.393   6.545 -0.4282  0.2882 -0.6064
  261SOL     OW 2223   7.359   2.695   7.964 -0.6451  0.2908  0.2980
  261SOL    HW1 2224   7.300   2.648   7.905  0.4440  0.6180 -1.1148
  261SOL    HW2 2225   7.428   2.632   7.985 -0.2541  0.6157  0.0204
  262SOL     OW 2226   4.400   5.023   4.870  0.4651 -0.2362 -0.1788
  262SOL    HW1 2227   4.412   5.094   4.807  0.5015 -0.0936 -0.0123
  262SOL    HW2 2228   4.432   4.945   4.825  2.3533  0.1770  0.3816
  263SOL     OW 2229   4.548   0.666   8.021 -0.3542 -0.1138 -0.0968
  263SOL    HW1 2230   4.515   0.755   8.014  0.0555  0.0684  0.3054
  263SOL    HW2 2231   4.559   0.651   8.114  2.5227  0.5152 -0.2409
  264SOL     OW 2232   0.578   2.778   5.050  0.0993 -0.3645 -0.0361
  264SOL    HW1 2233   0.642   2.736   5.106  3.0316  2.5616 -0.8735
  264SOL    HW2 2234   0.553   2.858   5.098 -0.3804  0.1789 -1.1464
  265SOL     OW 2235   0.869   6.422  11.819  0.0867  0.3161  0.0417
  265SOL    HW1 2236   0.815   6.429  11.740  1.6268 -2.3397 -1.3800
  265SOL    HW2 2237   0.949   6.471  11.797  1.2342 -1.8064 -0.8441
  266SOL     OW 2238   3.291   2.354   5.527 -0.6431 -0.0379  1.1244
  266SOL    HW1 2239   3.307   2.374   5.619 -0.1718 -0.8298  1.2273
  266SOL    HW2 2240   3.277   2.259   5.525  0.8598 -0.2707  0.1945
  267SOL     OW 2241   7.000   5.809   3.049  0.1253  0.4112  0.3502
  267SOL    HW1 2242   6.976   5.892   3.008 -0.0184  0.1637 -0.0824
  267SOL    HW2 2243   7.070   5.774   2.993  1.1983  0.9121  1.3430
  268SOL     OW 2244   7.187   1.979   7.903  0.2571  0.6587  0.3643
  268SOL    HW1 2245   7.155   1.953   7.816 -1.3212 -0.9597  1.3848
  268SOL    HW2 2246   7.282   1.987   7.891 -0.0334  1.6293 -1.7704
  269SOL     OW 2247   4.582   4.565   2.180  0.1468 -0.2077 -0.1610
  269SOL    HW1 2248   4.591   4.603   2.267  0.1941 -0.4817 -0.0469
  269SOL    HW2 2249   4.524   4.490   2.192 -0.7460  0.3974 -0.5577
  270SOL     OW 2250   5.403   6.853   7.798  0.3407 -0.0395 -0.2994
  270SOL    HW1 2251   5.411   6.890   7.886  0.4287  0.7602 -0.6309
  270SOL    HW2 2252   5.374   6.763   7.812  3.0562 -0.8616  0.6860
  271SOL     OW 2253   5.567   4.172   9.904  0.4350 -0.1737 -0.3423
  271SOL    HW1 2254   5.630   4.119   9.953  1.1366  0.1647 -0.8552
  271SOL    HW2 2255   5.572   4.138   9.815  0.1789  0.1136 -0.4672
  272SOL     OW 2256   6.456   3.349   9.922 -0.2567 -0.2966 -0.0457
  272SOL    HW1 2257   6.539   3.380   9.958  0.0575 -0.6990 -0.4061
  272SOL    HW2 2258   6.442   3.264   9.965 -0.9777  0.2155  0.7450
  273SOL     OW 2259   1.702   3.404  11.382 -0.3601  0.0863  0.0561
  273SOL    HW1 2260   1.701   3.499  11.370 -0.1165 -0.0505 -1.1738
  273SOL    HW2 2261   1.662   3.370  11.303  1.5745 -0.9244 -0.5410
  274SOL     OW 2262   0.765   5.700   7.554  0.1543 -0.1880  0.0976
  274SOL    HW1 2263   0.852   5.666   7.577  0.9835  2.0801  0.5228
  274SOL    HW2 2264   0.744   5.655   7.472  0.5416 -2.6882  1.2683
  275SOL     OW 2265   5.058   2.453   1.183 -0.7128  0.4085  0.3557
  275SOL    HW1 2266   5.053   2.520   1.251  2.0804 -0.6436  1.7424
  275SOL    HW2 2267   5.002   2.382   1.214 -0.1376  0.2901  1.1305
  276SOL     OW 2268   3.316   7.306   0.611 -0.3040 -0.1248 -0.4842
  276SOL    HW1 2269   3.364   7.252   0.548  1.5060  0.6279  0.1755
  276SOL    HW2 2270   3.252   7.246   0.650  1.9594 -1.9946  0.6076
  277SOL     OW 2271   2.425   2.448   4.598 -0.1035 -0.2698 -0.0584
  277SOL    HW1 2272   2.451   2.357   4.590 -0.2649 -0.3049 -0.1896
  277SOL    HW2 2273   2.350   2.446   4.657 -0.6467 -0.3207 -0.7354
  278SOL     OW 2274   0.532   7.784   6.655 -0.2002  0.3045 -0.5064
  278SOL    HW1 2275   0.463   7.775   6.590 -0.5013  1.2827 -0.3523
  278SOL    HW2 2276   0.613   7.784   6.605 -0.3298 -0.5902 -0.7145
  279SOL     OW 2277   0.290   6.307  10.699  0.7605 -0.5003  0.1853
  279SOL    HW1 2278   0.203   6.347  10.710  0.0263 -1.9671 -0.0359
  279SOL    HW2 2279   0.323   6.345  10.617  1.2948  1.6773  1.3109
  280SOL     OW 2280   4.473   3.258   4.727 -0.0885  0.0418  0.0212
  280SOL    HW1 2281   4.514   3.272   4.642  0.7261  1.1756  0.5792
  280SOL    HW2 2282   4.542   3.279   4.791 -0.1970 -2.1904  0.9791
  281SOL     OW 2283   2.088   7.264   4.360  0.3282  0.0602  0.6939
  281SOL    HW1 2284   2.117   7.179   4.327 -0.0097  0.3937 -0.5539
  281SOL    HW2 2285   2.146   7.327   4.318  0.2924  0.4792  1.2611
  282SOL     OW 2286   5.835   3.959  11.648 -0.0954  0.6597  0.1649
  282SOL    HW1 2287   5.914   3.991  11.692  0.0105  1.2050 -0.3904
  282SOL    HW2 2288   5.772   4.030  11.658  0.2887  1.2991 -1.4847
  283SOL     OW 2289   3.806   0.110   3.610  0.1547 -0.2697 -0.5447
  283SOL    HW1 2290   3.891   0.153   3.602  0.4218 -0.5581  0.6253
  283SOL    HW2 2291   3.742   0.178   3.587  0.6577  0.1999 -0.5605
  284SOL     OW 2292   2.870   0.931  11.408 -0.0008  0.3828  0.0966
  284SOL    HW1 2293   2.885   1.020  11.378  1.2931  0.1756  0.0805
  284SOL    HW2 2294   2.835   0.885  11.331  0.2746  0.6279 -0.1753
  285SOL     OW 2295   3.839   2.024  10.127  0.1366  0.2953 -0.2648
  285SOL    HW1 2296   3.905   1.963  10.093 -0.2327  0.3150 -1.0471
  285SOL    HW2 2297   3.773   2.028  10.058 -1.2594 -0.5805  0.9871
  286SOL     OW 2298   6.672   0.911   6.272 -0.2947 -0.2240 -0.5408
  286SOL    HW1 2299   6.760   0.948   6.260 -0.5756  0.0648 -1.8632
  286SOL    HW2 2300   6.687   0.831   6.323  0.3213  1.6374  2.4187
  287SOL     OW 2301   6.453   2.872   0.513  0.3616 -0.3366 -0.0336
  287SOL    HW1 2302   6.500   2.927   0.576  1.6820 -0.4661 -0.8650
  287SOL    HW2 2303   6.390   2.823   0.566 -0.2979  1.3654  0.8361
  288SOL     OW 2304   0.071   0.567   9.660  0.1713 -0.2009  0.1042
  288SOL    HW1 2305   0.030   0.614   9.733  0.5952 -0.0161  0.2269
  288SOL    HW2 2306   0.157   0.541   9.693  0.6893  0.5671 -0.5752
  289SOL     OW 2307   3.573   4.136   5.136  0.2151  0.2492  0.2433
  289SOL    HW1 2308   3.480   4.156   5.146 -0.0690  0.2396 -1.9771
  289SOL    HW2 2309   3.610   4.212   5.093  1.1975  0.1185  0.8187
  290SOL     OW 2310   5.903   7.702   1.664 -0.3033 -0.1884 -0.1434
  290SOL    HW1 2311   5.861   7.779   1.626  0.0068 -0.1317 -0.3808
  290SOL    HW2 2312   5.862   7.628   1.619 -1.5823 -0.2370  1.0615
  291SOL     OW 2313   5.153   4.070   6.469  0.6156 -0.3030  0.1536
  291SOL    HW1 2314   5.093   4.057   6.542  0.7131  0.9593  0.4765
  291SOL    HW2 2315   5.232   4.106   6.509  0.4342  1.0195 -0.6469
  292SOL     OW 2316   5.626   1.993   1.369  0.3815 -0.5752 -0.6023
  292SOL    HW1 2317   5.638   2.077   1.414 -0.7062 -0.4341 -0.5579
  292SOL    HW2 2318   5.655   1.928   1.432 -0.6818 -0.3493  0.1557
  293SOL     OW 2319   2.620   7.802   9.085  0.2793  0.2423  0.0171
  293SOL    HW1 2320   2.586   7.846   9.007 -3.6172 -0.4240  1.1448
  293SOL    HW2 2321   2.603   7.863   9.157  2.2712  0.1371  0.6585
  294SOL     OW 2322   0.441   3.872   9.986  0.4516  0.1505 -0.0066
  294SOL    HW1 2323   0.405   3.830  10.064  1.2476 -0.3574  0.1005
  294SOL    HW2 2324   0.402   3.959   9.985 -0.9429 -0.4443 -0.0285
  295SOL     OW 2325   3.556   0.938   4.715  0.1902 -0.4744 -0.0555
  295SOL    HW1 2326   3.566   0.889   4.634  0.6064  0.8547 -0.8286
  295SOL    HW2 2327   3.568   1.029   4.690  0.7014 -0.0654  1.5717
  296SOL     OW 2328   0.012   7.534   4.986  0.2535 -0.8240 -0.6019
  296SOL    HW1 2329  -0.072   7.497   5.013 -0.6409  1.6047  0.1542
  296SOL    HW2 2330   0.033   7.598   5.053  1.9821 -0.3142 -1.5664
  297SOL     OW 2331   6.034   6.971   8.332 -0.3069  0.1000 -0.5810
  297SOL    HW1 2332   6.100   6.905   8.310 -0.1506  0.2671 -0.6153
  297SOL    HW2 2333   6.030   6.970   8.428 -0.2649  0.0780 -0.5794
  298SOL     OW 2334   6.034   1.752   0.419  0.0196  0.0205 -0.0342
  298SOL    HW1 2335   6.056   1.800   0.499 -1.7995  0.1260  0.4531
  298SOL    HW2 2336   5.988   1.817   0.365  0.1294 -0.3938 -0.6311
  299SOL     OW 2337   7.833   3.372   0.681  0.6743  0.1761 -0.0864
  299SOL    HW1 2338   7.815   3.336   0.768  0.9278 -3.4070 -1.3497
  299SOL    HW2 2339   7.817   3.299   0.621  2.4971  1.8818 -2.8722
  300SOL     OW 2340   5.193   1.922  12.135  0.0232  0.2082 -0.1643
  300SOL    HW1 2341   5.192   1.829  12.110 -1.2924  0.1550 -0.0118
  300SOL    HW2 2342   5.126   1.929  12.203  0.0447  1.2935 -0.2362
  301SOL     OW 2343   1.844   7.396   0.791  0.8405  0.1680 -0.4075
  301SOL    HW1 2344   1.768   7.369   0.741  0.2977  2.3121 -0.8502
  301SOL    HW2 2345   1.917   7.347   0.754  0.3263  1.0898 -2.8014
  302SOL     OW 2346   4.527   4.523   9.093 -0.0519 -0.2624  0.3647
  302SOL    HW1 2347   4.475   4.509   9.172 -0.7580  0.5639  0.0653
  302SOL    HW2 2348   4.557   4.614   9.101 -1.2860  0.3043 -0.9600
  303SOL     OW 2349   4.435   5.226  10.514 -0.3696  0.3564  0.0208
  303SOL    HW1 2350   4.453   5.134  10.531  0.2447  0.2939 -0.8993
  303SOL    HW2 2351   4.342   5.236  10.533 -0.2032 -0.1835  1.2090
  304SOL     OW 2352   7.795   5.123   6.258  0.2086  0.6605 -0.0604
  304SOL    HW1 2353   7.890   5.124   6.265  0.1270 -0.8547  2.2972
  304SOL    HW2 2354   7.765   5.191   6.318 -0.1945 -0.2536  0.8117
  305SOL     OW 2355   1.642   2.373   5.587  0.3868  0.0134  0.3456
  305SOL    HW1 2356   1.735   2.376   5.611  0.3976  0.6151  0.2489
  305SOL    HW2 2357   1.622   2.280   5.577  1.5501 -0.0608 -1.8752
  306SOL     OW 2358   5.460   2.591   9.861  0.3346 -0.0161 -0.2033
  306SOL    HW1 2359   5.372   2.569   9.830  1.3465 -0.5777 -2.9975
  306SOL    HW2 2360   5.519   2.552   9.796  2.6413  0.9108  1.1972
  307SOL     OW 2361   3.353   7.050   9.531 -0.6201  0.2539 -0.2205
  307SOL    HW1 2362   3.278   7.109   9.524 -1.3855 -0.7862 -0.9597
  307SOL    HW2 2363   3.429   7.109   9.533 -1.4184  1.3026  0.1052
  308SOL     OW 2364   4.989   0.078   0.134  0.2242 -0.3376 -0.0618
  308SOL    HW1 2365   5.008  -0.011   0.165  1.6953 -0.1182 -0.2499
  308SOL    HW2 2366   5.056   0.132   0.176  0.3818  0.4257 -1.2565
  309SOL     OW 2367   6.190   3.925   5.762 -0.1998  0.2004 -0.0304
  309SOL    HW1 2368   6.112   3.870   5.769 -1.6985  2.3605  2.4675
  309SOL    HW2 2369   6.258   3.879   5.811 -1.1015  0.0216  1.0873
  310SOL     OW 2370   6.246   6.846   2.240 -0.3109 -0.4140 -0.0685
  310SOL    HW1 2371   6.156   6.858   2.270 -0.6004  2.1384 -1.6310
  310SOL    HW2 2372   6.237   6.803   2.155 -0.2241  1.2621 -0.9614
  311SOL     OW 2373   1.682   7.081   8.034  0.1852  0.2590 -0.2333
  311SOL    HW1 2374   1.687   6.994   8.073  1.0452  0.4407  0.0844
  311SOL    HW2 2375   1.703   7.066   7.941 -0.2694  0.0499 -0.3063
  312SOL     OW 2376   2.073   6.430  12.338  0.8218 -0.3469 -0.8982
  312SOL    HW1 2377   2.010   6.451  12.269  0.7932  1.3681 -0.3950
  312SOL    HW2 2378   2.020   6.411  12.415  0.8729 -1.5790 -1.1481
  313SOL     OW 2379   5.482   3.512  11.230  1.0915  0.0750  0.5496
  313SOL    HW1 2380   5.427   3.435  11.211  2.1372 -0.7727  0.8450
  313SOL    HW2 2381   5.424   3.571  11.278  0.5617 -1.0340  1.3232
  314SOL     OW 2382   2.282   1.038   7.538 -0.2888 -0.3943 -0.4535
  314SOL    HW1 2383   2.215   1.097   7.572 -0.8811 -1.3454  0.0922
  314SOL    HW2 2384   2.299   0.977   7.610  1.1708 -0.1788 -0.5791
  315SOL     OW 2385   7.878   6.776   8.923 -0.1012 -0.2082  0.1592
  315SOL    HW1 2386   7.793   6.767   8.966  0.1650 -0.8778  0.5716
  315SOL    HW2 2387   7.927   6.836   8.979  0.5822 -1.8173  1.3830
  316SOL     OW 2388   4.690   0.827   5.843 -0.0183  0.4172  0.4014
  316SOL    HW1 2389   4.766   0.865   5.798 -0.5150  1.0955  0.1089
  316SOL    HW2 2390   4.661   0.895   5.903 -0.2300  0.0546  0.7159
  317SOL     OW 2391   5.090   4.964   4.835  0.0568  0.7020 -0.3206
  317SOL    HW1 2392   5.063   4.940   4.924  0.3631  0.7230 -0.2181
  317SOL    HW2 2393   5.060   5.054   4.824 -0.3861  0.5452 -0.4075
  318SOL     OW 2394   4.873   6.842   7.269  0.0527 -0.4964 -0.0606
  318SOL    HW1 2395   4.792   6.837   7.320 -0.4776  1.8413 -0.5857
  318SOL    HW2 2396   4.846   6.816   7.180 -0.1846  0.4628 -0.2771
  319SOL     OW 2397   1.652   2.685   9.246  0.3806 -0.3493 -0.0969
  319SOL    HW1 2398   1.620   2.599   9.271  0.0491 -0.5305 -1.1069
  319SOL    HW2 2399   1.581   2.745   9.267 -0.0425 -0.5495 -0.9253
  320SOL     OW 2400   3.069   7.073   3.352 -0.0315 -0.3722  0.1416
  320SOL    HW1 2401   3.076   6.998   3.411 -2.1928 -0.1676  0.7706
  320SOL    HW2 2402   3.139   7.132   3.379  0.3275 -1.2056  1.0933
  321SOL     OW 2403   2.059   6.938   5.448 -0.5094 -0.0510  0.6625
  321SOL    HW1 2404   2.146   6.964   5.417 -0.4506 -0.9578  0.0255
  321SOL    HW2 2405   1.998   6.993   5.398 -0.2755  2.4143  2.9108
  322SOL     OW 2406   4.325   1.202   9.421 -0.2615 -0.5860 -0.0690
  322SOL    HW1 2407   4.297   1.156   9.500 -1.0565 -0.6369 -0.3758
  322SOL    HW2 2408   4.276   1.161   9.350 -1.6575  1.2569 -0.2535
  323SOL     OW 2409   6.494   4.764   1.010 -0.3127 -0.6835 -0.0866
  323SOL    HW1 2410   6.443   4.828   0.961 -4.2482 -1.7032  2.1791
  323SOL    HW2 2411   6.548   4.816   1.069  0.8424  0.4652 -2.0540
  324SOL     OW 2412   4.770   1.973   3.508 -0.0984  0.3804 -0.0087
  324SOL    HW1 2413   4.697   2.034   3.508 -1.7188 -1.4485 -0.2241
  324SOL    HW2 2414   4.811   1.984   3.423 -1.0857  0.3834 -0.4998
  325SOL     OW 2415   6.495   5.435   2.479 -0.2296 -0.1399 -0.2945
  325SOL    HW1 2416   6.514   5.458   2.570 -1.0870 -1.2620  0.1952
  325SOL    HW2 2417   6.466   5.344   2.484 -2.3430  0.4315 -1.4263
  326SOL     OW 2418   0.066   2.403   6.739  0.1603 -0.1866 -0.1429
  326SOL    HW1 2419   0.002   2.449   6.685 -0.9575 -0.0356  1.2434
  326SOL    HW2 2420   0.139   2.464   6.748 -0.1243  0.2213 -0.5637
  327SOL     OW 2421   4.613   5.449   5.945 -0.5600 -0.4112  0.3605
  327SOL    HW1 2422   4.578   5.533   5.973  0.9665  0.1525  0.6424
  327SOL    HW2 2423   4.656   5.468   5.861 -1.6710 -1.2841 -0.4488
  328SOL     OW 2424   7.044   0.366   4.264  0.0534  0.1359 -0.0574
  328SOL    HW1 2425   6.977   0.394   4.201  0.7304 -0.8374 -1.2547
  328SOL    HW2 2426   7.072   0.281   4.232  1.8485  0.5107  0.4350
  329SOL     OW 2427   4.511   1.384   9.086  0.2578  0.3923  0.1944
  329SOL    HW1 2428   4.417   1.371   9.070 -0.0532  1.8223  0.6929
  329SOL    HW2 2429   4.552   1.303   9.055 -0.9568  0.4422 -1.7056
  330SOL     OW 2430   2.445   4.871   6.708 -0.1052  0.1700  0.1181
  330SOL    HW1 2431   2.425   4.950   6.758 -0.8260  0.2782 -0.3230
  330SOL    HW2 2432   2.422   4.893   6.618  2.3743  0.4215 -0.5336
  331SOL     OW 2433   0.916   4.318   9.510  0.8322  0.5512  0.4303
  331SOL    HW1 2434   0.867   4.329   9.591  0.7351 -0.1966  0.4760
  331SOL    HW2 2435   0.943   4.407   9.486  0.3229  0.8463  0.9397
  332SOL     OW 2436   7.763   0.264   6.992 -0.1613 -0.4294 -0.1617
  332SOL    HW1 2437   7.687   0.210   6.974 -1.4157  0.8538  1.0331
  332SOL    HW2 2438   7.816   0.258   6.913 -1.8394 -0.8220 -1.3066
  333SOL     OW 2439   1.289   2.878  10.869 -0.1631  0.2492  0.2860
  333SOL    HW1 2440   1.290   2.836  10.783 -2.2219  2.9260 -1.2603
  333SOL    HW2 2441   1.224   2.829  10.919 -0.0165 -0.4783 -0.2282
  334SOL     OW 2442   7.785   0.756   5.348 -0.5670  0.0318  0.6090
  334SOL    HW1 2443   7.704   0.705   5.355 -0.7652 -0.0574 -1.5344
  334SOL    HW2 2444   7.855   0.695   5.368 -0.9489 -0.3242  0.8743
  335SOL     OW 2445   6.149   1.236   2.971 -0.2770  0.3821 -0.1148
  335SOL    HW1 2446   6.230   1.278   2.998 -0.5189  1.1892 -0.5929
  335SOL    HW2 2447   6.105   1.213   3.053 -0.0741  0.9609  0.1655
  336SOL     OW 2448   6.891   1.923   7.351 -0.2420  0.3006  0.0873
  336SOL    HW1 2449   6.969   1.967   7.319  0.3005  0.3771  1.4585
  336SOL    HW2 2450   6.910   1.830   7.339 -0.1974  0.3335 -0.1166
  337SOL     OW 2451   1.939   5.337   2.560  1.1616 -0.0165  0.3513
  337SOL    HW1 2452   2.015   5.389   2.532  1.1798 -0.4946 -0.5214
  337SOL    HW2 2453   1.864   5.395   2.547  1.3387  0.3668  0.9698
  338SOL     OW 2454   4.824   0.049   1.279 -0.5361 -0.3446 -0.3606
  338SOL    HW1 2455   4.844   0.017   1.191 -2.9916 -2.7856 -0.1584
  338SOL    HW2 2456   4.832  -0.028   1.335 -2.2594  0.3860  0.9673
  339SOL     OW 2457   5.002   1.257  10.384  0.3876 -0.0396 -0.3117
  339SOL    HW1 2458   4.921   1.252  10.435  1.1287 -1.5173  0.8134
  339SOL    HW2 2459   5.057   1.318  10.432  0.3841  0.0410 -0.4103
  340SOL     OW 2460   2.128   4.060   3.051 -0.0292  0.1356  0.2233
  340SOL    HW1 2461   2.155   4.139   3.097  0.9911  0.3881 -0.7753
  340SOL    HW2 2462   2.133   4.083   2.958 -0.2377 -0.9313 -0.0656
  341SOL     OW 2463   0.521   3.780   5.441  0.2854  0.1411 -0.6956
  341SOL    HW1 2464   0.530   3.693   5.480  1.8788  1.2419  1.6068
  341SOL    HW2 2465   0.431   3.806   5.462  0.6022  0.0395  0.9208
  342SOL     OW 2466   3.261   4.842   8.329  0.4650 -0.4786 -0.5767
  342SOL    HW1 2467   3.228   4.926   8.300 -1.8927 -1.7449 -1.8743
  342SOL    HW2 2468   3.343   4.830   8.281  0.0768  0.4531 -1.4959
  343SOL     OW 2469   0.044   5.022   7.414  0.1258 -0.4213  0.0265
  343SOL    HW1 2470   0.063   5.029   7.508 -0.0923 -0.9431  0.1104
  343SOL    HW2 2471  -0.051   5.020   7.408  0.1361 -0.2400 -0.2175
  344SOL     OW 2472   2.462   1.895   5.889 -0.3846 -0.4074  0.5498
  344SOL    HW1 2473   2.441   1.881   5.982 -2.6182 -1.2327 -0.0187
  344SOL    HW2 2474   2.439   1.812   5.847 -0.3192  0.2901 -0.9029
  345SOL     OW 2475   7.362   1.054   4.542 -0.6455  0.5410 -1.1255
  345SOL    HW1 2476   7.311   1.119   4.493 -0.2805  0.5967 -1.4340
  345SOL    HW2 2477   7.349   1.079   4.633 -1.2056  0.5287 -1.1937
  346SOL     OW 2478   3.328   5.208   1.244 -0.0027 -0.3291 -0.4577
  346SOL    HW1 2479   3.367   5.225   1.158  2.4137 -1.6591  0.2700
  346SOL    HW2 2480   3.377   5.133   1.277 -1.1119 -0.0600  1.9500
  347SOL     OW 2481   6.517   7.370  11.968  0.0744 -0.3338  0.3269
  347SOL    HW1 2482   6.585   7.431  11.999  1.8674 -1.1519 -1.7716
  347SOL    HW2 2483   6.557   7.284  11.976 -1.2150 -0.9534  0.2109
  348SOL     OW 2484   6.867   0.181  12.070 -0.2618  0.8561  0.6237
  348SOL    HW1 2485   6.789   0.172  12.124  0.2341 -0.1795  1.1889
  348SOL    HW2 2486   6.834   0.183  11.980 -0.9900  1.2644  0.8929
  349SOL     OW 2487   7.826   0.408   4.856 -0.0669  0.3638 -0.2785
  349SOL    HW1 2488   7.774   0.349   4.910  0.8464  1.9104  2.5109
  349SOL    HW2 2489   7.787   0.402   4.769 -4.0141  0.3570  1.2870
  350SOL     OW 2490   5.150   7.326   5.126 -0.2025 -0.1693  0.4031
  350SOL    HW1 2491   5.122   7.234   5.132  0.0451 -0.2876 -0.1441
  350SOL    HW2 2492   5.212   7.327   5.053 -0.5574  0.5177  0.0991
  351SOL     OW 2493   0.758   2.151   5.259  0.1835  0.1274 -0.0192
  351SOL    HW1 2494   0.719   2.113   5.181 -0.0445 -1.0551  0.6489
  351SOL    HW2 2495   0.713   2.235   5.270 -0.7806 -0.3247 -0.3710
  352SOL     OW 2496   1.372   2.297   1.620  0.0086 -0.2048 -0.1113
  352SOL    HW1 2497   1.288   2.338   1.642 -0.1795 -0.1357 -0.9505
  352SOL    HW2 2498   1.355   2.247   1.541  0.8030 -0.0511 -0.3909
  353SOL     OW 2499   4.749   1.667   6.395 -0.0784  0.8478 -0.0090
  353SOL    HW1 2500   4.804   1.700   6.324 -0.8147 -0.0231 -1.0108
  353SOL    HW2 2501   4.694   1.742   6.420 -2.6093  0.2342 -3.0978
  354SOL     OW 2502   2.594   2.898   9.876  0.2543  0.0065 -0.3487
  354SOL    HW1 2503   2.528   2.951   9.831 -0.6006 -0.1744  0.6608
  354SOL    HW2 2504   2.608   2.943   9.960 -0.1637 -1.1008  0.3374
  355SOL     OW 2505   3.146   4.533   3.869  0.5391  0.2215  0.4804
  355SOL    HW1 2506   3.127   4.465   3.934 -2.1697 -0.3473 -0.7496
  355SOL    HW2 2507   3.188   4.486   3.797  3.5015  0.8439  1.6711
  356SOL     OW 2508   2.220   7.737  10.757 -0.0349  0.4800 -0.3190
  356SOL    HW1 2509   2.178   7.756  10.840  0.4935  1.1549 -0.2002
  356SOL    HW2 2510   2.179   7.797  10.695  2.0670  2.5652  0.1779
  357SOL     OW 2511   2.232   5.371   1.040 -0.6635 -0.5285  0.4488
  357SOL    HW1 2512   2.233   5.307   0.969  0.3255 -1.9852  1.7229
  357SOL    HW2 2513   2.237   5.319   1.120  1.7132  1.1420  1.5086
  358SOL     OW 2514   5.085   4.547   2.561 -0.0294 -0.1972 -0.3952
  358SOL    HW1 2515   5.169   4.584   2.588 -0.5983  1.1458 -0.3528
  358SOL    HW2 2516   5.106   4.459   2.531  1.7988  0.9139 -2.6795
  359SOL     OW 2517   6.945   5.739   0.421 -0.0000  0.5799 -0.2489
  359SOL    HW1 2518   7.017   5.712   0.364 -0.0525  1.0345 -0.5350
  359SOL    HW2 2519   6.967   5.702   0.506  1.0686  1.5078 -0.0897
  360SOL     OW 2520   2.828   2.640   6.386 -0.0232 -0.2254  0.4464
  360SOL    HW1 2521   2.753   2.584   6.405 -0.2227  0.3572  1.4655
  360SOL    HW2 2522   2.892   2.618   6.454  0.2355  0.1694  0.3336
  361SOL     OW 2523   7.466   3.503   6.620 -0.2829 -0.6517  0.1057
  361SOL    HW1 2524   7.383   3.479   6.662 -0.9425  0.5512 -0.4379
  361SOL    HW2 2525   7.455   3.474   6.529  0.1478 -1.0655  0.1876
  362SOL     OW 2526   4.416   3.479   3.278  0.2436  0.8194  0.1896
  362SOL    HW1 2527   4.407   3.409   3.343  0.9913 -1.0774 -1.6365
  362SOL    HW2 2528   4.459   3.551   3.326 -0.8986  0.2302  2.2213
  363SOL     OW 2529   7.405   6.418   1.471 -0.2047 -0.6626 -0.0391
  363SOL    HW1 2530   7.319   6.451   1.449 -0.0601  0.8102  1.4251
  363SOL    HW2 2531   7.443   6.391   1.387 -1.5729 -0.1221 -0.8621
  364SOL     OW 2532   3.930   4.417   4.796 -0.6915 -0.1048 -0.1396
  364SOL    HW1 2533   3.969   4.409   4.883  0.1495  1.0575 -0.3922
  364SOL    HW2 2534   3.979   4.355   4.742 -0.6279 -0.1987  0.0242
  365SOL     OW 2535   4.479   1.925  10.202  0.7622  0.0103  0.3456
  365SOL    HW1 2536   4.399   1.971  10.228  0.5490 -0.6585  0.8742
  365SOL    HW2 2537   4.526   1.908  10.284  1.1617 -0.1285  0.0925
  366SOL     OW 2538   4.734   4.401   9.312 -0.0251  0.0333 -0.4383
  366SOL    HW1 2539   4.741   4.438   9.400 -1.3777 -1.9910  0.5997
  366SOL    HW2 2540   4.715   4.476   9.256 -0.0839  1.2517  1.1322
  367SOL     OW 2541   3.395   0.010   3.184  0.4311 -0.3650  0.0563
  367SOL    HW1 2542   3.312   0.018   3.138  1.2466 -0.0278 -1.4356
  367SOL    HW2 2543   3.379  -0.055   3.252 -1.2223  0.1850  0.2315
  368SOL     OW 2544   4.278   7.356   3.066 -0.1286  0.5184 -0.0383
  368SOL    HW1 2545   4.318   7.336   3.151 -0.9097 -1.1744 -0.0250
  368SOL    HW2 2546   4.258   7.270   3.029 -0.2848  1.2412 -1.7188
  369SOL     OW 2547   5.304   6.580   7.903 -0.6456  0.1586 -0.2591
  369SOL    HW1 2548   5.392   6.547   7.924  0.5170  2.9810 -0.2178
  369SOL    HW2 2549   5.256   6.575   7.985 -0.7729 -1.9507 -0.4124
  370SOL     OW 2550   2.369   4.911   0.806  0.4812 -0.1035 -0.5163
  370SOL    HW1 2551   2.456   4.930   0.769  0.9823 -3.7123 -1.5691
  370SOL    HW2 2552   2.314   4.894   0.730 -0.5789 -0.0927  0.2331
  371SOL     OW 2553   5.761   1.107   7.115  0.2536  0.1145  0.0340
  371SOL    HW1 2554   5.683   1.160   7.098  0.2582  0.6688  1.5368
  371SOL    HW2 2555   5.729   1.017   7.122  0.0675  0.0493 -1.3425
  372SOL     OW 2556   3.826   2.387   5.877  0.3471  0.2025  0.8329
  372SOL    HW1 2557   3.752   2.327   5.874 -0.1643  0.8762 -0.5508
  372SOL    HW2 2558   3.802   2.452   5.942 -1.7361  2.2017 -1.7537
  373SOL     OW 2559   5.852   4.536   6.622 -0.3563  0.4438 -0.5887
  373SOL    HW1 2560   5.848   4.617   6.673  0.2690 -1.5755  2.9705
  373SOL    HW2 2561   5.768   4.532   6.576 -1.1445  2.2240  0.6128
  374SOL     OW 2562   0.223   2.864  10.639 -0.0295  0.1372  0.4560
  374SOL    HW1 2563   0.280   2.856  10.716  0.0842  1.5870  0.5373
  374SOL    HW2 2564   0.137   2.883  10.676  0.0885  1.1459  0.2231
  375SOL     OW 2565   6.849   2.569   9.731  0.2252 -0.2642  0.0776
  375SOL    HW1 2566   6.890   2.520   9.660 -0.9026 -1.1840  0.0279
  375SOL    HW2 2567   6.776   2.513   9.759 -0.2157  0.7458  0.9928
  376SOL     OW 2568   5.716   0.813   9.123 -0.0363 -0.0733  0.2303
  376SOL    HW1 2569   5.621   0.818   9.131 -0.1139  0.0427 -0.6977
  376SOL    HW2 2570   5.744   0.771   9.204 -0.8018  0.6639  0.8991
  377SOL     OW 2571   6.852   3.085   6.061  0.1948  0.1270  0.0214
  377SOL    HW1 2572   6.836   3.100   6.155  0.5854  1.2542 -0.0667
  377SOL    HW2 2573   6.765   3.081   6.022  0.0079 -0.9482  0.4990
  378SOL     OW 2574   3.956   4.565  11.733  0.3167 -0.1007  0.4302
  378SOL    HW1 2575   3.863   4.571  11.756  0.3559 -0.0797  0.5860
  378SOL    HW2 2576   4.000   4.555  11.817  0.3948 -0.8696  0.2984
  379SOL     OW 2577   6.488   4.935   5.255 -0.2209 -0.3720  0.3966
  379SOL    HW1 2578   6.530   4.849   5.249 -1.1877 -0.8796  0.7971
  379SOL    HW2 2579   6.515   4.969   5.340 -0.6960 -0.7511  0.7065
  380SOL     OW 2580   4.892   3.397  12.171  0.1618 -0.5236  0.0351
  380SOL    HW1 2581   4.830   3.374  12.241  1.3375  1.4371  1.8456
  380SOL    HW2 2582   4.852   3.363  12.091 -1.5565 -2.3234  1.5580
  381SOL     OW 2583   3.577   7.029   8.505 -0.0044 -0.3966  0.1598
  381SOL    HW1 2584   3.531   6.956   8.463 -1.6650  0.5378  0.2594
  381SOL    HW2 2585   3.536   7.037   8.591 -1.4130  1.9780 -0.6371
  382SOL     OW 2586   6.921   0.253  10.586  0.2169 -0.0479  0.2662
  382SOL    HW1 2587   6.830   0.249  10.616  0.2218  2.4237  0.7835
  382SOL    HW2 2588   6.973   0.232  10.663  0.1024 -0.4303  0.2393
  383SOL     OW 2589   7.209   0.344   2.810 -0.0103 -0.0038 -0.3056
  383SOL    HW1 2590   7.208   0.249   2.819 -0.2613 -0.0011 -0.2978
  383SOL    HW2 2591   7.132   0.364   2.757 -0.6362  0.2953  0.6903
  384SOL     OW 2592   4.070   3.878   4.646  0.3894  0.7333  0.5925
  384SOL    HW1 2593   4.000   3.930   4.606  1.6295  1.8769 -0.1917
  384SOL    HW2 2594   4.111   3.938   4.709  0.6722  0.0803  1.0410
  385SOL     OW 2595   0.423   3.502   0.439  0.2450 -0.1340 -0.4844
  385SOL    HW1 2596   0.347   3.471   0.489  1.0070 -2.5498 -0.6907
  385SOL    HW2 2597   0.390   3.517   0.351 -0.0255 -1.0870 -0.5500
  386SOL     OW 2598   5.316   3.357  10.391 -0.0311  0.1459 -0.2771
  386SOL    HW1 2599   5.244   3.420  10.394  1.1180  1.4725  1.9537
  386SOL    HW2 2600   5.315   3.324  10.301 -1.7031  2.1308 -1.0625
  387SOL     OW 2601   6.333   3.887   8.868  0.6397 -0.4292  0.1966
  387SOL    HW1 2602   6.302   3.810   8.820 -0.4710  0.4595 -0.5629
  387SOL    HW2 2603   6.421   3.903   8.831  0.1890 -0.3304 -0.8870
  388SOL     OW 2604   1.874   2.513   1.503  0.0180  0.1885  0.2677
  388SOL    HW1 2605   1.938   2.522   1.432 -1.9216 -0.7029 -1.7297
  388SOL    HW2 2606   1.903   2.575   1.570  1.7485  1.3656 -1.4628
  389SOL     OW 2607   2.171   5.947   1.280  0.0878 -0.4104  0.0565
  389SOL    HW1 2608   2.253   5.978   1.319  0.7316 -0.3412 -1.2750
  389SOL    HW2 2609   2.102   5.991   1.330  0.9172  1.3693 -0.2915
  390SOL     OW 2610   5.612   4.816   9.296 -0.5124 -0.2385 -0.0547
  390SOL    HW1 2611   5.630   4.789   9.206 -1.2335 -0.3596 -0.1652
  390SOL    HW2 2612   5.518   4.828   9.300 -0.3405  1.1654  0.3134
  391SOL     OW 2613   5.171   6.526   1.324 -0.1190  0.1147 -0.1075
  391SOL    HW1 2614   5.078   6.544   1.337 -0.4325 -2.2413  1.5898
  391SOL    HW2 2615   5.178   6.431   1.335  2.2846  0.0516 -1.6549
  392SOL     OW 2616   5.933   7.906   4.141  0.1093 -0.4434  0.3702
  392SOL    HW1 2617   5.858   7.848   4.132  0.0984 -0.5106  0.8900
  392SOL    HW2 2618   5.895   7.994   4.147  0.1546 -0.2918 -1.1423
  393SOL     OW 2619   1.898   5.070   1.220 -0.7440 -0.0725 -0.0593
  393SOL    HW1 2620   1.860   5.121   1.148  0.1437  0.5847 -0.0731
  393SOL    HW2 2621   1.822   5.039   1.270 -1.3170  0.7882 -0.3765
  394SOL     OW 2622   0.873   1.045   4.046  0.1100 -0.1580 -0.4518
  394SOL    HW1 2623   0.839   1.106   3.981 -1.9313 -0.4188  0.3075
  394SOL    HW2 2624   0.812   0.972   4.045  0.5794 -0.6096  1.0834
  395SOL     OW 2625   5.419   6.556   4.642  0.4060 -0.3050 -0.0379
  395SOL    HW1 2626   5.382   6.593   4.561  0.7960  0.8859  0.3061
  395SOL    HW2 2627   5.377   6.606   4.712 -0.2303 -1.6037  0.5317
  396SOL     OW 2628   4.236   0.257   7.655  0.1561  0.6247  0.0256
  396SOL    HW1 2629   4.227   0.328   7.591  1.0865  1.5396  0.8955
  396SOL    HW2 2630   4.151   0.255   7.699 -1.0827 -1.0371 -2.1982
  397SOL     OW 2631   5.017   2.269  10.465  0.3437 -0.1007  0.3925
  397SOL    HW1 2632   4.974   2.285  10.381  1.3378 -1.6636 -0.4531
  397SOL    HW2 2633   5.006   2.351  10.514 -1.1919  0.4557 -0.8318
  398SOL     OW 2634   5.096   1.490   4.709 -0.2114  0.2341  0.3144
  398SOL    HW1 2635   5.014   1.528   4.679 -0.5562 -0.9826 -0.3977
  398SOL    HW2 2636   5.163   1.531   4.654 -0.3189  1.2962  0.9617
  399SOL     OW 2637   6.786   1.905   9.503 -0.0791 -0.6058 -0.7199
  399SOL    HW1 2638   6.836   1.928   9.425  2.3327  0.3012  0.9469
  399SOL    HW2 2639   6.780   1.986   9.553 -0.7273 -1.3415  0.4616
  400SOL     OW 2640   7.258   0.132  11.186  0.0111 -0.8983  0.6142
  400SOL    HW1 2641   7.341   0.146  11.230  0.6241 -2.4520  0.0379
  400SOL    HW2 2642   7.230   0.044  11.213 -0.1993 -1.3997 -1.0621
  401SOL     OW 2643   5.907   2.875   3.587  0.0314  0.5226  0.3137
  401SOL    HW1 2644   5.945   2.848   3.671 -1.0415 -1.5992  0.1975
  401SOL    HW2 2645   5.849   2.948   3.610 -0.8865 -0.5510  1.6000
  402SOL     OW 2646   5.404   1.913   0.625  0.0542 -0.8822  0.1208
  402SOL    HW1 2647   5.444   1.960   0.552 -0.2164 -0.1875  0.4060
  402SOL    HW2 2648   5.442   1.954   0.703  0.5286 -1.7822  0.3719
  403SOL     OW 2649   7.194   7.454   7.803 -0.2014  0.0510 -0.2423
  403SOL    HW1 2650   7.233   7.493   7.724 -1.4874 -0.1104 -0.9933
  403SOL    HW2 2651   7.129   7.519   7.832 -2.3194 -1.3824 -1.4662
  404SOL     OW 2652   2.357   3.909  10.162  0.0132 -0.5371 -0.4251
  404SOL    HW1 2653   2.337   3.997  10.130 -1.9370  0.2594  2.5676
  404SOL    HW2 2654   2.291   3.853  10.121  0.4874 -0.3993 -1.3865
  405SOL     OW 2655   6.005   4.462   2.238 -0.5306 -0.3089 -0.5624
  405SOL    HW1 2656   5.926   4.408   2.232 -2.0066  1.0804  3.0945
  405SOL    HW2 2657   5.973   4.546   2.270  2.0900  1.6661 -2.6661
  406SOL     OW 2658   5.857   0.033   1.995 -0.1208 -0.1385  0.1275
  406SOL    HW1 2659   5.877  -0.040   2.053 -0.1205 -0.4766 -0.2972
  406SOL    HW2 2660   5.910   0.017   1.916  1.4607  1.3739  0.8047
  407SOL     OW 2661   4.215   1.122   7.333 -0.3704 -0.1018 -0.4683
  407SOL    HW1 2662   4.304   1.124   7.370 -0.7325 -0.9491  0.4752
  407SOL    HW2 2663   4.209   1.203   7.282  0.5917  0.4687  0.2887
  408SOL     OW 2664   6.331   1.538   5.836  0.1191  0.6206 -0.3189
  408SOL    HW1 2665   6.296   1.514   5.750 -1.9012  0.0092  0.6124
  408SOL    HW2 2666   6.257   1.578   5.882  1.0459  0.5771  1.2808
  409SOL     OW 2667   3.787   2.180   4.566  0.8882  0.1790 -0.4072
  409SOL    HW1 2668   3.724   2.208   4.500  1.6116  0.0963 -1.1517
  409SOL    HW2 2669   3.861   2.240   4.554  1.1539 -0.0383  0.1273
  410SOL     OW 2670   6.009   3.652  12.123  0.2919  0.2174  0.0273
  410SOL    HW1 2671   5.957   3.685  12.196 -0.7951  0.8082 -0.9986
  410SOL    HW2 2672   6.033   3.729  12.073 -1.3275 -0.3832 -1.7751
  411SOL     OW 2673   6.289   5.032   8.203  0.4005 -0.1758 -0.3411
  411SOL    HW1 2674   6.197   5.034   8.228  0.3644 -0.8400 -0.3898
  411SOL    HW2 2675   6.333   5.085   8.270  0.3842 -2.3432  1.5128
  412SOL     OW 2676   4.116   6.563   9.744  0.0507  0.3719  0.2140
  412SOL    HW1 2677   4.083   6.652   9.733  1.0875  0.6309 -1.0014
  412SOL    HW2 2678   4.094   6.519   9.662  0.5379 -0.1512  0.3549
  413SOL     OW 2679   3.193   0.800   4.929  0.1186  0.6773  0.0953
  413SOL    HW1 2680   3.161   0.714   4.903  0.8338  1.0755 -2.3751
  413SOL    HW2 2681   3.224   0.840   4.847  0.8429  2.8429  1.3390
  414SOL     OW 2682   6.054   4.719   0.980  0.2831 -0.6034  0.4831
  414SOL    HW1 2683   6.121   4.784   1.001  0.7500 -0.7214 -0.6209
  414SOL    HW2 2684   5.974   4.755   1.019  0.8769 -0.2471  1.4315
  415SOL     OW 2685   5.382   5.130   3.761 -0.7463 -0.4224 -0.3551
  415SOL    HW1 2686   5.436   5.133   3.841  1.2314  0.6519 -1.6305
  415SOL    HW2 2687   5.365   5.037   3.747 -0.1945 -0.7091  0.7418
  416SOL     OW 2688   4.129   2.757  10.399  0.7311 -0.8751 -0.6008
  416SOL    HW1 2689   4.180   2.699  10.456  0.2585 -1.3190 -0.6247
  416SOL    HW2 2690   4.076   2.698  10.346 -0.0177 -0.4123 -0.3790
  417SOL     OW 2691   7.067   0.883  10.522 -0.2746  0.4185 -0.0788
  417SOL    HW1 2692   7.144   0.854  10.473 -1.2953 -0.4834 -1.2121
  417SOL    HW2 2693   7.060   0.819  10.594 -0.2594  0.1955 -0.2736
  418SOL     OW 2694   4.716   5.354   6.168  0.2967  0.7160 -1.0424
  418SOL    HW1 2695   4.673   5.389   6.090 -0.4423  1.7303 -0.2143
  418SOL    HW2 2696   4.718   5.260   6.154 -1.0657  0.7492 -1.6981
  419SOL     OW 2697   5.068   3.608   4.126 -0.2011  0.0621  0.1512
  419SOL    HW1 2698   5.051   3.692   4.168 -0.7602 -1.1584  2.5938
  419SOL    HW2 2699   4.980   3.571   4.110  0.0347 -0.1776 -0.6235
  420SOL     OW 2700   1.871   3.790   1.524  0.2551  0.5252  0.1125
  420SOL    HW1 2701   1.901   3.798   1.434 -1.4107  1.3199 -0.4166
  420SOL    HW2 2702   1.903   3.870   1.567  0.0394  0.7261 -0.0966
  421SOL     OW 2703   2.431   4.680   7.039 -0.0513  0.5540 -0.1663
  421SOL    HW1 2704   2.398   4.769   7.030 -2.6331 -0.4924 -2.8984
  421SOL    HW2 2705   2.497   4.671   6.970  0.9371  0.6061  0.7527
  422SOL     OW 2706   6.380   0.983  10.696  0.2619  0.1566 -0.0640
  422SOL    HW1 2707   6.410   1.041  10.766  0.7368 -0.4547  0.2516
  422SOL    HW2 2708   6.426   1.014  10.618 -0.0883  0.6911 -0.0672
  423SOL     OW 2709   1.096   4.833   8.530 -0.4158  0.3463 -0.2612
  423SOL    HW1 2710   1.016   4.863   8.572 -1.1220  0.7326 -1.8345
  423SOL    HW2 2711   1.158   4.905   8.543 -0.8580  0.7786 -0.5220
  424SOL     OW 2712   1.564   2.731   9.881  0.1111  0.0991  0.0624
  424SOL    HW1 2713   1.487   2.774   9.918  1.2694  1.9258  0.4906
  424SOL    HW2 2714   1.626   2.802   9.865  1.7772 -1.3174 -0.1104
  425SOL     OW 2715   2.992   0.067  10.884 -0.4360 -0.6334  0.2734
  425SOL    HW1 2716   2.955   0.007  10.949 -0.4184  0.0837  0.9670
  425SOL    HW2 2717   3.081   0.085  10.915 -0.2755 -0.6312 -0.1877
  426SOL     OW 2718   2.121   4.787   5.869  0.3787 -0.3047 -0.5913
  426SOL    HW1 2719   2.072   4.854   5.822  1.2338  0.2076 -0.7705
  426SOL    HW2 2720   2.111   4.708   5.815 -1.2290 -0.5481 -0.0141
  427SOL     OW 2721   1.440   5.743  10.921  0.1554 -0.2213  0.0495
  427SOL    HW1 2722   1.452   5.653  10.891  1.1948  0.2205 -0.9773
  427SOL    HW2 2723   1.509   5.792  10.875 -0.4788  1.1155  0.4795
  428SOL     OW 2724   6.201   7.330   9.914  0.0952 -0.4115 -0.3742
  428SOL    HW1 2725   6.200   7.257   9.851 -0.2439  1.4716 -2.7101
  428SOL    HW2 2726   6.110   7.340   9.941  0.2419 -1.2279  0.4868
  429SOL     OW 2727   7.918   5.135   9.183 -0.2462 -0.4851  0.0653
  429SOL    HW1 2728   7.842   5.078   9.183  0.1996 -1.2903  3.6020
  429SOL    HW2 2729   7.993   5.076   9.187  0.3724  0.3071  0.5826
  430SOL     OW 2730   5.618   6.289   5.040 -0.1792  0.9258 -0.1104
  430SOL    HW1 2731   5.629   6.339   5.121  1.1994 -0.6360  0.7222
  430SOL    HW2 2732   5.538   6.324   5.001 -1.2829  1.2320  2.2776
  431SOL     OW 2733   4.647   2.187  10.122 -0.0079  0.0994  0.5079
  431SOL    HW1 2734   4.645   2.109  10.067  0.3818  0.4583 -0.0380
  431SOL    HW2 2735   4.634   2.155  10.211  0.2487 -0.5970  0.3001
  432SOL     OW 2736   2.450   6.068   2.243  0.2971  0.0316 -0.5941
  432SOL    HW1 2737   2.427   6.012   2.317 -1.0990  1.2741 -0.0249
  432SOL    HW2 2738   2.488   6.146   2.283 -0.3194  0.6489 -1.1935
  433SOL     OW 2739   6.182   7.013   9.271  0.6135  0.4156  0.0453
  433SOL    HW1 2740   6.190   7.106   9.292  1.3637  0.5974 -0.9323
  433SOL    HW2 2741   6.229   7.004   9.187 -0.1239 -0.6926 -0.2654
  434SOL     OW 2742   4.765   2.621   0.609 -0.0881  0.3374 -0.1032
  434SOL    HW1 2743   4.855   2.590   0.593 -0.0457  0.2639  0.2681
  434SOL    HW2 2744   4.710   2.557   0.563  0.0628  0.6490 -0.7365
  435SOL     OW 2745   3.073   4.754  12.344  0.1275  0.1498  0.8443
  435SOL    HW1 2746   2.980   4.760  12.325  0.3765 -0.1943 -0.5464
  435SOL    HW2 2747   3.077   4.749  12.440 -1.1415  2.2264  1.0675
  436SOL     OW 2748   6.236   3.980   8.607 -0.7012  0.2551 -0.0260
  436SOL    HW1 2749   6.255   3.949   8.695 -1.9167  0.6176  0.3888
  436SOL    HW2 2750   6.201   3.904   8.561  0.1256  0.0134 -0.2735
  437SOL     OW 2751   3.333   7.690   2.909  0.0924 -0.1073  0.8267
  437SOL    HW1 2752   3.395   7.726   2.846  1.8007 -3.3372  0.4371
  437SOL    HW2 2753   3.256   7.666   2.857  0.0645  0.4217  0.6219
  438SOL     OW 2754   6.323   1.940   3.822 -0.3265 -0.1252 -0.1009
  438SOL    HW1 2755   6.364   1.853   3.816  0.8339  0.1751  2.2694
  438SOL    HW2 2756   6.271   1.937   3.902 -1.1744  1.0240 -0.5825
  439SOL     OW 2757   2.639   7.270   2.456 -0.3640 -0.2284  0.4179
  439SOL    HW1 2758   2.615   7.177   2.454  0.5852 -0.4736 -0.1714
  439SOL    HW2 2759   2.713   7.277   2.395  0.3663  0.6795  1.3764
  440SOL     OW 2760   7.182   1.606   3.497  0.4041  0.5010 -0.0388
  440SOL    HW1 2761   7.127   1.661   3.442 -0.9970 -1.3869 -0.6299
  440SOL    HW2 2762   7.167   1.639   3.586 -1.0475  0.5892 -0.2893
  441SOL     OW 2763   5.328   0.904   7.729 -0.1374 -0.1255 -0.2085
  441SOL    HW1 2764   5.300   0.991   7.701  0.1804  0.7034  1.9116
  441SOL    HW2 2765   5.420   0.916   7.754 -0.4400 -0.7450  1.2960
  442SOL     OW 2766   0.320   6.201   6.350 -0.0888 -0.2889  0.3265
  442SOL    HW1 2767   0.253   6.133   6.360  0.9039 -0.9972  2.8074
  442SOL    HW2 2768   0.275   6.271   6.302 -1.4833 -2.1745 -1.3305
  443SOL     OW 2769   1.392   1.857   4.138  0.4021 -0.0939  0.2872
  443SOL    HW1 2770   1.382   1.942   4.095 -0.8157 -0.5920 -0.4811
  443SOL    HW2 2771   1.401   1.794   4.067  1.9169 -0.5685  0.8573
  444SOL     OW 2772   1.503   1.550   6.352  0.3727 -0.2089  0.0851
  444SOL    HW1 2773   1.465   1.483   6.295 -0.6353  0.4653 -0.0709
  444SOL    HW2 2774   1.583   1.511   6.385 -1.2757 -2.3974  1.7838
  445SOL     OW 2775   2.489   5.696   5.538 -0.2776  0.4562  0.3120
  445SOL    HW1 2776   2.438   5.696   5.458 -0.4062 -0.5289  0.3747
  445SOL    HW2 2777   2.565   5.751   5.519 -0.0562 -0.1593 -0.6499
  446SOL     OW 2778   0.067   6.227   2.288 -0.2848 -0.4019 -0.2887
  446SOL    HW1 2779   0.130   6.229   2.360 -0.4919  3.0338 -0.0438
  446SOL    HW2 2780   0.120   6.205   2.211  0.2230 -2.4780  0.5702
  447SOL     OW 2781   3.267   5.393   2.907  0.5058  0.2340  0.0827
  447SOL    HW1 2782   3.348   5.348   2.932  0.5904  0.5220  0.3383
  447SOL    HW2 2783   3.243   5.444   2.985 -0.9781 -1.3363  0.7336
  448SOL     OW 2784   7.736   7.315  11.430 -0.3428  0.1285 -0.1517
  448SOL    HW1 2785   7.767   7.368  11.503 -0.4304  0.0008 -0.0215
  448SOL    HW2 2786   7.688   7.243  11.471 -1.4551  0.7238 -0.3617
  449SOL     OW 2787   6.133   5.397   6.988  0.6701 -0.0623 -0.1829
  449SOL    HW1 2788   6.132   5.437   7.075 -0.2095 -0.3512 -0.0479
  449SOL    HW2 2789   6.223   5.407   6.958  0.4923  2.0799 -0.1767
  450SOL     OW 2790   0.287   5.764   2.830 -0.2898  0.0657 -0.2081
  450SOL    HW1 2791   0.353   5.818   2.873  0.3009 -0.9847  0.2671
  450SOL    HW2 2792   0.214   5.760   2.893 -0.0995 -0.1438  0.0009
  451SOL     OW 2793   6.618   0.034  10.934  0.5265 -0.0934  0.5080
  451SOL    HW1 2794   6.562  -0.043  10.947  1.0280 -0.6002 -0.2701
  451SOL    HW2 2795   6.566   0.107  10.967 -0.5435 -0.5674 -0.0827
  452SOL     OW 2796   6.740   0.885   8.616 -0.2769  0.0735 -0.3323
  452SOL    HW1 2797   6.783   0.891   8.701  0.3863 -1.6210 -0.5123
  452SOL    HW2 2798   6.649   0.862   8.636  0.1034 -1.2962 -0.0836
  453SOL     OW 2799   4.641   5.939   7.185  0.5577  0.3864 -1.0385
  453SOL    HW1 2800   4.549   5.949   7.210  0.9119  1.3491 -0.0025
  453SOL    HW2 2801   4.647   5.852   7.147 -0.1000 -1.1463  2.1072
  454SOL     OW 2802   1.135   6.858   5.942 -0.0634  0.2647  0.3082
  454SOL    HW1 2803   1.160   6.865   6.034 -0.3468 -0.3199  0.4326
  454SOL    HW2 2804   1.050   6.902   5.938 -0.2272 -0.0409  0.4025
  455SOL     OW 2805   7.498   4.450  12.000  0.2810  0.2935 -0.4919
  455SOL    HW1 2806   7.416   4.488  11.969 -0.2258 -0.2374  0.1705
  455SOL    HW2 2807   7.516   4.497  12.081 -0.1069 -0.5379  0.0886
  456SOL     OW 2808   7.117   2.238   1.440  0.0608 -0.6723  0.0068
  456SOL    HW1 2809   7.160   2.164   1.483 -0.6240 -1.0057  0.1292
  456SOL    HW2 2810   7.138   2.227   1.347  0.6755 -0.5343  0.1236
  457SOL     OW 2811   2.611   2.616   4.928  0.2998 -0.1662 -0.1622
  457SOL    HW1 2812   2.688   2.643   4.978 -1.1817  0.3903  1.9341
  457SOL    HW2 2813   2.536   2.641   4.982 -1.3372 -2.9607 -0.9102
  458SOL     OW 2814   6.532   2.428  10.651 -0.1160 -0.1641 -0.2625
  458SOL    HW1 2815   6.540   2.349  10.598 -1.4340  0.1730 -1.0322
  458SOL    HW2 2816   6.500   2.397  10.736 -1.4369 -0.4264 -0.8211
  459SOL     OW 2817   6.444   4.898  10.831 -0.2745  0.0829  0.2851
  459SOL    HW1 2818   6.398   4.815  10.848  0.4137 -1.1310 -2.9950
  459SOL    HW2 2819   6.375   4.963  10.826 -1.1152 -0.7768  0.3429
  460SOL     OW 2820   3.626   4.400  10.209 -0.1794  0.0503  0.1963
  460SOL    HW1 2821   3.546   4.362  10.244  0.5232 -1.8647 -0.1520
  460SOL    HW2 2822   3.694   4.376  10.272  0.7730 -1.8445 -1.3984
  461SOL     OW 2823   1.612   3.210  11.606 -0.3445 -0.0795 -0.0422
  461SOL    HW1 2824   1.529   3.201  11.561  0.6175 -0.3389 -1.8755
  461SOL    HW2 2825   1.632   3.122  11.637 -0.2088 -0.2794 -0.6680
  462SOL     OW 2826   3.437   1.003   0.805 -0.6198 -0.1108  0.5833
  462SOL    HW1 2827   3.484   1.082   0.833 -1.0835 -0.0686  1.2646
  462SOL    HW2 2828   3.485   0.972   0.728 -1.5810  1.9577 -0.9435
  463SOL     OW 2829   6.353   1.544   4.162  0.1587  0.0793 -0.4002
  463SOL    HW1 2830   6.324   1.464   4.206  0.7103 -0.1823 -0.5067
  463SOL    HW2 2831   6.361   1.609   4.232 -0.6628  0.1544 -0.3654
  464SOL     OW 2832   2.453   4.956   8.123  0.1633 -0.0105 -0.2314
  464SOL    HW1 2833   2.462   4.866   8.152 -0.0212  0.6086  1.9069
  464SOL    HW2 2834   2.360   4.976   8.136 -0.0004  0.2374 -1.5868
  465SOL     OW 2835   5.513   4.853   2.301  0.4116  0.2521 -0.3597
  465SOL    HW1 2836   5.523   4.911   2.225 -1.6940  1.2707  0.0614
  465SOL    HW2 2837   5.439   4.796   2.278  0.0317  0.2855  0.7195
  466SOL     OW 2838   2.275   2.337   7.338 -0.5131 -0.6523 -0.7638
  466SOL    HW1 2839   2.360   2.300   7.314 -0.2780 -0.0066 -0.9427
  466SOL    HW2 2840   2.258   2.404   7.271 -0.3932  0.3649  0.1946
  467SOL     OW 2841   0.847   3.057   8.232  0.2950 -0.3648  0.2600
  467SOL    HW1 2842   0.916   2.992   8.226  1.2860  0.5132  1.5560
  467SOL    HW2 2843   0.890   3.136   8.264 -0.6543  1.3112 -2.2690
  468SOL     OW 2844   3.695   0.676   4.485  0.0473 -0.4366  0.0225
  468SOL    HW1 2845   3.748   0.677   4.405 -0.1239  0.2963 -0.0857
  468SOL    HW2 2846   3.628   0.742   4.470 -0.9552 -1.3979  0.1261
  469SOL     OW 2847   5.455   2.975  11.926 -0.5943  0.2753 -0.5908
  469SOL    HW1 2848   5.427   3.034  11.856  0.1543 -0.0322 -1.1650
  469SOL    HW2 2849   5.540   3.009  11.953  0.2487 -1.0021 -1.5141
  470SOL     OW 2850   4.718   6.867   1.906 -0.0160  0.4513 -0.4274
  470SOL    HW1 2851   4.789   6.856   1.969 -1.1354 -0.8680  0.6742
  470SOL    HW2 2852   4.745   6.817   1.830 -0.4621 -1.5339  0.6382
  471SOL     OW 2853   5.230   6.664   8.691 -0.2952 -0.3833 -0.1065
  471SOL    HW1 2854   5.251   6.645   8.783  0.0867 -1.4210 -0.4045
  471SOL    HW2 2855   5.139   6.636   8.681 -0.5926  0.4543  0.1459
  472SOL     OW 2856   3.626   0.600   4.171 -0.9248  0.4361 -0.2689
  472SOL    HW1 2857   3.720   0.611   4.185 -0.6636 -0.2120 -1.3461
  472SOL    HW2 2858   3.606   0.655   4.095 -1.6649  1.4978  0.6732
  473SOL     OW 2859   4.866   1.375   1.330 -0.1520 -0.3880 -0.0605
  473SOL    HW1 2860   4.851   1.342   1.242 -0.4547 -0.9448  0.1976
  473SOL    HW2 2861   4.801   1.445   1.340  0.3507  0.1540 -0.5293
  474SOL     OW 2862   2.757   1.396   9.069  0.4454 -0.1050  0.7137
  474SOL    HW1 2863   2.767   1.363   8.980 -0.2330 -0.2706  0.6891
  474SOL    HW2 2864   2.834   1.450   9.085  1.6410 -1.7710  0.7888
  475SOL     OW 2865   2.135   2.824   7.864  0.4007 -0.1329  0.5206
  475SOL    HW1 2866   2.149   2.881   7.939  1.7221  0.6805 -0.3038
  475SOL    HW2 2867   2.043   2.836   7.840  0.1954  0.2445  1.4659
  476SOL     OW 2868   1.944   0.598   5.826 -1.0624 -0.1871 -0.3322
  476SOL    HW1 2869   1.956   0.678   5.875  0.9428 -0.6170 -0.0183
  476SOL    HW2 2870   1.861   0.562   5.857 -0.3177  0.0238  2.0661
  477SOL     OW 2871   3.068   3.064  10.822 -0.0626  0.3075 -0.5829
  477SOL    HW1 2872   3.126   3.072  10.746  0.0639  1.2007 -0.4082
  477SOL    HW2 2873   3.060   3.154  10.856  1.1699 -0.2706  1.4161
  478SOL     OW 2874   7.160   7.723   2.999  0.3014 -0.5343 -0.2531
  478SOL    HW1 2875   7.165   7.800   2.943 -1.0694 -0.9191 -0.9450
  478SOL    HW2 2876   7.238   7.729   3.054  0.0263  1.5842  0.0174
  479SOL     OW 2877   0.885   7.541   8.222  0.3655 -0.2744  0.0943
  479SOL    HW1 2878   0.820   7.577   8.282 -0.3803 -0.5683 -0.5170
  479SOL    HW2 2879   0.963   7.527   8.276 -0.2726 -0.4849  0.9808
  480SOL     OW 2880   7.851   5.876   0.870  0.1892 -0.3843  0.4779
  480SOL    HW1 2881   7.907   5.799   0.868 -1.9331 -2.1630 -3.4235
  480SOL    HW2 2882   7.762   5.841   0.877 -0.8146  1.6517 -0.9546
  481SOL     OW 2883   0.766   6.927   1.730 -0.3471  0.6388 -0.3372
  481SOL    HW1 2884   0.813   6.860   1.679  1.6643  0.7727  1.1955
  481SOL    HW2 2885   0.681   6.888   1.748 -0.3652 -0.2223 -2.0335
  482SOL     OW 2886   0.728   4.103   6.875  0.0407 -0.0913 -0.1601
  482SOL    HW1 2887   0.799   4.154   6.913  0.5908 -1.0190  0.0937
  482SOL    HW2 2888   0.770   4.050   6.808 -0.6635  0.3964 -1.0037
  483SOL     OW 2889   1.798   7.008   0.881 -0.1738 -0.6368 -0.4727
  483SOL    HW1 2890   1.707   6.979   0.890 -0.3904  0.2530  0.3560
  483SOL    HW2 2891   1.838   6.984   0.965 -0.1119  0.5413 -0.1492
  484SOL     OW 2892   5.429   0.444   8.105  0.1616  0.4697 -0.0705
  484SOL    HW1 2893   5.459   0.381   8.040 -1.8924 -3.9072  2.7203
  484SOL    HW2 2894   5.505   0.457   8.162  0.9289  1.5580 -1.2784
  485SOL     OW 2895   1.266   2.697   0.113 -0.5739  0.2080  0.0517
  485SOL    HW1 2896   1.324   2.621   0.108 -0.9507  0.0164 -2.2805
  485SOL    HW2 2897   1.324   2.772   0.098 -0.7053  0.0974 -1.1179
  486SOL     OW 2898   5.176   6.882   0.911 -0.0134  0.4218 -0.4128
  486SOL    HW1 2899   5.235   6.949   0.944  0.3948  0.1092 -0.4972
  486SOL    HW2 2900   5.187   6.886   0.815  0.2570  0.0195 -0.4011
  487SOL     OW 2901   1.369   3.436   5.612  0.0462 -0.5778 -0.0634
  487SOL    HW1 2902   1.406   3.395   5.690  0.1168  1.2532  0.9192
  487SOL    HW2 2903   1.342   3.363   5.556 -0.4763 -1.9443  1.8859
  488SOL     OW 2904   7.449   1.276   7.758 -0.1108  0.4472  0.5354
  488SOL    HW1 2905   7.464   1.349   7.819  3.4508 -0.5952  1.1090
  488SOL    HW2 2906   7.509   1.293   7.686  1.0495 -2.0506  0.8409
  489SOL     OW 2907   2.691   2.637   9.204  0.0872  0.2530 -0.2627
  489SOL    HW1 2908   2.715   2.557   9.250  1.3376  0.7728  0.0304
  489SOL    HW2 2909   2.774   2.684   9.193 -0.4483  0.9565 -1.4819
  490SOL     OW 2910   0.996   3.574   6.966 -0.3698  0.3999 -0.2947
  490SOL    HW1 2911   0.950   3.510   7.020 -0.7631  2.5374  2.0828
  490SOL    HW2 2912   1.084   3.537   6.955 -0.6350 -0.6432  0.8840
  491SOL     OW 2913   2.777   4.285   6.727  0.4517 -0.5790  0.5412
  491SOL    HW1 2914   2.714   4.357   6.730  0.1025 -0.8845  0.5475
  491SOL    HW2 2915   2.836   4.302   6.801 -0.1022 -0.7240  1.0246
  492SOL     OW 2916   3.374   7.473   3.606 -0.2270  0.4456 -0.2962
  492SOL    HW1 2917   3.425   7.517   3.538  0.8808 -0.0022  0.2092
  492SOL    HW2 2918   3.283   7.485   3.580  0.0950  2.0384 -0.7625
  493SOL     OW 2919   2.497   2.314   5.258 -0.9626  0.1530 -0.0221
  493SOL    HW1 2920   2.411   2.273   5.265 -0.9682  0.1739  0.0299
  493SOL    HW2 2921   2.482   2.395   5.209 -0.8940 -0.0842 -0.4427
  494SOL     OW 2922   6.723   5.844   8.092  0.5706 -0.4058  0.1127
  494SOL    HW1 2923   6.789   5.775   8.098 -0.5249 -1.3772  1.9966
  494SOL    HW2 2924   6.653   5.815   8.151 -0.6127  1.5992 -0.2189
  495SOL     OW 2925   0.868   3.372   5.509 -0.3986  0.1393 -0.1674
  495SOL    HW1 2926   0.883   3.466   5.495 -0.6905  0.4182  1.2369
  495SOL    HW2 2927   0.913   3.329   5.436  0.4842  1.3276 -0.3468
  496SOL     OW 2928   6.939   4.751   3.692 -0.1705  0.1995 -0.1763
  496SOL    HW1 2929   6.886   4.769   3.770  0.1041 -0.5626  0.1993
  496SOL    HW2 2930   6.978   4.836   3.670 -1.0013  0.6245 -0.0564
  497SOL     OW 2931   1.312   0.781   1.076 -0.4072 -0.3164 -0.1207
  497SOL    HW1 2932   1.250   0.710   1.094  0.3626 -0.5537  1.8761
  497SOL    HW2 2933   1.274   0.858   1.118  0.5047 -0.4229  0.9646
  498SOL     OW 2934   5.197   5.983  10.272 -0.5977 -0.1955  0.0688
  498SOL    HW1 2935   5.244   5.900  10.258 -0.0027 -0.1036  1.3676
  498SOL    HW2 2936   5.114   5.971  10.225  0.6072 -0.4154 -2.1915
  499SOL     OW 2937   1.415   5.867   3.931 -0.0775  0.4101  0.1569
  499SOL    HW1 2938   1.507   5.895   3.930  0.3481 -0.7839 -2.9329
  499SOL    HW2 2939   1.379   5.908   4.010  2.9072  1.4810  1.1075
  500SOL     OW 2940   6.050   5.513   8.961  0.5003 -0.1252  0.1284
  500SOL    HW1 2941   5.961   5.487   8.936  1.0188 -0.0979 -1.9982
  500SOL    HW2 2942   6.078   5.446   9.022  0.3982 -2.4861 -2.2267
  501SOL     OW 2943   0.472   7.914   1.019 -0.1827  0.3023 -0.6870
  501SOL    HW1 2944   0.545   7.947   0.966 -1.3286  0.6611 -2.1290
  501SOL    HW2 2945   0.402   7.978   1.004 -0.9084 -0.2340  0.3616
  502SOL     OW 2946   4.922   6.873  11.925  0.2572  0.3677 -0.1320
  502SOL    HW1 2947   4.862   6.852  11.853 -0.7456 -0.7419  0.9916
  502SOL    HW2 2948   4.974   6.793  11.937  0.9697  0.8206 -0.1233
  503SOL     OW 2949   7.115   3.338   4.473  0.1446 -0.3617  0.3933
  503SOL    HW1 2950   7.025   3.330   4.442  0.0409  2.2297 -0.2096
  503SOL    HW2 2951   7.119   3.280   4.550 -2.1563 -0.2416  0.6782
  504SOL     OW 2952   6.161   7.294   8.935 -0.7216 -0.3843 -0.0438
  504SOL    HW1 2953   6.094   7.228   8.917 -0.1846 -1.6543  2.2408
  504SOL    HW2 2954   6.189   7.323   8.849 -2.7939 -1.2633 -1.0916
  505SOL     OW 2955   3.444   7.844   0.853 -0.2648  0.4021  0.0945
  505SOL    HW1 2956   3.413   7.754   0.843 -0.7666  0.3895  1.6132
  505SOL    HW2 2957   3.513   7.852   0.787 -1.2226 -0.6069 -1.0906
  506SOL     OW 2958   0.114   1.094   7.413  0.4094 -0.1613 -0.3592
  506SOL    HW1 2959   0.127   1.027   7.480 -0.1646  0.0931  0.0111
  506SOL    HW2 2960   0.077   1.046   7.339  2.1389 -0.6567 -0.9456
  507SOL     OW 2961   1.085   5.307   0.353  0.4212  0.4792  0.1260
  507SOL    HW1 2962   1.075   5.387   0.405  2.3085  0.8776 -0.0387
  507SOL    HW2 2963   1.054   5.237   0.411  0.5705  1.1307  1.0250
  508SOL     OW 2964   6.372   5.812   1.011  0.5396  0.1574  0.1022
  508SOL    HW1 2965   6.287   5.815   1.054  0.3635  0.8144 -0.2814
  508SOL    HW2 2966   6.435   5.824   1.083  0.2098  2.7185  0.0582
  509SOL     OW 2967   7.408   2.168  11.943 -0.5155  0.0348 -0.2822
  509SOL    HW1 2968   7.349   2.184  11.869 -0.7471 -0.5225 -0.2255
  509SOL    HW2 2969   7.486   2.128  11.904 -0.1110  0.8828 -0.3727
  510SOL     OW 2970   6.156   5.382   2.735  0.2253 -0.4623 -0.6029
  510SOL    HW1 2971   6.139   5.384   2.641  0.8257  1.9616 -0.7255
  510SOL    HW2 2972   6.132   5.469   2.766  0.9502 -0.8907  1.3439
  511SOL     OW 2973   1.601   6.700  10.490 -0.4655 -0.1485  0.0055
  511SOL    HW1 2974   1.582   6.693  10.396 -0.5039 -3.3833  0.1561
  511SOL    HW2 2975   1.516   6.711  10.531 -0.7201 -1.2446 -0.2019
  512SOL     OW 2976   4.688   3.941   4.937 -0.5700 -0.3296 -0.1152
  512SOL    HW1 2977   4.730   4.028   4.940 -0.1989 -0.5045 -0.1808
  512SOL    HW2 2978   4.750   3.884   4.982 -0.9273 -0.5167  0.1398
  513SOL     OW 2979   3.474   2.110  11.104  0.5231 -0.1882  0.2719
  513SOL    HW1 2980   3.508   2.190  11.066 -1.4519  0.5216 -0.1388
  513SOL    HW2 2981   3.384   2.104  11.072  0.2530 -1.9850  1.1943
  514SOL     OW 2982   5.263   4.907   8.410 -0.2190 -0.5130  0.0922
  514SOL    HW1 2983   5.356   4.911   8.388 -0.8882 -0.0495 -3.1534
  514SOL    HW2 2984   5.239   4.815   8.398 -0.3165 -0.5189  0.3222
  515SOL     OW 2985   0.639   6.002   7.490 -0.3322  0.2605 -0.1748
  515SOL    HW1 2986   0.635   6.096   7.506  0.8736  0.3369 -0.2508
  515SOL    HW2 2987   0.732   5.980   7.496 -0.6990 -1.1177  0.9152
  516SOL     OW 2988   0.902   0.503  12.287  0.1209 -0.2377 -0.3922
  516SOL    HW1 2989   0.828   0.563  12.277 -0.4123 -0.8862 -0.4351
  516SOL    HW2 2990   0.862   0.416  12.286  0.6498 -0.5503  1.6784
  517SOL     OW 2991   4.579   3.888   2.394 -0.2243 -0.2457 -0.5742
  517SOL    HW1 2992   4.516   3.914   2.327 -1.3432  0.0919  0.5738
  517SOL    HW2 2993   4.549   3.801   2.423 -0.6519  0.2514  0.5273
  518SOL     OW 2994   7.103   4.688   4.398 -0.2429  0.2167 -0.0856
  518SOL    HW1 2995   7.054   4.628   4.454 -0.1389  0.3480  0.1478
  518SOL    HW2 2996   7.116   4.766   4.452  2.1002 -0.6028  0.6521
  519SOL     OW 2997   0.483   4.011   6.684 -0.2330 -0.6711 -0.1531
  519SOL    HW1 2998   0.554   3.955   6.653  0.2826  0.1226 -0.4321
  519SOL    HW2 2999   0.434   4.034   6.606  0.1964  0.1323 -0.1974
  520SOL     OW 3000   7.868   5.243   6.979 -0.3537 -0.3684  0.1773
  520SOL    HW1 3001   7.948   5.193   6.964 -0.1444  0.5499 -2.2310
  520SOL    HW2 3002   7.870   5.264   7.072  1.5998 -1.3724  0.4137
  521SOL     OW 3003   7.005   2.773   1.321 -0.2919  0.2517 -0.1461
  521SOL    HW1 3004   6.934   2.753   1.382  0.1631  0.2618  0.3994
  521SOL    HW2 3005   7.081   2.728   1.357 -0.1563 -0.2915 -1.0703
  522SOL     OW 3006   3.125   0.297   5.826  0.7062  0.4600  0.1841
  522SOL    HW1 3007   3.173   0.237   5.768  0.0437  0.7811 -0.7298
  522SOL    HW2 3008   3.083   0.359   5.766 -1.0483  0.0422  0.9195
  523SOL     OW 3009   0.662   3.980  11.130 -0.4816 -0.0899 -0.5535
  523SOL    HW1 3010   0.648   4.073  11.143  2.3201  0.2632  0.7808
  523SOL    HW2 3011   0.576   3.945  11.108 -1.5924  2.7894 -1.1814
  524SOL     OW 3012   2.519   0.435   9.646  0.1666  0.3648  0.1980
  524SOL    HW1 3013   2.466   0.509   9.615 -0.1844  0.0336 -0.0125
  524SOL    HW2 3014   2.507   0.435   9.741 -2.5068 -1.3668 -0.0334
  525SOL     OW 3015   6.153   6.765   7.692 -0.0125  0.3006  0.2478
  525SOL    HW1 3016   6.206   6.690   7.663  0.7058  0.9334 -0.1165
  525SOL    HW2 3017   6.163   6.829   7.622 -0.4556  0.8145  0.6554
  526SOL     OW 3018   1.375   1.011   7.241 -0.0627  0.7306 -0.2686
  526SOL    HW1 3019   1.282   1.034   7.246  0.3910  2.3714  1.5038
  526SOL    HW2 3020   1.419   1.093   7.221  1.1219  0.2374  0.2496
  527SOL     OW 3021   3.264   7.606  10.880  0.2496 -0.8594 -0.0484
  527SOL    HW1 3022   3.299   7.568  10.800 -0.5273 -0.0515 -0.7836
  527SOL    HW2 3023   3.169   7.599  10.870  0.0468  1.7152 -0.4547
  528SOL     OW 3024   3.518   4.857   5.608 -0.3477  0.1394  0.3128
  528SOL    HW1 3025   3.555   4.916   5.673  1.5279 -0.8926  0.2308
  528SOL    HW2 3026   3.588   4.844   5.544 -1.3564 -0.7189 -0.6558
  529SOL     OW 3027   2.319   7.009   8.392 -0.6020 -0.8389  0.5063
  529SOL    HW1 3028   2.365   7.075   8.444 -1.1403  0.3687 -0.4983
  529SOL    HW2 3029   2.271   6.957   8.457 -0.8633  0.3068  1.2686
  530SOL     OW 3030   2.506   0.209   5.151 -0.5754 -0.4906 -0.2823
  530SOL    HW1 3031   2.593   0.168   5.147 -0.4802 -0.3581  0.3259
  530SOL    HW2 3032   2.450   0.144   5.192 -0.7295 -0.5205 -0.5416
  531SOL     OW 3033   4.826   0.416  10.351 -0.0207  0.2350  0.1091
  531SOL    HW1 3034   4.816   0.388  10.260  0.2077 -0.9470  0.4371
  531SOL    HW2 3035   4.765   0.362  10.400  0.1333  0.5970  0.7083
  532SOL     OW 3036   1.432   4.413   3.996 -0.0519  0.0131  0.3447
  532SOL    HW1 3037   1.500   4.365   4.045  1.6587  0.6033 -1.3314
  532SOL    HW2 3038   1.414   4.358   3.920 -0.1871  0.6776 -0.1090
  533SOL     OW 3039   2.034   3.754   0.704  0.9340 -0.1773  0.4902
  533SOL    HW1 3040   1.980   3.692   0.654 -0.4331  0.8313  0.6416
  533SOL    HW2 3041   2.048   3.711   0.788  1.1389 -0.8311  0.1326
  534SOL     OW 3042   1.630   5.770   6.313  1.0643 -0.1188  0.1754
  534SOL    HW1 3043   1.669   5.777   6.400  4.0779 -1.0747 -0.9457
  534SOL    HW2 3044   1.584   5.686   6.313  0.2787  0.2987  1.0819
  535SOL     OW 3045   7.795   6.689   7.459  0.3738  0.2954  0.0615
  535SOL    HW1 3046   7.772   6.762   7.402 -0.0213  0.6468  0.6578
  535SOL    HW2 3047   7.753   6.612   7.419  1.1152  0.3133 -0.7809
  536SOL     OW 3048   3.878   0.984   6.715  0.0840 -0.6083 -0.2669
  536SOL    HW1 3049   3.884   0.977   6.620  2.2833 -1.1471 -0.1589
  536SOL    HW2 3050   3.925   0.907   6.747  1.2084  0.6301  1.2145
  537SOL     OW 3051   7.864   7.604   3.898  0.2877 -0.6702  0.0598
  537SOL    HW1 3052   7.883   7.611   3.991  1.9176 -2.5413 -0.0713
  537SOL    HW2 3053   7.947   7.624   3.855 -1.0205  2.8843 -1.2434
  538SOL     OW 3054   4.128   2.083   5.620  0.1395 -0.5802  0.1017
  538SOL    HW1 3055   4.147   2.067   5.713 -0.2074 -0.6632  0.1584
  538SOL    HW2 3056   4.098   1.998   5.587  1.0725 -0.7723 -0.2953
  539SOL     OW 3057   2.038   3.992   4.315 -0.2049 -0.4438 -0.3406
  539SOL    HW1 3058   2.057   3.919   4.257  0.5287 -2.2878  2.0430
  539SOL    HW2 3059   1.958   3.966   4.361 -0.5902  0.7940 -0.2759
  540SOL     OW 3060   4.187   6.463  11.741 -0.1333  0.2252  0.3377
  540SOL    HW1 3061   4.238   6.530  11.787  1.9233  0.7124 -2.3677
  540SOL    HW2 3062   4.103   6.504  11.723  0.3386  1.3295  0.5581
  541SOL     OW 3063   2.082   2.787   9.501  0.9339  0.5639  0.5703
  541SOL    HW1 3064   1.996   2.820   9.475  0.1823 -1.8299 -0.2366
  541SOL    HW2 3065   2.075   2.773   9.595  1.2022  2.3316  0.8972
  542SOL     OW 3066   6.034   3.586   1.559  0.0007  0.0667  0.6065
  542SOL    HW1 3067   6.038   3.624   1.471 -0.0254  0.1253  0.6307
  542SOL    HW2 3068   5.969   3.517   1.553 -0.3685  0.4024  0.7082
  543SOL     OW 3069   6.051   6.939   8.630 -0.5337  0.0579  0.3375
  543SOL    HW1 3070   6.125   6.999   8.623  0.3283 -0.9602  0.4265
  543SOL    HW2 3071   5.974   6.996   8.639  0.4177  1.1501  2.1432
  544SOL     OW 3072   5.301   0.649   0.871  0.1158  0.0517  0.0041
  544SOL    HW1 3073   5.290   0.646   0.966  3.2162 -1.1275  0.4405
  544SOL    HW2 3074   5.228   0.597   0.837 -1.6071  1.3163  1.6160
  545SOL     OW 3075   0.020   7.179   3.923 -0.9232 -0.4148  0.0330
  545SOL    HW1 3076   0.084   7.132   3.977 -0.1251  0.7245  0.1087
  545SOL    HW2 3077  -0.056   7.190   3.981 -0.8971 -1.0888  0.2049
  546SOL     OW 3078   2.449   1.152   5.947 -0.3251 -0.4889 -0.6284
  546SOL    HW1 3079   2.505   1.146   5.869 -1.7895  1.2822 -1.9090
  546SOL    HW2 3080   2.499   1.205   6.008 -0.5193  1.0399 -1.7403
  547SOL     OW 3081   2.276   7.427   6.593  0.0792  0.0696 -0.5025
  547SOL    HW1 3082   2.192   7.392   6.563  1.1230 -0.9745 -2.4474
  547SOL    HW2 3083   2.338   7.356   6.580  1.6777  1.5237 -1.3287
  548SOL     OW 3084   1.578   5.312   7.935  0.3338 -0.0277 -0.5264
  548SOL    HW1 3085   1.653   5.267   7.974  0.6827  0.8786 -0.1245
  548SOL    HW2 3086   1.515   5.320   8.006  0.0909 -0.2786 -0.7132
  549SOL     OW 3087   2.860   4.528   7.061  0.2908  0.2013  0.6333
  549SOL    HW1 3088   2.870   4.442   7.020 -1.5032  0.6789 -0.8993
  549SOL    HW2 3089   2.797   4.514   7.131  0.5035  0.1530  0.8183
  550SOL     OW 3090   2.690   6.528   6.032  0.5985  0.0223 -0.4156
  550SOL    HW1 3091   2.669   6.619   6.054  0.1006  0.5107 -2.6345
  550SOL    HW2 3092   2.699   6.484   6.116  0.4208  2.0265  0.7082
  551SOL     OW 3093   7.894   6.680   2.560 -0.2633  0.2470  0.3726
  551SOL    HW1 3094   7.953   6.730   2.504 -1.2383  2.0047  0.8438
  551SOL    HW2 3095   7.866   6.606   2.505 -0.8477  1.6768 -1.3459
  552SOL     OW 3096   1.786   5.128  11.258  0.4953 -0.1378 -0.0799
  552SOL    HW1 3097   1.701   5.156  11.292  0.6341 -2.3581  2.4177
  552SOL    HW2 3098   1.843   5.204  11.269 -0.3586  0.3053  1.4932
  553SOL     OW 3099   2.036   3.672   5.465 -0.0455  0.5535  0.2525
  553SOL    HW1 3100   1.946   3.691   5.489 -1.0175 -2.9217 -0.0845
  553SOL    HW2 3101   2.071   3.624   5.541  1.4976  1.7236  0.3178
  554SOL     OW 3102   2.269   3.422   3.167 -0.2876 -0.6435  0.0078
  554SOL    HW1 3103   2.291   3.330   3.185 -1.8434 -1.2808 -1.1349
  554SOL    HW2 3104   2.173   3.425   3.170 -0.2283  1.4194  2.0700
  555SOL     OW 3105   1.776   3.953   9.974  0.0583 -0.3238  0.4161
  555SOL    HW1 3106   1.745   3.869  10.008  2.1526 -0.9611  0.9066
  555SOL    HW2 3107   1.770   4.013  10.049 -2.6964  0.4377 -0.2615
  556SOL     OW 3108   6.038   4.478   5.271 -0.6066  0.0317  0.5174
  556SOL    HW1 3109   5.956   4.511   5.234 -0.1948  0.4997  0.0078
  556SOL    HW2 3110   6.087   4.556   5.295  0.0602 -0.2137  0.0055
  557SOL     OW 3111   6.431   3.248   1.867  0.2986 -0.6786  0.4338
  557SOL    HW1 3112   6.477   3.165   1.878  0.0409 -0.6365  2.0789
  557SOL    HW2 3113   6.353   3.240   1.922 -0.6712 -0.0066 -0.7792
  558SOL     OW 3114   1.099   6.736   0.594 -0.2215  0.2996  0.2643
  558SOL    HW1 3115   1.084   6.721   0.687 -0.9601  1.2793  0.3146
  558SOL    HW2 3116   1.191   6.716   0.581 -0.6010 -1.9938  0.7568
  559SOL     OW 3117   3.965   0.148  10.664 -0.0351  0.0527 -0.8116
  559SOL    HW1 3118   3.920   0.215  10.716 -1.2630 -0.1398 -1.5972
  559SOL    HW2 3119   3.992   0.194  10.584 -1.7062 -0.5628 -1.7758
  560SOL     OW 3120   6.414   5.963  11.433  0.2599 -0.6510  0.1289
  560SOL    HW1 3121   6.471   6.040  11.423 -0.9517  0.0376 -1.9539
  560SOL    HW2 3122   6.472   5.896  11.469  1.8482  0.6584  0.1467
  561SOL     OW 3123   6.823   5.764   3.751 -0.1720  0.6286  0.5807
  561SOL    HW1 3124   6.730   5.750   3.768 -0.3714 -1.3582 -1.7437
  561SOL    HW2 3125   6.836   5.739   3.660  2.5927  1.2221  0.7095
  562SOL     OW 3126   5.678   6.255   9.623 -0.1237  0.1529 -0.4336
  562SOL    HW1 3127   5.623   6.242   9.546 -2.2947  2.1700  0.6496
  562SOL    HW2 3128   5.697   6.166   9.654 -1.8577 -0.6426 -1.5065
  563SOL     OW 3129   7.691   4.407   4.077 -0.3949  0.2893 -0.2972
  563SOL    HW1 3130   7.686   4.312   4.088  0.5248  0.4052  1.4773
  563SOL    HW2 3131   7.679   4.442   4.165 -0.3547  1.8201 -0.8702
  564SOL     OW 3132   7.234   3.675   1.053 -0.5219  0.0268  0.0322
  564SOL    HW1 3133   7.190   3.635   0.978  0.5113  2.1449 -1.8205
  564SOL    HW2 3134   7.304   3.612   1.075  0.2228  0.0855 -1.9177
  565SOL     OW 3135   5.358   0.793   5.768 -0.0722  0.2938 -0.5190
  565SOL    HW1 3136   5.418   0.782   5.841  0.2219  1.8303 -0.4778
  565SOL    HW2 3137   5.308   0.872   5.790 -3.0117 -1.6042  0.0372
  566SOL     OW 3138   3.759   2.222   3.255 -0.6655  0.5863 -0.3970
  566SOL    HW1 3139   3.712   2.264   3.326  2.1238  0.3366  1.7608
  566SOL    HW2 3140   3.729   2.131   3.256  0.7890  0.0537  1.9374
  567SOL     OW 3141   0.818   0.933   2.432 -0.8947  0.1050 -0.3288
  567SOL    HW1 3142   0.774   1.001   2.380 -0.5757  0.3659 -0.2588
  567SOL    HW2 3143   0.869   0.884   2.367 -0.0807  0.7543 -0.2052
  568SOL     OW 3144   5.829   1.558  11.144 -0.4887  0.2757  0.5809
  568SOL    HW1 3145   5.828   1.463  11.158  0.9291 -0.2083 -1.9828
  568SOL    HW2 3146   5.823   1.568  11.050 -0.9034  2.7864  0.8205
  569SOL     OW 3147   7.004   5.043   4.080 -0.0078  0.2504 -0.2288
  569SOL    HW1 3148   7.085   5.092   4.067  0.5610 -0.8133 -0.7924
  569SOL    HW2 3149   6.937   5.111   4.091  0.8835  1.1456 -0.1563
  570SOL     OW 3150   7.924   0.395  10.092  0.4171 -0.3883  0.2369
  570SOL    HW1 3151   7.986   0.343  10.040  2.0196 -0.3351  1.9737
  570SOL    HW2 3152   7.900   0.338  10.165  0.1461  0.3844  0.7647
  571SOL     OW 3153   7.874   5.952   4.899 -0.3550 -0.2348  0.1860
  571SOL    HW1 3154   7.876   5.945   4.803  0.1393  1.9443 -0.0264
  571SOL    HW2 3155   7.837   6.039   4.916 -3.9086 -1.9142  2.1172
  572SOL     OW 3156   4.350   2.393  10.166 -0.1067 -0.6629 -0.0292
  572SOL    HW1 3157   4.415   2.427  10.104  0.6445 -0.5867  0.7726
  572SOL    HW2 3158   4.396   2.323  10.211 -0.9523 -1.3419 -0.1936
  573SOL     OW 3159   7.407   2.468  11.573  0.4447  0.1801  0.2816
  573SOL    HW1 3160   7.482   2.514  11.611  0.7633  0.7389 -1.0055
  573SOL    HW2 3161   7.368   2.530  11.513  0.4929 -0.9992 -1.0118
  574SOL     OW 3162   7.223   7.455   3.179 -0.0238  0.6193 -0.2647
  574SOL    HW1 3163   7.150   7.414   3.224  1.0246  0.2838  1.2029
  574SOL    HW2 3164   7.236   7.539   3.224  0.8814  0.3990 -0.0895
  575SOL     OW 3165   4.760   6.298   0.754  0.3938 -0.6124  0.0861
  575SOL    HW1 3166   4.769   6.297   0.659  0.7373  0.9917  0.0741
  575SOL    HW2 3167   4.839   6.342   0.785 -0.1675 -0.2420  1.0385
  576SOL     OW 3168   5.022   5.688   9.508 -0.3456 -0.3796 -0.0809
  576SOL    HW1 3169   5.003   5.657   9.420 -1.1699  0.8609 -0.3667
  576SOL    HW2 3170   4.943   5.666   9.558 -0.1013 -0.5820  0.2205
  577SOL     OW 3171   4.983   0.089  11.419  0.5384  0.4350  0.1595
  577SOL    HW1 3172   4.970   0.052  11.332  1.1284 -1.9209  1.0003
  577SOL    HW2 3173   4.999   0.013  11.475  0.8301  1.9336  2.2128
  578SOL     OW 3174   7.332   2.838  11.855  0.3962  0.5360 -0.4432
  578SOL    HW1 3175   7.268   2.888  11.805  0.1759  0.9058  0.1908
  578SOL    HW2 3176   7.372   2.902  11.914 -0.0422 -0.0524  0.5310
  579SOL     OW 3177   4.105   6.503   5.630 -0.3145  0.2089  0.0698
  579SOL    HW1 3178   4.031   6.484   5.687  0.3703 -0.1266  0.8664
  579SOL    HW2 3179   4.167   6.550   5.685  0.2664  0.0808 -0.4604
  580SOL     OW 3180   1.359   6.750   2.193  0.3603 -0.1340  0.3072
  580SOL    HW1 3181   1.439   6.756   2.244  0.2756 -0.6065  0.4945
  580SOL    HW2 3182   1.301   6.816   2.232  0.3140 -0.4604  0.7881
  581SOL     OW 3183   1.083   3.509   1.745 -0.3214 -0.1018 -0.7241
  581SOL    HW1 3184   1.067   3.580   1.807 -0.9543 -1.4814  0.7799
  581SOL    HW2 3185   1.024   3.439   1.774  1.0881 -1.6377 -1.4334
  582SOL     OW 3186   6.824   3.860   2.677  0.6330 -0.0184 -0.8857
  582SOL    HW1 3187   6.891   3.841   2.612  1.5771  0.6557 -0.1240
  582SOL    HW2 3188   6.867   3.845   2.762  0.1860  1.5109 -0.3620
  583SOL     OW 3189   7.746   7.057   8.720  0.0090 -0.8021  0.4005
  583SOL    HW1 3190   7.768   7.103   8.639 -0.6517  0.0745  0.7064
  583SOL    HW2 3191   7.825   7.066   8.774  0.6002 -1.7282 -0.2737
  584SOL     OW 3192   5.261   1.069   1.363 -0.1000 -0.0662  0.0826
  584SOL    HW1 3193   5.288   1.159   1.381  1.4941 -0.3687 -0.6313
  584SOL    HW2 3194   5.248   1.030   1.449  0.3159  0.5213  0.4185
  585SOL     OW 3195   1.037   6.066   4.799  0.6632  0.3733  0.2610
  585SOL    HW1 3196   1.066   5.983   4.838  0.0996  0.1394  0.1918
  585SOL    HW2 3197   1.084   6.070   4.715  0.4041 -0.0616  0.0906
  586SOL     OW 3198   6.534   5.983   4.770 -0.0287 -0.0717  0.0350
  586SOL    HW1 3199   6.556   5.940   4.853 -1.2258  0.5949  0.7357
  586SOL    HW2 3200   6.615   6.027   4.743  0.7169 -1.3132  0.2001
  587SOL     OW 3201   6.435   7.427   7.675 -0.4101  0.2827 -0.2263
  587SOL    HW1 3202   6.530   7.434   7.690 -0.2523 -1.3599 -0.2869
  587SOL    HW2 3203   6.421   7.335   7.655 -1.8110  0.7809 -1.7867
  588SOL     OW 3204   5.327   1.093   2.235 -0.0408 -0.7016  0.1508
  588SOL    HW1 3205   5.335   1.186   2.253 -1.0524 -0.3340 -1.1100
  588SOL    HW2 3206   5.279   1.057   2.310  0.6897 -0.2878  0.8211
  589SOL     OW 3207   7.709   3.728   4.193  0.3943  0.6319 -0.3184
  589SOL    HW1 3208   7.648   3.801   4.201 -0.6754 -0.4037  1.6640
  589SOL    HW2 3209   7.782   3.763   4.141 -0.3903  2.8756 -0.0045
  590SOL     OW 3210   6.193   3.344   1.528  0.1819  0.0754 -0.0577
  590SOL    HW1 3211   6.129   3.295   1.579  0.4208 -1.2040 -0.9225
  590SOL    HW2 3212   6.171   3.436   1.543 -1.0045 -0.3088  0.7141
  591SOL     OW 3213   5.470   6.128   3.499  0.2151 -0.0837  0.0525
  591SOL    HW1 3214   5.451   6.106   3.590  0.3537  0.7128  0.2817
  591SOL    HW2 3215   5.545   6.073   3.476  0.1760 -0.2916  0.4191
  592SOL     OW 3216   3.093   2.452   5.256 -0.2008 -0.1992  0.1477
  592SOL    HW1 3217   3.175   2.415   5.288 -0.7140 -0.9190  0.6598
  592SOL    HW2 3218   3.105   2.460   5.162  0.0374 -1.4017  0.0614
  593SOL     OW 3219   3.776   1.050  10.229  0.1354  0.0231  0.1051
  593SOL    HW1 3220   3.846   0.985  10.218  0.1792 -0.0815  0.9381
  593SOL    HW2 3221   3.721   1.014  10.298 -0.4650  0.3509 -0.1955
  594SOL     OW 3222   4.911   0.142   5.328  0.4999 -0.5675  0.3975
  594SOL    HW1 3223   4.903   0.166   5.236 -3.1407 -0.6266  0.5500
  594SOL    HW2 3224   4.874   0.216   5.376  0.4619 -1.3774  1.6790
  595SOL     OW 3225   7.532   4.832   4.898  0.4464  0.1535  0.2549
  595SOL    HW1 3226   7.592   4.761   4.921 -0.7273 -0.4130  1.7082
  595SOL    HW2 3227   7.454   4.788   4.865 -0.2766  0.7548  1.1369
  596SOL     OW 3228   0.230   7.849  11.182  0.1943  0.4409  0.6270
  596SOL    HW1 3229   0.242   7.938  11.216  1.5817  1.5240 -2.3740
  596SOL    HW2 3230   0.311   7.830  11.136 -0.2940 -2.2187  0.7243
  597SOL     OW 3231   6.544   6.120   6.764 -0.1171  0.9211 -0.0255
  597SOL    HW1 3232   6.639   6.120   6.751 -0.1993  0.7237 -0.6295
  597SOL    HW2 3233   6.516   6.033   6.734 -0.5989  1.2812 -0.6228
  598SOL     OW 3234   1.204   5.995   0.309  0.3704 -0.3134  0.4813
  598SOL    HW1 3235   1.265   6.068   0.311  0.5757 -0.4921  1.5880
  598SOL    HW2 3236   1.131   6.025   0.255  1.4284 -0.1026 -0.8497
  599SOL     OW 3237   6.131   0.118   6.182 -0.1190 -0.8141  0.2603
  599SOL    HW1 3238   6.039   0.111   6.156  0.0753 -0.0241 -0.6984
  599SOL    HW2 3239   6.151   0.211   6.177  0.6499 -0.9416  0.7630
  600SOL     OW 3240   2.555   3.596   9.933 -0.5235  0.5627 -0.5644
  600SOL    HW1 3241   2.592   3.587  10.021 -1.5754 -0.6659 -0.2241
  600SOL    HW2 3242   2.524   3.686   9.930  0.3653  0.9023 -0.0183
  601SOL     OW 3243   6.088   4.373   4.384  0.1106 -0.2769 -0.7005
  601SOL    HW1 3244   6.165   4.429   4.375  0.4684 -0.8716 -1.4650
  601SOL    HW2 3245   6.118   4.299   4.437 -0.1821 -0.0656 -0.2379
  602SOL     OW 3246   3.512   2.436   4.735  0.1347 -0.3795  0.1270
  602SOL    HW1 3247   3.521   2.446   4.830  0.6412  2.6779 -0.1183
  602SOL    HW2 3248   3.586   2.484   4.699 -0.2911 -1.1001 -1.8341
  603SOL     OW 3249   4.531   4.401  10.672  0.0161 -0.0175 -0.1365
  603SOL    HW1 3250   4.474   4.469  10.709 -2.0521 -1.8245  0.2220
  603SOL    HW2 3251   4.564   4.354  10.748 -2.1764 -2.1398 -0.4035
  604SOL     OW 3252   3.395   3.709   3.289  0.6842 -0.3473  0.0135
  604SOL    HW1 3253   3.488   3.725   3.308  0.4419 -0.9821  1.8804
  604SOL    HW2 3254   3.379   3.620   3.319 -0.7500  0.0746  0.5576
  605SOL     OW 3255   1.673   5.244  10.261 -0.0266 -0.3290 -0.1160
  605SOL    HW1 3256   1.590   5.290  10.271  0.4739  0.8221 -0.9704
  605SOL    HW2 3257   1.655   5.174  10.199 -0.2010  0.4003 -0.9078
  606SOL     OW 3258   3.207   0.582   6.990 -0.1235  0.4026  0.0977
  606SOL    HW1 3259   3.235   0.491   6.998 -0.9377  0.1988  0.8782
  606SOL    HW2 3260   3.278   0.626   6.944  0.0935 -0.7161 -0.6756
  607SOL     OW 3261   4.619   5.906   6.309  0.0915  0.5995 -0.2977
  607SOL    HW1 3262   4.540   5.852   6.307 -0.1584  0.9512  0.0825
  607SOL    HW2 3263   4.662   5.887   6.225  1.7537 -2.7637  1.0898
  608SOL     OW 3264   2.112   0.173   7.292 -0.2821 -0.4755 -0.2699
  608SOL    HW1 3265   2.145   0.192   7.204 -0.1805  0.7733  0.0150
  608SOL    HW2 3266   2.190   0.176   7.348 -0.7424  2.3210  0.3780
  609SOL     OW 3267   7.623   1.008   4.371  0.1051 -0.2093  0.0859
  609SOL    HW1 3268   7.550   0.985   4.428  0.2622  0.4465  0.5596
  609SOL    HW2 3269   7.595   1.087   4.326  0.4145 -0.1089  0.0651
  610SOL     OW 3270   7.147   7.651  10.189 -0.2148 -0.5330 -0.3855
  610SOL    HW1 3271   7.168   7.730  10.239  1.5699 -0.6132 -0.9334
  610SOL    HW2 3272   7.087   7.602  10.245  0.1997  0.2859  0.8205
  611SOL     OW 3273   0.189   7.524   1.052 -0.3053 -0.0322  0.0186
  611SOL    HW1 3274   0.170   7.548   0.961 -0.5094 -3.4877 -0.9751
  611SOL    HW2 3275   0.122   7.459   1.074  1.7367 -1.7933  1.4214
  612SOL     OW 3276   3.295   6.721  11.501 -0.1895  0.0843 -0.2527
  612SOL    HW1 3277   3.262   6.808  11.478  0.5149 -0.2388 -2.7771
  612SOL    HW2 3278   3.374   6.738  11.552 -0.8257  0.8880  0.4971
  613SOL     OW 3279   7.238   2.252   2.476  0.3942 -0.2062  0.1625
  613SOL    HW1 3280   7.283   2.188   2.422 -1.3201 -0.2635 -1.2861
  613SOL    HW2 3281   7.168   2.203   2.519 -1.0859  0.6635 -1.1422
  614SOL     OW 3282   4.706   7.494  12.075 -0.1428 -0.2642 -0.6013
  614SOL    HW1 3283   4.730   7.586  12.066  2.8542 -0.9412 -0.4249
  614SOL    HW2 3284   4.648   7.491  12.152  0.4255  1.3578 -0.0867
  615SOL     OW 3285   4.402   3.202   1.375 -0.3843  0.0181 -0.8788
  615SOL    HW1 3286   4.426   3.116   1.340  0.2944 -0.4661  0.6755
  615SOL    HW2 3287   4.434   3.264   1.310  0.5884 -0.8482 -1.2646
  616SOL     OW 3288   2.669   6.828   0.213  0.5640 -0.6531 -0.0199
  616SOL    HW1 3289   2.745   6.881   0.191 -0.7652  1.5814  0.4668
  616SOL    HW2 3290   2.601   6.891   0.236 -0.4337 -2.5960  3.0197
  617SOL     OW 3291   2.362   7.503   7.113 -0.2037 -0.1403 -0.6849
  617SOL    HW1 3292   2.282   7.477   7.160  0.8004 -1.0768  0.6031
  617SOL    HW2 3293   2.409   7.559   7.176  0.7018 -0.5794 -0.9533
  618SOL     OW 3294   2.976   1.999   4.803 -0.4464  0.0093  0.2046
  618SOL    HW1 3295   3.071   2.002   4.810 -0.4643  0.8220  0.1899
  618SOL    HW2 3296   2.959   1.986   4.710 -0.3519 -0.2007  0.2161
  619SOL     OW 3297   2.559   4.377  11.414  0.1425  0.2147 -0.1012
  619SOL    HW1 3298   2.601   4.416  11.337  0.9166 -1.6519 -0.6775
  619SOL    HW2 3299   2.466   4.398  11.404  0.3116  0.4865 -1.2408
  620SOL     OW 3300   1.135   6.624   7.733  0.3139  1.0915 -0.1462
  620SOL    HW1 3301   1.146   6.661   7.646  0.0211  1.4218 -0.0464
  620SOL    HW2 3302   1.081   6.688   7.780  0.9050  1.1732  0.4410
  621SOL     OW 3303   1.108   0.752   4.641  0.2857  0.2360  0.4114
  621SOL    HW1 3304   1.198   0.757   4.608 -0.0934 -0.2677 -0.7497
  621SOL    HW2 3305   1.090   0.658   4.643 -0.9094  0.3760 -1.3875
  622SOL     OW 3306   1.187   7.371  10.372 -0.1295 -0.3908 -0.5100
  622SOL    HW1 3307   1.197   7.395  10.465  2.0300 -0.5378 -0.6419
  622SOL    HW2 3308   1.225   7.446  10.325  0.2889 -1.0231 -1.1887
  623SOL     OW 3309   0.224   4.897  11.453  0.4071  0.1550 -0.1331
  623SOL    HW1 3310   0.265   4.984  11.454  0.1932  0.2628 -0.5928
  623SOL    HW2 3311   0.287   4.841  11.408  0.1560  0.2736 -0.6468
  624SOL     OW 3312   3.961   7.102  12.211  0.2762  0.1359 -0.7419
  624SOL    HW1 3313   3.887   7.162  12.202  0.6413  0.5087 -1.3522
  624SOL    HW2 3314   3.960   7.051  12.129  0.1869 -0.4454 -0.3852
  625SOL     OW 3315   1.408   2.633   6.779  0.3693  0.1494 -0.4232
  625SOL    HW1 3316   1.413   2.538   6.767  0.5959 -0.1113  1.4864
  625SOL    HW2 3317   1.336   2.660   6.722  0.1984 -1.1788 -0.8802
  626SOL     OW 3318   7.191   3.165   1.785  0.1824  0.0903 -0.3129
  626SOL    HW1 3319   7.247   3.230   1.828  0.5464 -0.6255  0.3216
  626SOL    HW2 3320   7.162   3.108   1.856 -0.0801 -0.4766 -0.8688
  627SOL     OW 3321   7.382   5.134   5.895  0.5421 -0.0153  0.2212
  627SOL    HW1 3322   7.305   5.186   5.918  0.7654  0.4919 -0.1565
  627SOL    HW2 3323   7.347   5.048   5.871  0.2795 -0.4708  2.1214
  628SOL     OW 3324   4.974   0.725   7.921  0.0242 -0.0173  0.5624
  628SOL    HW1 3325   4.919   0.672   7.978 -1.3044  1.5477  0.7955
  628SOL    HW2 3326   4.917   0.752   7.849  0.5905  1.2237  0.5393
  629SOL     OW 3327   3.913   7.850   9.804 -0.0522 -0.0919  0.2497
  629SOL    HW1 3328   3.971   7.889   9.869  2.1571 -1.0848 -1.0090
  629SOL    HW2 3329   3.972   7.803   9.745 -2.2791 -2.2746 -0.3775
  630SOL     OW 3330   2.405   6.447  11.544 -0.0043 -0.4822  0.4191
  630SOL    HW1 3331   2.347   6.522  11.529 -0.5657 -0.6670  1.5809
  630SOL    HW2 3332   2.480   6.484  11.589  0.7862 -0.2542 -1.0285
  631SOL     OW 3333   0.615   1.458  12.054  0.3641 -0.3744  0.2605
  631SOL    HW1 3334   0.541   1.518  12.050  1.0328  0.4658  0.0102
  631SOL    HW2 3335   0.578   1.375  12.082 -0.6108  0.1276  0.4949
  632SOL     OW 3336   7.662   3.298   1.873 -0.1475 -0.2070 -0.1290
  632SOL    HW1 3337   7.725   3.230   1.898  1.8387  1.6821  0.2926
  632SOL    HW2 3338   7.635   3.338   1.956 -0.6386  0.0701 -0.4177
  633SOL     OW 3339   7.928   3.639   2.036 -0.9839 -0.6313 -0.2735
  633SOL    HW1 3340   8.002   3.669   2.088 -1.2983  0.7234 -0.5661
  633SOL    HW2 3341   7.881   3.578   2.094 -1.4435  0.9859  1.1452
  634SOL     OW 3342   1.164   3.544   7.540  0.4652 -0.0628  0.2474
  634SOL    HW1 3343   1.098   3.614   7.535  1.8384  1.2846  0.2446
  634SOL    HW2 3344   1.246   3.590   7.554  1.7787 -1.4918 -2.0882
  635SOL     OW 3345   7.129   6.507   1.409 -0.1231 -0.2527  0.4560
  635SOL    HW1 3346   7.075   6.428   1.402 -0.9376 -0.0832  3.3460
  635SOL    HW2 3347   7.091   6.555   1.484  0.7592  2.5528 -0.7607
  636SOL     OW 3348   6.339   0.832   5.266 -0.4719  0.0841  0.2791
  636SOL    HW1 3349   6.244   0.847   5.264 -0.3033  1.1740 -0.4877
  636SOL    HW2 3350   6.359   0.799   5.178  0.0563  1.2306 -0.0400
  637SOL     OW 3351   5.669   5.552   1.308 -0.5270 -0.2037 -1.0148
  637SOL    HW1 3352   5.618   5.592   1.237 -2.9546  1.1594  1.3027
  637SOL    HW2 3353   5.676   5.621   1.374  0.5324 -1.7695  0.5861
  638SOL     OW 3354   3.659   6.271   1.040 -0.1637  0.0698  0.2892
  638SOL    HW1 3355   3.663   6.362   1.010 -2.7711  0.4366  0.8428
  638SOL    HW2 3356   3.730   6.264   1.103  1.4163  1.0843 -1.2765
  639SOL     OW 3357   1.270   7.126   7.687 -0.0195 -0.4193  0.2087
  639SOL    HW1 3358   1.302   7.182   7.617 -0.1688  0.0588  0.5180
  639SOL    HW2 3359   1.304   7.039   7.667 -0.0145 -0.2713 -0.4236
  640SOL     OW 3360   3.364   1.951   7.005 -0.0112  0.0630 -0.4774
  640SOL    HW1 3361   3.295   2.017   7.016 -0.1165  0.5164 -3.1901
  640SOL    HW2 3362   3.333   1.875   7.053  0.4175  2.0525  3.3807
  641SOL     OW 3363   5.744   4.042   8.591  0.1633  0.5715 -0.1540
  641SOL    HW1 3364   5.771   4.048   8.500  0.7031 -0.6131 -0.0830
  641SOL    HW2 3365   5.650   4.061   8.590  0.5615  2.8250 -0.6399
  642SOL     OW 3366   3.952   5.131   7.326  0.2133 -0.1601  0.0848
  642SOL    HW1 3367   3.955   5.220   7.291 -0.5266  0.0842  0.6282
  642SOL    HW2 3368   3.863   5.120   7.358  0.7507 -0.5136  1.5369
  643SOL     OW 3369   2.958   4.049   9.414 -0.5401 -0.4189 -0.1816
  643SOL    HW1 3370   3.029   4.003   9.368  1.3265  1.8918  0.1816
  643SOL    HW2 3371   2.983   4.046   9.506 -2.6028 -2.2524  0.3905
  644SOL     OW 3372   7.881   6.078   7.671  0.2727  0.0701 -0.4442
  644SOL    HW1 3373   7.789   6.065   7.651  0.0504  0.8971  0.0160
  644SOL    HW2 3374   7.894   6.031   7.754  0.0592  0.6492 -0.0756
  645SOL     OW 3375   3.979   6.405  10.279 -0.0876 -0.0252 -0.2725
  645SOL    HW1 3376   3.966   6.475  10.215 -0.9005  1.0132  0.9824
  645SOL    HW2 3377   4.047   6.438  10.338 -1.3612  0.2819  1.0691
  646SOL     OW 3378   7.603   4.840  12.336  0.1352  0.1979 -0.3816
  646SOL    HW1 3379   7.555   4.807  12.413 -0.1316  0.6875 -0.3395
  646SOL    HW2 3380   7.650   4.917  12.368  1.0297 -0.3182 -0.3975
  647SOL     OW 3381   4.498   1.922   5.191  0.3751  0.7324  0.2573
  647SOL    HW1 3382   4.473   1.836   5.224  0.7803  0.6770  0.4194
  647SOL    HW2 3383   4.491   1.914   5.096 -1.4070  1.0738  0.3195
  648SOL     OW 3384   4.584   0.665   6.393  0.3596  0.0436 -0.1585
  648SOL    HW1 3385   4.642   0.739   6.403 -1.2866  1.2578  0.9350
  648SOL    HW2 3386   4.540   0.680   6.309  0.1645  0.2022 -0.0279
  649SOL     OW 3387   5.789   6.173  10.881  0.0269  0.9788 -0.0247
  649SOL    HW1 3388   5.815   6.176  10.789  3.1462 -1.6398  0.5959
  649SOL    HW2 3389   5.708   6.122  10.882 -0.2197  1.3144 -1.2966
  650SOL     OW 3390   3.133   7.009   9.094 -0.1434  0.1245 -0.1972
  650SOL    HW1 3391   3.061   6.992   9.034  0.0705 -0.3020 -0.3393
  650SOL    HW2 3392   3.169   6.922   9.113  2.0079  0.5075 -2.1799
  651SOL     OW 3393   2.184   6.543   1.702  0.4231  0.5974 -0.0561
  651SOL    HW1 3394   2.168   6.557   1.609  1.4541  0.4769 -0.2663
  651SOL    HW2 3395   2.214   6.628   1.734  0.7611  0.4597  0.0014
  652SOL     OW 3396   5.701   4.284  10.626  0.2551 -0.0767  0.7671
  652SOL    HW1 3397   5.699   4.214  10.561  1.1466  1.2537 -0.7351
  652SOL    HW2 3398   5.792   4.284  10.658  0.1170  0.0530  1.1649
  653SOL     OW 3399   3.735   7.004  10.678  0.5875 -0.2788  0.1675
  653SOL    HW1 3400   3.804   7.044  10.625  0.1822 -1.1029 -1.0323
  653SOL    HW2 3401   3.710   7.072  10.740  1.2506  0.6477 -0.5475
  654SOL     OW 3402   2.656   3.901   7.905 -0.4434  0.2422 -0.2498
  654SOL    HW1 3403   2.602   3.844   7.960  0.3956 -3.1649 -2.5991
  654SOL    HW2 3404   2.735   3.917   7.956 -0.6168 -0.9436  0.4232
  655SOL     OW 3405   5.169   1.543   2.894  0.1695 -0.1011 -0.2684
  655SOL    HW1 3406   5.095   1.574   2.947  1.1427 -0.8773  1.6381
  655SOL    HW2 3407   5.243   1.596   2.923  0.8567 -0.9749 -0.3930
  656SOL     OW 3408   7.627   0.017  12.077 -0.4823  0.3732  0.0917
  656SOL    HW1 3409   7.703  -0.015  12.029 -0.5984  0.5365 -0.2031
  656SOL    HW2 3410   7.625   0.111  12.060 -1.1397  0.2730 -0.4766
  657SOL     OW 3411   1.787   5.594   7.051 -0.0636  0.5659  0.0245
  657SOL    HW1 3412   1.747   5.677   7.025 -1.9024 -0.2626  0.0881
  657SOL    HW2 3413   1.793   5.544   6.970 -1.7480 -0.3530  0.4336
  658SOL     OW 3414   0.642   7.703   7.602  0.5304  0.6510  0.0326
  658SOL    HW1 3415   0.688   7.787   7.598 -0.7957  1.3877 -0.3868
  658SOL    HW2 3416   0.653   7.673   7.692  1.6449  0.9019 -0.0069
  659SOL     OW 3417   6.366   3.110   0.785  0.2341  0.2095  0.0930
  659SOL    HW1 3418   6.435   3.073   0.730 -0.6674 -2.6676  0.7268
  659SOL    HW2 3419   6.342   3.039   0.844 -2.5523  1.4295  0.5753
  660SOL     OW 3420   7.499   7.785   4.269 -0.6943  0.1840 -0.0016
  660SOL    HW1 3421   7.566   7.718   4.271 -0.4526  0.3446 -1.7909
  660SOL    HW2 3422   7.456   7.778   4.355  2.0439  0.5819  1.5111
  661SOL     OW 3423   2.738   2.425   9.350  0.5787  0.1612  0.5367
  661SOL    HW1 3424   2.724   2.442   9.444 -1.4202  3.4116 -0.1905
  661SOL    HW2 3425   2.697   2.340   9.335 -2.7775  1.3485  1.9970
  662SOL     OW 3426   5.315   0.116   1.895  0.7343  0.0157 -0.0741
  662SOL    HW1 3427   5.287   0.036   1.940  1.7143 -1.2046 -1.5338
  662SOL    HW2 3428   5.402   0.134   1.930 -0.0150  1.2999  1.2634
  663SOL     OW 3429   3.925   5.669   5.730  0.4164 -0.7307  0.2391
  663SOL    HW1 3430   4.007   5.669   5.780  1.1521 -0.7519 -0.9409
  663SOL    HW2 3431   3.857   5.662   5.797  1.4273 -3.5220  1.1211
  664SOL     OW 3432   2.595   0.730  10.513  0.3860  0.0848  0.1456
  664SOL    HW1 3433   2.611   0.713  10.420 -0.4164  0.6829 -0.1141
  664SOL    HW2 3434   2.617   0.822  10.526  2.5487 -0.4992  1.0462
  665SOL     OW 3435   7.874   3.066   3.905 -0.4023 -0.0737 -0.0557
  665SOL    HW1 3436   7.858   3.095   3.995  1.7402  0.5663  0.1580
  665SOL    HW2 3437   7.815   3.119   3.852  0.8972  2.2205  0.6588
  666SOL     OW 3438   7.546   5.692   4.393  0.5296  0.0811 -0.5234
  666SOL    HW1 3439   7.456   5.697   4.360 -0.7288 -1.0049  2.4500
  666SOL    HW2 3440   7.557   5.773   4.443  1.2560  0.2385 -0.9278
  667SOL     OW 3441   1.263   7.407   9.552  0.4814 -0.7948  0.4558
  667SOL    HW1 3442   1.257   7.390   9.646 -0.6217 -0.9304  0.3683
  667SOL    HW2 3443   1.216   7.334   9.511 -1.1530  0.4977 -0.0960
  668SOL     OW 3444   6.641   0.094   0.443 -0.4313 -0.3134  0.4985
  668SOL    HW1 3445   6.734   0.092   0.419 -0.8366 -1.7573 -1.1766
  668SOL    HW2 3446   6.608   0.008   0.418 -1.6821 -0.8372  3.5544
  669SOL     OW 3447   1.411   4.778   0.462  0.2137  0.4051  0.0886
  669SOL    HW1 3448   1.435   4.713   0.529 -0.4460  0.9523  0.8738
  669SOL    HW2 3449   1.429   4.734   0.379 -0.1116 -0.7538  0.6063
  670SOL     OW 3450   5.194   2.222   2.322  0.4372 -0.2073 -0.3525
  670SOL    HW1 3451   5.212   2.260   2.409 -0.0621 -1.0896  0.1545
  670SOL    HW2 3452   5.273   2.239   2.272  1.0964 -0.4608  0.5631
  671SOL     OW 3453   5.651   1.120   9.042  0.2067 -0.1111  0.4846
  671SOL    HW1 3454   5.714   1.143   9.110 -0.6640  1.1189  0.9056
  671SOL    HW2 3455   5.579   1.078   9.089  0.2474 -0.5692  0.1412
  672SOL     OW 3456   6.692   0.419  11.627  0.1706  0.0270  0.0742
  672SOL    HW1 3457   6.786   0.424  11.608 -0.3482 -0.3521 -3.2641
  672SOL    HW2 3458   6.657   0.358  11.561 -2.3809 -0.1831  1.4796
  673SOL     OW 3459   2.664   2.932  12.188 -0.2072 -0.8404  0.6942
  673SOL    HW1 3460   2.760   2.937  12.188 -0.1975 -0.2181  2.2193
  673SOL    HW2 3461   2.638   2.962  12.101  0.9730 -0.8285  0.3291
  674SOL     OW 3462   4.246   7.793   6.517  0.0654  0.8582  0.1444
  674SOL    HW1 3463   4.278   7.786   6.607 -1.9218 -0.8246  0.7971
  674SOL    HW2 3464   4.301   7.730   6.469 -0.7451 -0.4109  0.8134
  675SOL     OW 3465   6.494   0.771  12.241 -0.2928  0.2088 -0.5535
  675SOL    HW1 3466   6.588   0.786  12.247 -0.4862  1.0086  1.3573
  675SOL    HW2 3467   6.478   0.752  12.149  1.4292  2.3216 -1.3687
  676SOL     OW 3468   0.798   1.316   4.440  0.0917 -0.2738 -0.8640
  676SOL    HW1 3469   0.741   1.381   4.400 -1.3829 -1.5666 -0.9881
  676SOL    HW2 3470   0.862   1.366   4.489 -1.5800  1.2618 -0.1395
  677SOL     OW 3471   3.900   2.041   7.968  0.1532  0.4589  0.2017
  677SOL    HW1 3472   3.828   2.041   8.031 -0.5906  0.0977 -0.6356
  677SOL    HW2 3473   3.923   2.133   7.957 -0.4011  0.5973  0.2175
  678SOL     OW 3474   6.046   5.196  10.304 -0.6232  0.0658 -0.2384
  678SOL    HW1 3475   6.004   5.220  10.386  1.3000  1.1436  0.5066
  678SOL    HW2 3476   6.118   5.137  10.330  1.3857  2.1104 -0.7967
  679SOL     OW 3477   3.980   4.960   5.847 -0.1101 -0.2339 -0.5351
  679SOL    HW1 3478   4.028   4.878   5.835  1.2672  0.2134  1.4800
  679SOL    HW2 3479   3.991   5.007   5.764  1.0152 -1.1005 -0.8999
  680SOL     OW 3480   6.028   6.063   1.744  0.0064  0.0423  0.7465
  680SOL    HW1 3481   6.068   6.150   1.740 -1.2825  0.6556  0.9566
  680SOL    HW2 3482   5.937   6.076   1.718 -0.0960 -1.3310  0.2909
  681SOL     OW 3483   4.533   6.031   8.086  0.6080 -0.4635  0.4377
  681SOL    HW1 3484   4.547   6.125   8.103  1.8196 -0.3762 -0.8231
  681SOL    HW2 3485   4.461   6.029   8.023  1.1978 -0.3040 -0.2547
  682SOL     OW 3486   2.002   2.016   3.333 -0.3465 -0.3832  0.0676
  682SOL    HW1 3487   2.078   2.073   3.322 -0.8124  0.0185 -1.3431
  682SOL    HW2 3488   2.022   1.963   3.410  1.5917 -0.6529 -0.5683
  683SOL     OW 3489   2.026   6.475   3.191  0.1392  0.2518 -0.5642
  683SOL    HW1 3490   1.959   6.513   3.134 -0.0359  0.5765 -0.1484
  683SOL    HW2 3491   2.079   6.550   3.220 -0.3517  0.2275  0.4522
  684SOL     OW 3492   4.430   7.892   4.457  0.3982 -0.5521  0.5766
  684SOL    HW1 3493   4.503   7.944   4.424 -0.8155  0.0806 -1.2694
  684SOL    HW2 3494   4.468   7.805   4.473  1.2130 -0.8726 -2.3740
  685SOL     OW 3495   0.397   0.240   3.235  0.5073  0.0290  0.9102
  685SOL    HW1 3496   0.380   0.303   3.165  1.3584  0.4093  1.0323
  685SOL    HW2 3497   0.359   0.158   3.203  0.4116  0.3245  0.2445
  686SOL     OW 3498   4.964   7.149  11.780 -0.5640 -0.0210  0.5353
  686SOL    HW1 3499   4.892   7.142  11.842 -1.6897  0.9575 -0.6282
  686SOL    HW2 3500   4.963   7.065  11.733 -1.7135  0.4233 -0.2692
  687SOL     OW 3501   2.066   4.636   2.549  0.0400 -0.1738 -0.0188
  687SOL    HW1 3502   2.053   4.650   2.643  2.3227 -0.6914  0.4295
  687SOL    HW2 3503   2.133   4.568   2.544 -1.3543 -1.5079 -2.0712
  688SOL     OW 3504   6.974   7.242   5.229 -0.2001  0.5410 -0.1497
  688SOL    HW1 3505   6.938   7.219   5.315  2.8289 -0.3086  1.0017
  688SOL    HW2 3506   6.962   7.163   5.177  0.6720 -0.0088  0.4663
  689SOL     OW 3507   0.180   6.929   9.102  0.0140 -0.3199 -0.1251
  689SOL    HW1 3508   0.271   6.950   9.122  0.3140 -0.6337 -1.0721
  689SOL    HW2 3509   0.128   6.991   9.153  0.6959 -1.1966  1.7042
  690SOL     OW 3510   6.934   6.224   7.935 -0.1030  0.6138 -0.2238
  690SOL    HW1 3511   6.849   6.267   7.933 -0.8211 -0.7538 -0.6178
  690SOL    HW2 3512   6.914   6.134   7.964  1.1203  0.0981 -0.9217
  691SOL     OW 3513   7.173   4.745   6.162  0.4644 -0.2541  0.1115
  691SOL    HW1 3514   7.169   4.790   6.247  0.1707 -1.2571  0.6516
  691SOL    HW2 3515   7.104   4.678   6.168 -0.8139  0.8256 -1.6199
  692SOL     OW 3516   2.900   4.996  11.559 -0.1810  0.1188  0.5559
  692SOL    HW1 3517   2.950   4.922  11.525 -0.2653 -0.3131  1.3379
  692SOL    HW2 3518   2.827   5.005  11.498  0.2516  0.0450  0.0259
  693SOL     OW 3519   7.353   6.827   4.205  0.0643  0.0768  0.4658
  693SOL    HW1 3520   7.368   6.896   4.140  2.2310 -0.1027  0.7102
  693SOL    HW2 3521   7.259   6.809   4.199  0.0750  0.4374 -2.2597
  694SOL     OW 3522   3.805   2.665   9.137 -0.0534  0.0717 -0.0043
  694SOL    HW1 3523   3.778   2.653   9.046 -1.0076  0.1371  0.2543
  694SOL    HW2 3524   3.739   2.724   9.174  1.0896  1.1363  0.3831
  695SOL     OW 3525   1.541   5.523   1.553 -0.6809  0.1366 -0.3992
  695SOL    HW1 3526   1.536   5.429   1.533 -0.6987  0.1853 -0.6305
  695SOL    HW2 3527   1.625   5.533   1.599  1.2146  0.5708 -3.6250
  696SOL     OW 3528   7.436   5.006   9.412 -0.9922  0.0975 -1.0900
  696SOL    HW1 3529   7.391   4.936   9.460 -1.1400  1.1933  0.4531
  696SOL    HW2 3530   7.392   5.011   9.328 -0.4424 -2.2009 -1.5801
  697SOL     OW 3531   7.007   2.943   0.811 -0.2373  0.6590 -0.4322
  697SOL    HW1 3532   6.922   2.910   0.841  1.4594 -1.2518  2.7951
  697SOL    HW2 3533   6.997   3.038   0.811 -2.2414  0.4963  0.1975
  698SOL     OW 3534   2.172   5.048   4.592  0.5319 -0.6522 -0.5461
  698SOL    HW1 3535   2.128   4.964   4.578  2.0737 -1.3496 -1.4460
  698SOL    HW2 3536   2.247   5.027   4.648  0.1591  0.3832  0.3604
  699SOL     OW 3537   5.047   2.423   3.995 -0.2786  0.2226  0.2951
  699SOL    HW1 3538   5.138   2.444   3.975  0.2049 -1.7298  0.2126
  699SOL    HW2 3539   5.009   2.396   3.911 -1.6539  3.1999 -0.1464
  700SOL     OW 3540   6.191   1.800   0.152  0.0859 -0.2672  0.3976
  700SOL    HW1 3541   6.281   1.831   0.146  1.1363 -2.6356  2.2084
  700SOL    HW2 3542   6.151   1.855   0.219  0.8376 -0.5516  1.0886
  701SOL     OW 3543   4.616   0.816   7.187 -0.3540 -0.3556 -0.3129
  701SOL    HW1 3544   4.708   0.793   7.172 -0.1837  1.4119 -2.5616
  701SOL    HW2 3545   4.567   0.743   7.149  0.1197 -0.5997 -0.4708
  702SOL     OW 3546   6.423   6.325   8.874 -0.0287 -0.1694 -0.3088
  702SOL    HW1 3547   6.511   6.304   8.844 -0.4834 -0.4322 -1.5130
  702SOL    HW2 3548   6.365   6.266   8.825 -0.9984  1.1282 -0.7990
  703SOL     OW 3549   4.253   1.133  11.797 -0.2519  0.2458 -0.4840
  703SOL    HW1 3550   4.217   1.177  11.721 -1.5145 -1.5851 -1.0346
  703SOL    HW2 3551   4.345   1.121  11.776 -0.0468  1.8931 -0.6310
  704SOL     OW 3552   6.506   5.064   3.148 -0.1533 -0.0727  0.3647
  704SOL    HW1 3553   6.495   4.993   3.211  0.8182 -1.1386 -0.6302
  704SOL    HW2 3554   6.423   5.065   3.099  0.7869 -2.4264 -1.4630
  705SOL     OW 3555   2.729   5.414   5.162 -0.0363  0.4606  0.4159
  705SOL    HW1 3556   2.724   5.493   5.217 -1.2324 -0.3098  1.4610
  705SOL    HW2 3557   2.639   5.381   5.160  0.6618 -1.6290  1.1361
  706SOL     OW 3558   7.925   1.084   3.704  0.1196 -0.3337  0.6743
  706SOL    HW1 3559   7.914   1.135   3.624  1.1704 -2.9455 -1.2749
  706SOL    HW2 3560   8.012   1.110   3.736 -0.4305  0.9452  1.2085
  707SOL     OW 3561   0.904   3.040   0.935 -0.0734 -0.1255  0.0448
  707SOL    HW1 3562   0.990   3.069   0.906 -0.3497  0.5274 -0.1504
  707SOL    HW2 3563   0.860   3.009   0.856  0.1274 -0.8532  0.2115
  708SOL     OW 3564   5.974   1.790  10.346 -0.1482 -0.2243 -0.3076
  708SOL    HW1 3565   6.070   1.789  10.345 -0.0014  3.1762 -1.1075
  708SOL    HW2 3566   5.951   1.877  10.314 -3.4489  0.6004  3.5878
  709SOL     OW 3567   7.065   3.137  11.135  0.0538 -0.0500  0.0646
  709SOL    HW1 3568   6.989   3.080  11.152 -0.9322  0.4155 -2.3429
  709SOL    HW2 3569   7.137   3.076  11.117 -0.3236 -0.5242  0.1408
  710SOL     OW 3570   7.188   0.722   8.737 -0.0562  0.6335  0.4957
  710SOL    HW1 3571   7.275   0.717   8.697 -1.4589  0.6546 -2.9284
  710SOL    HW2 3572   7.146   0.640   8.712 -1.2443  0.8633  1.6356
  711SOL     OW 3573   0.193   2.257   9.609 -0.5085  0.0459  0.1672
  711SOL    HW1 3574   0.218   2.176   9.653  0.4993 -0.5611 -1.4435
  711SOL    HW2 3575   0.097   2.256   9.609 -0.5337 -0.1153  1.9428
  712SOL     OW 3576   4.910   2.916   0.556  0.0064 -0.3531 -0.5960
  712SOL    HW1 3577   4.964   2.958   0.623 -1.3802  0.9463 -0.2198
  712SOL    HW2 3578   4.972   2.885   0.491  1.2000  1.7075 -0.5395
  713SOL     OW 3579   0.492   2.534   1.122  0.3474 -0.1126 -0.0085
  713SOL    HW1 3580   0.476   2.442   1.104 -0.3816 -0.7000  3.1631
  713SOL    HW2 3581   0.583   2.538   1.150  0.3620  0.1306 -0.0861
  714SOL     OW 3582   1.798   0.679   4.561 -0.7920 -0.3503 -0.2587
  714SOL    HW1 3583   1.781   0.670   4.467 -0.2398 -0.2663 -0.3689
  714SOL    HW2 3584   1.879   0.629   4.575 -1.5022 -1.3525  0.3804
  715SOL     OW 3585   4.891   2.166   7.359 -0.0832 -0.1253 -0.0497
  715SOL    HW1 3586   4.959   2.147   7.423 -1.1240 -1.4719  0.7248
  715SOL    HW2 3587   4.813   2.184   7.412 -0.4527  0.9590 -0.9141
  716SOL     OW 3588   6.961   5.449  10.280  0.4495  0.5166  0.1003
  716SOL    HW1 3589   7.056   5.458  10.277  0.5086  0.0881  0.7267
  716SOL    HW2 3590   6.931   5.494  10.200  1.3449 -1.7575 -1.6313
  717SOL     OW 3591   7.812   6.103   2.540  0.7945 -0.1131 -0.5666
  717SOL    HW1 3592   7.753   6.177   2.526  0.3651 -0.0927  1.1542
  717SOL    HW2 3593   7.854   6.121   2.624  0.3242 -2.0458  0.1408
  718SOL     OW 3594   7.430   4.817  11.251  0.8643 -0.4151 -0.3645
  718SOL    HW1 3595   7.521   4.821  11.223  0.8854 -0.4561 -0.3024
  718SOL    HW2 3596   7.380   4.832  11.171  0.9287  0.2919 -0.2761
  719SOL     OW 3597   2.007   3.507  11.490 -0.1375  0.1077  0.3020
  719SOL    HW1 3598   1.984   3.596  11.466 -1.1308  0.0378  0.9649
  719SOL    HW2 3599   2.077   3.483  11.429  1.4203  1.9683  1.2692
  720SOL     OW 3600   2.538   6.859   3.427 -0.2767 -0.1610 -0.0985
  720SOL    HW1 3601   2.536   6.907   3.343 -1.5080 -0.3666 -0.2060
  720SOL    HW2 3602   2.569   6.772   3.403  1.2080  0.3207 -0.0265
  721SOL     OW 3603   4.432   5.429   2.329 -0.0194  0.0722 -0.1625
  721SOL    HW1 3604   4.448   5.353   2.272 -0.1982  0.2040 -0.3892
  721SOL    HW2 3605   4.515   5.476   2.331 -0.6371  1.3802 -2.2525
  722SOL     OW 3606   4.264   0.188   1.864 -0.0712  0.1756 -0.2868
  722SOL    HW1 3607   4.354   0.161   1.846 -0.0985 -0.0608 -0.0780
  722SOL    HW2 3608   4.238   0.240   1.788  0.6955  1.3855  0.2556
  723SOL     OW 3609   1.305   7.504   7.984 -0.1779  0.4179  0.3563
  723SOL    HW1 3610   1.281   7.493   7.892  0.7523  1.3603 -0.0247
  723SOL    HW2 3611   1.337   7.418   8.012  0.1068  0.2786 -0.3843
  724SOL     OW 3612   3.301   1.905  10.084  0.6607 -0.0979 -0.8762
  724SOL    HW1 3613   3.279   1.884  10.175  0.3608 -1.2168 -1.1787
  724SOL    HW2 3614   3.320   1.998  10.084  1.2085 -0.1866  0.4377
  725SOL     OW 3615   6.701   5.394   4.540 -0.2730  0.1870 -0.0641
  725SOL    HW1 3616   6.650   5.449   4.600  0.0218 -0.7689  1.0895
  725SOL    HW2 3617   6.635   5.356   4.481 -0.5405  1.2959 -0.5151
  726SOL     OW 3618   6.830   0.676   7.076  0.3343 -0.1143 -0.4591
  726SOL    HW1 3619   6.867   0.723   7.001 -0.0269 -1.4778 -1.5292
  726SOL    HW2 3620   6.742   0.713   7.085  1.0845  1.5443  0.6805
  727SOL     OW 3621   0.834   1.448   3.052  0.0189 -0.0707 -0.7460
  727SOL    HW1 3622   0.886   1.436   3.131 -0.6133 -0.1610 -0.3351
  727SOL    HW2 3623   0.886   1.408   2.983  0.6526  0.1467 -0.4104
  728SOL     OW 3624   4.200   1.362   4.860  0.3204 -0.3204  0.4572
  728SOL    HW1 3625   4.262   1.358   4.932  1.2271 -1.2735 -0.3511
  728SOL    HW2 3626   4.189   1.456   4.844 -0.1096 -0.0794  1.9822
  729SOL     OW 3627   5.970   3.364  10.374  0.1046 -0.4469 -0.3798
  729SOL    HW1 3628   5.921   3.282  10.382  1.4888 -1.1789  1.3740
  729SOL    HW2 3629   6.061   3.337  10.371  0.5108  0.9714 -1.6674
  730SOL     OW 3630   2.594   3.387   5.809  0.0101  0.5669  0.1977
  730SOL    HW1 3631   2.650   3.332   5.864  0.3418  1.6380  0.9509
  730SOL    HW2 3632   2.636   3.385   5.723 -0.7083 -1.4143 -0.1719
  731SOL     OW 3633   0.556   6.918   7.029 -0.3244  0.3108  0.1998
  731SOL    HW1 3634   0.533   7.003   7.066  1.4185  0.7434  0.4212
  731SOL    HW2 3635   0.501   6.855   7.075 -0.3716  1.1553  1.3338
  732SOL     OW 3636   4.341   7.664  11.823 -0.2116  0.0875 -0.3549
  732SOL    HW1 3637   4.422   7.713  11.806  0.8085 -1.6232 -0.6858
  732SOL    HW2 3638   4.351   7.631  11.912 -0.9610  0.6039 -0.0716
  733SOL     OW 3639   3.238   6.687   5.716  0.0339 -0.0126  0.3206
  733SOL    HW1 3640   3.248   6.770   5.762  0.2531 -0.2996  0.7959
  733SOL    HW2 3641   3.180   6.635   5.771 -1.5637  0.4631 -0.8526
  734SOL     OW 3642   6.455   4.264   6.281 -0.2071  0.2877 -0.5759
  734SOL    HW1 3643   6.483   4.211   6.206  0.7238 -0.5339  0.3214
  734SOL    HW2 3644   6.376   4.221   6.313  0.7462 -0.8056  0.3691
  735SOL     OW 3645   6.984   0.941   5.927 -0.0530  0.5058  0.4145
  735SOL    HW1 3646   6.961   1.034   5.927  0.9261  0.7589  0.4898
  735SOL    HW2 3647   6.977   0.914   6.018 -1.7361  0.1327  0.1970
  736SOL     OW 3648   3.370   0.853  10.350 -0.2980  0.0804 -0.2429
  736SOL    HW1 3649   3.337   0.801  10.423 -1.6224  1.7405  0.4172
  736SOL    HW2 3650   3.351   0.943  10.374  3.5469  1.1387 -0.5006
  737SOL     OW 3651   2.778   2.545   8.468  0.7354  0.1037 -0.2268
  737SOL    HW1 3652   2.769   2.598   8.389  2.5762  0.2047 -0.4082
  737SOL    HW2 3653   2.689   2.535   8.501  0.1694  1.8656 -1.1245
  738SOL     OW 3654   6.400   1.625  11.746 -0.0279  0.3814  0.1576
  738SOL    HW1 3655   6.318   1.659  11.711 -0.0854  0.6513  0.5434
  738SOL    HW2 3656   6.374   1.556  11.807  0.1366 -1.5192 -1.7905
  739SOL     OW 3657   5.021   0.417   3.540  0.5576 -0.5026 -0.2622
  739SOL    HW1 3658   5.093   0.417   3.478 -0.3723  0.4211 -1.3804
  739SOL    HW2 3659   4.953   0.364   3.498 -0.4994  1.0361 -0.5861
  740SOL     OW 3660   2.266   1.464  11.159 -0.1870  0.3305  0.2235
  740SOL    HW1 3661   2.177   1.482  11.128 -0.1259  0.8151  0.3309
  740SOL    HW2 3662   2.254   1.397  11.227 -0.5973  1.2719  1.1040
  741SOL     OW 3663   4.569   6.724   8.106  0.1535 -0.7585 -0.2877
  741SOL    HW1 3664   4.501   6.671   8.148 -0.4629  0.8891  0.9323
  741SOL    HW2 3665   4.520   6.794   8.062  1.0106  0.0356 -0.0091
  742SOL     OW 3666   2.625   4.279   8.152  0.4858 -0.2022  0.2971
  742SOL    HW1 3667   2.711   4.263   8.192  0.1463  0.6268  1.3888
  742SOL    HW2 3668   2.645   4.327   8.072  0.9912  0.9404  1.0830
  743SOL     OW 3669   2.191   4.833   0.496 -0.0292 -0.2318 -0.0589
  743SOL    HW1 3670   2.251   4.906   0.480  0.1363 -0.6809 -1.6317
  743SOL    HW2 3671   2.112   4.874   0.531  1.1317  0.3776  2.0666
  744SOL     OW 3672   6.852   2.006   7.676 -0.5448  0.1813 -0.4008
  744SOL    HW1 3673   6.761   1.998   7.706 -0.1172 -1.9648  0.4907
  744SOL    HW2 3674   6.855   1.954   7.595 -0.2780  0.9755 -0.9186
  745SOL     OW 3675   3.397   3.961   1.869  0.2838  0.0698 -0.2112
  745SOL    HW1 3676   3.474   4.007   1.903  0.8590 -0.6916 -0.4516
  745SOL    HW2 3677   3.393   3.880   1.920  0.0984 -0.2581 -0.7414
  746SOL     OW 3678   2.226   4.797   5.504 -0.1828 -0.2048 -0.0249
  746SOL    HW1 3679   2.234   4.865   5.438  1.2017 -1.0877 -0.8202
  746SOL    HW2 3680   2.300   4.813   5.563 -0.7277 -0.1274  0.6504
  747SOL     OW 3681   4.101   1.375  10.013 -0.5826  0.2523  0.4210
  747SOL    HW1 3682   4.051   1.378   9.932 -0.2998  1.6454  0.2591
  747SOL    HW2 3683   4.035   1.364  10.082 -0.7154 -2.4356 -0.0317
  748SOL     OW 3684   2.877   4.982   0.282 -0.4098 -0.1197  0.1537
  748SOL    HW1 3685   2.878   4.948   0.371 -0.4083 -0.7788 -0.0951
  748SOL    HW2 3686   2.794   4.951   0.245 -0.1705 -0.3048 -0.2446
  749SOL     OW 3687   4.896   0.162   4.631  0.1541 -0.0638  0.0650
  749SOL    HW1 3688   4.919   0.202   4.547 -0.5568  0.0876 -0.0659
  749SOL    HW2 3689   4.811   0.200   4.653  1.7053  2.4245  2.4538
  750SOL     OW 3690   2.410   6.387   9.887 -0.3287 -0.2575 -0.2110
  750SOL    HW1 3691   2.327   6.344   9.908 -0.6235 -0.3602 -1.5245
  750SOL    HW2 3692   2.477   6.323   9.912 -0.6209 -0.1326  0.9525
  751SOL     OW 3693   4.239   5.746   8.513 -0.0060  0.1855 -0.0045
  751SOL    HW1 3694   4.152   5.710   8.528 -0.5899  1.4663 -0.1999
  751SOL    HW2 3695   4.251   5.742   8.418 -0.1017  0.5509 -0.0342
  752SOL     OW 3696   5.744   4.507   1.952 -0.0209  0.4958 -0.3575
  752SOL    HW1 3697   5.740   4.473   2.041 -1.6832  1.3006 -0.0779
  752SOL    HW2 3698   5.733   4.601   1.962 -1.8997  0.4397 -1.4899
  753SOL     OW 3699   4.956   7.308   6.474 -0.1126  0.0445 -0.0638
  753SOL    HW1 3700   5.013   7.257   6.417 -0.7693 -0.0280 -0.6688
  753SOL    HW2 3701   5.012   7.336   6.546  0.8410  0.5401 -0.9849
  754SOL     OW 3702   1.738   3.054  10.856 -0.1867  0.5079  0.5045
  754SOL    HW1 3703   1.720   3.148  10.852  1.0091  0.7373  0.3489
  754SOL    HW2 3704   1.659   3.017  10.896 -1.5589  1.3127 -1.2609
  755SOL     OW 3705   6.969   5.630  10.487 -0.5343  0.1931 -0.4403
  755SOL    HW1 3706   6.997   5.556  10.433  2.6108  0.9180  0.0024
  755SOL    HW2 3707   6.967   5.595  10.576  0.0140  0.3751 -0.3507
  756SOL     OW 3708   4.281   0.973   2.109 -0.4912 -0.1605 -1.0059
  756SOL    HW1 3709   4.373   0.952   2.121 -0.7663 -0.5525  0.6724
  756SOL    HW2 3710   4.255   0.926   2.030  0.6209 -0.4717 -1.1921
  757SOL     OW 3711   3.343   5.762   5.866 -0.6463 -0.3193  0.1066
  757SOL    HW1 3712   3.418   5.758   5.806 -0.0114 -2.2521  0.9528
  757SOL    HW2 3713   3.357   5.842   5.916  0.6537 -0.4495 -0.0145
  758SOL     OW 3714   4.094   1.981   5.268  0.1269  0.7019 -0.7123
  758SOL    HW1 3715   4.063   1.897   5.234  0.1246  0.9054 -1.2240
  758SOL    HW2 3716   4.081   1.975   5.362  0.6587 -0.0945 -0.6796
  759SOL     OW 3717   2.723   6.276   8.384 -0.3558  0.9993  0.0956
  759SOL    HW1 3718   2.680   6.361   8.387 -0.4370  0.9300  2.0748
  759SOL    HW2 3719   2.711   6.239   8.471  2.3729  0.3075  0.2914
  760SOL     OW 3720   3.403   0.482   5.686  0.2943 -0.0531 -0.3011
  760SOL    HW1 3721   3.384   0.388   5.684  0.5485 -0.1323  0.6180
  760SOL    HW2 3722   3.445   0.500   5.602 -0.6427 -0.5592 -0.9008
  761SOL     OW 3723   6.765   2.343   7.241 -0.5939  0.4028  0.3056
  761SOL    HW1 3724   6.740   2.434   7.227  0.5478  1.1521  2.5672
  761SOL    HW2 3725   6.860   2.342   7.227 -0.4527 -0.2179  1.2376
  762SOL     OW 3726   4.494   1.427  10.228  0.0917  0.5584  0.1790
  762SOL    HW1 3727   4.527   1.499  10.282  0.5038  0.0787  0.5754
  762SOL    HW2 3728   4.557   1.356  10.241 -0.4904  0.0081  0.0603
  763SOL     OW 3729   4.043   3.388  11.960 -0.0599 -0.0689 -0.0213
  763SOL    HW1 3730   4.036   3.315  11.899 -0.4719  0.1027 -0.1839
  763SOL    HW2 3731   4.132   3.381  11.996  0.1337 -0.2570 -0.5283
  764SOL     OW 3732   2.963   6.440   8.400  0.2336  0.3604  0.5167
  764SOL    HW1 3733   2.977   6.488   8.319  2.0562 -0.7220  0.1421
  764SOL    HW2 3734   2.874   6.406   8.393  0.5221 -0.1153 -1.2650
  765SOL     OW 3735   4.288   0.584   6.382  0.2568  0.1237  0.1195
  765SOL    HW1 3736   4.265   0.546   6.297 -4.2062  0.1449  1.0631
  765SOL    HW2 3737   4.233   0.662   6.390 -1.8221 -1.4380  4.0511
  766SOL     OW 3738   7.457   3.117   4.629 -0.1846 -0.2966 -0.6488
  766SOL    HW1 3739   7.380   3.139   4.681  0.7829  0.0345  0.7114
  766SOL    HW2 3740   7.514   3.194   4.636  0.7215 -0.9353 -0.7237
  767SOL     OW 3741   7.849   4.103   2.807  0.3068 -0.1281 -0.4240
  767SOL    HW1 3742   7.778   4.158   2.840  1.1814  0.1725  1.0683
  767SOL    HW2 3743   7.813   4.061   2.729 -1.0445  1.0391 -0.4690
  768SOL     OW 3744   4.482   4.978   4.297 -0.1146 -0.2179 -0.1230
  768SOL    HW1 3745   4.409   4.930   4.258 -0.8870  0.4718  0.4354
  768SOL    HW2 3746   4.509   4.925   4.372 -0.6158 -0.0509  0.1790
  769SOL     OW 3747   4.721   2.582  11.728 -0.0997 -0.4058 -0.4637
  769SOL    HW1 3748   4.721   2.677  11.734  1.2709 -0.4637  1.8098
  769SOL    HW2 3749   4.629   2.558  11.718 -0.6289  1.1092  0.5097
  770SOL     OW 3750   7.679   2.742   0.145  0.0867  0.1159  0.5750
  770SOL    HW1 3751   7.733   2.822   0.146  2.0643 -1.1382  0.8352
  770SOL    HW2 3752   7.595   2.771   0.110  0.3947  2.4977  1.5645
  771SOL     OW 3753   1.910   7.773   1.690 -0.4905 -0.1830 -0.0055
  771SOL    HW1 3754   1.965   7.749   1.615 -0.4518 -0.0300 -0.0258
  771SOL    HW2 3755   1.925   7.703   1.753 -0.0072  0.0361  0.1248
  772SOL     OW 3756   0.327   3.227  11.405  0.1041 -0.1566 -0.3524
  772SOL    HW1 3757   0.266   3.299  11.423  0.3325  0.7983 -2.8444
  772SOL    HW2 3758   0.271   3.150  11.394 -0.5206  0.3717 -1.0135
  773SOL     OW 3759   0.431   0.725  12.248 -0.0303  0.0019  0.3161
  773SOL    HW1 3760   0.433   0.735  12.153 -0.1709 -1.1581  0.1759
  773SOL    HW2 3761   0.369   0.654  12.264  0.4934 -0.2746  1.2332
  774SOL     OW 3762   2.361   1.217  10.806 -0.0143  0.2406 -0.3719
  774SOL    HW1 3763   2.359   1.296  10.861  0.1006  0.8092 -1.1787
  774SOL    HW2 3764   2.454   1.197  10.796  0.0523  1.2267 -1.8944
  775SOL     OW 3765   0.263   6.067  10.891 -0.2757 -0.1005  0.0927
  775SOL    HW1 3766   0.311   6.008  10.832  1.9047  1.3725  0.2553
  775SOL    HW2 3767   0.232   6.137  10.834 -0.2906  0.0799  0.3218
  776SOL     OW 3768   0.400   1.752   7.127 -0.4235 -0.2011 -0.0072
  776SOL    HW1 3769   0.379   1.774   7.218 -0.2672  0.2745 -0.0858
  776SOL    HW2 3770   0.315   1.748   7.083 -0.4172  0.9991 -0.1616
  777SOL     OW 3771   6.442   2.196  10.500 -0.0611  0.0043 -0.4527
  777SOL    HW1 3772   6.465   2.210  10.409  0.4555 -0.6664 -0.4299
  777SOL    HW2 3773   6.374   2.129  10.498 -0.2943  0.2362 -0.3643
  778SOL     OW 3774   2.424   2.964   4.827 -0.1762  0.2795 -0.5903
  778SOL    HW1 3775   2.482   3.027   4.784 -0.0862  0.1132 -0.7174
  778SOL    HW2 3776   2.460   2.955   4.915  1.0504 -1.1094 -1.1766
  779SOL     OW 3777   0.837   7.803   4.461  0.2769  0.0406 -0.2471
  779SOL    HW1 3778   0.922   7.843   4.478  0.0416  0.6650 -0.4982
  779SOL    HW2 3779   0.845   7.714   4.494  0.5742  0.5176  1.0432
  780SOL     OW 3780   5.751   0.441   5.158 -0.4151  0.0472 -0.0807
  780SOL    HW1 3781   5.700   0.513   5.196 -1.5857  0.0213 -1.5240
  780SOL    HW2 3782   5.691   0.367   5.155  0.5083 -0.7534  0.5400
  781SOL     OW 3783   7.340   7.676  11.284  0.3088 -0.0413  0.3281
  781SOL    HW1 3784   7.341   7.596  11.337 -0.0456  0.1037  0.5595
  781SOL    HW2 3785   7.299   7.742  11.340  0.9120  0.3971  0.2707
  782SOL     OW 3786   3.026   5.387   2.409  0.0343 -0.2243  0.4784
  782SOL    HW1 3787   3.114   5.363   2.436 -1.0109 -2.2424  2.3591
  782SOL    HW2 3788   2.968   5.339   2.468 -2.3785 -0.8311 -2.1601
  783SOL     OW 3789   2.712   5.267  10.616  0.3700  0.3221 -0.0146
  783SOL    HW1 3790   2.767   5.314  10.554  0.6654  0.5288  0.3938
  783SOL    HW2 3791   2.623   5.299  10.600  0.0891 -1.2159 -1.7992
  784SOL     OW 3792   0.804   3.643   6.578  0.5901 -0.3577 -0.0309
  784SOL    HW1 3793   0.877   3.589   6.609 -0.9335 -1.2185  2.3969
  784SOL    HW2 3794   0.771   3.597   6.501  1.4892 -0.9756 -0.0591
  785SOL     OW 3795   5.879   6.701   9.900  0.2697  0.1123 -0.3067
  785SOL    HW1 3796   5.892   6.692   9.805  2.2909  0.6861 -0.1345
  785SOL    HW2 3797   5.914   6.787   9.921 -0.0013 -0.0756  0.9990
  786SOL     OW 3798   4.142   6.046   2.689 -0.3655 -0.4537  0.3570
  786SOL    HW1 3799   4.198   5.976   2.721  1.6397  0.6523 -0.5110
  786SOL    HW2 3800   4.159   6.048   2.594 -2.2658 -0.3701 -0.0229
  787SOL     OW 3801   7.218   6.067  11.138 -0.0112  0.5028  0.5313
  787SOL    HW1 3802   7.248   6.144  11.186  2.9320  0.0933 -0.4555
  787SOL    HW2 3803   7.167   6.017  11.203 -2.1594  3.2504  1.1444
  788SOL     OW 3804   1.308   3.878  10.700 -0.2525  0.0861  0.4855
  788SOL    HW1 3805   1.390   3.890  10.748 -0.2722  0.3976  0.4436
  788SOL    HW2 3806   1.290   3.784  10.706  1.6492 -0.5405 -2.0439
  789SOL     OW 3807   6.775   3.838  11.405 -0.1175  0.7964 -0.1462
  789SOL    HW1 3808   6.780   3.776  11.333 -0.1767  0.0493  0.4851
  789SOL    HW2 3809   6.847   3.899  11.389  0.1476  0.3747 -0.5882
  790SOL     OW 3810   6.218   1.974   2.082  0.4069  0.3807 -0.1471
  790SOL    HW1 3811   6.253   1.890   2.113 -2.7957 -1.3855 -0.8137
  790SOL    HW2 3812   6.231   2.034   2.155  2.7542 -0.6440  0.3760
  791SOL     OW 3813   5.691   3.652  11.335 -0.5479 -0.3656  0.2871
  791SOL    HW1 3814   5.780   3.648  11.300 -0.7245 -0.4272 -0.1623
  791SOL    HW2 3815   5.646   3.576  11.296 -1.2706  0.6025 -0.8268
  792SOL     OW 3816   4.582   3.977   0.629 -0.0158 -0.0880  0.0196
  792SOL    HW1 3817   4.538   3.892   0.619 -0.5681  0.1888  0.0763
  792SOL    HW2 3818   4.514   4.042   0.611  0.7395  0.3514 -1.4412
  793SOL     OW 3819   0.567   0.027   4.255 -0.3229 -0.2052 -0.2881
  793SOL    HW1 3820   0.567  -0.064   4.227 -1.6741 -0.3139 -0.0162
  793SOL    HW2 3821   0.652   0.040   4.297 -0.1852 -1.3859 -0.1748
  794SOL     OW 3822   1.737   7.873   4.185 -0.0170 -0.6769  0.1248
  794SOL    HW1 3823   1.750   7.813   4.111  0.0728 -1.3797  0.6980
  794SOL    HW2 3824   1.820   7.871   4.232 -0.3522 -0.9029  0.7217
  795SOL     OW 3825   0.192   6.053   3.484  0.4621  0.5026 -0.4290
  795SOL    HW1 3826   0.232   6.125   3.532  0.8193  0.5898 -0.8626
  795SOL    HW2 3827   0.265   5.995   3.462  0.0712 -0.4943  0.7618
  796SOL     OW 3828   3.484   6.859   1.309 -0.2308 -0.6195 -0.3489
  796SOL    HW1 3829   3.468   6.818   1.395 -3.3643  0.6368 -0.2082
  796SOL    HW2 3830   3.548   6.927   1.327 -1.0296 -0.1917  1.1164
  797SOL     OW 3831   6.607   6.328   5.550  0.2680  0.3325 -0.6780
  797SOL    HW1 3832   6.586   6.376   5.470 -3.0630  0.9222  0.3808
  797SOL    HW2 3833   6.569   6.241   5.537  0.3837  0.1799 -0.0326
  798SOL     OW 3834   6.625   6.748   7.638 -0.2395 -0.5992 -0.9711
  798SOL    HW1 3835   6.712   6.712   7.618  1.1813  1.7794  0.4384
  798SOL    HW2 3836   6.625   6.834   7.598 -2.4345 -0.9751 -1.8702
  799SOL     OW 3837   4.805   2.319   1.051  0.1491  0.1022 -0.4353
  799SOL    HW1 3838   4.738   2.380   1.018 -1.1696  0.2112  2.1835
  799SOL    HW2 3839   4.783   2.307   1.143  1.0319 -3.4834 -0.5447
  800SOL     OW 3840   2.576   5.819   8.830 -0.6041  0.0565  0.2422
  800SOL    HW1 3841   2.661   5.811   8.786 -1.0535  2.1615 -1.1487
  800SOL    HW2 3842   2.559   5.913   8.834 -2.0848 -0.2243  2.1203
  801SOL     OW 3843   2.310   2.650   9.092  0.0501 -0.0901 -0.5762
  801SOL    HW1 3844   2.387   2.609   9.052  0.3504 -2.3435  2.0032
  801SOL    HW2 3845   2.236   2.601   9.057  0.2094 -1.1328  0.4814
  802SOL     OW 3846   5.357   3.825   7.657  0.0792 -0.2131  0.0195
  802SOL    HW1 3847   5.381   3.738   7.690 -0.9242 -0.9455 -1.1229
  802SOL    HW2 3848   5.370   3.883   7.732  3.1709 -0.8892  0.1318
  803SOL     OW 3849   4.499   3.221   5.525 -0.2302  0.6353  0.3195
  803SOL    HW1 3850   4.428   3.160   5.545 -1.1412  1.2952 -0.7717
  803SOL    HW2 3851   4.461   3.307   5.544  0.3229  0.9868 -0.1782
  804SOL     OW 3852   3.636   0.438   3.106 -0.2250  0.1388  0.1949
  804SOL    HW1 3853   3.581   0.369   3.070  0.4740  0.5106 -1.6857
  804SOL    HW2 3854   3.574   0.508   3.129 -0.7903 -0.5324  0.7394
  805SOL     OW 3855   3.159   5.597   2.476 -0.2758 -0.0613  0.7241
  805SOL    HW1 3856   3.107   5.677   2.468  0.7934  0.5230 -1.0881
  805SOL    HW2 3857   3.103   5.529   2.438 -0.3208  0.2861  0.1461
  806SOL     OW 3858   6.978   4.705   6.838  0.0667 -0.2347  0.0128
  806SOL    HW1 3859   6.911   4.659   6.889 -0.1559  0.4512  0.3546
  806SOL    HW2 3860   7.052   4.644   6.835  0.0937 -0.2906  1.1814
  807SOL     OW 3861   6.166   7.342   0.549 -0.2157  0.2350  0.0726
  807SOL    HW1 3862   6.196   7.386   0.628 -0.4001 -0.0305  0.2943
  807SOL    HW2 3863   6.241   7.291   0.520 -0.8112 -1.5269  1.3980
  808SOL     OW 3864   7.283   4.726   9.091 -0.3330  0.2520 -0.6973
  808SOL    HW1 3865   7.267   4.632   9.093  1.9921 -0.1864 -0.4108
  808SOL    HW2 3866   7.362   4.736   9.037  1.7350  1.6122  2.2965
  809SOL     OW 3867   4.686   0.921   3.185  0.0844  0.2161  0.0429
  809SOL    HW1 3868   4.753   0.974   3.143 -1.2738  0.9910 -1.2709
  809SOL    HW2 3869   4.660   0.970   3.263  1.8109 -0.6635  1.2315
  810SOL     OW 3870   1.005   3.001   3.435  0.5779  0.3562  0.5797
  810SOL    HW1 3871   1.093   2.966   3.417  0.6774  0.8420  0.0849
  810SOL    HW2 3872   0.997   2.997   3.530  0.9383 -0.1730  0.5929
  811SOL     OW 3873   0.991   0.280   0.593  0.3050  0.2719  0.2487
  811SOL    HW1 3874   1.034   0.222   0.657 -0.2150  0.5489  0.8564
  811SOL    HW2 3875   0.947   0.346   0.646 -0.5450  0.2278 -0.3750
  812SOL     OW 3876   3.662   4.717   2.248  0.0073  0.1672  0.1106
  812SOL    HW1 3877   3.670   4.621   2.242 -2.6416 -0.2656  1.9204
  812SOL    HW2 3878   3.609   4.732   2.326 -0.9619  3.0452 -0.9737
  813SOL     OW 3879   7.441   7.145  10.220  0.0225  0.3770 -0.3484
  813SOL    HW1 3880   7.371   7.093  10.180 -0.1906 -0.1551  0.6751
  813SOL    HW2 3881   7.416   7.236  10.203 -0.4606  0.1702 -0.7528
  814SOL     OW 3882   2.585   4.599   1.444 -0.0573  0.4285 -0.4563
  814SOL    HW1 3883   2.547   4.513   1.460  0.9978 -0.2858 -1.5430
  814SOL    HW2 3884   2.522   4.644   1.388 -1.3586  1.0075  1.3995
  815SOL     OW 3885   0.761   2.099   2.583  0.0032  0.5964  0.6442
  815SOL    HW1 3886   0.755   2.089   2.488 -0.4943  2.2376  0.4651
  815SOL    HW2 3887   0.777   2.011   2.616  0.9161  0.1103 -1.0097
  816SOL     OW 3888   0.422   2.272   8.899  0.4073 -0.2359  0.0665
  816SOL    HW1 3889   0.513   2.291   8.924  0.1937 -0.4703  1.0543
  816SOL    HW2 3890   0.404   2.187   8.939 -0.2346 -0.2081 -0.1637
  817SOL     OW 3891   6.259   7.444   0.773 -0.4305  0.0869  0.7694
  817SOL    HW1 3892   6.250   7.538   0.761 -1.9063 -0.1154  0.1077
  817SOL    HW2 3893   6.290   7.434   0.863 -1.0212  1.1681  1.0990
  818SOL     OW 3894   0.929   6.504   1.065  0.5858  0.3161  0.7504
  818SOL    HW1 3895   0.867   6.433   1.084 -0.1602  0.5726 -0.5870
  818SOL    HW2 3896   0.874   6.581   1.049  1.1642  0.3900 -1.1718
  819SOL     OW 3897   0.214   6.882   0.301 -0.2872  0.3132 -0.4124
  819SOL    HW1 3898   0.249   6.805   0.346 -0.3898  0.4559 -0.0871
  819SOL    HW2 3899   0.132   6.900   0.345 -1.3890 -0.7381 -1.9306
  820SOL     OW 3900   3.904   0.215   9.102 -0.4942  0.0205 -0.5729
  820SOL    HW1 3901   3.928   0.122   9.105 -0.5985 -0.1947 -3.4677
  820SOL    HW2 3902   3.982   0.259   9.069 -0.8381  0.8005 -0.3704
  821SOL     OW 3903   5.971   0.641   0.313 -0.3247 -0.2028 -0.1256
  821SOL    HW1 3904   6.061   0.611   0.303 -0.1918  0.3089 -0.5024
  821SOL    HW2 3905   5.970   0.688   0.396 -0.0841  0.3407 -0.4240
  822SOL     OW 3906   6.606   1.729   3.026  0.0098  0.3828 -0.4280
  822SOL    HW1 3907   6.700   1.709   3.028 -0.0327  0.0465 -1.3999
  822SOL    HW2 3908   6.580   1.730   3.118  0.9541  0.4363 -0.1474
  823SOL     OW 3909   4.682   3.795   7.327  0.2616 -0.4299  0.3502
  823SOL    HW1 3910   4.737   3.874   7.330 -0.1737 -0.1049 -0.1302
  823SOL    HW2 3911   4.609   3.815   7.386  0.3504 -0.6347  0.5332
  824SOL     OW 3912   5.676   5.239   4.258  0.4556 -0.2618 -0.4169
  824SOL    HW1 3913   5.750   5.297   4.238  1.1947 -1.1474 -0.2985
  824SOL    HW2 3914   5.606   5.299   4.287  1.6068  0.4969  0.9440
  825SOL     OW 3915   6.891   0.210   2.433  0.4346 -0.2850 -0.1190
  825SOL    HW1 3916   6.895   0.203   2.338  1.1836 -2.2619  0.0062
  825SOL    HW2 3917   6.840   0.289   2.450  0.2213  0.0483 -2.1509
  826SOL     OW 3918   1.422   6.249   8.510 -0.0235 -0.4006  0.0454
  826SOL    HW1 3919   1.514   6.257   8.484 -0.6916  1.7313 -1.9921
  826SOL    HW2 3920   1.375   6.231   8.428 -1.6408  0.8803  0.6365
  827SOL     OW 3921   5.562   6.504   1.856 -0.1360  0.0150 -0.4528
  827SOL    HW1 3922   5.474   6.500   1.819 -0.4381  0.3763  0.2138
  827SOL    HW2 3923   5.589   6.595   1.845 -0.9153  0.5753  1.7220
  828SOL     OW 3924   4.489   2.672   0.730  0.7154  0.1448 -0.3225
  828SOL    HW1 3925   4.416   2.611   0.743  0.0901  0.9063 -0.1556
  828SOL    HW2 3926   4.472   2.712   0.645  0.7404  0.5921 -0.1173
  829SOL     OW 3927   6.846   7.712   7.744 -0.1612  0.4491 -0.1707
  829SOL    HW1 3928   6.800   7.785   7.784 -0.1269  0.0797  0.5775
  829SOL    HW2 3929   6.925   7.701   7.798  0.2813  0.4131 -0.8044
  830SOL     OW 3930   2.617   5.279   1.909  0.3774 -0.2958  0.3643
  830SOL    HW1 3931   2.593   5.350   1.969 -1.3276  0.6091 -1.2662
  830SOL    HW2 3932   2.558   5.207   1.932 -0.1310 -0.0239 -0.0804
  831SOL     OW 3933   2.011   3.936   9.836  0.3884 -0.0409  0.3394
  831SOL    HW1 3934   1.919   3.942   9.859 -0.2175  0.2539 -1.9396
  831SOL    HW2 3935   2.044   4.026   9.844  0.3323 -0.0443  0.6028
  832SOL     OW 3936   1.486   0.545  10.308  0.1120  0.5085  0.4945
  832SOL    HW1 3937   1.407   0.493  10.325  0.3987  0.0708  0.4976
  832SOL    HW2 3938   1.516   0.573  10.394  1.3912 -1.4529  0.7307
  833SOL     OW 3939   6.806   0.063   4.307  0.0417 -0.5745  0.3461
  833SOL    HW1 3940   6.748   0.030   4.376 -0.9973 -0.2670 -0.3565
  833SOL    HW2 3941   6.775   0.021   4.227  0.5208 -0.0819 -0.1052
  834SOL     OW 3942   4.365   7.188   9.148 -0.1161  1.2531  0.3549
  834SOL    HW1 3943   4.317   7.231   9.078 -0.4515 -0.9597 -0.8706
  834SOL    HW2 3944   4.457   7.199   9.124 -0.1395 -2.9537 -3.0014
  835SOL     OW 3945   2.508   6.238   3.499 -0.2104  0.0483  0.3617
  835SOL    HW1 3946   2.488   6.306   3.435 -2.6673  0.3887  1.3544
  835SOL    HW2 3947   2.594   6.205   3.474  0.0586  1.9566 -1.4987
  836SOL     OW 3948   7.598   3.642   2.891 -0.3390 -0.3931 -0.1870
  836SOL    HW1 3949   7.660   3.610   2.825 -2.2899 -1.1899 -1.7599
  836SOL    HW2 3950   7.567   3.726   2.857 -0.1394  0.0071  0.5878
  837SOL     OW 3951   0.789   7.829   6.521 -0.5231  0.1827  0.5045
  837SOL    HW1 3952   0.837   7.911   6.511  0.1123 -0.0460  1.5685
  837SOL    HW2 3953   0.844   7.776   6.578 -1.4023 -0.6045  0.6394
  838SOL     OW 3954   0.966   1.157   8.133 -0.3116 -0.4162 -0.1802
  838SOL    HW1 3955   0.979   1.066   8.161  1.5410  0.2585  1.3790
  838SOL    HW2 3956   0.949   1.152   8.039 -1.9526 -2.4720  0.1569
  839SOL     OW 3957   0.264   7.083   3.008 -0.0400 -0.4230  0.4354
  839SOL    HW1 3958   0.301   7.081   3.096  0.7684 -0.6040  0.1008
  839SOL    HW2 3959   0.169   7.090   3.022  0.0320 -0.9933  1.3270
  840SOL     OW 3960   1.763   5.459   6.442 -0.2262  0.5553 -0.1298
  840SOL    HW1 3961   1.810   5.519   6.383  1.4695 -1.6167 -1.1269
  840SOL    HW2 3962   1.789   5.372   6.413 -2.4506 -0.7079  1.3801
  841SOL     OW 3963   3.751   4.106   5.895 -0.4154  0.0541 -0.4054
  841SOL    HW1 3964   3.794   4.188   5.872  1.9890 -1.1036 -0.2724
  841SOL    HW2 3965   3.712   4.076   5.813 -0.6942  0.9425 -0.6121
  842SOL     OW 3966   7.716   5.749   2.365 -0.1992 -0.4547 -0.4751
  842SOL    HW1 3967   7.784   5.815   2.378 -0.7184  0.1271 -0.7068
  842SOL    HW2 3968   7.677   5.771   2.280 -0.7934 -0.6900 -0.2649
  843SOL     OW 3969   3.798   0.975   9.040  0.7624  0.2270 -0.6714
  843SOL    HW1 3970   3.879   0.923   9.043  0.4018 -0.3209  0.1721
  843SOL    HW2 3971   3.787   0.999   8.948  1.5881 -0.1605 -0.8784
  844SOL     OW 3972   2.541   3.060  10.580 -0.3773 -0.1478 -0.2699
  844SOL    HW1 3973   2.618   3.088  10.533 -0.1908 -0.5142 -0.1896
  844SOL    HW2 3974   2.571   2.985  10.632 -0.5702  0.2685  0.4481
  845SOL     OW 3975   0.082   5.745  11.493  0.0306  0.4184  0.0255
  845SOL    HW1 3976   0.110   5.669  11.545 -0.6857  0.7317  0.9015
  845SOL    HW2 3977   0.153   5.760  11.432 -0.2736 -1.6452 -0.9168
  846SOL     OW 3978   5.608   4.704   8.755  0.3737  0.1072 -0.4841
  846SOL    HW1 3979   5.528   4.674   8.712  0.4581 -1.9515  0.6400
  846SOL    HW2 3980   5.678   4.682   8.693  0.1956  0.6155 -0.8715
  847SOL     OW 3981   4.662   2.971   4.965 -0.4369 -0.2652  0.6477
  847SOL    HW1 3982   4.702   3.059   4.965  3.0076 -1.6514  0.2926
  847SOL    HW2 3983   4.609   2.969   5.044  1.3412  1.4310  2.0028
  848SOL     OW 3984   6.356   1.775   6.985  0.2334 -0.4410  0.6284
  848SOL    HW1 3985   6.431   1.775   6.926  0.8842 -0.3961  1.4527
  848SOL    HW2 3986   6.387   1.732   7.064 -0.1147  1.0633  1.6144
  849SOL     OW 3987   3.981   2.983   8.834  0.3616  0.1353  0.0427
  849SOL    HW1 3988   4.034   2.905   8.854 -1.0935 -0.3606  2.3269
  849SOL    HW2 3989   3.912   2.950   8.777  0.3301 -0.0459  0.1813
  850SOL     OW 3990   2.893   7.778   1.304 -0.4603 -0.4448 -0.0116
  850SOL    HW1 3991   2.937   7.861   1.320 -1.3987  0.1606 -0.4681
  850SOL    HW2 3992   2.885   7.738   1.390  1.0587 -0.6355  0.0710
  851SOL     OW 3993   4.547   7.296   2.094 -0.0477  0.2419 -0.1794
  851SOL    HW1 3994   4.508   7.252   2.018 -1.1905  0.4480  0.2539
  851SOL    HW2 3995   4.513   7.385   2.089 -0.6010  0.1026  0.8739
  852SOL     OW 3996   4.190   1.328   0.108 -0.0571 -0.1914 -0.2099
  852SOL    HW1 3997   4.201   1.414   0.067 -1.8207 -0.6541 -1.8076
  852SOL    HW2 3998   4.271   1.281   0.087  1.2961  1.2884  1.3981
  853SOL     OW 3999   4.121   4.798   7.891  0.0636 -0.1924  0.2662
  853SOL    HW1 4000   4.214   4.784   7.873  0.1631 -2.5996  2.1144
  853SOL    HW2 4001   4.080   4.802   7.805  1.6759 -0.8028 -0.5678
  854SOL     OW 4002   5.047   4.367  10.352  0.3074  0.5661  0.1802
  854SOL    HW1 4003   5.005   4.317  10.282  1.5885 -1.1110  0.5471
  854SOL    HW2 4004   5.022   4.322  10.432  0.3174  1.3993  0.6615
  855SOL     OW 4005   1.982   3.564   3.682  0.0519  0.0863 -0.2567
  855SOL    HW1 4006   2.019   3.543   3.596 -2.1564  0.5236 -1.3995
  855SOL    HW2 4007   1.890   3.536   3.676 -0.3702  0.8878  1.6745
  856SOL     OW 4008   5.496   2.940   1.095 -0.1468  0.4722 -0.5848
  856SOL    HW1 4009   5.537   2.857   1.118 -0.7218  0.7035  1.5354
  856SOL    HW2 4010   5.440   2.920   1.021 -0.5934 -1.1294  0.1453
  857SOL     OW 4011   4.303   7.022   4.882 -0.2931  0.1870  0.1336
  857SOL    HW1 4012   4.299   6.984   4.794  1.2385 -0.9419  0.4998
  857SOL    HW2 4013   4.212   7.027   4.910 -0.7412 -0.4393 -1.1149
  858SOL     OW 4014   2.130   3.956   0.041 -0.6371 -0.3250  0.1244
  858SOL    HW1 4015   2.101   3.868   0.016 -2.6929 -0.0081  1.1340
  858SOL    HW2 4016   2.060   4.014   0.011  0.4942  0.9332 -0.1684
  859SOL     OW 4017   4.824   1.895   4.887 -0.1884 -0.0864  0.5630
  859SOL    HW1 4018   4.843   1.882   4.794  0.8811 -0.6428  0.8487
  859SOL    HW2 4019   4.891   1.956   4.917 -1.0433  0.7750  0.7995
  860SOL     OW 4020   0.232   4.475   3.010 -0.2875  0.4603  0.3244
  860SOL    HW1 4021   0.320   4.438   3.013 -0.8078 -1.1040 -1.8645
  860SOL    HW2 4022   0.219   4.498   2.919 -2.7812 -1.0177  0.2255
  861SOL     OW 4023   1.413   3.937   0.437  0.4992  0.5238 -0.1629
  861SOL    HW1 4024   1.320   3.957   0.436  0.2641 -0.5246 -0.4788
  861SOL    HW2 4025   1.426   3.885   0.517  0.4240 -0.9771 -1.0896
  862SOL     OW 4026   6.416   5.588   7.009 -0.3977 -0.0295 -0.2326
  862SOL    HW1 4027   6.409   5.519   6.944  1.7138 -0.5672  0.0419
  862SOL    HW2 4028   6.363   5.558   7.082 -0.8661 -0.5449 -0.7752
  863SOL     OW 4029   3.731   6.416   1.431 -0.5665  0.2685 -0.1436
  863SOL    HW1 4030   3.673   6.431   1.506 -0.8434  0.7711 -0.4462
  863SOL    HW2 4031   3.747   6.504   1.396  0.6316  0.1681  0.1142
  864SOL     OW 4032   2.096   2.951   5.145 -0.3372 -0.1653  0.7568
  864SOL    HW1 4033   2.189   2.929   5.154 -0.3578 -0.3686  0.4966
  864SOL    HW2 4034   2.091   3.044   5.166  0.3286  0.4771 -1.5709
  865SOL     OW 4035   2.151   1.366   9.510  0.0208 -0.0761  0.2332
  865SOL    HW1 4036   2.188   1.453   9.529  0.8294  0.2708 -2.5131
  865SOL    HW2 4037   2.057   1.378   9.519 -0.0380  1.6713 -1.8227
  866SOL     OW 4038   4.625   6.513   6.839  0.4850 -0.3041 -0.4863
  866SOL    HW1 4039   4.664   6.574   6.777 -0.3745  0.6866 -0.0944
  866SOL    HW2 4040   4.531   6.527   6.830  0.3113 -0.8968  0.2920
  867SOL     OW 4041   6.006   5.521  10.843 -0.0479  0.1713  0.5543
  867SOL    HW1 4042   5.918   5.554  10.861  0.2907  0.4950  1.7344
  867SOL    HW2 4043   6.009   5.435  10.884  0.0294 -0.0433  0.0972
  868SOL     OW 4044   2.491   6.053   9.487  0.1108 -0.5461  0.1912
  868SOL    HW1 4045   2.467   5.994   9.558  0.0756  1.1777  1.6754
  868SOL    HW2 4046   2.432   6.128   9.497  1.6388  0.7671 -0.2092
  869SOL     OW 4047   0.395   6.634  11.657 -0.0172 -0.3110  0.1052
  869SOL    HW1 4048   0.486   6.615  11.678  0.9754  0.6964 -2.9026
  869SOL    HW2 4049   0.380   6.595  11.571 -1.4128  2.2358 -0.9268
  870SOL     OW 4050   5.474   5.450  10.264 -0.7355 -0.3124  0.1899
  870SOL    HW1 4051   5.418   5.373  10.276 -1.0419 -0.1111  0.0671
  870SOL    HW2 4052   5.437   5.516  10.323 -0.3700 -0.3139  0.4212
  871SOL     OW 4053   5.453   0.291   4.461 -0.1852  0.4951 -0.1457
  871SOL    HW1 4054   5.525   0.271   4.401  0.0699  2.0180 -0.4010
  871SOL    HW2 4055   5.377   0.304   4.404 -1.1312 -2.6534  0.2123
  872SOL     OW 4056   7.070   4.398   8.871  0.2287  0.1462 -0.2274
  872SOL    HW1 4057   6.990   4.437   8.837  0.4286  1.2877  0.5509
  872SOL    HW2 4058   7.140   4.436   8.819  0.2617 -1.3193 -1.3266
  873SOL     OW 4059   4.249   6.357   1.138  0.1677  0.3742 -0.4507
  873SOL    HW1 4060   4.301   6.289   1.181 -0.0137 -0.0483 -0.8914
  873SOL    HW2 4061   4.173   6.311   1.102  0.3323  0.7135 -1.2540
  874SOL     OW 4062   3.785   5.597  10.971  0.1773  0.1185 -0.7212
  874SOL    HW1 4063   3.693   5.620  10.986  0.6718  1.9738 -0.4141
  874SOL    HW2 4064   3.824   5.675  10.932  2.6123  0.9645  2.9635
  875SOL     OW 4065   6.858   3.854   0.258 -0.2329 -0.4928 -0.3448
  875SOL    HW1 4066   6.854   3.868   0.163 -2.5232 -3.0933 -0.7563
  875SOL    HW2 4067   6.777   3.891   0.291  0.5931  0.4849  0.6799
  876SOL     OW 4068   2.581   7.050   8.143 -0.1396 -0.0596 -0.6029
  876SOL    HW1 4069   2.574   7.139   8.175 -0.8701 -0.3798  0.1600
  876SOL    HW2 4070   2.542   7.052   8.056 -2.0870 -0.0511  0.2278
  877SOL     OW 4071   1.248   0.255   4.557  0.0793 -0.3334 -0.4253
  877SOL    HW1 4072   1.214   0.340   4.586 -2.2709 -1.1576 -0.5217
  877SOL    HW2 4073   1.286   0.272   4.471 -0.0483  0.6880 -0.2923
  878SOL     OW 4074   7.521   3.682  11.494 -0.2621  0.0965  0.3439
  878SOL    HW1 4075   7.544   3.774  11.498 -1.2703  0.3388  1.2479
  878SOL    HW2 4076   7.536   3.657  11.403 -2.2088  1.7797 -0.5261
  879SOL     OW 4077   3.171   4.151   0.844  0.1062 -0.3939  0.0033
  879SOL    HW1 4078   3.113   4.207   0.895  0.4746  0.1020 -0.1227
  879SOL    HW2 4079   3.257   4.161   0.885  0.4195  0.0575 -0.7497
  880SOL     OW 4080   2.513   7.643   4.243  0.7815  0.1840  0.3294
  880SOL    HW1 4081   2.528   7.653   4.337 -1.2004  0.0102  0.7149
  880SOL    HW2 4082   2.434   7.589   4.237  1.1166 -0.1828 -1.4599
  881SOL     OW 4083   6.085   1.504   7.177  0.1067 -0.0148 -0.3979
  881SOL    HW1 4084   6.044   1.430   7.131  1.2288 -0.6214 -0.4627
  881SOL    HW2 4085   6.173   1.507   7.141  0.2459  1.0210  0.0183
  882SOL     OW 4086   6.980   6.789  10.494 -0.8401  0.5112 -1.1035
  882SOL    HW1 4087   7.006   6.697  10.503 -0.2012  0.7156 -0.7971
  882SOL    HW2 4088   6.924   6.791  10.416  0.4743  0.1248 -2.0957
  883SOL     OW 4089   7.845   3.881   0.228 -0.3693  0.8330 -0.7978
  883SOL    HW1 4090   7.862   3.974   0.218  1.2391  0.9757  2.0830
  883SOL    HW2 4091   7.765   3.876   0.281 -0.3020  0.5789 -0.7179
  884SOL     OW 4092   3.594   7.171   2.578  0.1153 -0.0100  0.1242
  884SOL    HW1 4093   3.684   7.168   2.608 -0.0094  1.2789  0.6820
  884SOL    HW2 4094   3.587   7.098   2.516  0.8040 -1.7500  1.9973
  885SOL     OW 4095   0.734   2.526   5.765 -0.3018 -0.0941 -0.1294
  885SOL    HW1 4096   0.725   2.610   5.811  0.5801 -0.6669  1.1495
  885SOL    HW2 4097   0.678   2.535   5.688 -2.7147  0.5621  1.5684
  886SOL     OW 4098   3.471   1.396   5.269 -0.0665  0.3597  0.0038
  886SOL    HW1 4099   3.470   1.330   5.200  1.2336  0.5580 -0.2232
  886SOL    HW2 4100   3.559   1.432   5.268 -0.6464  1.8998  0.3323
  887SOL     OW 4101   0.803   0.963   6.047  0.1140 -0.1945  0.2229
  887SOL    HW1 4102   0.771   0.929   6.130  1.7938 -0.6260  0.7431
  887SOL    HW2 4103   0.805   1.058   6.059 -1.0391 -0.1441  0.1225
  888SOL     OW 4104   4.512   7.075   7.459  0.2010 -0.3746  0.3446
  888SOL    HW1 4105   4.564   7.135   7.512  0.1381 -0.9538  1.0667
  888SOL    HW2 4106   4.440   7.048   7.516  0.5424 -1.5754  0.2300
  889SOL     OW 4107   0.562   3.179   5.731  0.2611 -0.5322 -0.2867
  889SOL    HW1 4108   0.476   3.179   5.772  0.4025 -2.7564  0.1616
  889SOL    HW2 4109   0.620   3.222   5.794 -0.3205  0.0186 -0.1280
  890SOL     OW 4110   3.194   5.183   3.759 -0.1019 -0.4610 -0.2189
  890SOL    HW1 4111   3.222   5.101   3.719 -2.7318 -0.7090 -1.8050
  890SOL    HW2 4112   3.154   5.232   3.688  2.5786  2.9302  0.3347
  891SOL     OW 4113   6.805   4.150   5.194  0.3146  0.0781 -0.4303
  891SOL    HW1 4114   6.807   4.235   5.149  1.2172  0.7382  0.7900
  891SOL    HW2 4115   6.826   4.171   5.285 -0.3353 -1.3578  0.0818
  892SOL     OW 4116   1.743   4.790   4.781  0.8281 -0.0090 -0.2306
  892SOL    HW1 4117   1.777   4.808   4.869  1.0057 -0.3667 -0.2254
  892SOL    HW2 4118   1.668   4.849   4.772  1.5053  0.8452 -0.2822
  893SOL     OW 4119   5.558   3.513   2.132 -0.4870  0.0617  0.0573
  893SOL    HW1 4120   5.535   3.590   2.079 -0.3858 -1.1688 -1.8564
  893SOL    HW2 4121   5.653   3.518   2.141 -0.5314  0.4096  0.3613
  894SOL     OW 4122   3.454   5.570   0.089 -0.1959  0.0561  0.4226
  894SOL    HW1 4123   3.381   5.527   0.043 -0.0706 -0.5701  0.7965
  894SOL    HW2 4124   3.413   5.606   0.168 -0.4891  1.4699 -0.3372
  895SOL     OW 4125   5.449   0.666   6.011 -0.1318 -0.0066  0.0798
  895SOL    HW1 4126   5.519   0.633   5.956  0.2187  0.8732 -0.0156
  895SOL    HW2 4127   5.455   0.615   6.092  1.3803  0.8705  0.5412
  896SOL     OW 4128   0.071   5.988   0.626 -0.0504  0.7361  0.6036
  896SOL    HW1 4129   0.030   6.049   0.566  0.4272  0.0552 -0.4339
  896SOL    HW2 4130   0.058   5.902   0.587  0.4313  0.2947  1.3697
  897SOL     OW 4131   2.758   5.261   2.169  0.3186 -0.2244 -0.1573
  897SOL    HW1 4132   2.829   5.324   2.182 -0.2776  0.2434  0.9805
  897SOL    HW2 4133   2.761   5.240   2.076  1.4258  0.4105 -0.2824
  898SOL     OW 4134   5.497   2.066   5.946 -0.0681 -0.4732  0.0382
  898SOL    HW1 4135   5.566   2.024   5.997 -0.9597 -0.5400  1.2227
  898SOL    HW2 4136   5.529   2.155   5.930  0.6266 -0.7451 -0.1158
  899SOL     OW 4137   1.752   2.202   3.863  0.0605  0.1104  0.2598
  899SOL    HW1 4138   1.667   2.215   3.821  0.8128 -0.4761 -1.5200
  899SOL    HW2 4139   1.731   2.164   3.949 -1.4310 -0.6054 -0.3889
  900SOL     OW 4140   6.933   2.424  10.119 -0.3229 -0.3338 -0.1776
  900SOL    HW1 4141   7.020   2.423  10.158  0.8673 -0.7483 -2.6367
  900SOL    HW2 4142   6.913   2.516  10.105 -0.4101 -0.2264  0.6173
  901SOL     OW 4143   4.208   4.694   9.987 -0.2597  0.5923  0.1606
  901SOL    HW1 4144   4.237   4.673  10.076 -0.0755  0.7749  0.1457
  901SOL    HW2 4145   4.118   4.724   9.997 -0.3620  0.2603  0.2415
  902SOL     OW 4146   2.851   6.250   2.878  0.2746 -0.3780 -0.1513
  902SOL    HW1 4147   2.898   6.267   2.796  2.8947 -0.3349  1.2546
  902SOL    HW2 4148   2.764   6.289   2.864  1.7046  2.5961 -1.7513
  903SOL     OW 4149   1.918   3.969   2.194  0.3038 -0.2777 -0.5386
  903SOL    HW1 4150   1.859   3.961   2.269 -2.7971  0.1620 -2.7405
  903SOL    HW2 4151   1.902   3.891   2.141  1.5318 -0.0113 -1.3653
  904SOL     OW 4152   2.355   7.508  11.916 -0.5503 -0.2387 -0.1641
  904SOL    HW1 4153   2.281   7.466  11.959 -0.3569 -1.4893 -1.0032
  904SOL    HW2 4154   2.428   7.495  11.976 -0.3828 -1.5881 -0.6122
  905SOL     OW 4155   0.845   2.425   4.237 -0.1931  0.1006 -0.3509
  905SOL    HW1 4156   0.867   2.340   4.274  0.2199  0.7455  0.9786
  905SOL    HW2 4157   0.868   2.487   4.306  0.6714  1.3991 -1.7323
  906SOL     OW 4158   3.205   1.872  10.766 -0.1343 -0.0419 -0.0149
  906SOL    HW1 4159   3.132   1.894  10.708 -0.6874  2.8600  1.6149
  906SOL    HW2 4160   3.166   1.868  10.853  1.1280 -1.7612  0.5287
  907SOL     OW 4161   3.633   6.692  10.120  0.3015 -0.1083  0.4186
  907SOL    HW1 4162   3.585   6.693  10.202  0.4653 -0.1915  0.5152
  907SOL    HW2 4163   3.627   6.782  10.088  0.1572 -0.0984  0.4745
  908SOL     OW 4164   1.846   2.634   9.048  0.0163 -0.2086 -0.4795
  908SOL    HW1 4165   1.770   2.652   9.103  0.4725 -1.5463  0.6577
  908SOL    HW2 4166   1.918   2.681   9.090  0.1813 -0.4558 -0.4816
  909SOL     OW 4167   7.787   3.528   2.254  0.1210 -0.2498  0.4371
  909SOL    HW1 4168   7.757   3.441   2.227  0.4311 -0.3699  0.4738
  909SOL    HW2 4169   7.830   3.513   2.339  1.0422 -0.2182 -0.0157
  910SOL     OW 4170   7.669   1.204   5.132 -0.3046 -0.0875  0.4482
  910SOL    HW1 4171   7.751   1.252   5.131  1.8308 -3.3956  0.9302
  910SOL    HW2 4172   7.666   1.157   5.049 -0.1373 -2.2579  1.5870
  911SOL     OW 4173   7.149   3.756   9.982  0.8112  0.3915 -0.4772
  911SOL    HW1 4174   7.107   3.781   9.900 -0.2445 -0.9731 -0.3904
  911SOL    HW2 4175   7.112   3.670  10.003  1.0245  0.7257  1.4499
  912SOL     OW 4176   3.192   7.156   8.206 -0.1422 -0.7845 -0.6502
  912SOL    HW1 4177   3.248   7.082   8.231  1.5835  0.6518 -0.0095
  912SOL    HW2 4178   3.230   7.188   8.124 -0.3905 -0.1667 -0.5322
  913SOL     OW 4179   6.703   3.276   3.659  0.1704  0.3016 -0.2703
  913SOL    HW1 4180   6.683   3.234   3.576  2.4186 -1.1567 -0.1684
  913SOL    HW2 4181   6.785   3.234   3.688  1.1918  3.0042  1.1073
  914SOL     OW 4182   1.935   6.294  10.655  0.5623  0.2604  0.1594
  914SOL    HW1 4183   1.926   6.258  10.567  2.5368  0.6024 -0.2321
  914SOL    HW2 4184   1.885   6.375  10.653 -0.0027 -0.0929 -0.4088
  915SOL     OW 4185   2.333   1.184  11.891  0.5408  0.5072  0.0304
  915SOL    HW1 4186   2.366   1.094  11.881 -0.8025  0.0036 -0.1184
  915SOL    HW2 4187   2.410   1.239  11.877  1.4916 -0.6224  0.5495
  916SOL     OW 4188   4.555   7.212   1.152  0.1491 -0.6258 -0.6801
  916SOL    HW1 4189   4.464   7.237   1.134  0.1040 -0.9293 -0.8859
  916SOL    HW2 4190   4.548   7.123   1.187  0.3851 -0.7321 -0.9005
  917SOL     OW 4191   3.429   2.750  12.127 -0.1770 -0.2144 -0.4449
  917SOL    HW1 4192   3.469   2.665  12.106 -0.4106  0.1254 -2.4678
  917SOL    HW2 4193   3.349   2.752  12.074  0.1079  1.4880 -0.8460
  918SOL     OW 4194   7.380   3.621   1.839 -0.2196  0.2192 -0.7798
  918SOL    HW1 4195   7.352   3.681   1.770  3.1300  1.6694 -1.0558
  918SOL    HW2 4196   7.416   3.678   1.907  0.6382 -1.3731  0.1527
  919SOL     OW 4197   4.114   1.274  11.564 -0.0163 -0.2816 -0.2288
  919SOL    HW1 4198   4.187   1.253  11.506  0.2819 -0.2949  0.1458
  919SOL    HW2 4199   4.040   1.288  11.505  0.4552  0.4651 -0.6585
  920SOL     OW 4200   0.504   2.882   8.293  0.5885  0.5324 -0.2595
  920SOL    HW1 4201   0.535   2.939   8.363 -0.6214 -1.4198  2.0411
  920SOL    HW2 4202   0.516   2.793   8.328 -0.8986 -0.4987 -2.1610
  921SOL     OW 4203   2.894   7.487   6.213  0.0074 -0.0882 -0.4153
  921SOL    HW1 4204   2.861   7.449   6.132 -0.7046  1.6950 -1.0058
  921SOL    HW2 4205   2.986   7.507   6.194  0.4835 -1.7229  0.0102
  922SOL     OW 4206   2.357   6.102  10.852 -0.0715  0.0193 -0.0137
  922SOL    HW1 4207   2.379   6.158  10.926  0.4440  0.3247 -0.3961
  922SOL    HW2 4208   2.386   6.151  10.775  3.1347 -2.0028 -0.2430
  923SOL     OW 4209   0.660   2.084  12.293 -0.2393 -0.2840 -0.5200
  923SOL    HW1 4210   0.594   2.146  12.324 -0.5194 -0.3331 -0.9943
  923SOL    HW2 4211   0.743   2.119  12.323 -0.5523 -0.7483  0.9685
  924SOL     OW 4212   5.338   7.896   3.332  0.3460  0.0851 -0.3132
  924SOL    HW1 4213   5.424   7.854   3.324  0.4325  0.1777  0.1001
  924SOL    HW2 4214   5.325   7.941   3.248 -0.2123 -1.6201 -1.1900
  925SOL     OW 4215   4.595   4.394   8.592 -0.7044 -0.4540 -0.3643
  925SOL    HW1 4216   4.518   4.344   8.621 -1.2628  1.9151  2.6945
  925SOL    HW2 4217   4.565   4.439   8.513 -2.8736  1.0142  1.1658
  926SOL     OW 4218   1.267   3.352   3.099 -0.3700 -0.0158  0.4416
  926SOL    HW1 4219   1.244   3.381   3.187 -2.3259  1.4594 -0.4939
  926SOL    HW2 4220   1.238   3.261   3.095  1.9392 -0.9362  2.0186
  927SOL     OW 4221   7.415   1.231  12.241 -0.2733  0.3087 -0.4270
  927SOL    HW1 4222   7.431   1.138  12.255  0.1116  0.5710  0.9621
  927SOL    HW2 4223   7.391   1.265  12.327 -0.8963  1.4079 -1.0089
  928SOL     OW 4224   7.908   0.205   4.451  0.2174 -0.1458 -0.4812
  928SOL    HW1 4225   7.970   0.229   4.520 -0.7662  0.0162  0.3646
  928SOL    HW2 4226   7.953   0.135   4.402  0.8231 -0.4564  0.4833
  929SOL     OW 4227   1.849   5.752   1.214 -0.2218 -0.0754  0.6362
  929SOL    HW1 4228   1.795   5.680   1.184  1.4826 -1.7430  1.3634
  929SOL    HW2 4229   1.794   5.830   1.204 -2.6365 -1.6281  1.1657
  930SOL     OW 4230   1.629   4.540  11.957 -0.0916  0.3580 -0.2267
  930SOL    HW1 4231   1.544   4.517  11.993  0.2356 -0.8484 -0.1762
  930SOL    HW2 4232   1.613   4.620  11.907 -1.1536  0.3967  0.1478
  931SOL     OW 4233   2.528   6.470   8.458  0.2827  0.0427  0.1265
  931SOL    HW1 4234   2.555   6.516   8.537 -1.2028 -0.8724  1.2058
  931SOL    HW2 4235   2.473   6.398   8.489 -0.3272 -0.3492 -1.7328
  932SOL     OW 4236   7.185   6.253  11.942 -0.5566 -0.5774 -0.7881
  932SOL    HW1 4237   7.272   6.239  11.907 -0.4346 -2.0453  0.0494
  932SOL    HW2 4238   7.199   6.289  12.030 -0.7561 -1.7973 -0.2409
  933SOL     OW 4239   4.822   4.080   5.770  0.0809 -0.0568 -0.3947
  933SOL    HW1 4240   4.849   4.089   5.862  0.2180  0.9308 -0.5219
  933SOL    HW2 4241   4.902   4.094   5.720  0.0924 -1.0297 -0.6656
  934SOL     OW 4242   2.471   5.228   0.724 -0.2158 -0.1387  0.6693
  934SOL    HW1 4243   2.509   5.308   0.688 -2.0151 -0.3857 -2.0200
  934SOL    HW2 4244   2.527   5.158   0.691  0.3694 -0.1416  1.6243
  935SOL     OW 4245   0.761   6.096   8.170  0.0763  0.4766  0.0488
  935SOL    HW1 4246   0.842   6.145   8.186  0.0480  0.7706 -0.6495
  935SOL    HW2 4247   0.756   6.091   8.074  0.3116 -1.2757  0.0947
  936SOL     OW 4248   6.418   0.687   6.068 -0.1599 -0.6017 -0.3878
  936SOL    HW1 4249   6.350   0.630   6.105 -2.4393  1.0064 -1.8240
  936SOL    HW2 4250   6.376   0.773   6.060  1.1920 -0.0773 -3.5803
  937SOL     OW 4251   0.926   3.299   1.428  0.3138 -0.1431 -0.1497
  937SOL    HW1 4252   0.842   3.255   1.442 -0.6613  2.0622  1.6379
  937SOL    HW2 4253   0.914   3.386   1.465  2.2974  1.4954 -2.9000
  938SOL     OW 4254   2.121   3.833  10.067  0.3630  0.4209 -0.6645
  938SOL    HW1 4255   2.068   3.753  10.065  1.7593 -0.5449 -0.4748
  938SOL    HW2 4256   2.118   3.866   9.977  0.5137 -0.3507 -0.9590
  939SOL     OW 4257   1.133   6.473   7.950 -0.2274  0.3978  0.4970
  939SOL    HW1 4258   1.221   6.440   7.963  0.7006  2.4235 -0.1908
  939SOL    HW2 4259   1.140   6.530   7.873 -2.3034  0.0435 -0.0217
  940SOL     OW 4260   2.364   0.444   0.442  0.2499 -0.2587 -0.0417
  940SOL    HW1 4261   2.373   0.504   0.369 -0.8621  0.4441  0.3794
  940SOL    HW2 4262   2.323   0.496   0.511  0.0434 -1.2761  0.6231
  941SOL     OW 4263   1.479   4.110   8.888 -0.1335  0.0954  0.1760
  941SOL    HW1 4264   1.389   4.140   8.871 -0.7174 -0.5240  1.9543
  941SOL    HW2 4265   1.510   4.080   8.802 -1.8066 -0.1192 -0.3990
  942SOL     OW 4266   0.282   4.456   0.896 -0.4312 -0.1183 -0.0939
  942SOL    HW1 4267   0.275   4.515   0.972  0.7356  0.8605 -0.7071
  942SOL    HW2 4268   0.343   4.388   0.924  0.5284  0.6146 -0.3611
  943SOL     OW 4269   0.939   1.875   5.032 -0.1758  0.0396  0.2974
  943SOL    HW1 4270   0.905   1.798   5.078 -0.4755 -0.7367 -1.1371
  943SOL    HW2 4271   0.874   1.893   4.964 -1.0108  2.7137  1.7028
  944SOL     OW 4272   0.598   4.402   8.057 -0.1935 -0.1374  0.0188
  944SOL    HW1 4273   0.545   4.473   8.021 -0.1187  0.4562  1.0375
  944SOL    HW2 4274   0.600   4.419   8.151 -0.8524 -1.9541  0.3951
  945SOL     OW 4275   5.586   7.173   7.983  0.4130  0.4672 -0.0704
  945SOL    HW1 4276   5.501   7.148   7.947  0.5923  0.8688 -0.7951
  945SOL    HW2 4277   5.649   7.137   7.921  0.6842  2.3668 -0.9667
  946SOL     OW 4278   4.353   1.025  10.812  0.0403  0.1088  0.0111
  946SOL    HW1 4279   4.285   0.996  10.751  1.6010 -1.8424 -0.9195
  946SOL    HW2 4280   4.418   0.955  10.810  1.8357  1.6461  1.2633
  947SOL     OW 4281   2.709   0.127   5.591 -0.0548  0.3507  0.4850
  947SOL    HW1 4282   2.725   0.178   5.670  0.3525  0.4101  0.3689
  947SOL    HW2 4283   2.621   0.092   5.602  0.4366 -0.6281  1.5104
  948SOL     OW 4284   6.805   0.827   6.711 -0.4381 -0.4014 -0.0592
  948SOL    HW1 4285   6.810   0.913   6.753 -3.6527 -0.5843  0.8988
  948SOL    HW2 4286   6.891   0.788   6.726  1.0298  2.4803 -0.2733
  949SOL     OW 4287   1.274   7.362   9.204 -0.0504 -0.5658 -0.1803
  949SOL    HW1 4288   1.223   7.442   9.189 -0.0639 -0.2139  1.5396
  949SOL    HW2 4289   1.365   7.388   9.186 -0.1267 -0.3429 -0.2537
  950SOL     OW 4290   4.889   0.440   7.925  0.4470  0.0820 -0.2648
  950SOL    HW1 4291   4.887   0.354   7.967  1.3009  0.1550 -0.0493
  950SOL    HW2 4292   4.798   0.463   7.910  0.1006  0.1594  1.7847
  951SOL     OW 4293   4.843   4.206   2.217 -0.9759 -0.5025  0.1954
  951SOL    HW1 4294   4.795   4.128   2.190 -2.0532  0.3359 -0.4026
  951SOL    HW2 4295   4.894   4.232   2.140  0.8662 -1.6558  0.9701
  952SOL     OW 4296   7.595   1.753   8.571 -0.0419  0.0848  0.0194
  952SOL    HW1 4297   7.648   1.817   8.524  0.9095 -0.8267 -0.1710
  952SOL    HW2 4298   7.640   1.670   8.558  1.0872 -0.0657  3.6115
  953SOL     OW 4299   2.364   6.827   5.653 -0.2679  0.0693 -0.0940
  953SOL    HW1 4300   2.363   6.817   5.558 -1.1256  1.4512 -0.2605
  953SOL    HW2 4301   2.450   6.794   5.680  0.2017  0.1658 -1.4059
  954SOL     OW 4302   3.787   3.786   4.030 -0.1096 -0.0957  0.6165
  954SOL    HW1 4303   3.867   3.753   4.070 -0.2749 -1.1394  0.1353
  954SOL    HW2 4304   3.816   3.849   3.965  0.2528  0.3466  1.2010
  955SOL     OW 4305   4.139   0.335   0.002  0.4776 -0.1995 -0.4326
  955SOL    HW1 4306   4.103   0.308   0.087  0.4240  1.3568  0.0632
  955SOL    HW2 4307   4.230   0.306   0.004  0.6192  0.2923  0.3727
  956SOL     OW 4308   5.066   0.261   9.926  0.0202 -0.0727  0.5200
  956SOL    HW1 4309   5.125   0.223   9.860 -1.3160 -0.6112 -0.4138
  956SOL    HW2 4310   5.057   0.353   9.900  0.9057  0.1621  1.0196
  957SOL     OW 4311   5.925   5.658   7.660 -0.1352  0.5921  0.0141
  957SOL    HW1 4312   5.990   5.669   7.730 -0.6455 -0.1493  0.6157
  957SOL    HW2 4313   5.841   5.676   7.703 -0.3371  1.5555 -0.7617
  958SOL     OW 4314   1.186   5.956   8.997  0.0752  0.7159 -0.1662
  958SOL    HW1 4315   1.265   5.927   8.951 -1.0399 -1.8374 -0.6529
  958SOL    HW2 4316   1.200   6.049   9.013  2.3084  0.7725 -1.9796
  959SOL     OW 4317   3.666   6.738   1.152 -0.0116 -0.2503  0.5417
  959SOL    HW1 4318   3.728   6.677   1.192  0.9745  0.6475  0.3972
  959SOL    HW2 4319   3.595   6.744   1.216  0.6674 -0.2739  1.3088
  960SOL     OW 4320   6.128   4.690   0.661  0.7609  0.1391 -0.9275
  960SOL    HW1 4321   6.100   4.756   0.725  0.9570 -0.3587 -0.3113
  960SOL    HW2 4322   6.092   4.720   0.578 -0.6703  0.0957 -0.3479
  961SOL     OW 4323   2.870   5.424   8.985  0.7005  0.2947 -0.3304
  961SOL    HW1 4324   2.939   5.388   8.929  2.6233  0.5022  1.7605
  961SOL    HW2 4325   2.915   5.491   9.037 -0.9919  0.1210  1.4325
  962SOL     OW 4326   0.055   1.838  11.033 -0.6389 -0.5488 -0.4522
  962SOL    HW1 4327   0.098   1.869  10.953 -0.0330  0.1204  0.1294
  962SOL    HW2 4328  -0.028   1.800  11.002 -0.0875 -0.9614 -1.4761
  963SOL     OW 4329   7.231   5.085  12.335  0.6308  0.6468  0.6959
  963SOL    HW1 4330   7.218   5.175  12.365  0.7932  0.8982  0.0358
  963SOL    HW2 4331   7.325   5.078  12.322  0.6117  0.3991  0.6881
  964SOL     OW 4332   1.531   2.296   1.223  0.8116 -0.7925 -0.3223
  964SOL    HW1 4333   1.517   2.227   1.158 -1.9726 -0.9799  0.3421
  964SOL    HW2 4334   1.618   2.279   1.258  0.7931 -3.0979 -1.1993
  965SOL     OW 4335   2.249   2.766   4.501  0.5032  0.3127 -0.2601
  965SOL    HW1 4336   2.201   2.835   4.454 -0.8135  1.1049  2.0711
  965SOL    HW2 4337   2.182   2.702   4.525  1.2069 -0.2760  0.1633
  966SOL     OW 4338   0.292   2.071   0.572  0.5938 -0.2880  0.2708
  966SOL    HW1 4339   0.374   2.022   0.562  0.2478 -0.5489 -1.7975
  966SOL    HW2 4340   0.320   2.161   0.588  1.2941 -0.4960  0.2448
  967SOL     OW 4341   2.618   4.187   3.557 -0.1326 -0.0493 -0.2734
  967SOL    HW1 4342   2.689   4.251   3.557  0.3949 -0.4904  2.5535
  967SOL    HW2 4343   2.662   4.102   3.553 -0.6410 -0.2894 -0.9132
  968SOL     OW 4344   3.440   0.444   4.267 -0.0573  0.5300 -0.6265
  968SOL    HW1 4345   3.463   0.432   4.359 -1.6919 -0.2766 -0.2837
  968SOL    HW2 4346   3.503   0.508   4.235  0.8639  0.4533  0.9198
  969SOL     OW 4347   6.860   0.831   5.701 -0.1820  0.0247 -0.6429
  969SOL    HW1 4348   6.907   0.882   5.767  0.2253 -0.4729 -0.5386
  969SOL    HW2 4349   6.895   0.861   5.617 -1.1139  1.0675 -0.6657
  970SOL     OW 4350   4.871   7.457   9.276 -0.1769 -0.0754  0.5022
  970SOL    HW1 4351   4.786   7.414   9.269  0.3123 -1.0326  0.2389
  970SOL    HW2 4352   4.871   7.497   9.363 -1.1901  0.6155  0.2018
  971SOL     OW 4353   0.476   4.937   2.219 -0.4774  0.0083  0.3993
  971SOL    HW1 4354   0.450   4.896   2.302 -0.7739  0.7504  0.6857
  971SOL    HW2 4355   0.406   4.913   2.158 -1.0069  0.6516  0.7455
  972SOL     OW 4356   7.861   2.051   2.571  0.6431  0.5331 -0.0021
  972SOL    HW1 4357   7.775   2.053   2.613  0.4393  0.8854 -0.4306
  972SOL    HW2 4358   7.846   2.087   2.484  0.4977 -2.7136 -1.4631
  973SOL     OW 4359   2.440   1.356  11.569 -0.1940 -0.2588 -1.3064
  973SOL    HW1 4360   2.470   1.379  11.657 -2.3936  0.3985 -0.6590
  973SOL    HW2 4361   2.516   1.371  11.513  0.6571  1.3636  0.1872
  974SOL     OW 4362   5.461   2.854   4.508 -0.1272  0.0193  0.0233
  974SOL    HW1 4363   5.377   2.814   4.531 -0.1667 -0.5276 -0.9890
  974SOL    HW2 4364   5.447   2.891   4.421  0.3199  1.0665  0.3732
  975SOL     OW 4365   5.652   1.304   8.555  0.0532 -0.3691  0.0715
  975SOL    HW1 4366   5.615   1.225   8.514 -1.0305  0.4633 -0.6509
  975SOL    HW2 4367   5.693   1.273   8.635 -1.0681 -1.5740  0.2257
  976SOL     OW 4368   4.427   4.928   1.437  0.3741 -0.0703 -0.3554
  976SOL    HW1 4369   4.344   4.931   1.390  0.1123  2.2632  0.1635
  976SOL    HW2 4370   4.454   5.019   1.444  2.1255 -0.6470  1.0129
  977SOL     OW 4371   1.895   5.257   6.319  0.0696  0.5045 -0.2584
  977SOL    HW1 4372   1.972   5.201   6.318 -1.2271 -1.3807 -0.4560
  977SOL    HW2 4373   1.822   5.198   6.299 -1.6071  1.9466  1.2538
  978SOL     OW 4374   4.700   1.854   0.932 -0.3329 -0.0889  0.0176
  978SOL    HW1 4375   4.668   1.774   0.890 -0.7187 -0.8494  1.6856
  978SOL    HW2 4376   4.658   1.925   0.883 -1.0692 -0.9409 -0.6202
  979SOL     OW 4377   3.128   5.516  11.265 -0.0583  0.6146  0.2917
  979SOL    HW1 4378   3.209   5.559  11.293 -0.1158  0.7339  0.2734
  979SOL    HW2 4379   3.081   5.583  11.215  1.1975 -0.3532 -2.3374
  980SOL     OW 4380   1.358   4.664   1.151 -0.2252  0.4818 -0.0641
  980SOL    HW1 4381   1.265   4.645   1.160 -0.2708  0.3568 -0.7266
  980SOL    HW2 4382   1.383   4.706   1.233 -0.5201 -0.8519  0.7257
  981SOL     OW 4383   6.481   2.929   9.388 -0.5190  0.2257 -0.1542
  981SOL    HW1 4384   6.557   2.892   9.432 -2.1632  0.0397  2.8104
  981SOL    HW2 4385   6.418   2.857   9.385 -0.5471  0.2924 -2.8053
  982SOL     OW 4386   5.579   4.777   1.383  0.6701 -0.2216 -0.5411
  982SOL    HW1 4387   5.591   4.685   1.359  2.6360 -0.0674 -0.3093
  982SOL    HW2 4388   5.501   4.804   1.336  0.3457 -1.8673 -1.0158
  983SOL     OW 4389   7.318   4.021   2.532  0.1651  0.0196  0.5100
  983SOL    HW1 4390   7.308   4.049   2.622 -0.0913  0.9348  0.2038
  983SOL    HW2 4391   7.230   4.026   2.494 -0.0009 -1.7332  0.5793
  984SOL     OW 4392   0.123   0.753   8.952  0.3081  0.1174 -0.0857
  984SOL    HW1 4393   0.157   0.686   8.893  0.3689  0.8698 -0.9149
  984SOL    HW2 4394   0.184   0.752   9.026 -0.1190 -1.2569  0.2810
  985SOL     OW 4395   6.912   3.893   9.012  0.1474 -0.2478 -0.6054
  985SOL    HW1 4396   6.943   3.837   8.941  0.2071 -1.1869  0.1507
  985SOL    HW2 4397   6.857   3.836   9.066 -2.3621  1.1691 -1.4948
  986SOL     OW 4398   2.672   3.004   1.418 -0.1388 -0.2762  0.0064
  986SOL    HW1 4399   2.608   3.015   1.488 -0.7978 -1.9033 -0.3057
  986SOL    HW2 4400   2.686   2.909   1.412 -0.0616 -0.1935 -2.0164
  987SOL     OW 4401   7.846   4.604   9.772  0.2885 -0.3375  0.6294
  987SOL    HW1 4402   7.843   4.660   9.849 -0.0155 -1.1963  1.2605
  987SOL    HW2 4403   7.924   4.633   9.724 -0.5709  1.4823  0.2457
  988SOL     OW 4404   0.988   4.314   3.828  0.1300 -0.0566 -0.3275
  988SOL    HW1 4405   0.903   4.273   3.811  0.0166  0.4171 -0.9255
  988SOL    HW2 4406   1.016   4.347   3.743  0.8325 -0.0508 -0.0977
  989SOL     OW 4407   3.542   0.041   1.414  0.3119 -0.2128 -0.5713
  989SOL    HW1 4408   3.474  -0.025   1.400 -0.9448  0.7986  0.5031
  989SOL    HW2 4409   3.625  -0.008   1.409 -0.6062 -2.1084  1.2809
  990SOL     OW 4410   0.578   4.489   8.927 -0.1326 -0.4360 -0.2710
  990SOL    HW1 4411   0.638   4.473   8.854  2.5699  1.1606  1.4165
  990SOL    HW2 4412   0.616   4.442   9.001  0.3095  2.2326  1.3505
  991SOL     OW 4413   1.828   4.868   8.255 -0.0278  0.0872 -0.1799
  991SOL    HW1 4414   1.913   4.839   8.222 -0.4404  0.1191 -1.3088
  991SOL    HW2 4415   1.838   4.962   8.268  0.6065 -0.1543  1.3017
  992SOL     OW 4416   6.630   6.868   4.291 -0.2663  0.3458 -0.7430
  992SOL    HW1 4417   6.703   6.916   4.252  1.5218 -0.0942  1.7870
  992SOL    HW2 4418   6.659   6.776   4.291 -2.3419 -0.4176 -2.7378
  993SOL     OW 4419   3.397   1.870   3.122  0.0299 -0.1676  0.4626
  993SOL    HW1 4420   3.413   1.848   3.030 -2.3391  0.2646 -0.1372
  993SOL    HW2 4421   3.402   1.965   3.126  1.3297 -0.2490  1.0715
  994SOL     OW 4422   6.340   0.419   9.924 -0.6063  0.3679  0.2842
  994SOL    HW1 4423   6.289   0.416  10.005 -0.2251 -0.2602  0.5130
  994SOL    HW2 4424   6.424   0.456   9.950  0.1049 -1.3130  0.5351
  995SOL     OW 4425   0.330   4.678  12.102 -0.0729 -0.2781  0.1004
  995SOL    HW1 4426   0.309   4.639  12.017  2.2016 -1.3588 -0.0600
  995SOL    HW2 4427   0.382   4.611  12.146 -2.1126 -0.2056  2.8728
  996SOL     OW 4428   1.592   3.636   2.871 -0.7860 -0.1267 -0.1396
  996SOL    HW1 4429   1.605   3.712   2.927 -0.8461  0.3199 -0.7150
  996SOL    HW2 4430   1.498   3.622   2.870 -0.6722 -1.1040  1.1104
  997SOL     OW 4431   3.833   6.495   7.430  0.5899  0.4870  0.5740
  997SOL    HW1 4432   3.816   6.411   7.472 -1.3952  1.3822  1.6845
  997SOL    HW2 4433   3.877   6.547   7.498 -1.4493  1.5040  1.1813
  998SOL     OW 4434   0.094   3.729   4.535 -0.3254 -0.4300  0.6401
  998SOL    HW1 4435   0.118   3.768   4.619 -1.2393 -0.2198  0.8157
  998SOL    HW2 4436   0.123   3.638   4.541 -1.4482 -0.7451  1.6686
  999SOL     OW 4437   7.519   4.868   4.276  0.7242 -0.1202  0.3928
  999SOL    HW1 4438   7.588   4.897   4.336  1.4611  1.2269 -1.0073
  999SOL    HW2 4439   7.438   4.900   4.316  1.2247  1.0199  0.5411
 1000SOL     OW 4440   3.153   1.550   0.154 -0.1263  0.0953 -0.1045
 1000SOL    HW1 4441   3.122   1.478   0.099  0.3437 -0.2334  0.0530
 1000SOL    HW2 4442   3.248   1.549   0.143  0.0230 -0.2829  1.0836
 1001SOL     OW 4443   6.992   0.244  12.306  0.1428  0.0220 -0.4169
 1001SOL    HW1 4444   6.934   0.210  12.239  0.2066 -1.9548  0.4420
 1001SOL    HW2 4445   6.942   0.235  12.388  0.6291  0.9176 -0.0087
 1002SOL     OW 4446   1.379   4.925   8.754 -0.1085 -0.0723 -0.6041
 1002SOL    HW1 4447   1.382   4.853   8.692  0.6866  1.4388 -2.4145
 1002SOL    HW2 4448   1.301   4.975   8.729  0.2491  0.5803 -0.4431
 1003SOL     OW 4449   1.910   6.241   0.808 -0.8074 -0.3336  0.4306
 1003SOL    HW1 4450   1.817   6.221   0.805 -0.9238  0.2596 -0.1913
 1003SOL    HW2 4451   1.914   6.329   0.848 -0.6571  0.4095 -1.1534
 1004SOL     OW 4452   2.916   7.577   2.797 -0.9557  0.1384 -0.0729
 1004SOL    HW1 4453   2.974   7.579   2.721  1.7181 -2.2024  1.6875
 1004SOL    HW2 4454   2.845   7.518   2.771 -0.6698  0.2381 -1.1309
 1005SOL     OW 4455   1.565   0.431   0.954  0.3182 -0.5848 -0.1717
 1005SOL    HW1 4456   1.584   0.497   1.021 -0.1482  0.9332 -1.4660
 1005SOL    HW2 4457   1.477   0.401   0.976 -0.4726  1.0331 -0.9213
 1006SOL     OW 4458   0.669   2.794  11.129 -0.2238  0.5298 -0.2924
 1006SOL    HW1 4459   0.599   2.796  11.063 -0.7006  2.3215  0.2092
 1006SOL    HW2 4460   0.750   2.805  11.079 -0.4008 -0.1611 -0.7482
 1007SOL     OW 4461   6.913   3.701  10.239 -0.1089  0.2242  0.3863
 1007SOL    HW1 4462   6.957   3.711  10.155 -0.5209  0.6442  0.2156
 1007SOL    HW2 4463   6.836   3.647  10.220 -1.0419  1.5768  0.1812
 1008SOL     OW 4464   1.354   5.960   1.318  0.3729  0.9714  0.5321
 1008SOL    HW1 4465   1.402   5.930   1.242 -0.3468  2.1511 -0.4256
 1008SOL    HW2 4466   1.391   5.911   1.391 -0.4969 -1.9516 -0.8366
 1009SOL     OW 4467   4.889   5.879   1.313 -0.5132  0.6296 -0.3556
 1009SOL    HW1 4468   4.863   5.954   1.260 -1.1229 -0.8265 -2.2046
 1009SOL    HW2 4469   4.811   5.823   1.315  0.0814 -0.1877  0.5807
 1010SOL     OW 4470   0.973   0.786   2.260  0.4797  0.2913  0.2385
 1010SOL    HW1 4471   1.040   0.850   2.237  0.3371  0.5198  0.4541
 1010SOL    HW2 4472   0.933   0.760   2.177 -0.4518  1.5611  0.2640
 1011SOL     OW 4473   4.449   6.967   2.068  0.2303 -0.3618  0.1539
 1011SOL    HW1 4474   4.441   6.898   2.133 -0.3248 -1.4665 -1.0536
 1011SOL    HW2 4475   4.533   6.950   2.025  0.8932  0.7340  0.9753
 1012SOL     OW 4476   7.454   1.306   3.681 -0.0246  0.0715  0.2228
 1012SOL    HW1 4477   7.384   1.323   3.617  0.9389  0.1717 -0.8353
 1012SOL    HW2 4478   7.415   1.328   3.765 -1.0790  0.7307 -0.4112
 1013SOL     OW 4479   1.901   0.035   3.817 -0.6633  0.0208  0.3145
 1013SOL    HW1 4480   1.953   0.065   3.742  0.5530 -0.7158  0.8180
 1013SOL    HW2 4481   1.813   0.025   3.783 -0.4548  1.1492 -0.6317
 1014SOL     OW 4482   1.283   6.379   3.750  0.3135  0.2858 -0.3194
 1014SOL    HW1 4483   1.375   6.352   3.747  0.2586  0.0564 -0.0137
 1014SOL    HW2 4484   1.278   6.456   3.694  0.7731  0.5372 -0.0166
 1015SOL     OW 4485   1.765   2.149   3.589 -0.7434 -0.1714  0.1394
 1015SOL    HW1 4486   1.770   2.163   3.684 -1.5612 -1.4736  0.4095
 1015SOL    HW2 4487   1.682   2.102   3.576 -0.6873  0.0682 -1.2342
 1016SOL     OW 4488   7.902   0.187   0.960  0.2827  0.2595  0.4142
 1016SOL    HW1 4489   7.942   0.143   0.885 -0.2494  0.3074  0.0992
 1016SOL    HW2 4490   7.899   0.119   1.028  1.0801  0.3119  0.5116
 1017SOL     OW 4491   0.633   6.717   5.185  0.7239 -0.6598  0.2644
 1017SOL    HW1 4492   0.646   6.808   5.212  0.2933  0.0886 -1.8834
 1017SOL    HW2 4493   0.713   6.694   5.139 -0.5452 -0.0300 -2.4928
 1018SOL     OW 4494   2.396   2.782   6.376 -0.4488 -0.2882 -0.0853
 1018SOL    HW1 4495   2.330   2.850   6.383  1.3014  1.3577  1.5125
 1018SOL    HW2 4496   2.446   2.788   6.457  0.6445 -2.5797 -0.4996
 1019SOL     OW 4497   5.251   1.752   5.095 -0.7187 -0.0520  0.7737
 1019SOL    HW1 4498   5.188   1.694   5.053 -0.4260  0.6164 -0.6424
 1019SOL    HW2 4499   5.198   1.820   5.136 -0.9518  0.2541 -0.0229
 1020SOL     OW 4500   2.924   5.162   3.235 -0.2964  0.1849  0.6365
 1020SOL    HW1 4501   2.975   5.080   3.239  1.8915  1.4440  0.3136
 1020SOL    HW2 4502   2.881   5.159   3.150 -0.8340 -0.9400  0.9266
 1021SOL     OW 4503   6.034   6.150   0.404  0.6023 -0.2404 -0.0821
 1021SOL    HW1 4504   5.987   6.189   0.477  1.8193  1.6124 -0.2322
 1021SOL    HW2 4505   5.965   6.124   0.342 -0.3403 -0.1135  0.8866
 1022SOL     OW 4506   7.794   6.931   6.142 -0.1213  0.2054  0.3839
 1022SOL    HW1 4507   7.757   7.017   6.120  0.5039  0.8484  1.6898
 1022SOL    HW2 4508   7.880   6.951   6.179 -0.2601 -0.9153  1.3943
 1023SOL     OW 4509   3.028   6.971   1.401  0.0003  0.1359  0.1925
 1023SOL    HW1 4510   2.995   6.994   1.314  1.3081  0.6772 -0.1821
 1023SOL    HW2 4511   3.088   6.898   1.385 -0.5460 -0.4655  0.7918
 1024SOL     OW 4512   2.418   5.353   9.741 -0.5557  0.5967  0.0265
 1024SOL    HW1 4513   2.494   5.410   9.732  0.1794 -0.3715 -0.0411
 1024SOL    HW2 4514   2.381   5.348   9.652 -0.3011  0.5258 -0.0757
 1025SOL     OW 4515   0.092   6.665   8.339  0.4657  0.3373 -0.5355
 1025SOL    HW1 4516   0.155   6.713   8.392  0.1520  1.7902 -1.4112
 1025SOL    HW2 4517   0.064   6.592   8.394  0.5450  1.4787  1.0779
 1026SOL     OW 4518   4.930   2.120   7.760  0.3267 -0.0230 -0.0243
 1026SOL    HW1 4519   4.854   2.155   7.712  0.6637 -0.1538 -0.6750
 1026SOL    HW2 4520   5.004   2.133   7.700  0.9619  0.7880  0.9113
 1027SOL     OW 4521   1.687   1.846   8.898  0.0870 -0.0819  0.1265
 1027SOL    HW1 4522   1.677   1.895   8.980 -1.5005  0.8976 -0.5977
 1027SOL    HW2 4523   1.634   1.895   8.835 -0.3042 -1.8938 -1.0178
 1028SOL     OW 4524   4.951   5.721   0.162 -0.5984  0.1929  0.1444
 1028SOL    HW1 4525   4.886   5.678   0.106  1.8134 -0.8846 -2.0653
 1028SOL    HW2 4526   4.954   5.811   0.130 -0.1182 -0.0991 -0.6669
 1029SOL     OW 4527   7.506   2.398   2.967 -0.1151 -0.0739  0.3584
 1029SOL    HW1 4528   7.453   2.447   2.903  0.9884 -0.9394 -1.2772
 1029SOL    HW2 4529   7.502   2.308   2.937 -0.0452 -0.6208  1.9011
 1030SOL     OW 4530   1.078   5.057   0.195  0.2289 -0.1601 -0.3585
 1030SOL    HW1 4531   1.104   5.127   0.255 -1.3690  0.0809  0.1042
 1030SOL    HW2 4532   1.005   5.093   0.145  1.2631 -0.5064 -2.2046
 1031SOL     OW 4533   4.823   0.787   6.072  0.9661  0.1416  0.1215
 1031SOL    HW1 4534   4.796   0.869   6.113 -1.4987 -1.4801  1.9940
 1031SOL    HW2 4535   4.822   0.807   5.978 -0.4077  2.0540  0.4704
 1032SOL     OW 4536   5.419   2.262   0.868  0.2408 -0.2538 -0.4267
 1032SOL    HW1 4537   5.354   2.295   0.807  0.1749 -1.1339 -0.8488
 1032SOL    HW2 4538   5.383   2.282   0.955  0.3579  1.0340 -0.6510
 1033SOL     OW 4539   5.306   1.967   8.885 -0.0689  0.4045  0.1357
 1033SOL    HW1 4540   5.356   2.047   8.902 -0.5315  0.6416  0.3955
 1033SOL    HW2 4541   5.292   1.929   8.972 -0.8644  0.6602  0.1280
 1034SOL     OW 4542   2.716   4.687   9.601  0.5441 -0.4643 -0.0246
 1034SOL    HW1 4543   2.749   4.773   9.577  0.2056 -0.1249  0.6997
 1034SOL    HW2 4544   2.794   4.631   9.604  1.2679  0.5556  2.7043
 1035SOL     OW 4545   3.270   4.589   8.846 -0.3516 -0.3572  0.6354
 1035SOL    HW1 4546   3.186   4.634   8.854  0.8660  2.5303 -1.1806
 1035SOL    HW2 4547   3.326   4.631   8.912 -0.0449 -1.5355  1.1420
 1036SOL     OW 4548   3.079   4.240   5.034 -0.0547 -0.0520 -0.4722
 1036SOL    HW1 4549   3.164   4.270   5.066 -0.4826  1.1461 -0.3965
 1036SOL    HW2 4550   3.032   4.214   5.113  0.2836 -0.8458 -0.5273
 1037SOL     OW 4551   7.544   0.482   0.042  0.3192 -0.1796  0.1406
 1037SOL    HW1 4552   7.498   0.409   0.083  0.8045 -0.9040 -0.5828
 1037SOL    HW2 4553   7.513   0.559   0.089 -1.9271 -0.5791 -0.5688
 1038SOL     OW 4554   4.371   0.377   4.860  0.2504 -0.1928  0.4023
 1038SOL    HW1 4555   4.348   0.444   4.796  0.1515  0.6445  1.2881
 1038SOL    HW2 4556   4.455   0.406   4.895 -0.0999 -0.1731  1.2507
 1039SOL     OW 4557   4.088   7.537   1.616  0.4472  0.1627  0.2191
 1039SOL    HW1 4558   4.036   7.612   1.642  2.4934  2.1949 -1.1738
 1039SOL    HW2 4559   4.146   7.521   1.690  1.4800  1.4073 -0.2915
 1040SOL     OW 4560   5.959   0.663  12.355 -0.7140 -0.5495  0.9177
 1040SOL    HW1 4561   6.027   0.730  12.346 -3.6810  2.7120  0.2457
 1040SOL    HW2 4562   5.991   0.589  12.304  1.7346  1.2832 -0.4337
 1041SOL     OW 4563   7.176   5.698   2.550 -0.3035  0.7568 -0.1452
 1041SOL    HW1 4564   7.123   5.710   2.471  1.0329 -0.2575 -1.2372
 1041SOL    HW2 4565   7.227   5.778   2.557  0.9647  0.1155 -1.4473
 1042SOL     OW 4566   2.529   1.686   6.103  0.0551 -0.2535 -0.1835
 1042SOL    HW1 4567   2.497   1.644   6.024  0.6182 -2.1567  0.5402
 1042SOL    HW2 4568   2.464   1.664   6.170 -0.5231  1.5052 -0.1262
 1043SOL     OW 4569   7.686   2.792   2.392 -0.1093 -0.6131 -0.0921
 1043SOL    HW1 4570   7.648   2.704   2.385  0.0225 -0.8052  1.4291
 1043SOL    HW2 4571   7.610   2.849   2.399 -0.1715 -0.7999  0.8519
 1044SOL     OW 4572   4.937   6.228   4.825  0.1089 -0.0035 -0.2965
 1044SOL    HW1 4573   4.901   6.270   4.903  0.0620 -0.6514  0.0420
 1044SOL    HW2 4574   5.029   6.254   4.823 -0.2289  1.1972 -0.8465
 1045SOL     OW 4575   0.828   5.133   3.118 -0.2621 -0.6886  0.0001
 1045SOL    HW1 4576   0.860   5.215   3.078 -0.8085 -0.2237  0.5008
 1045SOL    HW2 4577   0.906   5.078   3.124  0.2245 -0.0042  0.1456
 1046SOL     OW 4578   7.095   6.376   5.027  0.6260 -0.1451  0.3318
 1046SOL    HW1 4579   7.188   6.383   5.005  0.4360  0.7377 -0.2676
 1046SOL    HW2 4580   7.064   6.302   4.975  1.0098 -0.5076  0.6120
 1047SOL     OW 4581   3.029   0.650   6.270 -0.3196 -0.0861 -0.2375
 1047SOL    HW1 4582   2.974   0.729   6.277  1.7338  1.3317  1.2095
 1047SOL    HW2 4583   3.095   0.672   6.204  0.3142 -0.5384  0.2279
 1048SOL     OW 4584   0.304   6.812   0.626 -0.3004 -0.1918  0.2804
 1048SOL    HW1 4585   0.228   6.848   0.581 -0.5279 -0.3933  0.4961
 1048SOL    HW2 4586   0.355   6.888   0.652 -1.2749  0.0333  1.6125
 1049SOL     OW 4587   1.885   6.497   0.943  0.0011 -0.1854 -0.0214
 1049SOL    HW1 4588   1.951   6.563   0.923 -0.4453  0.2183 -0.1969
 1049SOL    HW2 4589   1.802   6.538   0.916 -0.5895  0.1897  2.1898
 1050SOL     OW 4590   2.255   4.757   8.449 -0.4289 -0.2405  0.0047
 1050SOL    HW1 4591   2.233   4.848   8.469  0.7395  0.1281 -0.3330
 1050SOL    HW2 4592   2.268   4.716   8.535 -1.1900 -0.1533  0.1632
 1051SOL     OW 4593   2.623   2.140  11.839 -0.2408 -0.8469  0.0067
 1051SOL    HW1 4594   2.599   2.227  11.807  1.2458 -0.9353 -1.4869
 1051SOL    HW2 4595   2.684   2.156  11.910 -0.0050 -0.6516 -0.2364
 1052SOL     OW 4596   6.573   4.244  10.852  0.2084  0.2675  0.7042
 1052SOL    HW1 4597   6.521   4.289  10.918 -0.7586  1.2382 -0.6618
 1052SOL    HW2 4598   6.663   4.273  10.869  0.0267  0.2695  1.7442
 1053SOL     OW 4599   4.903   6.211  11.904 -0.0277 -0.3839 -0.4502
 1053SOL    HW1 4600   4.926   6.153  11.976  1.4133  0.7399  0.0449
 1053SOL    HW2 4601   4.975   6.201  11.842  0.2316  0.8650 -0.3595
 1054SOL     OW 4602   5.851   3.747   6.319 -0.3196 -0.1415  0.3864
 1054SOL    HW1 4603   5.922   3.705   6.369 -1.4914 -0.3992  1.8919
 1054SOL    HW2 4604   5.868   3.722   6.228  2.2132  0.8068  0.5231
 1055SOL     OW 4605   0.284   0.473   8.410 -0.1868  0.3291  0.7100
 1055SOL    HW1 4606   0.234   0.553   8.419 -0.9953  0.0866 -1.1753
 1055SOL    HW2 4607   0.222   0.403   8.433  0.5359  0.1864  2.4355
 1056SOL     OW 4608   3.462   5.634   3.255 -0.4715  0.4210  0.1909
 1056SOL    HW1 4609   3.544   5.637   3.304 -0.3645  1.2248 -0.0308
 1056SOL    HW2 4610   3.457   5.718   3.210 -1.1646  0.1747 -0.2140
 1057SOL     OW 4611   7.723   1.371   0.563 -0.1410 -0.1240 -0.1150
 1057SOL    HW1 4612   7.702   1.291   0.515  1.0030  0.7940 -2.2576
 1057SOL    HW2 4613   7.714   1.441   0.499  2.1918  1.0828  0.7488
 1058SOL     OW 4614   1.276   4.891   2.119 -0.5698 -0.8821 -0.3186
 1058SOL    HW1 4615   1.272   4.974   2.167 -1.6289 -0.6020 -0.8637
 1058SOL    HW2 4616   1.267   4.824   2.187 -2.3618 -0.4862 -0.1265
 1059SOL     OW 4617   7.376   4.564   5.570  0.4823 -0.2522 -0.2717
 1059SOL    HW1 4618   7.351   4.473   5.554  2.7957 -0.8555 -0.8873
 1059SOL    HW2 4619   7.305   4.615   5.530 -0.6208 -1.7665 -0.3588
 1060SOL     OW 4620   6.631   5.500   8.718  0.1126 -0.8544  0.1346
 1060SOL    HW1 4621   6.667   5.434   8.776 -0.2647 -1.5215 -0.3718
 1060SOL    HW2 4622   6.707   5.549   8.687  0.2492  0.1117  1.8694
 1061SOL     OW 4623   3.447   5.302  10.248 -0.0101  0.2819  0.6872
 1061SOL    HW1 4624   3.448   5.320  10.342  1.3501  0.9822  0.5650
 1061SOL    HW2 4625   3.479   5.383  10.208  0.5465 -0.3962 -0.2968
 1062SOL     OW 4626   7.375   0.301   6.781  0.0989  0.0564  0.6373
 1062SOL    HW1 4627   7.344   0.234   6.720  0.0296 -0.9474  1.7394
 1062SOL    HW2 4628   7.316   0.375   6.767  1.2969  0.6341 -1.8988
 1063SOL     OW 4629   4.852   0.557   3.134  0.4582 -0.3690 -0.6509
 1063SOL    HW1 4630   4.859   0.576   3.227 -0.4749  3.3919 -1.1793
 1063SOL    HW2 4631   4.762   0.580   3.111  1.5409  2.0273 -2.9966
 1064SOL     OW 4632   4.106   4.122   6.389  0.1690  0.0311 -0.1392
 1064SOL    HW1 4633   4.032   4.101   6.445 -0.6059 -1.1042 -1.5173
 1064SOL    HW2 4634   4.180   4.076   6.428 -0.0936  0.2404  0.6146
 1065SOL     OW 4635   4.150   4.842   0.179 -1.0002  0.0636  0.0065
 1065SOL    HW1 4636   4.169   4.799   0.096  1.6973 -0.3550  0.7407
 1065SOL    HW2 4637   4.138   4.934   0.157 -0.9944 -0.1469 -0.9142
 1066SOL     OW 4638   1.669   6.471   9.048  0.2676  0.5434  0.1044
 1066SOL    HW1 4639   1.742   6.513   9.003  0.8847 -0.4127  0.1749
 1066SOL    HW2 4640   1.596   6.532   9.038  1.1544  1.6678  0.3112
 1067SOL     OW 4641   4.026   2.247  11.416  0.0593 -0.2135 -0.8789
 1067SOL    HW1 4642   3.961   2.234  11.348 -0.5854 -2.4589  0.0734
 1067SOL    HW2 4643   4.107   2.210  11.380 -0.1748 -0.9976 -0.6213
 1068SOL     OW 4644   2.057   1.714  11.598  1.1900 -0.2201  0.3380
 1068SOL    HW1 4645   2.047   1.799  11.639 -0.9596  0.1596 -0.8193
 1068SOL    HW2 4646   2.110   1.732  11.520  0.7093  0.0694  0.0751
 1069SOL     OW 4647   3.799   7.725   5.853 -0.0263 -0.1978 -0.1033
 1069SOL    HW1 4648   3.773   7.815   5.833  1.8136  0.3674 -0.0962
 1069SOL    HW2 4649   3.843   7.694   5.775  1.4398 -0.2481  0.7147
 1070SOL     OW 4650   6.461   1.675   7.208  0.2153 -0.1342 -0.3453
 1070SOL    HW1 4651   6.489   1.620   7.281 -0.6620  0.2958  0.3420
 1070SOL    HW2 4652   6.517   1.752   7.214 -1.0747  0.7584  1.0738
 1071SOL     OW 4653   0.722   5.169   6.049  0.4046  0.3241  0.2027
 1071SOL    HW1 4654   0.744   5.202   5.962 -0.2312 -1.5410 -0.7216
 1071SOL    HW2 4655   0.658   5.231   6.083 -2.0617 -0.6829 -2.1800
 1072SOL     OW 4656   6.240   1.390   3.314  0.2102  0.1640 -0.0243
 1072SOL    HW1 4657   6.333   1.369   3.310  0.1717  0.1292 -1.0586
 1072SOL    HW2 4658   6.229   1.434   3.398  1.3984  1.2767 -0.4228
 1073SOL     OW 4659   3.015   0.253   3.742  0.5204  0.0803 -0.0329
 1073SOL    HW1 4660   3.014   0.315   3.669 -1.6980  2.5437  1.8670
 1073SOL    HW2 4661   3.071   0.295   3.807 -1.2976  0.3782  1.4247
 1074SOL     OW 4662   5.029   4.645   1.978  0.4010 -0.2091  0.2042
 1074SOL    HW1 4663   5.035   4.740   1.965  0.1114 -0.4370 -2.2053
 1074SOL    HW2 4664   4.943   4.622   1.942 -0.0375 -1.2771  1.8394
 1075SOL     OW 4665   7.799   0.791   5.662 -0.1625 -0.4965 -0.1065
 1075SOL    HW1 4666   7.835   0.873   5.628  1.5795 -0.6508  1.2495
 1075SOL    HW2 4667   7.808   0.729   5.589  2.4260 -0.5245  0.1355
 1076SOL     OW 4668   4.524   7.129  11.252  0.6195 -0.1413 -0.5278
 1076SOL    HW1 4669   4.551   7.044  11.289 -0.4475 -0.6187 -0.8021
 1076SOL    HW2 4670   4.561   7.194  11.312  0.8086 -0.8284  0.1178
 1077SOL     OW 4671   0.344   5.284   9.214  0.0136 -0.2004  0.0682
 1077SOL    HW1 4672   0.305   5.203   9.245 -1.4146  0.4616  0.0849
 1077SOL    HW2 4673   0.278   5.351   9.232  0.6722  0.7855 -1.0224
 1078SOL     OW 4674   0.020   6.348   6.039 -0.2739  0.1309  0.1008
 1078SOL    HW1 4675  -0.008   6.288   6.108  0.3253 -0.8218 -0.4582
 1078SOL    HW2 4676  -0.022   6.431   6.061 -1.1065 -0.4788  0.9050
 1079SOL     OW 4677   5.076   7.184  11.257  0.0346  0.3797  0.3051
 1079SOL    HW1 4678   5.092   7.262  11.310  2.4997  0.5350 -0.5528
 1079SOL    HW2 4679   5.150   7.126  11.276  0.0246 -0.3199 -1.5523
 1080SOL     OW 4680   7.096   2.501   1.171  0.4966  0.0354  0.1856
 1080SOL    HW1 4681   7.175   2.485   1.121  0.8722  1.2336  0.3541
 1080SOL    HW2 4682   7.127   2.531   1.257 -0.1324 -0.0878  0.4640
 1081SOL     OW 4683   1.155   4.465  11.993 -0.3301 -0.2727  0.6708
 1081SOL    HW1 4684   1.177   4.540  12.048  0.0268 -0.2184  0.4594
 1081SOL    HW2 4685   1.157   4.390  12.052 -0.3694 -0.1603  0.8161
 1082SOL     OW 4686   1.094   7.717   1.766  0.0563 -0.4684 -0.5415
 1082SOL    HW1 4687   1.164   7.780   1.781 -0.3253  0.0075 -0.7473
 1082SOL    HW2 4688   1.033   7.761   1.707 -0.1999 -1.0411 -0.7147
 1083SOL     OW 4689   3.713   7.433  10.013 -0.1623 -0.0635 -0.1987
 1083SOL    HW1 4690   3.646   7.370  10.040 -0.7769  1.1647  1.2521
 1083SOL    HW2 4691   3.780   7.427  10.081 -0.4589  1.1794  0.2208
 1084SOL     OW 4692   4.155   5.383  11.724 -0.4466 -0.1457  0.8325
 1084SOL    HW1 4693   4.156   5.302  11.673 -1.6302  1.9326 -2.8997
 1084SOL    HW2 4694   4.238   5.427  11.701 -0.7428  0.5865  1.1230
 1085SOL     OW 4695   3.763   0.526   8.418 -0.3324  0.6104 -0.3312
 1085SOL    HW1 4696   3.796   0.446   8.458 -1.2153  0.0200 -0.7399
 1085SOL    HW2 4697   3.814   0.596   8.457  0.9671 -0.2108 -0.4999
 1086SOL     OW 4698   0.190   4.998  11.889 -0.6651 -0.2176 -0.2254
 1086SOL    HW1 4699   0.158   4.934  11.825 -0.7675  0.5395 -0.9531
 1086SOL    HW2 4700   0.120   5.005  11.953 -0.7236 -0.7044 -0.2314
 1087SOL     OW 4701   7.221   3.945  11.384  0.2826  0.2351 -0.1769
 1087SOL    HW1 4702   7.259   3.983  11.462 -1.7037  1.4833  0.2446
 1087SOL    HW2 4703   7.204   3.854  11.407 -0.7534  0.7222  1.0405
 1088SOL     OW 4704   6.247   7.131   8.575 -0.6921 -0.3290 -0.2825
 1088SOL    HW1 4705   6.193   7.206   8.599 -1.1081 -0.8072  0.3093
 1088SOL    HW2 4706   6.301   7.162   8.502 -0.6610  0.6158  0.1378
 1089SOL     OW 4707   5.232   2.234   9.751 -0.3592 -0.1836  0.3796
 1089SOL    HW1 4708   5.164   2.213   9.688  0.0727 -0.1535 -0.1053
 1089SOL    HW2 4709   5.282   2.305   9.710 -0.4433  0.2530  1.0236
 1090SOL     OW 4710   4.238   0.968   8.428  0.0979 -0.6890 -0.1522
 1090SOL    HW1 4711   4.169   0.916   8.470 -0.2481 -0.9615 -1.0415
 1090SOL    HW2 4712   4.302   0.983   8.498 -0.9313 -0.2985  0.7391
 1091SOL     OW 4713   7.585   6.944   1.304  0.3839 -0.0204 -0.0345
 1091SOL    HW1 4714   7.620   6.982   1.224 -0.4926  0.2246 -0.3165
 1091SOL    HW2 4715   7.533   7.014   1.343 -0.6429 -0.6772 -0.1787
 1092SOL     OW 4716   4.628   2.018  11.097  0.2240  0.1475 -0.0759
 1092SOL    HW1 4717   4.720   2.039  11.109  0.0977 -0.1750  1.6947
 1092SOL    HW2 4718   4.619   1.929  11.130 -0.4184 -0.4670 -1.8165
 1093SOL     OW 4719   6.506   4.429  10.387  0.2070 -0.3336 -0.2534
 1093SOL    HW1 4720   6.576   4.492  10.407 -0.7593  0.0012  2.5043
 1093SOL    HW2 4721   6.431   4.460  10.437 -1.0579 -2.3446 -0.7845
 1094SOL     OW 4722   4.491   1.671   4.573 -0.0017  0.7981  0.0929
 1094SOL    HW1 4723   4.443   1.647   4.494  0.9008  1.0919 -0.5578
 1094SOL    HW2 4724   4.474   1.599   4.634  0.1670  0.0238 -0.7485
 1095SOL     OW 4725   0.178   2.944   7.824  0.1447 -0.5446 -0.1139
 1095SOL    HW1 4726   0.174   2.936   7.919  0.8620 -0.8092 -0.1062
 1095SOL    HW2 4727   0.168   2.855   7.792 -0.1426 -0.4500 -0.2937
 1096SOL     OW 4728   2.360   6.859   1.586 -0.0960  0.6549 -0.0371
 1096SOL    HW1 4729   2.287   6.920   1.594 -0.4258  0.5386 -1.7584
 1096SOL    HW2 4730   2.324   6.783   1.541  0.5506 -0.4179  1.1909
 1097SOL     OW 4731   3.912   1.681   6.957 -0.1714  0.0289  0.6537
 1097SOL    HW1 4732   3.893   1.764   6.913 -0.6430 -1.0221 -1.2447
 1097SOL    HW2 4733   3.830   1.632   6.953  0.8912 -1.7728 -1.2093
 1098SOL     OW 4734   4.190   7.304   4.258 -0.6239  0.2002 -0.1617
 1098SOL    HW1 4735   4.117   7.290   4.197 -1.8547 -0.7475  1.4456
 1098SOL    HW2 4736   4.148   7.315   4.343  1.1395 -0.7557  0.8752
 1099SOL     OW 4737   2.353   4.950   7.006 -0.2760 -0.2403 -0.2222
 1099SOL    HW1 4738   2.346   5.015   6.936 -0.1236 -0.5548 -0.5289
 1099SOL    HW2 4739   2.299   4.986   7.077  1.5243  1.3378  0.4557
 1100SOL     OW 4740   1.890   0.761   6.062 -0.3477  0.2666 -0.2839
 1100SOL    HW1 4741   1.924   0.842   6.101  0.7116 -0.6964  0.8839
 1100SOL    HW2 4742   1.796   0.765   6.078 -0.2329  0.9876  0.3144
 1101SOL     OW 4743   0.003   7.168  11.583 -0.6158  0.1682 -0.4935
 1101SOL    HW1 4744   0.095   7.160  11.556 -0.1782 -3.9931  1.4378
 1101SOL    HW2 4745  -0.046   7.153  11.502  0.5370 -1.5549 -0.9450
 1102SOL     OW 4746   7.719   2.561   4.735  0.4003  0.7071 -0.1289
 1102SOL    HW1 4747   7.626   2.550   4.755  0.3158  1.0301 -0.3480
 1102SOL    HW2 4748   7.722   2.629   4.668  0.6402 -0.6360 -1.5518
 1103SOL     OW 4749   6.933   4.490   7.634 -0.0540 -0.1788  0.0829
 1103SOL    HW1 4750   6.902   4.409   7.675  1.6529 -0.5846  0.6394
 1103SOL    HW2 4751   6.957   4.464   7.545 -0.2244 -0.1044  0.0138
 1104SOL     OW 4752   5.766   4.586   7.471 -0.4182  0.1376 -0.2413
 1104SOL    HW1 4753   5.780   4.507   7.419 -0.3090 -0.2704  0.3921
 1104SOL    HW2 4754   5.737   4.554   7.556 -0.7875  0.8039 -0.1098
 1105SOL     OW 4755   4.331   2.873   3.392 -0.1251 -0.6493  0.3372
 1105SOL    HW1 4756   4.348   2.780   3.408  0.8806 -0.8029 -1.3928
 1105SOL    HW2 4757   4.417   2.915   3.401 -0.2470 -0.1676 -0.6191
 1106SOL     OW 4758   0.031   0.003   2.077 -0.0591 -0.1623 -0.5028
 1106SOL    HW1 4759   0.091   0.066   2.118 -0.8993  1.3441 -1.4710
 1106SOL    HW2 4760  -0.053   0.048   2.075 -1.0819 -1.9543  0.1520
 1107SOL     OW 4761   7.354   5.111   1.685 -0.2751  0.4817 -0.0071
 1107SOL    HW1 4762   7.367   5.066   1.769 -0.1116 -0.5808 -0.5906
 1107SOL    HW2 4763   7.428   5.083   1.631 -0.9256  0.3401 -0.8498
 1108SOL     OW 4764   0.040   0.670   2.580 -0.2727  0.2814  0.2701
 1108SOL    HW1 4765   0.110   0.604   2.577  0.7230  1.2890  0.7682
 1108SOL    HW2 4766  -0.033   0.625   2.622  0.8085 -0.1608  1.7583
 1109SOL     OW 4767   6.403   7.460   4.151 -0.2117  0.5401 -0.4092
 1109SOL    HW1 4768   6.437   7.411   4.227 -1.4376  0.8909  0.3985
 1109SOL    HW2 4769   6.435   7.549   4.164 -0.9599  0.7530  0.0791
 1110SOL     OW 4770   7.834   1.692   5.016 -0.4361  0.2301 -1.1072
 1110SOL    HW1 4771   7.796   1.709   5.102 -1.2124 -1.1732 -1.1303
 1110SOL    HW2 4772   7.896   1.764   5.002  0.5757 -0.1067  1.1124
 1111SOL     OW 4773   1.359   3.134   7.925  0.3168  0.4538 -0.4795
 1111SOL    HW1 4774   1.293   3.200   7.944 -0.2840 -0.6354  1.5700
 1111SOL    HW2 4775   1.348   3.115   7.832 -1.1671  1.4624 -0.5454
 1112SOL     OW 4776   4.374   1.346  11.261  0.3837  0.8278  0.7353
 1112SOL    HW1 4777   4.280   1.332  11.247  0.1167  1.8399  1.3723
 1112SOL    HW2 4778   4.393   1.297  11.341  1.0302 -1.6225 -0.8065
 1113SOL     OW 4779   1.624   7.816   8.861 -0.7815  0.3805 -0.5224
 1113SOL    HW1 4780   1.691   7.882   8.841  0.7106 -0.1864  2.1208
 1113SOL    HW2 4781   1.551   7.867   8.897 -0.2835  0.7330  0.0135
 1114SOL     OW 4782   6.861   7.495   0.675  0.0597  0.1618 -0.4762
 1114SOL    HW1 4783   6.930   7.477   0.739  0.7922  0.2339 -1.2272
 1114SOL    HW2 4784   6.788   7.528   0.727  0.3376 -0.5899  0.4098
 1115SOL     OW 4785   7.484   0.071   1.195  0.0026  0.0321 -1.0030
 1115SOL    HW1 4786   7.418   0.030   1.140  0.3132 -1.3510 -0.4038
 1115SOL    HW2 4787   7.541   0.117   1.134 -0.2282 -0.6528 -1.7547
 1116SOL     OW 4788   1.353   1.502   6.821  0.0822 -0.2104 -0.1798
 1116SOL    HW1 4789   1.293   1.492   6.747  1.6356 -3.1253 -1.2334
 1116SOL    HW2 4790   1.419   1.565   6.789  0.4646 -1.0627 -1.1513
 1117SOL     OW 4791   2.555   4.559   1.117 -0.1192  0.0868  0.3587
 1117SOL    HW1 4792   2.489   4.512   1.168  0.7121  0.6101  1.9827
 1117SOL    HW2 4793   2.566   4.642   1.163 -2.1182  2.3574 -2.8630
 1118SOL     OW 4794   1.334   7.011   4.179 -0.1490  0.1327  0.5672
 1118SOL    HW1 4795   1.240   7.029   4.183  0.0711  1.2612  1.0547
 1118SOL    HW2 4796   1.340   6.915   4.184 -1.3246 -0.0556 -0.9926
 1119SOL     OW 4797   0.140   7.923   4.335  0.0914  0.4965 -0.5235
 1119SOL    HW1 4798   0.192   7.872   4.396 -0.4441  0.8419  0.2450
 1119SOL    HW2 4799   0.068   7.865   4.309 -1.1755  1.1661  1.2399
 1120SOL     OW 4800   4.755   1.252  10.544  0.3072 -0.0721 -0.2705
 1120SOL    HW1 4801   4.785   1.293  10.626 -1.2022 -1.0546  0.8297
 1120SOL    HW2 4802   4.660   1.263  10.546  0.3004  0.4915 -2.2623
 1121SOL     OW 4803   5.805   0.676   8.570 -0.4000  0.0817 -0.2510
 1121SOL    HW1 4804   5.870   0.606   8.577 -0.0825  0.3355 -0.5868
 1121SOL    HW2 4805   5.724   0.632   8.543 -0.7287 -0.4245  1.4610
 1122SOL     OW 4806   2.627   7.330   8.812 -0.3410  0.5515  0.1220
 1122SOL    HW1 4807   2.665   7.343   8.899 -0.9196 -2.6613  0.9653
 1122SOL    HW2 4808   2.695   7.361   8.751  1.5873 -0.4486  1.6536
 1123SOL     OW 4809   2.954   1.938   5.826  0.6445 -0.3182 -0.2979
 1123SOL    HW1 4810   2.892   2.000   5.865  0.0534 -0.6295 -0.7192
 1123SOL    HW2 4811   2.942   1.857   5.877  0.0670 -0.6418 -0.9235
 1124SOL     OW 4812   4.624   3.974   7.772 -0.1962  0.7050  0.1884
 1124SOL    HW1 4813   4.570   3.915   7.825 -0.7761  1.2797  0.2485
 1124SOL    HW2 4814   4.561   4.023   7.718  0.3470  0.4769 -0.6869
 1125SOL     OW 4815   0.831   1.312   9.262 -0.0812 -0.6538  0.0312
 1125SOL    HW1 4816   0.755   1.338   9.210  0.6439  0.0475 -0.7212
 1125SOL    HW2 4817   0.810   1.340   9.351 -1.0760 -1.3017  0.0161
 1126SOL     OW 4818   4.495   2.091  12.229 -0.3253  0.1067  0.4754
 1126SOL    HW1 4819   4.454   2.153  12.169  1.6373 -0.3136 -1.4532
 1126SOL    HW2 4820   4.422   2.043  12.268 -1.7507  1.3394 -0.5548
 1127SOL     OW 4821   6.666   3.576  10.193  0.1207 -0.7224 -0.1575
 1127SOL    HW1 4822   6.687   3.506  10.131  0.7041 -0.4808 -0.2418
 1127SOL    HW2 4823   6.574   3.595  10.176 -0.5168 -2.5511  0.9779
 1128SOL     OW 4824   0.310   3.451   8.561 -0.1868  0.1572 -0.5702
 1128SOL    HW1 4825   0.261   3.371   8.543  0.5925 -0.4025 -0.2408
 1128SOL    HW2 4826   0.396   3.436   8.521  1.0807 -0.4951  2.1619
 1129SOL     OW 4827   1.307   1.661   9.754 -0.4518 -0.5493  0.1141
 1129SOL    HW1 4828   1.316   1.565   9.751 -1.2654 -0.6883  1.4288
 1129SOL    HW2 4829   1.221   1.676   9.792 -0.6042  0.7206 -0.6746
 1130SOL     OW 4830   5.329   5.452   9.962  0.3868 -0.6086 -0.7270
 1130SOL    HW1 4831   5.277   5.376   9.935  0.8741 -0.4855 -2.0729
 1130SOL    HW2 4832   5.339   5.442  10.057 -2.3154 -0.5047 -0.3508
 1131SOL     OW 4833   1.233   7.776   4.436 -0.0730  0.0417 -0.2764
 1131SOL    HW1 4834   1.162   7.829   4.471  0.5133  0.8650 -0.2878
 1131SOL    HW2 4835   1.229   7.790   4.342  0.6072  0.7524 -0.2054
 1132SOL     OW 4836   5.686   5.801   6.146  0.6271 -0.2343  0.0809
 1132SOL    HW1 4837   5.754   5.850   6.100  0.2793  0.9256  0.7525
 1132SOL    HW2 4838   5.669   5.852   6.226 -1.3157 -0.2375 -0.2647
 1133SOL     OW 4839   4.595   1.334   5.253 -0.4675  0.0649 -0.4996
 1133SOL    HW1 4840   4.503   1.361   5.255 -0.2364  0.8819 -0.7954
 1133SOL    HW2 4841   4.599   1.260   5.314 -0.7169  1.9629  1.9969
 1134SOL     OW 4842   4.641   3.410   4.444 -0.3925  0.6243 -0.2212
 1134SOL    HW1 4843   4.733   3.406   4.469 -1.1588  0.2492  2.9080
 1134SOL    HW2 4844   4.600   3.466   4.509 -3.2080 -3.1799  1.7116
 1135SOL     OW 4845   7.864   4.193   5.184 -0.0464 -0.5726 -0.0147
 1135SOL    HW1 4846   7.835   4.282   5.166 -0.2936 -0.5628  0.4177
 1135SOL    HW2 4847   7.784   4.145   5.205  0.2360 -0.5362  1.2254
 1136SOL     OW 4848   1.468   3.545   3.851  0.2122  0.2155 -0.1333
 1136SOL    HW1 4849   1.453   3.476   3.916  1.7909 -0.5903 -0.5566
 1136SOL    HW2 4850   1.427   3.623   3.888 -1.4366 -0.8961  0.4642
 1137SOL     OW 4851   2.734   3.912   4.923 -0.4996 -0.3441 -0.1082
 1137SOL    HW1 4852   2.799   3.981   4.933 -0.3896 -0.6177  1.2275
 1137SOL    HW2 4853   2.653   3.958   4.905 -0.2959  0.0971  0.0904
 1138SOL     OW 4854   7.612   6.483   8.889 -0.3074 -0.1280 -0.6568
 1138SOL    HW1 4855   7.603   6.578   8.902 -1.7009 -0.3813  0.5165
 1138SOL    HW2 4856   7.681   6.457   8.949 -1.2674 -0.1119  0.4903
 1139SOL     OW 4857   5.923   6.199   5.284 -0.6762 -0.2781 -0.2507
 1139SOL    HW1 4858   5.891   6.265   5.346 -0.4814 -0.7415  0.3583
 1139SOL    HW2 4859   5.982   6.247   5.226  0.0537 -0.0577  0.6586
 1140SOL     OW 4860   6.803   6.065   9.863  0.3427 -0.1147  0.1501
 1140SOL    HW1 4861   6.841   6.140   9.910 -0.0650 -0.4829  1.0885
 1140SOL    HW2 4862   6.709   6.073   9.877  0.1579  0.1135 -1.1506
 1141SOL     OW 4863   0.837   5.296  10.888 -0.1169 -0.4267  0.5142
 1141SOL    HW1 4864   0.862   5.277  10.978 -1.5088 -0.8354  0.8403
 1141SOL    HW2 4865   0.845   5.391  10.880 -1.2672 -0.2183  1.4986
 1142SOL     OW 4866   5.725   1.020   1.778 -0.2604 -0.8718  0.0603
 1142SOL    HW1 4867   5.671   1.010   1.699  0.8090 -1.2776 -0.6525
 1142SOL    HW2 4868   5.707   1.109   1.809 -0.0925 -0.4101 -1.1164
 1143SOL     OW 4869   2.658   1.797   4.974 -0.2687  0.2780 -0.1513
 1143SOL    HW1 4870   2.588   1.752   5.021 -0.1247  1.4670  1.3067
 1143SOL    HW2 4871   2.739   1.763   5.013 -0.1601  1.7536  1.0213
 1144SOL     OW 4872   7.441   7.547  11.011  0.2782  0.0007  0.2058
 1144SOL    HW1 4873   7.399   7.618  11.061  1.2760  0.4617  0.4174
 1144SOL    HW2 4874   7.502   7.507  11.073 -1.8038 -2.5337  0.8002
 1145SOL     OW 4875   1.169   7.823   2.591  0.4312 -0.2495  0.4723
 1145SOL    HW1 4876   1.240   7.839   2.652  0.7035  0.5139 -0.0335
 1145SOL    HW2 4877   1.175   7.894   2.527  0.5597 -1.3922 -0.8310
 1146SOL     OW 4878   1.794   1.729   5.653  0.3724  0.5648  0.7863
 1146SOL    HW1 4879   1.815   1.644   5.616 -0.6327  0.3267  0.7253
 1146SOL    HW2 4880   1.834   1.728   5.740  0.3029 -0.0005  0.8138
 1147SOL     OW 4881   6.228   5.167   1.554 -0.2057 -0.1571  0.1216
 1147SOL    HW1 4882   6.150   5.115   1.575 -1.0341  0.1732 -1.8883
 1147SOL    HW2 4883   6.204   5.256   1.578 -0.2639 -0.1278 -0.0446
 1148SOL     OW 4884   3.622   4.272   3.907  0.0911  0.3870 -0.3199
 1148SOL    HW1 4885   3.559   4.204   3.932 -0.1474  1.2673  1.7302
 1148SOL    HW2 4886   3.569   4.338   3.862 -0.6905  1.4438  1.9867
 1149SOL     OW 4887   6.753   4.727   7.629 -0.0811  0.3565  0.0870
 1149SOL    HW1 4888   6.832   4.675   7.617  0.4894  1.3613 -0.7194
 1149SOL    HW2 4889   6.741   4.772   7.544  0.2653  2.6210  1.1500
 1150SOL     OW 4890   0.035   0.677   1.426 -0.6818 -0.0037  0.1111
 1150SOL    HW1 4891   0.064   0.597   1.382  2.0701  0.0539  1.5904
 1150SOL    HW2 4892   0.090   0.746   1.389 -2.3525  1.0806 -0.4435
 1151SOL     OW 4893   0.319   3.351   8.899 -0.1732 -0.4215 -0.2564
 1151SOL    HW1 4894   0.384   3.421   8.891  0.3598 -1.1004 -2.3754
 1151SOL    HW2 4895   0.352   3.281   8.844 -1.5212 -1.7379  0.5347
 1152SOL     OW 4896   3.421   0.789   9.748  0.4232 -0.8854  0.2336
 1152SOL    HW1 4897   3.446   0.766   9.837 -1.5229 -0.3427  0.9645
 1152SOL    HW2 4898   3.390   0.707   9.709 -2.5487 -0.4554  1.4532
 1153SOL     OW 4899   5.771   2.209   6.795 -0.1042 -0.0165 -0.0689
 1153SOL    HW1 4900   5.833   2.228   6.725 -0.9723  0.2693 -0.7923
 1153SOL    HW2 4901   5.738   2.295   6.822  0.1182 -0.1348  0.5932
 1154SOL     OW 4902   6.166   4.049   9.016  0.0140 -0.5281 -0.0173
 1154SOL    HW1 4903   6.207   4.104   9.082  0.6966  0.0188 -0.8858
 1154SOL    HW2 4904   6.238   4.002   8.975 -0.3445 -0.4269 -0.7741
 1155SOL     OW 4905   6.274   5.447   4.844  0.2465  0.7136  0.5667
 1155SOL    HW1 4906   6.318   5.437   4.928  0.0678  1.0498  0.7043
 1155SOL    HW2 4907   6.208   5.515   4.860  2.4489  3.3519 -0.7142
 1156SOL     OW 4908   3.437   5.328   7.502 -0.0251 -0.5673 -0.1050
 1156SOL    HW1 4909   3.485   5.271   7.563  0.5145  0.7506  0.7434
 1156SOL    HW2 4910   3.498   5.344   7.431  0.2874 -0.0236  0.2836
 1157SOL     OW 4911   3.562   4.940   1.223  0.3163  0.0971 -0.0558
 1157SOL    HW1 4912   3.554   4.888   1.303  0.2331 -1.5484 -1.0874
 1157SOL    HW2 4913   3.628   5.006   1.244  1.0128 -0.9146  1.0849
 1158SOL     OW 4914   0.762   1.296   5.138  0.3316  0.6970  0.0122
 1158SOL    HW1 4915   0.721   1.221   5.181  1.0805 -0.7880 -1.7250
 1158SOL    HW2 4916   0.692   1.361   5.130 -0.2968  0.2735  1.6581
 1159SOL     OW 4917   1.097   0.739   2.842  0.2254  0.1409 -0.2354
 1159SOL    HW1 4918   1.048   0.762   2.762 -0.4986  2.1370  0.7138
 1159SOL    HW2 4919   1.176   0.792   2.838  0.2883  0.0909  0.2865
 1160SOL     OW 4920   6.593   1.544   9.090  0.3953 -0.0143  0.0802
 1160SOL    HW1 4921   6.608   1.578   9.001  0.9855  0.5124  0.3712
 1160SOL    HW2 4922   6.498   1.542   9.099  0.3350  1.1697 -0.1155
 1161SOL     OW 4923   5.484   3.317   1.767  0.0994 -0.5051  0.5371
 1161SOL    HW1 4924   5.407   3.369   1.743  0.0424 -0.8401 -0.0440
 1161SOL    HW2 4925   5.558   3.372   1.743  0.0353 -0.4452  0.4742
 1162SOL     OW 4926   3.039   1.860   2.897 -0.4754 -0.6936 -0.1111
 1162SOL    HW1 4927   2.963   1.904   2.934 -0.8283 -1.0141 -0.4471
 1162SOL    HW2 4928   3.092   1.930   2.859 -0.4252 -0.4328  0.4282
 1163SOL     OW 4929   7.771   6.202   4.969  0.0214 -0.3506 -0.0567
 1163SOL    HW1 4930   7.698   6.209   5.030 -0.9481 -0.8415 -1.1121
 1163SOL    HW2 4931   7.843   6.249   5.011 -0.7803 -0.1944  1.1868
 1164SOL     OW 4932   5.240   5.845   4.378  0.2366  0.0540  0.8405
 1164SOL    HW1 4933   5.302   5.772   4.386 -0.2192 -1.0368 -3.3003
 1164SOL    HW2 4934   5.287   5.920   4.414  3.1001 -1.1889 -0.0232
 1165SOL     OW 4935   7.742   3.249   2.197  0.3862 -0.5203  0.1085
 1165SOL    HW1 4936   7.773   3.199   2.121  4.6061  1.4186  0.2721
 1165SOL    HW2 4937   7.747   3.187   2.269  1.4428 -1.0316 -0.3769
 1166SOL     OW 4938   3.019   4.891   3.228 -0.1085  0.3311  0.2162
 1166SOL    HW1 4939   3.111   4.886   3.201 -0.1112 -0.4668  0.3312
 1166SOL    HW2 4940   3.019   4.859   3.319 -0.5521 -0.0402  0.0869
 1167SOL     OW 4941   2.101   4.791   7.432 -0.0571  0.1690  0.2072
 1167SOL    HW1 4942   2.053   4.727   7.485 -1.0714  0.2860 -0.5250
 1167SOL    HW2 4943   2.087   4.874   7.478 -0.1221  0.1187  0.2807
 1168SOL     OW 4944   2.947   6.968   6.909 -0.5251  0.1265 -0.2792
 1168SOL    HW1 4945   2.945   7.063   6.924  1.1283  0.2415 -0.6241
 1168SOL    HW2 4946   3.010   6.935   6.972 -2.3765 -1.0321  1.0624
 1169SOL     OW 4947   3.399   3.898   8.798 -0.1480 -0.1335 -0.3486
 1169SOL    HW1 4948   3.460   3.906   8.725  0.7589  1.6338  0.5390
 1169SOL    HW2 4949   3.421   3.971   8.856 -1.7707 -0.6532  1.0084
 1170SOL     OW 4950   1.984   7.901   4.301 -0.1530 -0.3478  0.0668
 1170SOL    HW1 4951   1.971   7.962   4.374  2.7001  3.2306 -2.0915
 1170SOL    HW2 4952   2.045   7.836   4.335  0.5716  0.8321  1.1090
 1171SOL     OW 4953   0.729   7.094   4.748 -0.4651  0.0152  0.5346
 1171SOL    HW1 4954   0.652   7.104   4.804 -0.4581 -0.8418  0.7082
 1171SOL    HW2 4955   0.785   7.169   4.770 -1.1244  0.5009  0.5933
 1172SOL     OW 4956   3.125   4.890   8.900  0.0377  0.0272 -0.3248
 1172SOL    HW1 4957   3.164   4.935   8.825 -2.4692  2.3809 -0.3580
 1172SOL    HW2 4958   3.081   4.814   8.862  0.4403  0.1069 -0.9652
 1173SOL     OW 4959   5.802   3.983   3.511 -0.1091  0.3181 -0.7145
 1173SOL    HW1 4960   5.847   4.054   3.555 -1.2407 -0.4732  1.9575
 1173SOL    HW2 4961   5.775   4.019   3.427  1.1718  2.3168 -0.3187
 1174SOL     OW 4962   4.748   5.519   8.013 -0.2560 -1.0848 -0.2499
 1174SOL    HW1 4963   4.712   5.605   8.035  1.4805 -0.6105  0.9091
 1174SOL    HW2 4964   4.808   5.536   7.941  1.0889 -1.0528  0.8333
 1175SOL     OW 4965   6.406   0.343   9.382 -0.1247 -0.3286 -0.4170
 1175SOL    HW1 4966   6.500   0.351   9.363  1.1240 -2.4756  3.6421
 1175SOL    HW2 4967   6.384   0.424   9.427 -0.1410 -0.0203 -0.9636
 1176SOL     OW 4968   0.131   7.355   0.250 -0.2418  0.1901 -0.0253
 1176SOL    HW1 4969   0.101   7.372   0.340 -2.1454  4.6527 -1.2513
 1176SOL    HW2 4970   0.201   7.419   0.236 -1.4376  1.1080 -2.3099
 1177SOL     OW 4971   3.352   7.054  10.518 -0.0868  0.1799  0.5947
 1177SOL    HW1 4972   3.265   7.016  10.514 -0.2961  0.7318 -0.4953
 1177SOL    HW2 4973   3.372   7.080  10.428  1.0705  0.3536  0.8777
 1178SOL     OW 4974   1.233   5.858  10.703  0.6811  0.1853  0.0124
 1178SOL    HW1 4975   1.236   5.947  10.667 -0.0279  1.2442  2.3620
 1178SOL    HW2 4976   1.309   5.852  10.760 -0.1937 -0.0867  1.1790
 1179SOL     OW 4977   3.806   3.773   6.009 -0.2054  0.1736 -0.2832
 1179SOL    HW1 4978   3.851   3.749   5.927 -1.0130  0.9348 -0.9728
 1179SOL    HW2 4979   3.832   3.706   6.071  0.8620 -0.1222 -1.0183
 1180SOL     OW 4980   7.515   1.960   4.203 -0.8225 -0.1333  0.5356
 1180SOL    HW1 4981   7.588   1.968   4.264 -1.9649  1.4705  1.7628
 1180SOL    HW2 4982   7.556   1.967   4.116  0.4474  1.1121  1.1946
 1181SOL     OW 4983   2.156   6.328   2.094 -0.0123 -0.3667  0.3917
 1181SOL    HW1 4984   2.207   6.341   2.014  1.0669  1.5710  1.3242
 1181SOL    HW2 4985   2.067   6.355   2.070 -0.6754 -3.4158 -1.1434
 1182SOL     OW 4986   3.832   4.812   8.014  0.4866  0.3838 -0.7754
 1182SOL    HW1 4987   3.873   4.764   7.941  1.8037  1.9325 -1.1019
 1182SOL    HW2 4988   3.905   4.852   8.060 -0.4787  0.8742  0.3653
 1183SOL     OW 4989   1.405   6.922  11.277 -0.2840  0.9143  0.4580
 1183SOL    HW1 4990   1.487   6.877  11.298 -0.7108 -0.2377 -0.2724
 1183SOL    HW2 4991   1.357   6.861  11.222 -1.0939  2.0896 -0.1886
 1184SOL     OW 4992   3.737   5.681   8.963  0.0415  0.3072 -0.7676
 1184SOL    HW1 4993   3.732   5.719   9.051 -1.4883  0.4523 -0.8981
 1184SOL    HW2 4994   3.646   5.673   8.934  0.5289  1.4714 -2.8675
 1185SOL     OW 4995   7.133   4.980   7.430  0.2310  0.1523 -0.3109
 1185SOL    HW1 4996   7.128   5.072   7.403  0.3113  0.6205  1.1340
 1185SOL    HW2 4997   7.168   4.934   7.354 -0.1629  1.2601 -1.1897
 1186SOL     OW 4998   4.524   5.079   0.453 -0.7140  0.0525  0.7515
 1186SOL    HW1 4999   4.580   5.143   0.409 -1.0431 -0.7136 -0.9019
 1186SOL    HW2 5000   4.557   5.074   0.542  0.4298  1.2312  0.4210
 1187SOL     OW 5001   0.813   6.002   2.886  0.5359 -0.1324 -0.3317
 1187SOL    HW1 5002   0.843   6.093   2.895  1.2570 -0.2488 -1.3574
 1187SOL    HW2 5003   0.735   6.008   2.831 -0.4163  0.0102  0.9907
 1188SOL     OW 5004   0.850   2.522   3.433  0.4174  0.4908 -0.1865
 1188SOL    HW1 5005   0.849   2.566   3.518  0.6929  1.1770 -0.5243
 1188SOL    HW2 5006   0.782   2.568   3.383 -1.0503 -1.1229  0.2392
 1189SOL     OW 5007   0.020   2.764   3.890  0.0088 -0.9548 -0.3825
 1189SOL    HW1 5008   0.052   2.679   3.920 -0.0883 -0.8616 -0.0087
 1189SOL    HW2 5009   0.069   2.828   3.942  2.7999 -0.6100 -3.1632
 1190SOL     OW 5010   1.351   5.193   9.400  0.4450 -0.1082  0.5960
 1190SOL    HW1 5011   1.433   5.180   9.352  0.8886  1.3746  0.9016
 1190SOL    HW2 5012   1.366   5.152   9.485  1.0827  0.5886  0.8352
 1191SOL     OW 5013   2.116   7.796   3.395 -0.2146  0.3696 -0.2556
 1191SOL    HW1 5014   2.206   7.778   3.424 -0.8578 -4.7227 -0.5180
 1191SOL    HW2 5015   2.063   7.778   3.473 -1.1315  1.0224 -0.7265
 1192SOL     OW 5016   0.480   5.195   5.044 -0.0734 -0.6287 -0.3138
 1192SOL    HW1 5017   0.520   5.276   5.074  0.1392 -1.0074  0.4585
 1192SOL    HW2 5018   0.388   5.217   5.029  0.3597  0.2274 -2.0203
 1193SOL     OW 5019   2.210   5.600  10.592  0.0440 -0.6924 -0.3740
 1193SOL    HW1 5020   2.287   5.649  10.564 -1.0313  0.7873 -0.8689
 1193SOL    HW2 5021   2.196   5.535  10.523 -0.5965  0.7084 -1.6342
 1194SOL     OW 5022   4.302   2.578   7.327 -0.0359  0.0482 -0.2510
 1194SOL    HW1 5023   4.395   2.558   7.315  0.0441  0.4957 -0.4114
 1194SOL    HW2 5024   4.256   2.511   7.277  0.2506  0.8294 -1.6165
 1195SOL     OW 5025   1.134   5.482  12.252 -0.4421 -0.1170  0.7124
 1195SOL    HW1 5026   1.169   5.481  12.342 -3.0719 -0.5633  1.8176
 1195SOL    HW2 5027   1.089   5.398  12.242  0.6121 -0.4950 -1.4316
 1196SOL     OW 5028   3.643   1.958   9.923 -0.2047 -0.7463  0.4658
 1196SOL    HW1 5029   3.620   2.034   9.869  0.7575 -0.8118 -0.0680
 1196SOL    HW2 5030   3.570   1.897   9.910 -0.9463  0.0467  0.8383
 1197SOL     OW 5031   3.075   0.769   4.642  0.4168  0.5057  0.0586
 1197SOL    HW1 5032   3.160   0.814   4.637  0.0664  1.0571 -1.2167
 1197SOL    HW2 5033   3.066   0.724   4.559 -1.1630  1.6217 -0.4349
 1198SOL     OW 5034   4.414   0.268   1.514 -0.2985 -0.1271  0.1737
 1198SOL    HW1 5035   4.454   0.330   1.453  0.4295  0.2627  1.0308
 1198SOL    HW2 5036   4.466   0.189   1.506  0.7054  0.3964  1.3254
 1199SOL     OW 5037   7.376   4.805  11.534  0.2516  0.0018  0.7173
 1199SOL    HW1 5038   7.394   4.886  11.485  0.0254  0.0998  0.7970
 1199SOL    HW2 5039   7.457   4.791  11.584  0.9839 -0.7987 -0.6300
 1200SOL     OW 5040   5.175   6.227   3.461  0.6372 -0.2868  0.1864
 1200SOL    HW1 5041   5.267   6.205   3.480  1.1758  1.7677  0.1688
 1200SOL    HW2 5042   5.178   6.268   3.375 -0.0576  1.1686  0.8264
 1201SOL     OW 5043   2.575   1.773   1.496 -0.0118  0.4992  0.4717
 1201SOL    HW1 5044   2.606   1.684   1.480 -0.8160 -0.0260  1.6908
 1201SOL    HW2 5045   2.568   1.812   1.409 -1.4046 -1.2541 -0.2620
 1202SOL     OW 5046   3.723   1.920   8.867 -0.5124  0.1262  0.2259
 1202SOL    HW1 5047   3.713   2.004   8.822  1.3485 -0.6614 -1.8625
 1202SOL    HW2 5048   3.809   1.925   8.908  0.0346 -1.0760 -0.7246
 1203SOL     OW 5049   1.043   1.607   0.865 -0.0119  0.4770 -0.3255
 1203SOL    HW1 5050   1.119   1.569   0.821 -0.8497  0.8626 -2.1887
 1203SOL    HW2 5051   1.036   1.558   0.947  1.1959 -0.7722 -0.9288
 1204SOL     OW 5052   5.294   7.745   6.775  0.0115 -0.1393 -0.1224
 1204SOL    HW1 5053   5.244   7.762   6.855  0.2312 -0.3400  0.0594
 1204SOL    HW2 5054   5.378   7.789   6.789  0.3873 -0.9325  0.1346
 1205SOL     OW 5055   2.860   6.257   5.740  0.0245  0.2174  0.2964
 1205SOL    HW1 5056   2.904   6.210   5.811  0.6448  1.2134  0.5941
 1205SOL    HW2 5057   2.891   6.347   5.748 -1.0319  0.6562 -0.3436
 1206SOL     OW 5058   3.820   4.853   1.952  0.1236 -0.1309 -0.3867
 1206SOL    HW1 5059   3.898   4.870   1.899  2.1695  1.1165  2.7884
 1206SOL    HW2 5060   3.773   4.937   1.953 -0.2679 -0.3432 -0.7477
 1207SOL     OW 5061   3.539   2.580  10.824 -0.1324 -0.0042 -0.0673
 1207SOL    HW1 5062   3.594   2.529  10.764  1.0995  1.1003  0.0752
 1207SOL    HW2 5063   3.536   2.668  10.785 -0.9245  0.2243  0.4886
 1208SOL     OW 5064   2.981   0.939  10.997  0.1924  0.1104  0.0880
 1208SOL    HW1 5065   3.028   0.990  11.063 -1.4612  1.0016  0.6183
 1208SOL    HW2 5066   2.977   0.996  10.921 -0.4721  0.2588  0.2270
 1209SOL     OW 5067   4.234   7.314  11.602 -0.0499  0.3034 -0.0592
 1209SOL    HW1 5068   4.147   7.344  11.576 -0.1129  0.8302  0.7461
 1209SOL    HW2 5069   4.222   7.221  11.622 -0.6292  0.5694  0.8936
 1210SOL     OW 5070   7.341   4.968   7.720  0.1042  0.0591 -0.0825
 1210SOL    HW1 5071   7.421   5.001   7.759 -0.5212  1.2019  0.2698
 1210SOL    HW2 5072   7.280   5.042   7.722 -1.1189 -0.9141  0.1139
 1211SOL     OW 5073   2.131   1.407   3.518  0.2800 -0.1737 -0.0465
 1211SOL    HW1 5074   2.146   1.442   3.431  1.3147  0.0241  0.1942
 1211SOL    HW2 5075   2.063   1.341   3.506  1.3540 -1.1053 -1.2387
 1212SOL     OW 5076   4.464   6.000  11.134  0.3076 -0.3308  0.0784
 1212SOL    HW1 5077   4.371   5.983  11.127 -0.3892  1.3385  3.3273
 1212SOL    HW2 5078   4.506   5.919  11.104 -2.0968 -0.8982 -2.0523
 1213SOL     OW 5079   0.848   7.241  11.328 -0.2155  0.1430  0.1899
 1213SOL    HW1 5080   0.866   7.224  11.421  1.7530 -0.2762 -0.2213
 1213SOL    HW2 5081   0.908   7.182  11.281 -4.1070 -2.9780 -1.4761
 1214SOL     OW 5082   5.661   0.465   6.579  0.3008 -0.4338  0.1011
 1214SOL    HW1 5083   5.601   0.524   6.533  0.8106  0.5774  0.6790
 1214SOL    HW2 5084   5.690   0.403   6.512 -0.5211 -0.2497 -0.4431
 1215SOL     OW 5085   4.636   3.224   5.966 -0.2429  0.7451 -0.2812
 1215SOL    HW1 5086   4.669   3.168   6.037  0.3593  0.8505 -0.4730
 1215SOL    HW2 5087   4.619   3.308   6.008  0.5814  0.9555 -0.3493
 1216SOL     OW 5088   3.088   1.107   7.359  0.4473  0.5217  0.2048
 1216SOL    HW1 5089   3.096   1.167   7.433  1.2750  0.5170  0.1294
 1216SOL    HW2 5090   3.090   1.020   7.397 -1.6026  0.5190  0.3953
 1217SOL     OW 5091   2.113   0.471   2.959  0.5025  0.2874  0.1019
 1217SOL    HW1 5092   2.136   0.381   2.936  0.2963  0.4492 -0.7695
 1217SOL    HW2 5093   2.028   0.464   3.002  0.3554  0.0811 -0.2128
 1218SOL     OW 5094   3.206   0.294  10.808  0.2983  0.2284 -0.7273
 1218SOL    HW1 5095   3.225   0.275  10.716 -1.2388 -0.1656 -0.9974
 1218SOL    HW2 5096   3.180   0.209  10.845 -0.1248  0.5802 -0.2066
 1219SOL     OW 5097   2.301   1.590   7.594 -0.4947  0.2278  0.1259
 1219SOL    HW1 5098   2.375   1.607   7.534 -0.3913  0.0947  0.2147
 1219SOL    HW2 5099   2.228   1.568   7.536 -0.5935  0.8209  0.0139
 1220SOL     OW 5100   2.136   5.449   4.815  0.0521 -0.6034 -0.2770
 1220SOL    HW1 5101   2.101   5.538   4.813  1.7488  0.1657  1.5301
 1220SOL    HW2 5102   2.076   5.399   4.759 -3.4556  0.7631  1.9253
 1221SOL     OW 5103   6.886   3.526   4.883 -0.1857 -0.7645 -0.2130
 1221SOL    HW1 5104   6.801   3.529   4.839 -0.1558 -2.0588 -0.3912
 1221SOL    HW2 5105   6.880   3.593   4.951 -2.1284 -2.1906  1.1143
 1222SOL     OW 5106   1.624   6.060   2.424 -0.4042 -0.1140 -0.7206
 1222SOL    HW1 5107   1.587   6.140   2.462  0.2855  0.4559 -1.2078
 1222SOL    HW2 5108   1.562   6.035   2.356 -1.2848 -0.7397  0.2979
 1223SOL     OW 5109   3.142   0.613   2.965 -0.1240 -0.0113 -0.0014
 1223SOL    HW1 5110   3.139   0.593   3.059 -0.1850  2.6513  0.6499
 1223SOL    HW2 5111   3.080   0.551   2.926  0.8808 -2.0714  1.4770
 1224SOL     OW 5112   3.914   5.633   7.946  0.3609 -0.4892  0.5226
 1224SOL    HW1 5113   3.995   5.605   7.903 -0.2429 -0.7010 -0.5304
 1224SOL    HW2 5114   3.939   5.709   7.998  1.1505 -0.2352 -0.2081
 1225SOL     OW 5115   2.477   0.636   5.118 -0.0036 -0.0644 -0.4544
 1225SOL    HW1 5116   2.402   0.678   5.162  0.6522  0.8171 -0.1485
 1225SOL    HW2 5117   2.477   0.673   5.030  0.1825  0.0807 -0.3938
 1226SOL     OW 5118   1.453   0.017   3.022  0.1732 -0.4062  0.1580
 1226SOL    HW1 5119   1.526   0.070   3.054  0.3041  0.5655 -1.6230
 1226SOL    HW2 5120   1.378   0.045   3.073  0.2899  1.3852 -0.5967
 1227SOL     OW 5121   5.778   7.081   9.164  0.1139  0.0912  0.2122
 1227SOL    HW1 5122   5.829   7.025   9.222  0.1837 -0.6652 -0.5686
 1227SOL    HW2 5123   5.842   7.117   9.103 -0.1229 -0.0096 -0.0966
 1228SOL     OW 5124   1.161   6.723   9.103 -0.1928  0.1281  0.1566
 1228SOL    HW1 5125   1.140   6.777   9.179  1.5746 -1.0914  1.6083
 1228SOL    HW2 5126   1.103   6.648   9.111  0.2611 -0.1894  0.5621
 1229SOL     OW 5127   4.222   6.751   7.779  0.2535  0.4549  0.1112
 1229SOL    HW1 5128   4.202   6.815   7.848 -1.5606 -0.6449  0.6762
 1229SOL    HW2 5129   4.137   6.714   7.757  1.1854 -1.2737 -0.6960
 1230SOL     OW 5130   3.870   4.369   4.451  0.2804  0.1970  0.3075
 1230SOL    HW1 5131   3.925   4.322   4.514 -0.5548 -1.3402 -0.0646
 1230SOL    HW2 5132   3.929   4.388   4.378  0.5324 -0.6985  0.2610
 1231SOL     OW 5133   1.167   2.015   4.278 -0.2305  0.4859  0.4072
 1231SOL    HW1 5134   1.150   2.091   4.222 -0.4775  0.5569  0.5807
 1231SOL    HW2 5135   1.086   2.001   4.325 -0.2518 -0.0207  0.2205
 1232SOL     OW 5136   7.083   2.430   4.612  0.3501  0.3381 -0.1899
 1232SOL    HW1 5137   7.040   2.345   4.601 -0.6262  0.8394 -0.2709
 1232SOL    HW2 5138   7.069   2.453   4.704  0.3347  0.5606 -0.2471
 1233SOL     OW 5139   5.288   7.894   5.779 -0.2986 -0.4652 -0.7488
 1233SOL    HW1 5140   5.294   7.973   5.832  0.0892 -0.8649 -0.1920
 1233SOL    HW2 5141   5.363   7.900   5.720 -0.6529 -0.0885 -1.1715
 1234SOL     OW 5142   1.504   7.197   4.576  0.4958 -0.0308 -0.0426
 1234SOL    HW1 5143   1.523   7.161   4.662 -0.9806 -2.2193 -0.5632
 1234SOL    HW2 5144   1.423   7.154   4.549  0.3121  1.4339 -2.0699
 1235SOL     OW 5145   0.680   0.290   7.711  0.9440 -0.6408 -0.1480
 1235SOL    HW1 5146   0.729   0.342   7.647  1.1956 -1.2191 -0.4301
 1235SOL    HW2 5147   0.729   0.301   7.793  0.2523  0.6404  0.1285
 1236SOL     OW 5148   5.744   2.745   1.473 -0.1457  0.0856 -0.3735
 1236SOL    HW1 5149   5.795   2.682   1.423  1.4853  1.9175 -1.1361
 1236SOL    HW2 5150   5.712   2.807   1.409 -0.2257  1.0128  0.5321
 1237SOL     OW 5151   4.082   4.497   2.838 -0.4659 -0.2863 -0.0689
 1237SOL    HW1 5152   4.133   4.416   2.841  0.5951 -0.0840 -4.6529
 1237SOL    HW2 5153   3.994   4.469   2.814 -0.9791 -0.2138  1.6200
 1238SOL     OW 5154   5.436   7.573   4.858 -1.0186  0.2000  0.2169
 1238SOL    HW1 5155   5.439   7.654   4.909 -0.9360  0.0400  0.4679
 1238SOL    HW2 5156   5.361   7.584   4.800 -1.1235  0.3785  0.3858
 1239SOL     OW 5157   4.562   1.892   6.419  0.0769 -0.3889  0.4892
 1239SOL    HW1 5158   4.507   1.926   6.348 -0.9419  0.7147  1.7422
 1239SOL    HW2 5159   4.604   1.970   6.456  0.2785 -0.8926  1.3510
 1240SOL     OW 5160   5.391   7.247   8.189  0.3837  0.0158 -0.1954
 1240SOL    HW1 5161   5.455   7.314   8.212  0.8957 -0.4298 -0.2852
 1240SOL    HW2 5162   5.441   7.184   8.136 -0.3964  0.2472 -1.2396
 1241SOL     OW 5163   3.239   6.771   8.626  0.1292 -0.2184  0.6889
 1241SOL    HW1 5164   3.159   6.719   8.619 -1.8601  2.7802 -1.6350
 1241SOL    HW2 5165   3.309   6.710   8.604 -1.9039 -2.1427 -1.0176
 1242SOL     OW 5166   5.511   2.140  11.520 -0.2665 -0.5261  0.0853
 1242SOL    HW1 5167   5.583   2.093  11.561  0.3664 -0.3354 -0.7741
 1242SOL    HW2 5168   5.460   2.073  11.475  1.9177 -0.2755 -3.0982
 1243SOL     OW 5169   7.920   0.351   6.548  0.6047 -0.0447  0.4658
 1243SOL    HW1 5170   7.826   0.331   6.547  0.8210 -1.1142 -0.3762
 1243SOL    HW2 5171   7.935   0.400   6.467  0.9210 -0.7127  0.1062
 1244SOL     OW 5172   5.641   4.712  11.009 -0.0557  0.0375  0.1526
 1244SOL    HW1 5173   5.715   4.674  10.962 -0.6187  0.0389 -0.7692
 1244SOL    HW2 5174   5.670   4.716  11.100  1.5365  1.1431 -0.3470
 1245SOL     OW 5175   5.046   5.217   7.923 -0.8914  0.3649  0.1864
 1245SOL    HW1 5176   5.092   5.298   7.899  1.3154 -0.1765  2.2506
 1245SOL    HW2 5177   5.013   5.233   8.011  0.2264 -1.1951  0.9322
 1246SOL     OW 5178   3.251   6.822   1.648 -0.3800  0.5174 -0.3305
 1246SOL    HW1 5179   3.238   6.810   1.742 -1.0044  2.8109 -0.0453
 1246SOL    HW2 5180   3.341   6.793   1.632 -0.6091 -0.8813  0.7478
 1247SOL     OW 5181   2.838   6.100   8.180  0.0521  0.1908 -0.2504
 1247SOL    HW1 5182   2.837   6.162   8.252  0.6947  0.6164 -0.6043
 1247SOL    HW2 5183   2.894   6.028   8.210 -0.9238 -0.3715  0.2741
 1248SOL     OW 5184   5.924   1.441   1.809  0.6311 -0.3806  0.2196
 1248SOL    HW1 5185   5.975   1.436   1.890  0.8435  4.3121  0.6008
 1248SOL    HW2 5186   5.833   1.431   1.838  0.7527  0.5691  0.9908
 1249SOL     OW 5187   1.244   1.609   0.146 -0.0309  0.3595 -0.1523
 1249SOL    HW1 5188   1.199   1.548   0.204  2.3187 -2.1617 -0.8215
 1249SOL    HW2 5189   1.268   1.682   0.203 -0.8871 -0.3846  1.2238
 1250SOL     OW 5190   7.926   5.815   8.141 -0.4636  0.0597  0.6356
 1250SOL    HW1 5191   7.870   5.881   8.099 -1.3014 -0.8588  0.2788
 1250SOL    HW2 5192   8.013   5.855   8.141 -0.3841  0.1109 -2.0324
 1251SOL     OW 5193   1.753   5.311   2.842 -0.2817  0.4634  0.4401
 1251SOL    HW1 5194   1.733   5.339   2.753 -0.0924  2.8685  1.0951
 1251SOL    HW2 5195   1.671   5.274   2.874 -0.2359 -0.8391 -0.8380
 1252SOL     OW 5196   6.588   4.070   5.451 -0.5964  0.0096  0.1286
 1252SOL    HW1 5197   6.579   3.992   5.396  1.6421  0.8282 -1.5594
 1252SOL    HW2 5198   6.670   4.057   5.498 -0.9448  0.7017  0.9607
 1253SOL     OW 5199   5.582   4.109   7.922 -0.0517  0.3225  0.3136
 1253SOL    HW1 5200   5.561   4.180   7.984  0.1082  0.2818  0.4144
 1253SOL    HW2 5201   5.648   4.146   7.864  0.9732 -0.1494  1.1556
 1254SOL     OW 5202   4.227   5.981  10.966 -0.0626 -0.0240 -0.3649
 1254SOL    HW1 5203   4.264   5.926  10.897  1.1101  0.7634 -0.3857
 1254SOL    HW2 5204   4.181   5.920  11.023 -1.0746 -0.7021 -1.8187
 1255SOL     OW 5205   6.411   2.493   5.046  0.1920  0.2424 -0.6718
 1255SOL    HW1 5206   6.484   2.551   5.066 -0.0768  1.3522 -2.6676
 1255SOL    HW2 5207   6.337   2.552   5.030 -0.8002 -0.7954 -0.1007
 1256SOL     OW 5208   3.201   4.525   6.767 -0.8900  0.1390  0.4120
 1256SOL    HW1 5209   3.203   4.441   6.813  0.3085 -1.1470 -1.7927
 1256SOL    HW2 5210   3.261   4.581   6.817  2.3876 -1.9938 -0.7483
 1257SOL     OW 5211   4.021   4.077   6.117  0.2267 -0.2524  0.1880
 1257SOL    HW1 5212   4.063   4.143   6.062 -0.5664  0.5282  0.4909
 1257SOL    HW2 5213   4.060   4.089   6.203 -0.1030  0.0128  0.3050
 1258SOL     OW 5214   6.716   2.325   0.762 -0.1766  0.0037 -0.4588
 1258SOL    HW1 5215   6.788   2.263   0.749 -0.6580 -0.5171 -0.6775
 1258SOL    HW2 5216   6.741   2.374   0.840 -0.4661 -1.4283  0.5743
 1259SOL     OW 5217   1.235   4.012   7.160  0.2939  0.0322  0.1962
 1259SOL    HW1 5218   1.198   3.946   7.101 -2.3209  1.1370  0.4992
 1259SOL    HW2 5219   1.317   4.038   7.118 -0.3750 -0.8538 -1.7695
 1260SOL     OW 5220   5.420   1.831   7.313  0.3583  0.2995  0.1754
 1260SOL    HW1 5221   5.437   1.745   7.275 -0.8231 -0.1244  0.5792
 1260SOL    HW2 5222   5.450   1.893   7.246 -2.0169 -0.4087 -1.6989
 1261SOL     OW 5223   1.175   3.523  10.959 -0.3481 -0.4619  0.2209
 1261SOL    HW1 5224   1.138   3.493  11.042 -1.1575  1.5516  0.6576
 1261SOL    HW2 5225   1.108   3.503  10.894 -0.3174 -0.7732  0.2854
 1262SOL     OW 5226   5.125   3.886   7.564 -0.5995 -0.3505 -0.6614
 1262SOL    HW1 5227   5.212   3.853   7.583 -0.6296  0.6571  1.5197
 1262SOL    HW2 5228   5.135   3.936   7.482  0.5156 -1.4389 -1.2031
 1263SOL     OW 5229   5.298   6.632   6.625 -0.8802 -0.1024 -0.2413
 1263SOL    HW1 5230   5.241   6.687   6.679  0.7376  1.5496 -0.1205
 1263SOL    HW2 5231   5.375   6.616   6.680 -0.4176 -0.7550 -1.0612
 1264SOL     OW 5232   7.113   6.724   0.328 -0.7273  0.4778 -0.3508
 1264SOL    HW1 5233   7.183   6.672   0.365 -1.7645 -0.3508  0.5225
 1264SOL    HW2 5234   7.092   6.682   0.245 -0.1302  0.7953 -0.6661
 1265SOL     OW 5235   4.316   1.375   5.289  0.1763 -0.1334 -0.6462
 1265SOL    HW1 5236   4.255   1.446   5.310  1.5189  0.9790 -0.3548
 1265SOL    HW2 5237   4.266   1.295   5.303 -0.7475  0.7039  1.1759
 1266SOL     OW 5238   4.810   1.431  10.222 -0.4971  0.3378 -0.3109
 1266SOL    HW1 5239   4.786   1.344  10.254 -0.4423  0.2950 -0.3892
 1266SOL    HW2 5240   4.761   1.441  10.141  0.5086 -0.1396 -0.9914
 1267SOL     OW 5241   3.455   5.685   1.054 -0.1640 -0.0283 -0.2372
 1267SOL    HW1 5242   3.436   5.696   1.147  1.8532 -0.3326  0.2558
 1267SOL    HW2 5243   3.397   5.614   1.025 -0.4634 -0.2596  0.9018
 1268SOL     OW 5244   1.721   5.446   8.968 -0.1150  0.9965 -0.2137
 1268SOL    HW1 5245   1.763   5.517   8.919  2.3202 -0.8799 -1.0746
 1268SOL    HW2 5246   1.760   5.450   9.055 -0.3522  1.0265 -0.1089
 1269SOL     OW 5247   2.615   4.190   9.755 -0.0413  0.6213  0.1865
 1269SOL    HW1 5248   2.639   4.144   9.675  1.7175  0.3100  0.8540
 1269SOL    HW2 5249   2.674   4.265   9.759  0.5306  0.1384  1.6180
 1270SOL     OW 5250   4.732   6.548   5.243  0.7779 -0.4587 -0.7412
 1270SOL    HW1 5251   4.797   6.514   5.181  2.3272 -0.9355  1.0710
 1270SOL    HW2 5252   4.703   6.631   5.204  1.7106 -0.7400 -2.0895
 1271SOL     OW 5253   4.015   2.545   2.768 -0.1671 -0.1526  0.5765
 1271SOL    HW1 5254   4.067   2.491   2.827  0.9978 -0.4468 -0.6741
 1271SOL    HW2 5255   3.959   2.596   2.826 -0.1618 -1.5279  1.8593
 1272SOL     OW 5256   6.028   5.836   6.282 -0.2006 -0.0252  0.4722
 1272SOL    HW1 5257   6.086   5.879   6.344  0.5678 -1.6979  0.9819
 1272SOL    HW2 5258   5.941   5.844   6.320 -0.5796  3.3225 -0.7389
 1273SOL     OW 5259   1.650   0.052   0.623 -0.7029 -0.7846 -0.0477
 1273SOL    HW1 5260   1.587  -0.008   0.584 -0.7174 -1.0372  0.3681
 1273SOL    HW2 5261   1.601   0.098   0.691 -0.1060 -1.9307  1.1926
 1274SOL     OW 5262   2.884   1.095   4.357 -0.0261  0.0492  0.0028
 1274SOL    HW1 5263   2.879   1.000   4.360 -0.4794  0.0353  4.1547
 1274SOL    HW2 5264   2.975   1.115   4.380  0.0169  0.6346 -0.6479
 1275SOL     OW 5265   5.327   3.201   3.421 -0.1550 -0.1642 -0.2120
 1275SOL    HW1 5266   5.387   3.273   3.439  1.1577 -0.9387 -1.3034
 1275SOL    HW2 5267   5.328   3.192   3.326  1.6970 -3.1841 -0.0356
 1276SOL     OW 5268   7.635   6.646   8.484  0.3764 -0.5677  0.7443
 1276SOL    HW1 5269   7.692   6.665   8.559  0.1028 -1.1356  1.0958
 1276SOL    HW2 5270   7.687   6.672   8.408  0.5598  0.2576  1.1370
 1277SOL     OW 5271   2.186   5.607   1.175 -0.4104 -0.3132 -0.7731
 1277SOL    HW1 5272   2.277   5.630   1.192 -0.3248  0.2141 -1.8670
 1277SOL    HW2 5273   2.191   5.529   1.120 -0.6282 -0.4866 -0.5478
 1278SOL     OW 5274   7.594   6.207   6.590  0.0441 -0.5087  0.2847
 1278SOL    HW1 5275   7.590   6.302   6.581  1.8176 -0.2843  1.3851
 1278SOL    HW2 5276   7.602   6.192   6.684  0.6178 -1.6828  0.0705
 1279SOL     OW 5277   6.931   2.113   0.707 -0.1939  0.3067  0.2846
 1279SOL    HW1 5278   7.015   2.083   0.741 -1.1271 -1.9352  0.7974
 1279SOL    HW2 5279   6.903   2.043   0.648 -2.6114 -0.0467  1.7057
 1280SOL     OW 5280   2.136   0.730   1.865 -0.2199  0.3529  0.1468
 1280SOL    HW1 5281   2.188   0.791   1.812 -2.5662  1.2440 -1.3156
 1280SOL    HW2 5282   2.078   0.688   1.802 -0.8989 -0.9919  1.6199
 1281SOL     OW 5283   5.623   0.095   0.098 -0.1690  0.1313 -1.2569
 1281SOL    HW1 5284   5.583   0.078   0.012 -0.8773 -0.0199 -0.9031
 1281SOL    HW2 5285   5.549   0.111   0.156  0.3239  0.5819 -0.7434
 1282SOL     OW 5286   7.700   4.457   1.650  0.0610  0.1250 -0.4632
 1282SOL    HW1 5287   7.606   4.447   1.634  0.1114  0.2490 -0.8421
 1282SOL    HW2 5288   7.735   4.490   1.568  0.6978 -1.5333 -0.9082
 1283SOL     OW 5289   6.887   3.502   8.684  0.5369 -0.4149  0.1687
 1283SOL    HW1 5290   6.901   3.415   8.646  1.3454  0.4284 -1.5440
 1283SOL    HW2 5291   6.941   3.561   8.632 -1.7698  1.4879 -0.2466
 1284SOL     OW 5292   0.519   6.217   2.924 -0.1820  0.0863  0.5590
 1284SOL    HW1 5293   0.603   6.243   2.884 -0.2159  0.1170  0.5075
 1284SOL    HW2 5294   0.488   6.146   2.867 -0.9120  1.0623 -0.2916
 1285SOL     OW 5295   4.397   1.072   3.275  0.5856 -0.2909 -0.3509
 1285SOL    HW1 5296   4.314   1.029   3.296  0.9305 -0.2206  1.2755
 1285SOL    HW2 5297   4.381   1.115   3.191 -1.4827  0.8719  0.5665
 1286SOL     OW 5298   2.971   4.184   8.453  0.1328 -0.3209  0.5374
 1286SOL    HW1 5299   3.053   4.140   8.429  0.7560  0.5549  1.0091
 1286SOL    HW2 5300   2.903   4.119   8.435  1.0031 -1.3689  0.9199
 1287SOL     OW 5301   3.593   0.371  11.394  0.4481  0.1531  0.2773
 1287SOL    HW1 5302   3.688   0.378  11.393  0.3870  1.6744  1.3314
 1287SOL    HW2 5303   3.565   0.408  11.310  0.7550  0.4293  0.2938
 1288SOL     OW 5304   6.516   5.019  10.116 -0.2496 -0.3222  0.0436
 1288SOL    HW1 5305   6.577   5.066  10.173 -1.5345  0.3117  0.9498
 1288SOL    HW2 5306   6.454   5.086  10.086 -0.2687 -0.8615 -1.2134
 1289SOL     OW 5307   6.155   1.539   8.779  0.0431  0.4957 -0.0308
 1289SOL    HW1 5308   6.196   1.584   8.705 -0.6678  0.6443 -0.3521
 1289SOL    HW2 5309   6.191   1.451   8.776  0.1832  0.5617 -0.4378
 1290SOL     OW 5310   2.161   4.592   8.267 -0.0379  0.0869  0.5590
 1290SOL    HW1 5311   2.174   4.503   8.302  1.6711 -1.0196 -2.4593
 1290SOL    HW2 5312   2.200   4.649   8.332  0.3677 -1.5352  1.8122
 1291SOL     OW 5313   0.110   5.033   6.861 -0.5522  0.0610 -0.1386
 1291SOL    HW1 5314   0.093   4.954   6.913  1.2534  0.0612  0.5256
 1291SOL    HW2 5315   0.204   5.031   6.846 -0.6528  1.5321 -1.0543
 1292SOL     OW 5316   6.203   5.504   9.823  0.0673  0.3680  0.0032
 1292SOL    HW1 5317   6.237   5.423   9.862 -0.6074 -0.1258 -0.4085
 1292SOL    HW2 5318   6.244   5.574   9.874 -1.1089 -0.2512  1.9165
 1293SOL     OW 5319   6.449   4.571   8.496 -0.5276  0.0639  0.6179
 1293SOL    HW1 5320   6.390   4.599   8.567 -0.0377 -1.5109  1.7009
 1293SOL    HW2 5321   6.447   4.475   8.500  2.0193 -0.0475  0.6158
 1294SOL     OW 5322   6.230   5.771   8.314  0.3751 -0.0551  0.4231
 1294SOL    HW1 5323   6.167   5.739   8.250  0.9526  2.2469 -1.4413
 1294SOL    HW2 5324   6.177   5.819   8.378  0.1214  1.8758 -1.1354
 1295SOL     OW 5325   6.035   7.606   0.387  0.1790 -0.1411  0.2538
 1295SOL    HW1 5326   6.112   7.575   0.339  0.5272 -0.0187  0.7265
 1295SOL    HW2 5327   6.054   7.698   0.406  0.2193 -0.2883  0.9534
 1296SOL     OW 5328   5.068   6.072   0.894 -0.1030  0.6139  0.5948
 1296SOL    HW1 5329   5.159   6.102   0.897  0.1432 -0.1956  1.5546
 1296SOL    HW2 5330   5.072   5.992   0.841 -0.5787  1.5952 -0.9922
 1297SOL     OW 5331   0.764   0.963   9.268  0.2219 -0.9221 -0.1908
 1297SOL    HW1 5332   0.716   0.956   9.186  0.6980 -1.0415 -0.4601
 1297SOL    HW2 5333   0.734   1.046   9.306  0.3084 -0.6651 -0.6813
 1298SOL     OW 5334   0.535   5.279   1.746  0.1202  0.4510  0.1290
 1298SOL    HW1 5335   0.481   5.318   1.677 -1.1381  0.4153  1.0724
 1298SOL    HW2 5336   0.573   5.354   1.792 -0.0933  0.5034  0.2198
 1299SOL     OW 5337   5.557   0.648   6.884  0.2347  0.4186  0.0086
 1299SOL    HW1 5338   5.532   0.678   6.971  0.1154  1.7772 -0.4746
 1299SOL    HW2 5339   5.603   0.565   6.899  0.5555  0.8278  1.3781
 1300SOL     OW 5340   1.488   4.119   7.128  0.2632 -0.2173 -0.0261
 1300SOL    HW1 5341   1.579   4.090   7.135  0.5208  0.5939  0.1830
 1300SOL    HW2 5342   1.493   4.215   7.135 -0.7485 -0.2422  1.6033
 1301SOL     OW 5343   2.020   0.378   3.522 -0.1958 -0.2996 -0.6719
 1301SOL    HW1 5344   2.019   0.463   3.567 -1.2877 -0.5284 -0.2223
 1301SOL    HW2 5345   2.006   0.399   3.430 -0.1015  0.0337 -0.6098
 1302SOL     OW 5346   4.232   3.496   4.939  0.0787 -0.0850  0.5264
 1302SOL    HW1 5347   4.175   3.441   4.993  1.1133 -0.2503  1.4730
 1302SOL    HW2 5348   4.210   3.470   4.849 -0.2678 -1.2331  0.9176
 1303SOL     OW 5349   7.647   4.435   5.460 -0.0608 -0.1772  0.2158
 1303SOL    HW1 5350   7.619   4.345   5.476  0.1218  0.0094  1.7863
 1303SOL    HW2 5351   7.596   4.463   5.385  1.1321 -2.1392 -1.4465
 1304SOL     OW 5352   4.969   2.033  12.302  0.4542 -0.4137 -0.1790
 1304SOL    HW1 5353   4.888   2.051  12.256  0.5775  0.6672  0.0098
 1304SOL    HW2 5354   4.973   2.099  12.371  1.4523 -0.4982 -0.1415
 1305SOL     OW 5355   3.895   1.195   6.938  0.2118 -0.7613 -0.5623
 1305SOL    HW1 5356   3.941   1.147   7.006  0.3794 -1.4202 -1.1336
 1305SOL    HW2 5357   3.914   1.147   6.858 -1.9901 -1.4467 -0.7329
 1306SOL     OW 5358   1.943   6.483   5.554  0.4578 -0.5764  0.0463
 1306SOL    HW1 5359   1.848   6.485   5.562  0.3313 -2.0182 -0.7811
 1306SOL    HW2 5360   1.968   6.575   5.542 -0.8691 -0.2311 -0.2338
 1307SOL     OW 5361   7.053   0.352  11.793  0.1815  0.0981  0.5125
 1307SOL    HW1 5362   7.033   0.386  11.880  0.6295 -1.2865  1.1899
 1307SOL    HW2 5363   7.113   0.417  11.756 -1.3147  1.5712  0.5259
 1308SOL     OW 5364   1.086   2.610   9.316 -0.7078  0.0892  0.2490
 1308SOL    HW1 5365   1.050   2.694   9.342  0.3893  1.4848 -2.3082
 1308SOL    HW2 5366   1.180   2.619   9.330 -0.4080 -0.0929 -1.4097
 1309SOL     OW 5367   5.628   0.530   9.320  0.3732  0.2379  0.0925
 1309SOL    HW1 5368   5.595   0.564   9.403  0.6883  0.1456  0.2596
 1309SOL    HW2 5369   5.580   0.577   9.253  1.4788  1.7288  0.2947
 1310SOL     OW 5370   0.967   5.578   0.417 -0.4703 -0.1605  0.1181
 1310SOL    HW1 5371   0.874   5.572   0.394 -0.0877  2.0449 -2.5355
 1310SOL    HW2 5372   0.970   5.648   0.483 -0.6511  0.2912 -0.3426
 1311SOL     OW 5373   7.281   6.438   5.913 -0.1349 -0.0729 -0.5706
 1311SOL    HW1 5374   7.202   6.440   5.966  0.0145  1.1187 -0.3623
 1311SOL    HW2 5375   7.345   6.392   5.967 -0.4158 -0.2238 -0.3632
 1312SOL     OW 5376   4.208   0.570   9.233  0.5114 -0.0087 -0.0656
 1312SOL    HW1 5377   4.193   0.497   9.173  0.0171  0.9688 -1.1732
 1312SOL    HW2 5378   4.171   0.540   9.317 -0.7542 -0.5861 -0.8037
 1313SOL     OW 5379   1.105   1.387   5.912 -0.2266  0.5743 -0.5541
 1313SOL    HW1 5380   1.113   1.297   5.880 -1.0173 -0.1088  1.0378
 1313SOL    HW2 5381   1.153   1.386   5.995 -2.5258  0.8294  0.8667
 1314SOL     OW 5382   7.064   4.808  12.124 -0.0184  0.2608 -0.2951
 1314SOL    HW1 5383   7.139   4.807  12.184  2.1921 -0.7937 -2.8219
 1314SOL    HW2 5384   7.049   4.901  12.106 -0.2654  0.5497  1.3251
 1315SOL     OW 5385   2.267   1.118   3.339  0.0847 -0.5827  0.1561
 1315SOL    HW1 5386   2.279   1.055   3.411  0.6870  0.8016  1.3189
 1315SOL    HW2 5387   2.199   1.178   3.371  2.2072  1.6503  0.8100
 1316SOL     OW 5388   0.364   6.372   3.068 -0.4332 -0.1594 -0.0134
 1316SOL    HW1 5389   0.275   6.337   3.061 -0.2922 -0.2480 -1.7729
 1316SOL    HW2 5390   0.414   6.324   3.001  0.9428 -0.0767  0.9065
 1317SOL     OW 5391   6.619   6.625  10.545  0.1012  0.1902  0.1386
 1317SOL    HW1 5392   6.648   6.536  10.566  0.5679  0.1428 -0.6833
 1317SOL    HW2 5393   6.678   6.682  10.595 -0.4041  0.0492  0.9224
 1318SOL     OW 5394   2.604   1.056   6.681 -0.0144  0.3778  0.3175
 1318SOL    HW1 5395   2.656   1.089   6.755  1.6932 -0.5925 -0.3774
 1318SOL    HW2 5396   2.630   1.111   6.607  0.5786 -0.5536 -0.1853
 1319SOL     OW 5397   0.554   1.887   1.970  0.2213  0.1939 -0.6088
 1319SOL    HW1 5398   0.647   1.906   1.961  0.0308  1.4687 -0.0651
 1319SOL    HW2 5399   0.519   1.897   1.881  0.5424 -0.0155 -0.7616
 1320SOL     OW 5400   0.141   5.157   1.931  0.2235 -0.2774  0.1139
 1320SOL    HW1 5401   0.138   5.129   1.839 -0.3172 -0.1285  0.0825
 1320SOL    HW2 5402   0.233   5.151   1.955  0.7654  1.9002 -1.1366
 1321SOL     OW 5403   2.111   4.954   8.778 -0.2349 -0.6654  0.6429
 1321SOL    HW1 5404   2.033   4.906   8.752 -1.6586  0.9739  1.6865
 1321SOL    HW2 5405   2.079   5.022   8.837  1.9226  0.4279  0.6541
 1322SOL     OW 5406   6.503   5.204  12.265 -0.7385 -0.2681 -0.8169
 1322SOL    HW1 5407   6.427   5.241  12.309  1.1370  0.4212  2.1428
 1322SOL    HW2 5408   6.472   5.121  12.229 -2.7086 -0.4175  1.0105
 1323SOL     OW 5409   6.373   7.849  10.969 -0.0857  0.6791  0.3146
 1323SOL    HW1 5410   6.279   7.848  10.989 -0.1289 -0.7927  0.2045
 1323SOL    HW2 5411   6.389   7.764  10.928  0.9020  1.7346 -1.6261
 1324SOL     OW 5412   4.289   3.180   4.426 -0.4168 -0.3109 -0.2896
 1324SOL    HW1 5413   4.331   3.099   4.456  1.7711  0.5122 -0.9655
 1324SOL    HW2 5414   4.233   3.206   4.499  2.5717  0.1076  2.0818
 1325SOL     OW 5415   1.175   2.743  10.640 -0.3521 -0.1487 -0.0905
 1325SOL    HW1 5416   1.165   2.655  10.602  0.9564 -0.8308  1.0458
 1325SOL    HW2 5417   1.111   2.745  10.712 -0.0610 -0.3652  0.1800
 1326SOL     OW 5418   2.030   7.740   7.210  0.2313  0.0995 -0.3987
 1326SOL    HW1 5419   2.100   7.740   7.275 -0.8255 -0.0195  0.7887
 1326SOL    HW2 5420   2.014   7.647   7.192  0.4045  0.1278 -0.7063
 1327SOL     OW 5421   2.340   3.566  10.622  0.1292  0.2822 -0.1519
 1327SOL    HW1 5422   2.337   3.629  10.694  0.2932  0.1706 -0.0471
 1327SOL    HW2 5423   2.382   3.489  10.660 -0.5301 -0.0804 -0.1277
 1328SOL     OW 5424   7.614   3.847   0.378  0.3180  0.0205  0.3663
 1328SOL    HW1 5425   7.542   3.873   0.321 -0.6782 -0.4226  1.4003
 1328SOL    HW2 5426   7.580   3.774   0.430  1.1284  0.5194  1.6544
 1329SOL     OW 5427   4.752   5.585   6.314 -0.2115 -0.0952 -0.3227
 1329SOL    HW1 5428   4.753   5.497   6.275  0.0168 -0.4483  0.4509
 1329SOL    HW2 5429   4.805   5.638   6.255  0.5593 -0.7363 -0.2278
 1330SOL     OW 5430   4.397   5.697   9.027 -0.2287  0.2202 -0.6207
 1330SOL    HW1 5431   4.435   5.673   8.942 -0.2964  0.0099 -0.5922
 1330SOL    HW2 5432   4.368   5.787   9.016 -0.1446  0.2270 -0.7896
 1331SOL     OW 5433   7.300   3.370   1.915  0.0892 -0.1298 -0.1762
 1331SOL    HW1 5434   7.274   3.456   1.882  0.1037 -0.0800 -0.0593
 1331SOL    HW2 5435   7.396   3.371   1.911  0.2332  0.7710  2.0494
 1332SOL     OW 5436   3.317   4.759   3.930 -0.1994 -0.5973  0.2332
 1332SOL    HW1 5437   3.287   4.777   4.020  0.0663 -1.2019  0.4514
 1332SOL    HW2 5438   3.254   4.695   3.896 -0.5493 -0.0448 -0.1692
 1333SOL     OW 5439   4.538   5.808   9.888  0.2643 -0.7693 -0.3751
 1333SOL    HW1 5440   4.628   5.831   9.863  0.2994 -0.8043 -0.2787
 1333SOL    HW2 5441   4.499   5.773   9.807 -0.4778  1.6675 -1.1442
 1334SOL     OW 5442   2.616   1.527   7.463 -0.0017 -0.3927  0.1280
 1334SOL    HW1 5443   2.651   1.490   7.544 -1.2817  0.4899  1.1453
 1334SOL    HW2 5444   2.669   1.605   7.448  0.2437 -0.5610  0.1155
 1335SOL     OW 5445   3.661   2.045  11.943 -0.3931 -0.8577 -0.0499
 1335SOL    HW1 5446   3.630   2.132  11.921  0.1902 -0.2634  1.3342
 1335SOL    HW2 5447   3.589   2.005  11.992  0.3230 -0.1034  1.6971
 1336SOL     OW 5448   5.291   2.397   5.169 -0.1070 -0.1342 -0.4436
 1336SOL    HW1 5449   5.326   2.319   5.126 -0.6515  0.2341 -1.5906
 1336SOL    HW2 5450   5.206   2.368   5.203 -0.7491  0.1875 -1.7131
 1337SOL     OW 5451   6.252   5.386   3.155  0.3203  0.0621 -0.2733
 1337SOL    HW1 5452   6.267   5.341   3.238 -0.4501  0.4561  0.0883
 1337SOL    HW2 5453   6.318   5.455   3.152 -0.6599  1.0713  0.7710
 1338SOL     OW 5454   7.536   1.417   6.285 -0.4387  0.1257  0.3188
 1338SOL    HW1 5455   7.627   1.388   6.297 -0.7898 -0.1889  2.5864
 1338SOL    HW2 5456   7.488   1.337   6.264 -0.6397 -0.2602  2.0650
 1339SOL     OW 5457   6.918   2.697  10.760  0.1113 -0.0863 -0.6436
 1339SOL    HW1 5458   6.911   2.696  10.856 -1.6604 -0.2611 -0.7284
 1339SOL    HW2 5459   6.967   2.618  10.739  0.3751 -0.1341  0.1116
 1340SOL     OW 5460   5.738   1.573   6.974 -0.5066  0.4939  0.0995
 1340SOL    HW1 5461   5.769   1.565   7.065 -3.0096 -2.5296  0.8539
 1340SOL    HW2 5462   5.816   1.598   6.925  1.2027  1.1720  2.8822
 1341SOL     OW 5463   2.482   7.502   3.252  0.5811 -0.3254 -0.6852
 1341SOL    HW1 5464   2.464   7.427   3.309  0.7631  0.4636  0.4416
 1341SOL    HW2 5465   2.439   7.480   3.169  1.5800 -2.1934 -0.7867
 1342SOL     OW 5466   3.839   4.442   6.554  0.2609 -0.3345 -0.3797
 1342SOL    HW1 5467   3.763   4.394   6.522 -0.3183  0.8456 -0.8138
 1342SOL    HW2 5468   3.912   4.410   6.502  0.1341 -1.6687  0.2194
 1343SOL     OW 5469   6.303   3.827   1.317  0.1351 -0.7934 -0.3377
 1343SOL    HW1 5470   6.386   3.780   1.321  1.9576  2.0995 -0.8787
 1343SOL    HW2 5471   6.260   3.794   1.239  2.7110  0.3634 -2.4107
 1344SOL     OW 5472   0.239   5.814   5.412 -0.2536  0.0094 -0.3041
 1344SOL    HW1 5473   0.315   5.756   5.425 -1.0350 -0.7415  1.1671
 1344SOL    HW2 5474   0.245   5.840   5.320  1.9618  0.2383 -0.1587
 1345SOL     OW 5475   7.020   0.482   5.601  0.4071  0.1748 -0.2491
 1345SOL    HW1 5476   6.928   0.455   5.603  0.5949 -0.5253 -0.6306
 1345SOL    HW2 5477   7.038   0.513   5.689 -0.8945  2.7804 -0.8031
 1346SOL     OW 5478   3.398   1.475   7.290 -0.0252 -0.2662  0.1636
 1346SOL    HW1 5479   3.409   1.381   7.306  0.3042 -0.3270 -0.4204
 1346SOL    HW2 5480   3.339   1.479   7.215 -0.1471 -0.0019  0.2742
 1347SOL     OW 5481   1.546   5.515   4.785  0.0749 -0.3971 -0.1087
 1347SOL    HW1 5482   1.479   5.466   4.832 -0.4897 -1.3843 -1.8922
 1347SOL    HW2 5483   1.623   5.509   4.842 -0.9780 -0.2559  1.3999
 1348SOL     OW 5484   0.022   1.968   1.078  0.4556  0.0032  0.2922
 1348SOL    HW1 5485   0.076   2.037   1.039  0.1993  0.2748  0.4092
 1348SOL    HW2 5486   0.082   1.921   1.137  0.6501  0.0799  0.1574
 1349SOL     OW 5487   3.035   5.083   0.010  0.4344 -0.0282 -0.1499
 1349SOL    HW1 5488   3.127   5.070  -0.013  0.2805 -1.5784 -0.0102
 1349SOL    HW2 5489   3.013   5.009   0.067 -0.3229  1.5054  1.6683
 1350SOL     OW 5490   0.502   7.493   1.401  0.0809  0.0778  0.8019
 1350SOL    HW1 5491   0.452   7.557   1.451 -0.3249  1.1917 -0.9462
 1350SOL    HW2 5492   0.487   7.517   1.310  1.4395 -1.3850  0.1517
 1351SOL     OW 5493   5.070   4.504   9.673  0.7666  0.4893  0.0436
 1351SOL    HW1 5494   4.995   4.538   9.624 -0.5498 -0.1123  1.5503
 1351SOL    HW2 5495   5.086   4.418   9.635  0.4121  0.4351  0.0121
 1352SOL     OW 5496   1.785   1.953   1.230  0.1525  0.4614 -0.2592
 1352SOL    HW1 5497   1.755   2.038   1.198 -1.0445  0.1097 -0.1060
 1352SOL    HW2 5498   1.867   1.972   1.275 -0.9224  1.8003  1.2174
 1353SOL     OW 5499   5.651   2.976   9.019 -0.0935 -0.3188  0.3749
 1353SOL    HW1 5500   5.656   3.012   9.107 -0.6866 -0.8263  0.6192
 1353SOL    HW2 5501   5.724   2.915   9.014  0.0191 -0.1921  0.4631
 1354SOL     OW 5502   0.618   1.543   9.161  0.2624 -0.4239  0.7672
 1354SOL    HW1 5503   0.574   1.610   9.214  1.0058  0.4360  0.3301
 1354SOL    HW2 5504   0.692   1.589   9.121  0.6675 -1.4629  0.2819
 1355SOL     OW 5505   3.004   0.219   6.574 -0.1365 -0.2010 -0.1545
 1355SOL    HW1 5506   2.919   0.263   6.569 -0.4802 -0.8598 -0.3643
 1355SOL    HW2 5507   3.052   0.251   6.497 -0.4468 -0.3111 -0.4004
 1356SOL     OW 5508   4.348   2.332   0.133 -0.2316  0.3576  0.3488
 1356SOL    HW1 5509   4.426   2.387   0.138  0.0634  0.1001 -1.1390
 1356SOL    HW2 5510   4.347   2.287   0.218  1.9259 -0.5275 -0.0096
 1357SOL     OW 5511   3.060   1.210  10.293 -0.4758  0.5402  0.4974
 1357SOL    HW1 5512   2.966   1.221  10.282 -0.4579  1.4276  1.1654
 1357SOL    HW2 5513   3.077   1.120  10.263 -1.8400 -0.3459  2.1926
 1358SOL     OW 5514   2.235   3.259   4.756  0.0253 -0.2434  0.0206
 1358SOL    HW1 5515   2.263   3.212   4.834  1.8622  0.6654 -0.0261
 1358SOL    HW2 5516   2.249   3.352   4.777  0.2778  0.0334 -1.2456
 1359SOL     OW 5517   1.327   1.369   9.708  0.0197  0.4048 -0.2842
 1359SOL    HW1 5518   1.261   1.312   9.669  0.3801 -0.6212  0.5429
 1359SOL    HW2 5519   1.410   1.336   9.675  0.2294  0.4872  0.1472
 1360SOL     OW 5520   1.385   0.752   4.588  0.0765 -0.1188 -0.0572
 1360SOL    HW1 5521   1.408   0.674   4.639 -0.3633 -1.0329 -1.1934
 1360SOL    HW2 5522   1.383   0.721   4.497 -0.7262  1.0712 -0.4711
 1361SOL     OW 5523   1.110   5.429  11.102 -0.5487  0.4120 -0.0562
 1361SOL    HW1 5524   1.179   5.401  11.042  0.6874  0.5829  1.2484
 1361SOL    HW2 5525   1.037   5.369  11.084 -0.3912  0.7461 -2.0170
 1362SOL     OW 5526   0.248   5.325   9.845 -0.2103  0.3890  0.4839
 1362SOL    HW1 5527   0.334   5.362   9.827  0.8238 -1.7974  0.5579
 1362SOL    HW2 5528   0.258   5.281   9.930 -2.5922  3.4222  2.5758
 1363SOL     OW 5529   1.534   1.646  11.532 -0.0760 -0.1072  0.1805
 1363SOL    HW1 5530   1.464   1.664  11.595  0.5894  0.2887  0.8182
 1363SOL    HW2 5531   1.499   1.577  11.476 -1.4775  0.9543 -0.3130
 1364SOL     OW 5532   1.221   6.728   6.991 -0.0609  0.2640 -0.4724
 1364SOL    HW1 5533   1.192   6.792   6.927  0.7699 -0.9182 -2.1075
 1364SOL    HW2 5534   1.253   6.654   6.939  0.6835 -0.7457  1.3051
 1365SOL     OW 5535   7.860   5.963   4.626  0.2687 -0.1416  0.3631
 1365SOL    HW1 5536   7.792   5.969   4.559 -1.8070  1.4267  2.4983
 1365SOL    HW2 5537   7.942   5.972   4.577 -1.0350 -0.9550 -2.1533
 1366SOL     OW 5538   6.967   6.880   7.903 -0.1665  0.2002  0.1655
 1366SOL    HW1 5539   6.983   6.793   7.865 -0.9054  0.2907 -0.3852
 1366SOL    HW2 5540   7.040   6.895   7.962 -0.6044 -1.2903  1.1358
 1367SOL     OW 5541   6.943   0.902   4.281 -0.4314 -0.2308  0.0928
 1367SOL    HW1 5542   6.932   0.855   4.198 -0.8257  0.8982 -0.5222
 1367SOL    HW2 5543   7.032   0.883   4.308 -0.6367 -1.4668 -0.0378
 1368SOL     OW 5544   1.057   3.888   7.633 -0.2667 -0.2965  0.0236
 1368SOL    HW1 5545   0.963   3.882   7.649 -0.5146  0.6575 -0.9012
 1368SOL    HW2 5546   1.072   3.839   7.552 -0.0514 -0.0819 -0.0716
 1369SOL     OW 5547   3.129   0.831   3.662 -0.4768  0.6314 -0.4158
 1369SOL    HW1 5548   3.080   0.823   3.581 -0.4361  0.7399 -0.4524
 1369SOL    HW2 5549   3.156   0.923   3.664  0.0707  0.4763 -0.5982
 1370SOL     OW 5550   7.793   2.871   8.159  0.2186 -0.5963  0.4752
 1370SOL    HW1 5551   7.791   2.834   8.070  0.9868  2.1398 -0.8027
 1370SOL    HW2 5552   7.871   2.833   8.198  1.3504  0.0688 -1.0135
 1371SOL     OW 5553   7.283   2.958   4.488  0.2330 -0.0797  0.7719
 1371SOL    HW1 5554   7.345   2.887   4.477 -0.2006 -0.3337 -0.2000
 1371SOL    HW2 5555   7.333   3.029   4.528  1.4603  0.1109 -0.9770
 1372SOL     OW 5556   4.414   4.921  10.485 -0.7213 -0.1124 -0.2426
 1372SOL    HW1 5557   4.388   4.832  10.461  0.2300 -0.2910 -0.6826
 1372SOL    HW2 5558   4.355   4.946  10.555  0.6905 -2.1248  1.8158
 1373SOL     OW 5559   3.530   6.630  11.248  0.5989 -0.9093 -0.5483
 1373SOL    HW1 5560   3.452   6.656  11.199  1.3645 -0.0668 -1.3685
 1373SOL    HW2 5561   3.510   6.653  11.339  0.3030  0.3654 -0.9045
 1374SOL     OW 5562   4.747   3.785  10.417 -0.7683  0.1255  0.5430
 1374SOL    HW1 5563   4.675   3.809  10.475 -0.2828  0.5574  0.9747
 1374SOL    HW2 5564   4.778   3.869  10.382 -0.9565 -0.1166 -0.2327
 1375SOL     OW 5565   7.706   5.615  10.057 -0.0053  0.2500 -0.1495
 1375SOL    HW1 5566   7.635   5.583  10.003  0.9857 -1.4086 -0.5473
 1375SOL    HW2 5567   7.762   5.539  10.072  0.3497  0.8724  2.3055
 1376SOL     OW 5568   6.109   7.250   0.103 -0.1509 -0.2851 -0.1818
 1376SOL    HW1 5569   6.119   7.335   0.144  1.0826  0.0156 -1.0312
 1376SOL    HW2 5570   6.173   7.194   0.148  0.9518 -0.0438 -1.3750
 1377SOL     OW 5571   1.304   6.562   6.760 -0.2515 -0.0785  0.5071
 1377SOL    HW1 5572   1.252   6.549   6.681 -1.3601  0.0870  1.1965
 1377SOL    HW2 5573   1.395   6.557   6.730 -0.6478 -1.2035 -0.5881
 1378SOL     OW 5574   0.665   7.690   7.240  0.0162 -0.7197  0.3983
 1378SOL    HW1 5575   0.746   7.699   7.190  1.5185 -1.5360  2.5285
 1378SOL    HW2 5576   0.678   7.612   7.293 -2.4198 -1.1805  0.4175
 1379SOL     OW 5577   5.833   4.657  12.060  0.2220  0.2796  0.3852
 1379SOL    HW1 5578   5.771   4.709  12.008  2.2401 -1.2004 -3.9120
 1379SOL    HW2 5579   5.779   4.589  12.099 -1.3633  1.2230 -0.0532
 1380SOL     OW 5580   4.278   3.870  11.757  0.1638 -0.1363 -0.1486
 1380SOL    HW1 5581   4.265   3.934  11.687  3.1854  0.1566 -0.5841
 1380SOL    HW2 5582   4.362   3.895  11.797  2.2923 -4.5415 -1.2465
 1381SOL     OW 5583   5.837   5.537   5.152 -0.4782  0.1660 -0.1534
 1381SOL    HW1 5584   5.917   5.572   5.113 -0.4579  1.6263  1.0699
 1381SOL    HW2 5585   5.868   5.479   5.222 -0.4803  0.3192 -0.0241
 1382SOL     OW 5586   7.916   3.359   3.401  0.6951 -0.7183 -0.1001
 1382SOL    HW1 5587   7.921   3.454   3.415  0.2853 -0.4774 -1.4294
 1382SOL    HW2 5588   7.965   3.322   3.474  0.2194  0.4772  0.8679
 1383SOL     OW 5589   5.951   2.343   6.250 -0.0480  0.3863  0.2102
 1383SOL    HW1 5590   6.045   2.348   6.261 -0.0167  1.9893 -0.4945
 1383SOL    HW2 5591   5.918   2.428   6.280 -1.2940 -0.2582  0.7296
 1384SOL     OW 5592   6.884   5.783  11.063  0.4088  0.2612  0.5701
 1384SOL    HW1 5593   6.904   5.689  11.062  1.5963  0.4903 -0.7603
 1384SOL    HW2 5594   6.932   5.818  10.988 -1.7404  1.5999 -0.2553
 1385SOL     OW 5595   3.438   4.289   9.472 -0.4836 -0.1903  0.8333
 1385SOL    HW1 5596   3.437   4.372   9.425 -0.5335  0.4565  1.9484
 1385SOL    HW2 5597   3.520   4.289   9.521  0.6862 -1.8870 -0.9792
 1386SOL     OW 5598   2.497   3.280   0.185  0.0156 -0.0524 -0.3509
 1386SOL    HW1 5599   2.527   3.253   0.098  1.0877 -0.7456  0.2178
 1386SOL    HW2 5600   2.574   3.272   0.241 -0.7288  0.1256  0.7331
 1387SOL     OW 5601   3.870   7.343   5.028  0.4401 -0.3197 -0.4467
 1387SOL    HW1 5602   3.809   7.271   5.015  1.5887 -1.3169 -0.4380
 1387SOL    HW2 5603   3.882   7.348   5.123 -0.6620  0.7885 -0.3342
 1388SOL     OW 5604   6.167   0.667   0.968  0.4188  0.1395  0.1165
 1388SOL    HW1 5605   6.140   0.619   0.890  0.2608 -0.0495  0.2860
 1388SOL    HW2 5606   6.091   0.664   1.026  0.3135  0.8152  0.0290
 1389SOL     OW 5607   3.216   3.263  12.388  0.0959  0.1667 -0.1878
 1389SOL    HW1 5608   3.203   3.285  12.296 -0.4857 -1.1557 -0.4438
 1389SOL    HW2 5609   3.140   3.301  12.433 -1.1228 -1.5721 -0.6837
 1390SOL     OW 5610   7.131   5.133   3.670  0.7146 -0.5710  0.4225
 1390SOL    HW1 5611   7.157   5.072   3.601 -1.1173  0.9091 -1.6992
 1390SOL    HW2 5612   7.051   5.095   3.706  1.1358 -0.8376  1.0995
 1391SOL     OW 5613   4.834   7.127   0.190  0.3548 -0.5416  0.1262
 1391SOL    HW1 5614   4.853   7.169   0.106  0.0198  1.6907  1.0883
 1391SOL    HW2 5615   4.819   7.200   0.250  1.7963 -2.0087  2.4357
 1392SOL     OW 5616   0.608   7.778   8.211  0.1475  0.3591  0.3089
 1392SOL    HW1 5617   0.521   7.741   8.203  0.7623 -0.9114 -1.0914
 1392SOL    HW2 5618   0.635   7.760   8.301 -0.2601 -1.0828  0.1664
 1393SOL     OW 5619   1.340   3.113   7.158 -0.1939 -0.0079 -0.0005
 1393SOL    HW1 5620   1.401   3.185   7.170 -0.9408  0.8504 -1.1075
 1393SOL    HW2 5621   1.378   3.060   7.088 -0.8436  0.6906 -0.8950
 1394SOL     OW 5622   2.340   2.512  10.287  0.5340  0.5776  0.4069
 1394SOL    HW1 5623   2.335   2.608  10.285  0.8674  0.5776 -0.5275
 1394SOL    HW2 5624   2.248   2.484  10.291  0.4470  0.9311  1.1569
 1395SOL     OW 5625   6.302   5.499   7.700 -0.4285  0.0786 -0.3832
 1395SOL    HW1 5626   6.365   5.429   7.686  1.1272  1.4268 -0.4801
 1395SOL    HW2 5627   6.252   5.472   7.777  0.5291 -0.8507 -0.0693
 1396SOL     OW 5628   1.431   6.593   6.217 -0.2900  0.3684 -0.3273
 1396SOL    HW1 5629   1.526   6.598   6.212 -0.2035 -0.8835 -0.2756
 1396SOL    HW2 5630   1.402   6.684   6.210  0.9351  0.8429  0.4003
 1397SOL     OW 5631   0.759   4.719   0.470 -0.1431 -0.3562 -0.0075
 1397SOL    HW1 5632   0.839   4.711   0.417  1.2799  2.1202  1.6100
 1397SOL    HW2 5633   0.752   4.635   0.515  1.9315 -0.4472  0.2629
 1398SOL     OW 5634   4.941   5.960   4.396 -0.6672 -0.6180  0.0572
 1398SOL    HW1 5635   4.856   5.979   4.356 -1.8769  0.0539  2.7131
 1398SOL    HW2 5636   4.978   6.045   4.416  0.7559 -0.9048 -1.1574
 1399SOL     OW 5637   2.444   7.858   4.654  0.0722  0.5006 -0.3182
 1399SOL    HW1 5638   2.481   7.936   4.613 -1.1393  1.0475 -0.4305
 1399SOL    HW2 5639   2.351   7.878   4.664 -0.7594 -1.8040 -2.4076
 1400SOL     OW 5640   7.636   0.611   8.231 -0.3395 -0.0513 -0.4753
 1400SOL    HW1 5641   7.592   0.692   8.207 -0.2913 -0.0730 -0.6385
 1400SOL    HW2 5642   7.660   0.571   8.147 -0.5081 -0.3135 -0.4014
 1401SOL     OW 5643   4.937   4.490  11.964 -0.3895 -0.6056 -0.6205
 1401SOL    HW1 5644   4.901   4.412  11.921 -0.1000 -0.2805 -1.4926
 1401SOL    HW2 5645   4.980   4.537  11.893 -0.2138  0.1464 -0.0199
 1402SOL     OW 5646   5.459   0.405   0.192  0.1071 -0.5473  0.2002
 1402SOL    HW1 5647   5.432   0.456   0.268  0.7827 -0.1356  0.1676
 1402SOL    HW2 5648   5.461   0.315   0.223  0.6878 -0.3457  0.7630
 1403SOL     OW 5649   2.008   2.830  10.721 -0.4840 -0.0351 -0.7329
 1403SOL    HW1 5650   1.952   2.850  10.646  2.7481  0.7988 -3.1724
 1403SOL    HW2 5651   2.087   2.882  10.706  0.6055 -0.3228  3.0016
 1404SOL     OW 5652   3.693   6.130   2.360 -0.8152 -0.0118  0.1499
 1404SOL    HW1 5653   3.782   6.106   2.385 -0.7328  0.7449  0.6022
 1404SOL    HW2 5654   3.637   6.082   2.422 -0.6375  1.2403  1.3341
 1405SOL     OW 5655   2.602   6.362  11.864  0.5385 -0.6056  0.1901
 1405SOL    HW1 5656   2.662   6.336  11.794  0.1532 -1.3863  0.1388
 1405SOL    HW2 5657   2.659   6.386  11.937  0.9185 -0.9382  0.0041
 1406SOL     OW 5658   7.374   0.194   1.432  0.0623  0.9054  0.2742
 1406SOL    HW1 5659   7.412   0.161   1.351 -1.8233 -0.2546 -0.2011
 1406SOL    HW2 5660   7.307   0.257   1.403 -3.4193 -2.3361  0.5401
 1407SOL     OW 5661   0.143   3.292   5.602 -0.2241 -0.4762  0.3346
 1407SOL    HW1 5662   0.061   3.251   5.629  0.3545 -1.8778  0.0141
 1407SOL    HW2 5663   0.206   3.220   5.595  0.8044  0.4459 -0.3121
 1408SOL     OW 5664   7.080   3.129   7.751  0.7380 -0.2000  0.1439
 1408SOL    HW1 5665   7.113   3.054   7.801  0.3549  0.3901  1.3371
 1408SOL    HW2 5666   7.157   3.184   7.737  0.8365 -0.3351  0.1560
 1409SOL     OW 5667   4.725   6.514   0.938  0.7368 -0.3733  0.1537
 1409SOL    HW1 5668   4.782   6.567   0.882  3.0870  0.6207  3.2190
 1409SOL    HW2 5669   4.706   6.436   0.885  2.3574  0.6891 -2.1756
 1410SOL     OW 5670   4.887   4.368   8.173 -0.2989  0.2414 -0.5134
 1410SOL    HW1 5671   4.887   4.319   8.255 -1.0590  0.2947 -0.4810
 1410SOL    HW2 5672   4.967   4.339   8.129  0.9119  1.3085  0.8855
 1411SOL     OW 5673   1.660   5.324   2.261 -0.1281  0.0034  0.8723
 1411SOL    HW1 5674   1.642   5.231   2.247  1.2037 -0.0634 -0.8506
 1411SOL    HW2 5675   1.600   5.369   2.202  1.3904  0.0261 -0.7558
 1412SOL     OW 5676   5.423   4.709  11.658 -0.1009  0.1882  0.3742
 1412SOL    HW1 5677   5.412   4.614  11.657 -0.3053  0.1349 -2.8171
 1412SOL    HW2 5678   5.404   4.737  11.569  1.1250  3.1154  0.8850
 1413SOL     OW 5679   0.602   5.660  11.393 -0.2342 -0.0681  0.1688
 1413SOL    HW1 5680   0.612   5.685  11.485 -1.4589 -2.1682  0.9424
 1413SOL    HW2 5681   0.655   5.581  11.385  0.0731  0.2469 -1.0197
 1414SOL     OW 5682   2.888   4.837   2.335  0.6462 -0.1614  0.1211
 1414SOL    HW1 5683   2.983   4.835   2.347  0.6211  0.5027  0.5426
 1414SOL    HW2 5684   2.866   4.931   2.335  0.2635 -0.1830 -2.3795
 1415SOL     OW 5685   1.252   1.938   5.130  0.0003  0.5523  0.4576
 1415SOL    HW1 5686   1.186   1.930   5.061  2.2866  1.8701 -2.0160
 1415SOL    HW2 5687   1.225   2.016   5.179 -1.5048 -0.2555  1.0084
 1416SOL     OW 5688   2.732   3.442   5.331 -0.1554 -0.5207  0.3319
 1416SOL    HW1 5689   2.763   3.371   5.388 -0.3102 -2.7857 -2.1729
 1416SOL    HW2 5690   2.806   3.502   5.324  0.8278 -1.6634  0.7192
 1417SOL     OW 5691   7.432   4.597   4.223  0.0908  0.0456  0.4788
 1417SOL    HW1 5692   7.432   4.692   4.233 -1.2065 -0.0887  2.2722
 1417SOL    HW2 5693   7.517   4.569   4.257  1.5918  0.6829 -2.4480
 1418SOL     OW 5694   1.860   5.528   8.062 -0.2881  0.3346  0.8590
 1418SOL    HW1 5695   1.848   5.619   8.033  0.2907 -0.1898 -1.1837
 1418SOL    HW2 5696   1.953   5.521   8.080 -0.1525 -0.0985  0.0364
 1419SOL     OW 5697   4.102   0.571   3.517  0.2421  0.0319 -0.2836
 1419SOL    HW1 5698   4.058   0.492   3.547 -0.8211  1.6798  3.0611
 1419SOL    HW2 5699   4.057   0.596   3.437 -1.3157 -1.2657  0.1452
 1420SOL     OW 5700   2.931   3.912  10.319  0.1645 -0.6504  0.3089
 1420SOL    HW1 5701   3.019   3.872  10.321 -0.7949 -2.9267  0.3010
 1420SOL    HW2 5702   2.874   3.845  10.356 -1.5591  0.8920  0.5642
 1421SOL     OW 5703   5.384   1.454   9.724  0.2038 -0.0552  0.3242
 1421SOL    HW1 5704   5.389   1.512   9.648 -1.8550  0.4056  0.4919
 1421SOL    HW2 5705   5.454   1.485   9.782 -0.1249  1.5204 -0.0773
 1422SOL     OW 5706   1.782   2.441  10.620  0.5317  0.2278  0.8940
 1422SOL    HW1 5707   1.710   2.491  10.656  0.8482  1.6176 -0.3343
 1422SOL    HW2 5708   1.742   2.360  10.588 -0.3933  0.7663  0.6758
 1423SOL     OW 5709   2.750   2.107   4.203  0.0270  0.3327  0.1024
 1423SOL    HW1 5710   2.808   2.035   4.229 -0.4357  0.4309  1.4652
 1423SOL    HW2 5711   2.711   2.077   4.120  1.4168 -0.0568 -0.4425
 1424SOL     OW 5712   1.214   3.252   7.655 -0.5066 -0.2001  0.0637
 1424SOL    HW1 5713   1.166   3.329   7.686 -0.4245  1.2460 -3.0704
 1424SOL    HW2 5714   1.305   3.283   7.646 -0.4370 -0.6960 -1.0266
 1425SOL     OW 5715   1.680   7.916   9.802 -0.1196  0.5817  0.5101
 1425SOL    HW1 5716   1.761   7.949   9.841 -0.1477  1.1462  0.1009
 1425SOL    HW2 5717   1.624   7.994   9.795 -1.1448 -0.0067  1.8841
 1426SOL     OW 5718   2.632   4.121   5.746  0.5950  0.6779  0.0227
 1426SOL    HW1 5719   2.694   4.050   5.760  0.4924  0.6426  0.3082
 1426SOL    HW2 5720   2.552   4.078   5.716  0.3780  0.6278  0.6723
 1427SOL     OW 5721   3.160   7.391   7.613 -0.4763  0.4478  0.0043
 1427SOL    HW1 5722   3.179   7.460   7.550 -3.8856  1.4487 -0.1200
 1427SOL    HW2 5723   3.172   7.309   7.564  1.1864  1.0253 -0.5895
 1428SOL     OW 5724   3.273   6.454  11.577  0.4165  0.4026 -0.4728
 1428SOL    HW1 5725   3.182   6.431  11.597  0.4812 -1.1853 -1.7855
 1428SOL    HW2 5726   3.269   6.546  11.551 -0.6011  0.7132  0.6948
 1429SOL     OW 5727   7.066   6.187   3.886  0.1560 -0.2379 -0.7527
 1429SOL    HW1 5728   7.027   6.254   3.830  1.4553 -0.2939 -1.7652
 1429SOL    HW2 5729   7.058   6.222   3.974 -0.7268  0.4616 -1.0936
 1430SOL     OW 5730   6.452   4.301   7.796 -0.4963  0.3517 -0.2208
 1430SOL    HW1 5731   6.534   4.252   7.782  0.1607  1.4110 -0.1929
 1430SOL    HW2 5732   6.394   4.238   7.837  0.7957 -0.0387  1.1126
 1431SOL     OW 5733   2.356   5.443   1.451 -0.3674  0.7052 -0.6188
 1431SOL    HW1 5734   2.266   5.426   1.424 -0.3647  0.1382 -0.2979
 1431SOL    HW2 5735   2.353   5.527   1.495 -0.9058  0.2913  0.1533
 1432SOL     OW 5736   2.550   7.334  11.612 -0.2881 -0.3304  0.6052
 1432SOL    HW1 5737   2.549   7.351  11.518  1.6994  1.0194  0.7669
 1432SOL    HW2 5738   2.615   7.264  11.623 -0.3562 -0.3366  0.9862
 1433SOL     OW 5739   1.801   0.271   0.912 -0.7537 -0.1429 -0.3006
 1433SOL    HW1 5740   1.815   0.276   0.818  0.8384 -1.2087 -0.1509
 1433SOL    HW2 5741   1.733   0.336   0.930 -0.9362  0.2079 -2.1438
 1434SOL     OW 5742   6.477   0.139   1.871 -0.2676 -0.5520 -0.9609
 1434SOL    HW1 5743   6.411   0.194   1.830  0.7620  1.2054 -0.4040
 1434SOL    HW2 5744   6.446   0.126   1.961 -1.6167 -2.8645 -1.6735
 1435SOL     OW 5745   6.686   6.065   8.339  0.2858 -0.0335 -0.2635
 1435SOL    HW1 5746   6.698   5.999   8.271  1.3020  0.7363 -0.8459
 1435SOL    HW2 5747   6.596   6.096   8.327  0.8397  1.0085 -2.1144
 1436SOL     OW 5748   4.807   4.811   8.672 -0.0937 -0.5635 -0.5630
 1436SOL    HW1 5749   4.727   4.799   8.622  0.3989  1.4035 -1.9459
 1436SOL    HW2 5750   4.862   4.736   8.648 -0.2180 -0.1295 -2.3241
 1437SOL     OW 5751   4.302   0.450   0.779  0.6273 -0.4876 -0.2581
 1437SOL    HW1 5752   4.267   0.384   0.719 -0.0609 -0.3146 -0.0529
 1437SOL    HW2 5753   4.396   0.452   0.760  0.5408 -1.0083 -0.7673
 1438SOL     OW 5754   7.817   6.563  10.019  0.0708 -0.1503  0.3324
 1438SOL    HW1 5755   7.765   6.483  10.029  0.5871 -0.6384 -0.6900
 1438SOL    HW2 5756   7.886   6.555  10.085 -0.2783 -0.2185  0.6907
 1439SOL     OW 5757   5.657   4.954   0.405 -0.2366  0.1031 -0.2265
 1439SOL    HW1 5758   5.694   5.042   0.411  1.1228 -0.4834  0.6082
 1439SOL    HW2 5759   5.724   4.897   0.443 -1.8879 -1.0865  1.0586
 1440SOL     OW 5760   5.281   4.929   5.163 -0.3296 -0.4353  0.0291
 1440SOL    HW1 5761   5.288   5.000   5.227 -0.7152 -0.3404 -0.0326
 1440SOL    HW2 5762   5.191   4.897   5.172 -0.0226 -1.2336  0.3894
 1441SOL     OW 5763   4.394   1.127  10.062  0.5547  0.0332 -0.0614
 1441SOL    HW1 5764   4.435   1.089   9.984 -1.5950  0.6180 -1.5853
 1441SOL    HW2 5765   4.445   1.093  10.135  2.6737 -0.5547 -1.7067
 1442SOL     OW 5766   3.090   0.020   5.134  0.1036  0.5856  0.4226
 1442SOL    HW1 5767   3.052  -0.056   5.091  1.7324  0.8972 -1.7099
 1442SOL    HW2 5768   3.017   0.081   5.144 -1.2826 -1.2230  2.3499
 1443SOL     OW 5769   7.314   3.276  10.702 -0.0408 -1.0347 -0.6736
 1443SOL    HW1 5770   7.221   3.261  10.683 -0.1186 -0.6928 -0.5497
 1443SOL    HW2 5771   7.317   3.360  10.747  0.3284 -1.0502 -0.6661
 1444SOL     OW 5772   7.670   7.822   9.719 -0.3748 -0.1856  0.3673
 1444SOL    HW1 5773   7.656   7.733   9.751 -1.1404 -0.0141  0.5115
 1444SOL    HW2 5774   7.751   7.815   9.667 -2.6708 -2.0425 -3.4636
 1445SOL     OW 5775   2.564   5.080   3.054 -0.1498  0.2873 -0.4427
 1445SOL    HW1 5776   2.510   5.159   3.049  0.8096  0.9849 -0.1495
 1445SOL    HW2 5777   2.553   5.049   3.144  0.7574  1.0454 -0.0553
 1446SOL     OW 5778   4.164   7.251   6.058  0.2607  0.3693 -0.0642
 1446SOL    HW1 5779   4.156   7.325   6.117  0.3397 -1.1466  1.9581
 1446SOL    HW2 5780   4.074   7.220   6.046  0.1886  0.9707 -1.1909
 1447SOL     OW 5781   6.722   3.459   6.887 -0.0663  0.5236  0.0826
 1447SOL    HW1 5782   6.754   3.548   6.899  0.0723  0.9676 -2.8923
 1447SOL    HW2 5783   6.756   3.432   6.802 -1.6415 -1.7155  0.0602
 1448SOL     OW 5784   5.035   4.408   9.000  0.4716  0.1719  0.5526
 1448SOL    HW1 5785   5.064   4.367   8.918  0.2577 -0.6182  0.8621
 1448SOL    HW2 5786   4.941   4.388   9.004 -0.0035  2.1002 -0.0921
 1449SOL     OW 5787   7.688   1.951   6.704 -0.1907 -0.4426  0.1664
 1449SOL    HW1 5788   7.667   1.916   6.790  1.9393 -2.9134 -0.1781
 1449SOL    HW2 5789   7.629   1.906   6.644  0.9069 -1.7232 -0.0093
 1450SOL     OW 5790   6.968   3.933   8.553  0.4139  0.2600  0.2308
 1450SOL    HW1 5791   7.024   3.964   8.481  2.1970 -0.0807  1.4017
 1450SOL    HW2 5792   6.955   4.011   8.607 -0.4606  0.3879 -0.1536
 1451SOL     OW 5793   3.262   5.848   8.345 -0.2230 -0.2925 -0.7594
 1451SOL    HW1 5794   3.240   5.931   8.302 -0.4309  1.1041  1.8667
 1451SOL    HW2 5795   3.353   5.831   8.318  1.1251  2.7122  1.3072
 1452SOL     OW 5796   4.282   5.296   5.728 -0.0919 -0.3167  0.2815
 1452SOL    HW1 5797   4.256   5.206   5.709 -1.9765  0.1699  0.2861
 1452SOL    HW2 5798   4.355   5.288   5.789  0.1257 -1.8278 -0.1229
 1453SOL     OW 5799   7.678   2.071   0.305  0.3250  0.1586  0.4051
 1453SOL    HW1 5800   7.702   2.161   0.284  0.6140  0.0706  0.3514
 1453SOL    HW2 5801   7.584   2.067   0.291  0.5674 -0.0180 -1.3456
 1454SOL     OW 5802   6.781   5.036   2.012  0.3549  0.8510  0.4297
 1454SOL    HW1 5803   6.772   5.079   1.927  0.5625  0.1005  0.0155
 1454SOL    HW2 5804   6.805   4.945   1.991  2.3454  1.1124  1.2934
 1455SOL     OW 5805   1.188   0.334  12.267  0.7177  0.3537 -0.4606
 1455SOL    HW1 5806   1.186   0.263  12.331 -0.2787  0.4635 -0.3574
 1455SOL    HW2 5807   1.163   0.291  12.185 -1.9477  0.9226 -0.0283
 1456SOL     OW 5808   4.075   3.220   1.842  0.5075 -0.3098 -0.0665
 1456SOL    HW1 5809   4.122   3.301   1.821  0.0980  0.1380  0.7213
 1456SOL    HW2 5810   4.087   3.209   1.936 -1.7137  0.2984  0.3336
 1457SOL     OW 5811   0.749   6.225   2.255  0.2147 -0.3524 -0.7435
 1457SOL    HW1 5812   0.728   6.213   2.162  0.1799 -0.8146 -0.6760
 1457SOL    HW2 5813   0.724   6.316   2.272  1.9017  0.3133 -1.6218
 1458SOL     OW 5814   5.553   7.165   1.898 -0.3155 -0.1734  0.4679
 1458SOL    HW1 5815   5.596   7.094   1.946  0.1983 -0.8897 -0.9704
 1458SOL    HW2 5816   5.460   7.146   1.904 -0.3030  0.1123  1.7011
 1459SOL     OW 5817   0.133   2.073   4.069 -0.2516  0.2396  0.4502
 1459SOL    HW1 5818   0.157   2.064   3.977 -1.0399 -0.6489  0.3240
 1459SOL    HW2 5819   0.065   2.007   4.084  0.5264 -0.2988  1.8972
 1460SOL     OW 5820   5.776   5.007   9.416  0.2965  0.1097  0.2916
 1460SOL    HW1 5821   5.715   4.943   9.381  0.8560 -1.1019  1.4368
 1460SOL    HW2 5822   5.861   4.980   9.384  0.4278  0.9281 -0.0840
 1461SOL     OW 5823   5.047   2.347   2.992  0.0789 -0.2687  0.2030
 1461SOL    HW1 5824   5.044   2.440   3.015 -1.4095 -0.5473  1.2664
 1461SOL    HW2 5825   5.137   2.334   2.960  0.5192  1.3781  0.6301
 1462SOL     OW 5826   3.690   7.843   0.671 -0.0594  0.0463 -0.0798
 1462SOL    HW1 5827   3.659   7.810   0.587  1.1336  1.3547 -1.0779
 1462SOL    HW2 5828   3.718   7.765   0.719  1.5747 -0.5599 -1.8961
 1463SOL     OW 5829   7.234   6.262   3.455  0.4016 -0.4275 -0.3801
 1463SOL    HW1 5830   7.218   6.339   3.400  0.2519  0.2438  0.5649
 1463SOL    HW2 5831   7.161   6.203   3.434  0.1299 -0.0179 -0.6180
 1464SOL     OW 5832   1.033   5.049   6.933  0.3466 -0.5172 -0.0342
 1464SOL    HW1 5833   1.093   4.975   6.920 -0.1948 -0.9415 -0.1424
 1464SOL    HW2 5834   1.044   5.102   6.855  1.2304 -0.1242  0.3408
 1465SOL     OW 5835   6.331   0.852   6.394 -0.0412  0.3829  0.1848
 1465SOL    HW1 5836   6.390   0.925   6.374 -0.5398  0.8852  0.5133
 1465SOL    HW2 5837   6.380   0.774   6.368  0.3360  0.8577 -0.5539
 1466SOL     OW 5838   5.546   4.149   3.151  0.0880  0.4551  0.3451
 1466SOL    HW1 5839   5.531   4.185   3.064  0.9227 -0.2719 -0.1199
 1466SOL    HW2 5840   5.459   4.129   3.185 -0.4289  2.7843  0.6054
 1467SOL     OW 5841   2.044   2.853   5.824 -0.3289  0.3606  0.0245
 1467SOL    HW1 5842   2.023   2.782   5.885  1.5811 -0.6812 -0.4333
 1467SOL    HW2 5843   2.078   2.923   5.881 -1.5813  0.6698  0.4177
 1468SOL     OW 5844   7.380   1.621   6.231  0.8515  0.3037 -0.3446
 1468SOL    HW1 5845   7.439   1.562   6.279  2.1245  0.9120 -1.0933
 1468SOL    HW2 5846   7.419   1.626   6.143  0.0753  1.2959 -0.6473
 1469SOL     OW 5847   3.439   1.862   2.127 -0.1772  0.8657  0.1041
 1469SOL    HW1 5848   3.518   1.830   2.082 -0.4827 -0.2253  0.3283
 1469SOL    HW2 5849   3.473   1.910   2.202  0.2862  0.4467  0.1723
 1470SOL     OW 5850   2.766   2.068   3.935  0.4999 -0.6821 -0.5415
 1470SOL    HW1 5851   2.850   2.027   3.916  0.2479 -1.1569 -0.6385
 1470SOL    HW2 5852   2.706   1.995   3.950  0.8292 -0.3822  2.9469
 1471SOL     OW 5853   0.812   5.575   3.357 -0.3918 -0.1013 -0.2749
 1471SOL    HW1 5854   0.749   5.554   3.426 -2.1360 -0.7608 -1.9693
 1471SOL    HW2 5855   0.800   5.668   3.341  2.2941  0.8895  2.3519
 1472SOL     OW 5856   0.182   4.966   3.708 -0.5340 -0.0638 -0.4555
 1472SOL    HW1 5857   0.183   5.037   3.772  0.6283 -0.7425  0.3230
 1472SOL    HW2 5858   0.135   5.001   3.633 -2.2530  0.6561  0.8872
 1473SOL     OW 5859   4.102   7.741   5.961  0.3046 -0.1902  0.5636
 1473SOL    HW1 5860   4.117   7.749   5.866 -1.1138 -0.1022  0.3257
 1473SOL    HW2 5861   4.143   7.819   5.998 -0.6855  0.7396 -0.1960
 1474SOL     OW 5862   1.550   7.456   0.826  0.7488  0.0258  0.1313
 1474SOL    HW1 5863   1.484   7.460   0.757 -1.4736  1.2267  2.1717
 1474SOL    HW2 5864   1.537   7.369   0.866  1.5226 -0.3690 -0.4497
 1475SOL     OW 5865   1.555   0.799   3.091  0.1782 -0.1992  0.3980
 1475SOL    HW1 5866   1.490   0.862   3.123  0.4200 -1.1854  2.9899
 1475SOL    HW2 5867   1.620   0.854   3.047 -0.6306  1.1606  0.8245
 1476SOL     OW 5868   2.989   0.930   7.548  0.5572  0.1641  0.6107
 1476SOL    HW1 5869   2.895   0.909   7.553  0.8567 -1.8092 -0.7663
 1476SOL    HW2 5870   3.018   0.930   7.639 -0.7087  0.5290  1.0434
 1477SOL     OW 5871   4.012   1.860   0.289  0.4009  0.9067 -0.0981
 1477SOL    HW1 5872   4.036   1.953   0.286 -1.3594  1.3984 -0.1559
 1477SOL    HW2 5873   3.920   1.860   0.315  0.6394 -0.8889  0.8682
 1478SOL     OW 5874   2.357   4.614   0.606  0.1997  0.3111  0.6405
 1478SOL    HW1 5875   2.367   4.624   0.700 -0.7047  1.4883  0.6281
 1478SOL    HW2 5876   2.300   4.686   0.579  0.0715 -0.2649 -0.7425
 1479SOL     OW 5877   1.096   5.424   5.412  0.3268  0.0883 -0.4814
 1479SOL    HW1 5878   1.018   5.446   5.362 -0.3050 -0.1199  0.3743
 1479SOL    HW2 5879   1.092   5.328   5.421  0.5954  0.0930 -0.3005
 1480SOL     OW 5880   5.314   4.458  10.617  0.6045  0.0632  0.2237
 1480SOL    HW1 5881   5.377   4.387  10.626  1.3251  0.6403 -0.0844
 1480SOL    HW2 5882   5.367   4.538  10.623 -0.2874  0.5995  1.4194
 1481SOL     OW 5883   6.053   0.945   6.191 -0.2554  0.2201 -0.2826
 1481SOL    HW1 5884   6.017   0.883   6.254 -1.2337  1.3505  0.2938
 1481SOL    HW2 5885   6.002   0.930   6.111  1.4238 -1.6804 -1.1104
 1482SOL     OW 5886   2.556   0.839   8.870 -0.1900  0.2370 -0.3287
 1482SOL    HW1 5887   2.637   0.889   8.862  1.2605 -1.6317  1.4737
 1482SOL    HW2 5888   2.527   0.825   8.780  1.6840  0.6754 -1.0473
 1483SOL     OW 5889   5.363   1.973  10.606  0.1157 -0.0001 -0.0038
 1483SOL    HW1 5890   5.332   2.063  10.601  3.3357  1.2424 -0.4008
 1483SOL    HW2 5891   5.411   1.968  10.688  0.0399 -1.3586 -0.0130
 1484SOL     OW 5892   1.108   7.463   4.373 -0.1260 -0.0559 -0.5200
 1484SOL    HW1 5893   1.126   7.402   4.444  0.0347 -1.4179 -1.6741
 1484SOL    HW2 5894   1.150   7.545   4.399  1.1238 -0.9363  0.3221
 1485SOL     OW 5895   6.459   4.345   3.788 -0.3343  0.1958 -0.0437
 1485SOL    HW1 5896   6.478   4.254   3.809 -0.1657  0.1316 -0.4653
 1485SOL    HW2 5897   6.386   4.340   3.725 -0.9983  0.3937  0.6967
 1486SOL     OW 5898   6.139   5.517  10.305  0.6388 -0.3705 -0.0746
 1486SOL    HW1 5899   6.111   5.500  10.395  1.4560 -1.2391  0.0263
 1486SOL    HW2 5900   6.204   5.450  10.286 -0.1711 -0.7722 -1.6419
 1487SOL     OW 5901   2.417   0.354   1.977  0.0816 -0.3835  0.2037
 1487SOL    HW1 5902   2.388   0.263   1.977  1.6469 -0.9524  2.0797
 1487SOL    HW2 5903   2.506   0.351   1.943 -0.2709  0.6349 -0.8517
 1488SOL     OW 5904   0.451   7.640   1.630 -0.0252 -0.2505 -0.1248
 1488SOL    HW1 5905   0.399   7.682   1.698 -0.7165 -0.1925 -0.6728
 1488SOL    HW2 5906   0.451   7.547   1.653 -1.5461 -0.4705 -0.8273
 1489SOL     OW 5907   6.034   2.614   6.668 -0.0521  0.2871 -0.1040
 1489SOL    HW1 5908   6.097   2.542   6.670  0.5416  0.8232  0.6889
 1489SOL    HW2 5909   6.075   2.680   6.613  0.1581  0.7045  0.5464
 1490SOL     OW 5910   3.904   4.422   1.866  0.0723  0.1367 -0.0984
 1490SOL    HW1 5911   3.969   4.489   1.888  1.3743 -1.1304  0.0215
 1490SOL    HW2 5912   3.935   4.343   1.910 -2.6128 -0.0763  1.6701
 1491SOL     OW 5913   7.921   6.833   7.930  0.0115 -1.0649  0.2743
 1491SOL    HW1 5914   7.888   6.774   7.862  0.2108  0.8993 -1.6314
 1491SOL    HW2 5915   7.851   6.898   7.941  0.2980 -0.9316  1.4292
 1492SOL     OW 5916   2.336   4.900  12.175  0.4279 -0.2805 -0.5718
 1492SOL    HW1 5917   2.272   4.962  12.138  1.1164  0.4738 -0.5206
 1492SOL    HW2 5918   2.338   4.921  12.269  0.1353 -0.8645 -0.4363
 1493SOL     OW 5919   3.598   7.382   0.406  0.3675  0.4063  0.4619
 1493SOL    HW1 5920   3.562   7.470   0.420  0.1091  0.2170  1.0132
 1493SOL    HW2 5921   3.626   7.382   0.315  0.2385  1.0158  0.4166
 1494SOL     OW 5922   4.895   2.586   3.344  0.0601  0.1421 -0.1860
 1494SOL    HW1 5923   4.949   2.510   3.322  0.8576  1.1359 -1.8391
 1494SOL    HW2 5924   4.810   2.549   3.367  0.3547 -1.2524 -1.2122
 1495SOL     OW 5925   1.609   6.683  11.248  0.6840 -0.0635  0.1922
 1495SOL    HW1 5926   1.678   6.680  11.181  1.4012 -0.8241  0.9464
 1495SOL    HW2 5927   1.656   6.674  11.331 -0.3040 -0.2409  0.7378
 1496SOL     OW 5928   0.849   3.955   4.371 -0.0263 -0.3257 -0.2307
 1496SOL    HW1 5929   0.822   4.043   4.398  1.3408  0.6913 -1.9432
 1496SOL    HW2 5930   0.776   3.899   4.395  0.0738  0.7871  3.2754
 1497SOL     OW 5931   0.709   3.517   2.957 -0.2575 -0.1114 -0.5847
 1497SOL    HW1 5932   0.643   3.586   2.970  1.4348  1.3821  0.5579
 1497SOL    HW2 5933   0.711   3.504   2.862 -1.5067  0.4850 -0.7155
 1498SOL     OW 5934   5.635   0.767   4.531 -0.2534 -0.9672 -0.0661
 1498SOL    HW1 5935   5.584   0.848   4.539 -1.7012 -1.8033 -0.3662
 1498SOL    HW2 5936   5.683   0.761   4.613 -2.9203 -1.5928  1.5761
 1499SOL     OW 5937   1.141   3.190   3.716  0.7215 -0.4414 -0.3426
 1499SOL    HW1 5938   1.158   3.259   3.651 -1.7691  0.1227 -0.5078
 1499SOL    HW2 5939   1.147   3.236   3.801 -0.7440 -0.0149 -0.4436
 1500SOL     OW 5940   0.809   6.827  12.262  0.3894 -0.3201  0.5338
 1500SOL    HW1 5941   0.823   6.757  12.326 -1.5778 -0.0683  1.3031
 1500SOL    HW2 5942   0.770   6.898  12.313 -0.3224  0.2463 -0.7644
 1501SOL     OW 5943   1.070   2.048   2.698  0.2740 -0.3106  0.3693
 1501SOL    HW1 5944   1.041   2.011   2.781 -0.7577 -0.4197 -0.0260
 1501SOL    HW2 5945   1.068   1.973   2.637 -0.9643  0.1793 -0.2260
 1502SOL     OW 5946   2.566   6.652   3.881  0.4064  0.2229  0.2629
 1502SOL    HW1 5947   2.509   6.646   3.957  0.8805  0.1080  0.6202
 1502SOL    HW2 5948   2.508   6.646   3.806 -0.0240 -0.1437  0.6204
 1503SOL     OW 5949   4.798   7.603   9.532  0.3002  0.0368  0.6464
 1503SOL    HW1 5950   4.847   7.685   9.523 -0.4563  0.5582  1.2127
 1503SOL    HW2 5951   4.730   7.622   9.597  0.5022 -1.2238  1.2663
 1504SOL     OW 5952   3.440   6.452   5.242 -0.1488  0.5244  0.3065
 1504SOL    HW1 5953   3.434   6.507   5.164 -0.3321 -0.1795 -0.1799
 1504SOL    HW2 5954   3.368   6.481   5.297 -0.4492  0.5508 -0.0931
 1505SOL     OW 5955   1.837   4.629   5.937 -0.0936  0.1748 -0.2710
 1505SOL    HW1 5956   1.799   4.564   5.996 -1.2249  0.5731 -0.5240
 1505SOL    HW2 5957   1.887   4.578   5.873 -0.7190 -0.4247 -0.2935
 1506SOL     OW 5958   7.145   5.947   9.399  0.8752 -0.1862 -0.2266
 1506SOL    HW1 5959   7.075   5.909   9.451  0.6206 -0.7653 -0.9746
 1506SOL    HW2 5960   7.225   5.908   9.434  0.9298  1.0886  1.1665
 1507SOL     OW 5961   1.341   0.796   6.332  0.1980  0.7583 -0.1946
 1507SOL    HW1 5962   1.390   0.826   6.256 -0.1684 -1.4419 -1.3992
 1507SOL    HW2 5963   1.268   0.746   6.294 -1.0190  1.1151  1.5923
 1508SOL     OW 5964   1.129   1.427   1.099 -0.6313  0.4852  0.0379
 1508SOL    HW1 5965   1.149   1.336   1.078  0.8655  1.2182 -2.1257
 1508SOL    HW2 5966   1.164   1.440   1.187  2.6096 -0.1268 -1.0217
 1509SOL     OW 5967   0.319   5.595   9.613 -0.4854  0.2203 -0.0662
 1509SOL    HW1 5968   0.395   5.641   9.577 -0.8504  0.3437 -0.6766
 1509SOL    HW2 5969   0.357   5.521   9.661 -0.0027 -0.1406 -0.9761
 1510SOL     OW 5970   6.459   2.354  10.889  0.2896  0.4221 -0.4269
 1510SOL    HW1 5971   6.368   2.381  10.885  0.1851  0.4047  1.0842
 1510SOL    HW2 5972   6.456   2.258  10.894  0.3361  0.4592  0.4445
 1511SOL     OW 5973   3.508   5.594   1.543 -0.3615 -0.2253  0.6746
 1511SOL    HW1 5974   3.554   5.673   1.571 -1.2597 -0.3033  2.4891
 1511SOL    HW2 5975   3.577   5.531   1.525  0.3037  0.1920  1.6917
 1512SOL     OW 5976   0.643   3.112   3.755  0.1858  0.6898  0.4589
 1512SOL    HW1 5977   0.681   3.041   3.806 -2.4307 -0.3296  1.1628
 1512SOL    HW2 5978   0.687   3.191   3.787  1.1166 -0.3149  1.7646
 1513SOL     OW 5979   7.132   7.177   6.767 -0.3817 -0.1998  0.0323
 1513SOL    HW1 5980   7.102   7.267   6.764 -2.2175 -0.8051 -0.8053
 1513SOL    HW2 5981   7.207   7.174   6.706 -0.2181  0.7672  0.1796
 1514SOL     OW 5982   0.535   5.339   7.729  0.1436  0.0053 -0.2681
 1514SOL    HW1 5983   0.630   5.335   7.732  0.2245 -0.3888 -2.1188
 1514SOL    HW2 5984   0.506   5.249   7.746  0.3467 -0.8608 -3.7136
 1515SOL     OW 5985   3.390   3.504   3.669  0.3859 -0.2043  0.2045
 1515SOL    HW1 5986   3.395   3.433   3.732  2.5532  0.3220  0.6926
 1515SOL    HW2 5987   3.335   3.570   3.711  1.0294 -0.2566  1.1605
 1516SOL     OW 5988   4.694   0.932   1.986  0.1549  0.2437  0.4259
 1516SOL    HW1 5989   4.686   0.844   1.950  0.7615  0.0954  0.6400
 1516SOL    HW2 5990   4.618   0.979   1.952  1.8863  0.8307 -3.0608
 1517SOL     OW 5991   5.876   6.640   4.526  0.0995  0.4155  0.1607
 1517SOL    HW1 5992   5.924   6.576   4.474 -0.8802  0.0193 -0.2952
 1517SOL    HW2 5993   5.939   6.672   4.590  0.6043 -1.0717  0.4393
 1518SOL     OW 5994   7.917   0.254   9.267 -0.2588 -0.1546  0.1037
 1518SOL    HW1 5995   7.854   0.183   9.271  0.1007 -0.4798  0.0371
 1518SOL    HW2 5996   7.996   0.218   9.307  0.4572 -0.3596 -1.4370
 1519SOL     OW 5997   5.247   6.396   9.630 -0.2290 -0.0430  0.4086
 1519SOL    HW1 5998   5.242   6.373   9.723  0.3165  0.0625  0.4656
 1519SOL    HW2 5999   5.158   6.425   9.608 -0.1647  0.6972  1.0930
 1520SOL     OW 6000   1.416   4.181   2.910  0.4909  0.2028  0.0975
 1520SOL    HW1 6001   1.499   4.190   2.863  0.7732 -0.8559  0.3816
 1520SOL    HW2 6002   1.350   4.181   2.840  0.8116 -0.0223 -0.2133
 1521SOL     OW 6003   0.687   4.739  11.096  0.0492 -0.0046  0.3867
 1521SOL    HW1 6004   0.688   4.802  11.168 -1.1207  1.2511 -0.6347
 1521SOL    HW2 6005   0.625   4.776  11.033 -0.7192 -2.2247 -0.2505
 1522SOL     OW 6006   6.818   6.356  11.561 -0.6792  0.5909  0.1880
 1522SOL    HW1 6007   6.788   6.289  11.623 -0.5917  1.0421  0.7220
 1522SOL    HW2 6008   6.824   6.310  11.477 -3.7799  0.6729 -0.1956
 1523SOL     OW 6009   2.550   6.491   1.834 -0.4193  0.0081 -0.1068
 1523SOL    HW1 6010   2.578   6.578   1.862  1.9840 -1.1317  1.3080
 1523SOL    HW2 6011   2.560   6.493   1.738 -0.5252  1.2972 -0.1140
 1524SOL     OW 6012   2.199   3.262   2.815  0.0981 -0.1919  0.5153
 1524SOL    HW1 6013   2.213   3.176   2.853  0.6116 -0.5169 -0.3679
 1524SOL    HW2 6014   2.104   3.276   2.822 -0.1363 -1.2630 -0.2078
 1525SOL     OW 6015   2.218   7.429   7.339  0.0445  0.3419 -0.1743
 1525SOL    HW1 6016   2.276   7.378   7.396  0.5974 -0.1072 -1.1218
 1525SOL    HW2 6017   2.148   7.367   7.316  1.1838 -0.3090 -2.0446
 1526SOL     OW 6018   5.487   6.521   7.383 -0.2076 -0.9556 -0.4980
 1526SOL    HW1 6019   5.464   6.462   7.311 -0.8416 -1.8992  0.4581
 1526SOL    HW2 6020   5.408   6.525   7.437 -0.2032  0.8234 -0.5572
 1527SOL     OW 6021   6.219   0.434  10.191  0.5521  0.1080 -0.2990
 1527SOL    HW1 6022   6.134   0.473  10.212  0.5298  0.3785 -0.8556
 1527SOL    HW2 6023   6.274   0.453  10.267  0.0609 -0.2392  0.1475
 1528SOL     OW 6024   4.564   4.238  10.907  0.6636  0.3718  0.4053
 1528SOL    HW1 6025   4.572   4.151  10.946 -1.0998 -0.3770 -0.7918
 1528SOL    HW2 6026   4.594   4.298  10.976  2.2428 -1.1742  1.1305
 1529SOL     OW 6027   6.060   4.358   9.048 -0.3908 -0.1181 -0.5868
 1529SOL    HW1 6028   6.116   4.302   9.102  0.1150  1.2333  0.3314
 1529SOL    HW2 6029   5.983   4.304   9.030 -0.3128 -0.8210  1.0166
 1530SOL     OW 6030   5.483   2.781   7.798 -0.4269  0.6052  0.9076
 1530SOL    HW1 6031   5.395   2.744   7.797 -0.8537  1.5503 -0.7929
 1530SOL    HW2 6032   5.475   2.863   7.750  1.2712  1.0109  1.2438
 1531SOL     OW 6033   3.927   1.155   7.327 -0.1386 -0.2693 -0.5715
 1531SOL    HW1 6034   4.019   1.134   7.313  0.5725  1.7712  0.6449
 1531SOL    HW2 6035   3.907   1.125   7.415 -1.1203 -2.0696 -1.3561
 1532SOL     OW 6036   2.886   2.179  10.766  0.3092 -0.0749  0.2030
 1532SOL    HW1 6037   2.821   2.206  10.701 -0.4535  0.6604  1.2464
 1532SOL    HW2 6038   2.899   2.256  10.822  0.6850 -0.7884  1.1354
 1533SOL     OW 6039   6.384   0.783   5.685  0.4504  0.0009  0.0593
 1533SOL    HW1 6040   6.441   0.858   5.701  1.3117 -0.5101 -0.5419
 1533SOL    HW2 6041   6.397   0.762   5.592 -0.7362 -0.1093 -0.0925
 1534SOL     OW 6042   6.884   3.520   8.993  0.3564  0.7485  0.4549
 1534SOL    HW1 6043   6.908   3.543   8.903 -0.6837 -0.1649 -0.0745
 1534SOL    HW2 6044   6.789   3.520   8.994  0.3486 -0.0783  1.3379
 1535SOL     OW 6045   2.994   2.926   5.467  0.4212  0.7176  0.4053
 1535SOL    HW1 6046   3.008   2.974   5.548  0.8048 -0.0499  0.8067
 1535SOL    HW2 6047   2.973   2.994   5.402 -0.4521  1.2830  1.2595
 1536SOL     OW 6048   5.201   3.808   5.112 -0.4099 -0.1458 -0.0501
 1536SOL    HW1 6049   5.199   3.712   5.108 -0.4682 -0.1269 -0.4861
 1536SOL    HW2 6050   5.270   3.834   5.051 -0.6591  0.1058 -0.2293
 1537SOL     OW 6051   1.992   0.128   4.034 -0.2764  0.2284 -0.4640
 1537SOL    HW1 6052   1.955   0.080   4.108  2.7394 -2.1470 -0.3006
 1537SOL    HW2 6053   1.935   0.107   3.961 -1.4700 -0.0058  0.4935
 1538SOL     OW 6054   4.834   5.515   0.560  0.3209 -0.0606  0.0471
 1538SOL    HW1 6055   4.745   5.487   0.538  0.1345 -2.1921  2.9966
 1538SOL    HW2 6056   4.827   5.611   0.567 -1.3180 -0.0318 -1.2772
 1539SOL     OW 6057   2.705   3.270   1.927  0.0427 -0.0387  0.1486
 1539SOL    HW1 6058   2.683   3.360   1.901 -1.5295 -0.2210  0.7198
 1539SOL    HW2 6059   2.773   3.243   1.865  0.6581  1.5863  0.0584
 1540SOL     OW 6060   6.219   0.139  10.732  0.2865 -0.0268 -0.7899
 1540SOL    HW1 6061   6.207   0.092  10.815 -0.7689 -0.9775 -1.4365
 1540SOL    HW2 6062   6.200   0.073  10.665  1.5121  0.6140 -1.8058
 1541SOL     OW 6063   6.059   4.213  11.036 -0.7191 -0.0781  0.0201
 1541SOL    HW1 6064   5.989   4.150  11.056  0.4674 -1.0835  1.1807
 1541SOL    HW2 6065   6.140   4.162  11.045  0.1743  0.8850 -1.9211
 1542SOL     OW 6066   5.365   3.915   6.266  0.1385  0.6567  0.8115
 1542SOL    HW1 6067   5.349   3.878   6.352 -0.4323  1.7376  1.1920
 1542SOL    HW2 6068   5.342   4.008   6.275 -2.2410  0.3512 -1.1164
 1543SOL     OW 6069   2.866   6.156  10.567  0.1312  0.5642  0.0941
 1543SOL    HW1 6070   2.941   6.180  10.621  1.0019  1.1382 -1.2956
 1543SOL    HW2 6071   2.869   6.216  10.493 -0.5407 -0.6713 -0.9977
 1544SOL     OW 6072   0.292   5.267   3.460 -0.0952 -0.3910  0.4728
 1544SOL    HW1 6073   0.269   5.176   3.441 -2.5794  0.4184 -0.9181
 1544SOL    HW2 6074   0.332   5.299   3.379  1.9699 -0.5275  1.3799
 1545SOL     OW 6075   0.394   4.009   7.051 -0.1631  0.3616  0.0072
 1545SOL    HW1 6076   0.304   3.977   7.050 -0.3110  0.7657  0.1073
 1545SOL    HW2 6077   0.399   4.065   7.129  0.0774  0.6092 -0.1824
 1546SOL     OW 6078   6.055   3.648   3.502 -0.3152 -0.1623 -0.1906
 1546SOL    HW1 6079   6.050   3.627   3.409  0.7889 -1.3546  0.0049
 1546SOL    HW2 6080   5.965   3.635   3.534 -1.0347  1.6224 -1.3301
 1547SOL     OW 6081   3.319   5.868   0.905 -0.0656 -0.1378 -0.0705
 1547SOL    HW1 6082   3.370   5.820   0.971 -0.9790  1.0386  1.5721
 1547SOL    HW2 6083   3.354   5.957   0.909  1.9041 -0.6145 -3.3738
 1548SOL     OW 6084   6.366   3.745   5.825 -0.5603 -0.1696 -0.1915
 1548SOL    HW1 6085   6.339   3.676   5.887  0.3982 -0.6410 -0.2865
 1548SOL    HW2 6086   6.442   3.786   5.867 -0.9188  0.6090 -0.2981
 1549SOL     OW 6087   7.381   5.378   3.349  0.2736  0.4132 -0.0464
 1549SOL    HW1 6088   7.433   5.370   3.270  1.1321 -1.0839  0.6276
 1549SOL    HW2 6089   7.443   5.362   3.421 -0.8821 -0.3840  0.8200
 1550SOL     OW 6090   0.852   7.009  12.029  0.8533 -0.2004 -1.2914
 1550SOL    HW1 6091   0.818   7.097  12.012  1.5903  0.4545  0.3872
 1550SOL    HW2 6092   0.786   6.968  12.085  1.1346 -0.2237 -0.9727
 1551SOL     OW 6093   6.442   5.577  11.499 -0.0207  0.4893  0.3852
 1551SOL    HW1 6094   6.433   5.514  11.571  2.1334 -0.1391  0.1592
 1551SOL    HW2 6095   6.361   5.629  11.503 -1.0226 -1.0671  1.7398
 1552SOL     OW 6096   0.939   1.615   1.431 -0.0850 -0.4778  0.0914
 1552SOL    HW1 6097   1.031   1.602   1.409 -0.2640  0.5256 -1.3733
 1552SOL    HW2 6098   0.941   1.655   1.518  0.8961 -0.1441 -0.0690
 1553SOL     OW 6099   5.648   2.499   4.940  0.1877  0.0545  0.1650
 1553SOL    HW1 6100   5.682   2.459   5.021 -0.4516 -0.2381  0.2909
 1553SOL    HW2 6101   5.646   2.427   4.877  0.2938  0.1921  0.0035
 1554SOL     OW 6102   4.437   5.721   9.668  0.2632 -0.7454  0.4077
 1554SOL    HW1 6103   4.486   5.639   9.667 -0.6557 -1.3040 -0.0226
 1554SOL    HW2 6104   4.371   5.711   9.600  1.4547  1.2087 -1.1663
 1555SOL     OW 6105   7.261   4.909   2.425  0.2528  0.1208 -0.6412
 1555SOL    HW1 6106   7.249   4.844   2.356  1.8403 -1.4974  0.5158
 1555SOL    HW2 6107   7.284   4.858   2.502  0.9204  2.0164  0.4786
 1556SOL     OW 6108   0.298   1.550   2.780  0.7855  0.0414  0.4030
 1556SOL    HW1 6109   0.303   1.620   2.714 -1.2388 -0.7768 -0.7283
 1556SOL    HW2 6110   0.283   1.596   2.862 -0.0050  0.9829 -0.2400
 1557SOL     OW 6111   0.402   2.009   8.979  0.0305  0.1648 -0.4705
 1557SOL    HW1 6112   0.432   1.936   8.925  1.3534  0.5414 -0.2758
 1557SOL    HW2 6113   0.437   1.991   9.066  2.3901  2.1573 -0.9280
 1558SOL     OW 6114   2.126   2.946   3.506 -0.2473  0.0884  0.7042
 1558SOL    HW1 6115   2.181   2.875   3.471 -0.4133  0.4659 -0.3605
 1558SOL    HW2 6116   2.052   2.901   3.546  0.5416 -0.4063  1.6636
 1559SOL     OW 6117   0.886   4.716   8.860  0.5802 -0.3187  0.1764
 1559SOL    HW1 6118   0.875   4.624   8.837 -1.1856 -0.9342  2.9995
 1559SOL    HW2 6119   0.899   4.716   8.954  0.4454  2.3231  0.2604
 1560SOL     OW 6120   5.495   5.377   3.590 -0.4799  0.0514  0.1814
 1560SOL    HW1 6121   5.572   5.323   3.608 -0.8438  0.0171  1.8114
 1560SOL    HW2 6122   5.510   5.412   3.502  2.4134  1.7109  1.1849
 1561SOL     OW 6123   3.774   5.441   0.958 -0.1045 -0.2129 -0.2559
 1561SOL    HW1 6124   3.727   5.426   1.040 -0.6717  1.4021 -0.2507
 1561SOL    HW2 6125   3.752   5.531   0.934 -0.8796 -0.9883 -2.7912
 1562SOL     OW 6126   0.209   2.531   5.380 -0.2552  0.0083 -0.5770
 1562SOL    HW1 6127   0.189   2.624   5.368 -0.4263  0.2803  1.4302
 1562SOL    HW2 6128   0.261   2.508   5.304  0.4636  1.9614 -0.7381
 1563SOL     OW 6129   2.384   6.847  11.864  0.5249  0.1847 -0.7031
 1563SOL    HW1 6130   2.474   6.860  11.893  0.3262  0.4938 -0.2202
 1563SOL    HW2 6131   2.386   6.864  11.770  0.7515  1.2719 -0.5053
 1564SOL     OW 6132   0.347   0.243   7.598 -0.3155 -0.0830 -0.4558
 1564SOL    HW1 6133   0.331   0.150   7.616  1.1368 -0.6274 -1.7561
 1564SOL    HW2 6134   0.390   0.244   7.513  3.3838  1.3965  1.1765
 1565SOL     OW 6135   1.207   3.888   0.899 -0.0002  0.4294  0.4547
 1565SOL    HW1 6136   1.283   3.869   0.845  1.5651  1.4682  2.1450
 1565SOL    HW2 6137   1.181   3.804   0.935  1.6034  0.2625  1.3445
 1566SOL     OW 6138   7.880   4.040   0.537  0.3172 -0.3651  0.3969
 1566SOL    HW1 6139   7.847   4.088   0.461 -0.7652 -0.2917  0.8950
 1566SOL    HW2 6140   7.856   3.949   0.521 -1.5478 -0.1162  1.4390
 1567SOL     OW 6141   4.306   7.297   6.632 -0.3318 -0.4367 -0.0161
 1567SOL    HW1 6142   4.296   7.235   6.704  0.5089 -0.0229  0.4735
 1567SOL    HW2 6143   4.278   7.381   6.668  1.8995  0.1671  0.4825
 1568SOL     OW 6144   1.849   1.110   8.885 -0.4191 -0.0387  0.3865
 1568SOL    HW1 6145   1.837   1.196   8.845  1.0231  0.3441  0.7201
 1568SOL    HW2 6146   1.893   1.057   8.819 -0.2263 -0.1486  0.5985
 1569SOL     OW 6147   7.529   7.180   8.815 -0.4290 -0.4221  0.3116
 1569SOL    HW1 6148   7.494   7.182   8.726  0.5777  2.2287 -0.1117
 1569SOL    HW2 6149   7.607   7.125   8.809  0.2230  0.5737 -0.7187
 1570SOL     OW 6150   6.889   0.596   8.038  0.2336  0.2208  0.3426
 1570SOL    HW1 6151   6.881   0.633   7.950 -0.8103  1.2058  0.8294
 1570SOL    HW2 6152   6.866   0.503   8.027  2.8926 -0.3864 -0.8875
 1571SOL     OW 6153   0.576   7.562   4.541 -0.4835  0.1711  0.1201
 1571SOL    HW1 6154   0.612   7.483   4.501  0.6430  1.2806 -1.1882
 1571SOL    HW2 6155   0.645   7.592   4.600 -0.8061  0.2965  0.4340
 1572SOL     OW 6156   2.290   0.465   3.385  0.6489  0.4411 -0.5872
 1572SOL    HW1 6157   2.271   0.386   3.435 -0.9883  0.8104 -0.5633
 1572SOL    HW2 6158   2.230   0.531   3.420  1.1700  1.3794 -1.3937
 1573SOL     OW 6159   3.660   1.207   5.126 -0.8653 -0.2381 -0.6385
 1573SOL    HW1 6160   3.683   1.133   5.182 -0.5841  0.9996  1.0067
 1573SOL    HW2 6161   3.724   1.275   5.151 -3.0548  1.6185  0.3287
 1574SOL     OW 6162   0.451   2.813   7.100 -0.2901  0.1772  0.1438
 1574SOL    HW1 6163   0.440   2.738   7.158 -2.2979  1.0172  0.9493
 1574SOL    HW2 6164   0.443   2.777   7.012 -0.9389 -0.6228  0.5191
 1575SOL     OW 6165   6.200   6.868   0.131  0.2787 -0.1779 -0.0583
 1575SOL    HW1 6166   6.211   6.900   0.042  0.0681 -1.8466 -0.7067
 1575SOL    HW2 6167   6.244   6.934   0.185  0.4283  0.8439 -1.3756
 1576SOL     OW 6168   0.902   0.010   6.961 -0.0544 -0.1181  0.0117
 1576SOL    HW1 6169   0.817   0.054   6.957  0.1693  0.3366  0.1280
 1576SOL    HW2 6170   0.961   0.076   7.000 -0.0830 -1.1111  1.8190
 1577SOL     OW 6171   7.004   4.656   1.256  0.3690  0.5195 -0.6612
 1577SOL    HW1 6172   7.065   4.678   1.327  0.0659 -0.1485 -0.1862
 1577SOL    HW2 6173   6.917   4.669   1.294  0.2016  1.0507 -1.2031
 1578SOL     OW 6174   1.869   0.126   9.119 -0.0291 -0.5097 -0.0822
 1578SOL    HW1 6175   1.792   0.183   9.115 -0.3121 -0.8055  0.8273
 1578SOL    HW2 6176   1.918   0.157   9.195  0.3208 -0.8566 -0.1645
 1579SOL     OW 6177   5.030   5.843   6.424  0.1871  0.0918 -0.0895
 1579SOL    HW1 6178   5.097   5.908   6.447 -1.2479  1.6411 -0.0990
 1579SOL    HW2 6179   5.034   5.839   6.328  0.3647  0.0659 -0.0826
 1580SOL     OW 6180   4.938   7.761   3.844 -0.4028 -0.0114  0.2331
 1580SOL    HW1 6181   4.962   7.687   3.900  0.0512 -0.3535 -0.4071
 1580SOL    HW2 6182   4.969   7.737   3.757 -2.6014 -0.2631 -0.5555
 1581SOL     OW 6183   3.545   4.932   2.154 -0.1415 -0.3702  0.4294
 1581SOL    HW1 6184   3.608   4.986   2.106 -1.4960 -0.6824 -1.8019
 1581SOL    HW2 6185   3.596   4.856   2.184  1.0351  0.5246  0.7741
 1582SOL     OW 6186   1.888   3.861  10.600 -0.6898 -0.0667 -0.7383
 1582SOL    HW1 6187   1.905   3.838  10.509 -0.0444 -1.7271 -0.2393
 1582SOL    HW2 6188   1.820   3.928  10.596 -1.8845 -1.3187 -2.3605
 1583SOL     OW 6189   5.256   0.480   1.358  0.0602 -0.3007  0.4478
 1583SOL    HW1 6190   5.192   0.414   1.387 -1.7888  0.9733 -0.5378
 1583SOL    HW2 6191   5.242   0.553   1.418  1.1080 -0.2522  0.6463
 1584SOL     OW 6192   4.202   6.368   9.078  0.1812  0.1953 -0.0284
 1584SOL    HW1 6193   4.218   6.294   9.020  1.1881  0.7948 -0.5338
 1584SOL    HW2 6194   4.109   6.388   9.067 -0.0193 -0.7779 -0.1322
 1585SOL     OW 6195   0.114   4.247   7.133  0.5063 -0.0529  0.3490
 1585SOL    HW1 6196   0.208   4.264   7.143  0.3413  0.9766  0.2755
 1585SOL    HW2 6197   0.073   4.332   7.147 -0.3172 -0.1753 -1.0734
 1586SOL     OW 6198   0.508   4.174   7.590 -0.2371  0.1658  0.3334
 1586SOL    HW1 6199   0.538   4.091   7.555  0.7414  0.8309 -0.4529
 1586SOL    HW2 6200   0.573   4.238   7.561 -0.7748  1.1559  1.2143
 1587SOL     OW 6201   3.586   7.241   4.741  0.3070  0.8134  0.1256
 1587SOL    HW1 6202   3.645   7.206   4.809 -0.1054 -0.3763 -0.1130
 1587SOL    HW2 6203   3.499   7.209   4.766  0.3858 -1.2365 -1.9402
 1588SOL     OW 6204   6.742   5.832   0.100  0.0500 -0.0283 -0.2440
 1588SOL    HW1 6205   6.650   5.829   0.073  0.0746 -1.0182 -0.2667
 1588SOL    HW2 6206   6.789   5.869   0.025 -0.3189  0.4198 -0.2566
 1589SOL     OW 6207   1.340   1.447   6.112 -0.1353 -0.1076 -0.0561
 1589SOL    HW1 6208   1.398   1.523   6.102 -0.2677  0.0337  0.2382
 1589SOL    HW2 6209   1.394   1.373   6.086  0.1255  0.0443  0.0406
 1590SOL     OW 6210   2.056   0.668  10.363  0.0050  0.1216  0.1443
 1590SOL    HW1 6211   2.114   0.706  10.429  0.3895  0.3264 -0.2978
 1590SOL    HW2 6212   1.987   0.734  10.351  0.2645  0.3580 -0.0853
 1591SOL     OW 6213   7.657   7.068  11.522  0.3182  0.2056  0.6045
 1591SOL    HW1 6214   7.626   7.049  11.610  0.1481 -0.7251  0.3558
 1591SOL    HW2 6215   7.577   7.083  11.471  0.4034  0.4469  0.5362
 1592SOL     OW 6216   0.950   1.253  10.009 -0.5350 -0.5276  0.8212
 1592SOL    HW1 6217   0.939   1.161  10.031 -2.0755 -0.7289 -0.5296
 1592SOL    HW2 6218   0.864   1.292  10.027  0.1117  0.6715  1.4369
 1593SOL     OW 6219   5.840   5.208   8.241  0.1229 -0.1130  0.1969
 1593SOL    HW1 6220   5.893   5.203   8.320 -0.0250  0.8895  0.3778
 1593SOL    HW2 6221   5.837   5.302   8.220  0.9122 -0.4356 -1.5079
 1594SOL     OW 6222   1.338   5.050  11.504 -0.0636  0.3406  0.6103
 1594SOL    HW1 6223   1.252   5.007  11.505 -0.1301  0.4059 -0.8400
 1594SOL    HW2 6224   1.318   5.143  11.498  0.1071  0.3865  0.7561
 1595SOL     OW 6225   7.140   6.041  12.278 -0.3944 -0.0025 -0.1193
 1595SOL    HW1 6226   7.089   6.110  12.236 -0.5904  0.4857  0.8981
 1595SOL    HW2 6227   7.165   6.078  12.363  1.1049 -0.4680 -0.3279
 1596SOL     OW 6228   5.662   2.438   7.270 -0.5499  0.5420  0.4140
 1596SOL    HW1 6229   5.598   2.504   7.296 -1.6861  0.1137 -1.1029
 1596SOL    HW2 6230   5.747   2.479   7.284 -1.2112  1.9030  0.5589
 1597SOL     OW 6231   1.506   0.125   5.035  0.7105  0.6510  0.0990
 1597SOL    HW1 6232   1.501   0.137   4.940  0.2066 -1.3108 -0.1601
 1597SOL    HW2 6233   1.422   0.084   5.058  1.5170 -0.5066  1.1052
 1598SOL     OW 6234   4.961   2.604   3.078 -0.1803  0.1983 -0.0207
 1598SOL    HW1 6235   5.036   2.648   3.117  0.9730 -0.8227 -1.0026
 1598SOL    HW2 6236   4.888   2.625   3.136  0.7936  1.4478  0.8072
 1599SOL     OW 6237   7.174   2.986   3.768  0.1909  1.0602  0.3420
 1599SOL    HW1 6238   7.193   3.061   3.712 -3.4232  2.6645  1.0231
 1599SOL    HW2 6239   7.167   2.912   3.708  0.7097  1.8645 -0.7369
 1600SOL     OW 6240   6.985   6.009   6.909  0.4140 -0.3824  0.5437
 1600SOL    HW1 6241   6.910   5.999   6.851 -0.5054 -0.9810  1.7919
 1600SOL    HW2 6242   6.981   6.100   6.939  1.8502  0.4594 -1.5216
 1601SOL     OW 6243   7.066   6.972  11.691  0.3411 -0.1195 -0.1218
 1601SOL    HW1 6244   7.074   6.962  11.786 -0.0883 -0.2975 -0.1021
 1601SOL    HW2 6245   7.073   7.066  11.676  0.1365 -0.0661  0.1134
 1602SOL     OW 6246   7.092   3.936   7.923 -0.1128  0.0136  1.0644
 1602SOL    HW1 6247   7.162   3.972   7.977 -0.6410  1.5469  0.7794
 1602SOL    HW2 6248   7.015   3.987   7.946 -0.8214 -0.6911  0.3380
 1603SOL     OW 6249   3.121   2.290   3.453 -0.2117  0.3763 -0.3748
 1603SOL    HW1 6250   3.132   2.283   3.359 -0.6351  0.9099 -0.4759
 1603SOL    HW2 6251   3.158   2.210   3.489 -0.4383 -0.0216 -1.0279
 1604SOL     OW 6252   5.549   1.676  11.116  0.1474 -0.3404 -0.2225
 1604SOL    HW1 6253   5.555   1.732  11.038  1.0955  0.3108  0.3061
 1604SOL    HW2 6254   5.639   1.662  11.143 -0.1833 -0.0482  1.1135
 1605SOL     OW 6255   1.252   3.061   2.763 -0.4176  0.0596  0.2690
 1605SOL    HW1 6256   1.179   3.115   2.732 -0.9706  0.1784  1.6962
 1605SOL    HW2 6257   1.211   2.979   2.790  0.0040  0.0239  0.8193
 1606SOL     OW 6258   6.872   2.677   1.556  0.0738 -0.4987 -0.3824
 1606SOL    HW1 6259   6.887   2.589   1.590  0.5860 -0.0093  0.7093
 1606SOL    HW2 6260   6.807   2.715   1.616  1.4283  0.5852  0.4744
 1607SOL     OW 6261   7.817   4.023   0.837 -0.6163  0.2604 -0.3423
 1607SOL    HW1 6262   7.851   3.940   0.870 -1.8824 -0.7933 -1.5696
 1607SOL    HW2 6263   7.852   4.030   0.748 -2.1110  0.0166 -0.9785
 1608SOL     OW 6264   2.987   1.125   8.191 -0.1266  0.1403  0.5093
 1608SOL    HW1 6265   2.988   1.174   8.109  1.1170  0.0710  0.4648
 1608SOL    HW2 6266   3.064   1.068   8.186 -0.3576 -0.2789  1.4717
 1609SOL     OW 6267   4.530   5.774   0.279  0.1096 -0.1478 -0.4406
 1609SOL    HW1 6268   4.587   5.698   0.265 -0.3268 -0.7118  0.7286
 1609SOL    HW2 6269   4.568   5.819   0.354  0.9748  1.4098 -1.7589
 1610SOL     OW 6270   6.986   3.961   0.719  0.0676  0.3751 -0.2182
 1610SOL    HW1 6271   6.924   3.998   0.656 -0.6899 -1.5626 -0.6797
 1610SOL    HW2 6272   6.931   3.914   0.782  1.0459 -2.2618 -1.2138
 1611SOL     OW 6273   6.072   5.117  11.622  0.5706 -0.0277  0.4755
 1611SOL    HW1 6274   6.090   5.196  11.572  0.0528  0.3494  0.8702
 1611SOL    HW2 6275   6.034   5.056  11.558  1.4525 -0.1576  0.0581
 1612SOL     OW 6276   3.796   1.428   6.324  0.0078  0.1490 -0.2317
 1612SOL    HW1 6277   3.777   1.399   6.413 -0.5744 -1.6122 -0.8907
 1612SOL    HW2 6278   3.718   1.477   6.297 -0.3871 -0.4886 -0.2521
 1613SOL     OW 6279   5.958   6.083  11.722  0.2600 -0.0351  0.4675
 1613SOL    HW1 6280   5.918   6.072  11.809  0.5237 -0.6327  0.5136
 1613SOL    HW2 6281   6.040   6.130  11.740  0.3836 -0.2839  0.5593
 1614SOL     OW 6282   7.880   1.876   9.650 -0.3789 -0.0130 -0.3927
 1614SOL    HW1 6283   7.882   1.812   9.721  0.5265  0.5324  0.1051
 1614SOL    HW2 6284   7.964   1.865   9.605 -0.7932 -0.1029 -1.1578
 1615SOL     OW 6285   4.166   1.234   2.061  0.1107  0.3760 -0.3761
 1615SOL    HW1 6286   4.202   1.227   1.972 -0.5145  0.6256 -0.6615
 1615SOL    HW2 6287   4.187   1.150   2.102  0.5397  0.3170 -0.7080
 1616SOL     OW 6288   5.205   3.074   4.246  0.3940 -0.1000  0.0002
 1616SOL    HW1 6289   5.276   3.025   4.288  0.7055 -0.0088 -0.4204
 1616SOL    HW2 6290   5.213   3.163   4.281  1.6886  0.4106 -1.4697
 1617SOL     OW 6291   4.303   4.632   4.896 -0.7337 -0.0221 -0.1681
 1617SOL    HW1 6292   4.281   4.662   4.984 -1.3447  0.3233 -0.4314
 1617SOL    HW2 6293   4.218   4.621   4.852 -0.4364 -0.1673 -0.7207
 1618SOL     OW 6294   4.506   2.495   9.535 -0.1087 -0.0491 -0.4298
 1618SOL    HW1 6295   4.586   2.547   9.543 -0.1856  0.1753 -1.0103
 1618SOL    HW2 6296   4.529   2.410   9.572 -0.6556  1.0213  2.6380
 1619SOL     OW 6297   2.579   7.908   0.655 -0.8867 -0.3191  0.1078
 1619SOL    HW1 6298   2.671   7.899   0.628 -0.8494 -0.6814  0.3504
 1619SOL    HW2 6299   2.531   7.917   0.572 -0.5199  1.0460  0.0250
 1620SOL     OW 6300   4.944   5.982   6.063  0.2385 -0.1217 -0.1099
 1620SOL    HW1 6301   4.872   6.025   6.018  0.0277 -0.8767 -0.5089
 1620SOL    HW2 6302   4.974   6.046   6.127 -2.1470 -0.5094  1.5484
 1621SOL     OW 6303   6.045   2.208   3.232  0.0066 -0.4654 -0.2997
 1621SOL    HW1 6304   5.953   2.236   3.241  0.4756  1.8568 -1.8398
 1621SOL    HW2 6305   6.096   2.285   3.260  1.5979 -2.2770  2.1984
 1622SOL     OW 6306   4.677   5.361   4.513  0.7257 -0.2000  0.4796
 1622SOL    HW1 6307   4.650   5.416   4.586  2.4274  0.6177  0.5240
 1622SOL    HW2 6308   4.693   5.275   4.552  1.1397  0.0995  0.9720
 1623SOL     OW 6309   4.039   4.086   5.040 -0.4992  0.0310 -0.4130
 1623SOL    HW1 6310   4.033   4.181   5.046 -0.7711  0.0907 -1.5186
 1623SOL    HW2 6311   4.048   4.057   5.131 -0.8482  1.0733 -0.0349
 1624SOL     OW 6312   6.242   6.412  10.041 -0.3268  0.8628 -0.1722
 1624SOL    HW1 6313   6.223   6.355   9.967  1.2334 -1.2374  0.9106
 1624SOL    HW2 6314   6.322   6.458  10.016 -0.1297  0.5887 -0.0649
 1625SOL     OW 6315   1.476   7.433   6.868 -0.1780  0.4393 -0.1034
 1625SOL    HW1 6316   1.461   7.381   6.789 -1.1305  0.5788 -0.0292
 1625SOL    HW2 6317   1.564   7.409   6.896 -0.0995 -0.1414 -0.8120
 1626SOL     OW 6318   7.188   3.039   1.188 -0.0118 -0.1030 -0.3571
 1626SOL    HW1 6319   7.197   3.002   1.276 -1.4287  0.6482  0.1418
 1626SOL    HW2 6320   7.119   2.987   1.146  0.7638 -0.5587 -1.0964
 1627SOL     OW 6321   2.518   0.841   0.492 -0.2175 -0.1344 -0.0997
 1627SOL    HW1 6322   2.489   0.777   0.557  0.6363  0.1081  0.5237
 1627SOL    HW2 6323   2.530   0.922   0.541 -2.9811  1.0504 -1.1594
 1628SOL     OW 6324   0.966   6.686   6.718 -0.1394 -0.0973 -0.1613
 1628SOL    HW1 6325   0.956   6.778   6.694 -1.0604 -0.2425 -0.3675
 1628SOL    HW2 6326   0.993   6.643   6.637 -1.3962 -0.2751 -0.5160
 1629SOL     OW 6327   2.728   0.508   3.452 -0.0254 -0.1558 -0.0987
 1629SOL    HW1 6328   2.759   0.531   3.365  2.4610 -1.5862  0.3196
 1629SOL    HW2 6329   2.657   0.446   3.437  1.3161 -1.5030 -1.1617
 1630SOL     OW 6330   7.667   7.635   6.728  0.4138  0.2987  0.7380
 1630SOL    HW1 6331   7.635   7.649   6.639  1.4828  0.1631  0.3230
 1630SOL    HW2 6332   7.693   7.543   6.730  0.9753  0.4572  0.9894
 1631SOL     OW 6333   6.272   3.118   5.273 -0.2617  0.0566 -0.4812
 1631SOL    HW1 6334   6.311   3.042   5.229  1.1236 -0.1430  1.0014
 1631SOL    HW2 6335   6.198   3.083   5.322  0.6847 -0.4818  0.6200
 1632SOL     OW 6336   1.073   1.164  12.103 -0.1733  0.1290  0.1834
 1632SOL    HW1 6337   1.168   1.179  12.098  0.1173 -1.5579  0.2409
 1632SOL    HW2 6338   1.041   1.236  12.158  1.2529  0.0575  1.1619
 1633SOL     OW 6339   6.498   6.058   1.112 -0.3218 -0.7148  0.1578
 1633SOL    HW1 6340   6.451   6.083   1.032  1.2925 -0.7480 -0.8511
 1633SOL    HW2 6341   6.535   6.140   1.145 -1.1569 -0.6697  1.0062
 1634SOL     OW 6342   7.781   7.648   1.268 -0.2202 -0.2096 -0.2553
 1634SOL    HW1 6343   7.735   7.613   1.345  0.4646 -0.4218  0.0623
 1634SOL    HW2 6344   7.865   7.678   1.302 -0.5211  1.1286 -0.6466
 1635SOL     OW 6345   3.142   1.725   3.213  0.1376 -0.0272 -0.2372
 1635SOL    HW1 6346   3.213   1.778   3.249 -1.1021  1.9420 -0.4770
 1635SOL    HW2 6347   3.130   1.760   3.124 -0.8927 -0.5504 -0.3146
 1636SOL     OW 6348   1.275   5.869   0.542  0.1450 -0.2646  0.8358
 1636SOL    HW1 6349   1.281   5.777   0.518  0.4131 -0.0329 -0.0519
 1636SOL    HW2 6350   1.234   5.911   0.466  1.2233  0.5414  0.6607
 1637SOL     OW 6351   5.767   1.069   3.826  0.6894 -0.4179  0.0575
 1637SOL    HW1 6352   5.807   1.095   3.743 -0.3159  0.8035 -0.0753
 1637SOL    HW2 6353   5.830   1.095   3.893  1.1493 -0.6628 -0.2792
 1638SOL     OW 6354   6.222   4.639   3.625  0.0024 -0.3928  0.0684
 1638SOL    HW1 6355   6.220   4.660   3.719 -0.9263 -1.6257  0.3359
 1638SOL    HW2 6356   6.248   4.722   3.584 -0.7399  0.4987  1.3133
 1639SOL     OW 6357   4.806   6.855   0.215 -0.0991  0.9957 -0.0574
 1639SOL    HW1 6358   4.813   6.950   0.217  0.8300  0.9259  1.0128
 1639SOL    HW2 6359   4.713   6.837   0.231  0.0343  1.6957  1.6716
 1640SOL     OW 6360   3.570   6.867   5.595  0.0978  0.0834  0.1484
 1640SOL    HW1 6361   3.642   6.905   5.546 -0.0475 -0.9262 -0.8894
 1640SOL    HW2 6362   3.525   6.942   5.634  1.8669  0.7206  1.0964
 1641SOL     OW 6363   4.928   3.087  10.708 -0.3533 -0.3539 -0.1256
 1641SOL    HW1 6364   4.959   3.011  10.658  1.5222 -0.3845  0.9837
 1641SOL    HW2 6365   4.961   3.072  10.796  1.9575  2.6891 -0.3087
 1642SOL     OW 6366   5.111   5.991   9.905 -0.4263 -0.1455 -0.2241
 1642SOL    HW1 6367   5.143   5.926   9.968  0.8377  0.9105  0.2617
 1642SOL    HW2 6368   5.163   5.976   9.826  0.2727  0.6150  0.0766
 1643SOL     OW 6369   7.696   3.203   6.403 -0.0408  0.0359 -0.3558
 1643SOL    HW1 6370   7.609   3.242   6.392 -0.0443 -0.0172 -0.5306
 1643SOL    HW2 6371   7.679   3.113   6.432 -0.0230  0.2954  0.4691
 1644SOL     OW 6372   2.130   3.224   4.236  0.3113 -0.1987  0.8320
 1644SOL    HW1 6373   2.217   3.252   4.266  1.0667 -0.6510 -0.8590
 1644SOL    HW2 6374   2.131   3.129   4.245 -0.4135 -0.1274  1.7956
 1645SOL     OW 6375   5.917   4.915   1.906 -0.6917  0.2066  0.2278
 1645SOL    HW1 6376   5.865   4.990   1.875 -1.1368 -0.1823  0.0309
 1645SOL    HW2 6377   5.855   4.859   1.951 -0.4460 -0.2688 -0.0185
 1646SOL     OW 6378   7.623   1.417   1.352  0.4511  0.1908 -0.2247
 1646SOL    HW1 6379   7.596   1.339   1.400 -0.6836  0.8660  0.2492
 1646SOL    HW2 6380   7.562   1.485   1.379  0.9481  1.0588 -1.2187
 1647SOL     OW 6381   0.136   6.274   3.962  0.2796 -0.0177  1.1067
 1647SOL    HW1 6382   0.163   6.353   4.009  0.4500 -0.3871  1.6342
 1647SOL    HW2 6383   0.043   6.288   3.944 -0.3059 -0.6843  3.2706
 1648SOL     OW 6384   6.002   7.682  11.802 -0.4378  0.1195 -0.0988
 1648SOL    HW1 6385   5.937   7.638  11.748  0.3441 -0.4016 -0.6401
 1648SOL    HW2 6386   6.043   7.746  11.743  0.4780 -0.5061 -0.1629
 1649SOL     OW 6387   1.077   0.866   5.379 -0.7513 -0.0290 -0.3443
 1649SOL    HW1 6388   1.155   0.818   5.405 -1.6304 -0.5161  1.5610
 1649SOL    HW2 6389   1.051   0.826   5.296  0.2007 -0.8236 -0.2809
 1650SOL     OW 6390   0.751   7.599  10.977  0.2035  0.1015  0.6629
 1650SOL    HW1 6391   0.790   7.614  11.063 -0.0896 -0.6631  0.9306
 1650SOL    HW2 6392   0.670   7.551  10.995  0.4574 -0.6220 -0.0737
 1651SOL     OW 6393   0.640   7.230   9.057  0.1542  0.8677 -0.2961
 1651SOL    HW1 6394   0.621   7.181   9.137  0.7783  0.5361 -0.3516
 1651SOL    HW2 6395   0.560   7.280   9.041  0.1661  1.2801  0.7811
 1652SOL     OW 6396   7.898   4.987   1.326  0.3504  0.5452  0.3835
 1652SOL    HW1 6397   7.877   5.074   1.293 -2.0491  0.5871  1.8256
 1652SOL    HW2 6398   7.900   4.931   1.248 -1.3834  1.3095 -0.2397
 1653SOL     OW 6399   5.752   4.473   3.192 -0.4891 -0.5583 -0.4827
 1653SOL    HW1 6400   5.716   4.388   3.218 -0.2681 -0.5302 -0.0744
 1653SOL    HW2 6401   5.682   4.514   3.141 -2.0345  0.4780  2.2369
 1654SOL     OW 6402   3.940   1.941   6.350  0.5696  0.5698  0.0923
 1654SOL    HW1 6403   3.849   1.963   6.332  0.5948  1.3455  0.8638
 1654SOL    HW2 6404   3.990   2.015   6.317  1.0724 -0.5257 -1.7163
 1655SOL     OW 6405   4.783   4.206   0.398  0.1681 -0.5616  0.8009
 1655SOL    HW1 6406   4.713   4.203   0.334 -0.2996  2.2311  1.0589
 1655SOL    HW2 6407   4.769   4.288   0.446  4.6826  1.2480 -0.4683
 1656SOL     OW 6408   0.359   2.975   3.122 -0.1387  0.4562 -0.0865
 1656SOL    HW1 6409   0.375   2.882   3.141 -0.3699  0.2222 -0.9865
 1656SOL    HW2 6410   0.311   3.007   3.199 -2.6188 -0.8973 -0.9476
 1657SOL     OW 6411   3.780   6.771   6.383 -0.0677  0.4513  0.5873
 1657SOL    HW1 6412   3.816   6.796   6.468  1.8831  1.3342 -0.4201
 1657SOL    HW2 6413   3.814   6.683   6.366 -3.3167 -1.2910  2.1631
 1658SOL     OW 6414   2.284   2.753  10.998 -0.0013 -0.1962  0.3070
 1658SOL    HW1 6415   2.350   2.729  11.063  1.3012 -0.0819 -0.9011
 1658SOL    HW2 6416   2.263   2.670  10.954  0.7218  0.0327 -0.5079
 1659SOL     OW 6417   7.025   2.471   3.049 -0.2894  0.2660 -0.5345
 1659SOL    HW1 6418   7.100   2.430   3.093 -0.6342  0.1207 -0.0748
 1659SOL    HW2 6419   7.052   2.478   2.958  0.7959  1.3795 -0.1599
 1660SOL     OW 6420   2.950   7.681   9.474  0.1083  0.4366 -0.1498
 1660SOL    HW1 6421   2.981   7.601   9.432 -0.9454  0.7695 -1.6786
 1660SOL    HW2 6422   2.983   7.752   9.419 -2.2655  0.8434 -1.1808
 1661SOL     OW 6423   2.605   1.103  11.938 -0.1706 -0.2042  0.1597
 1661SOL    HW1 6424   2.675   1.128  11.877  0.0387 -1.2748 -0.0709
 1661SOL    HW2 6425   2.649   1.049  12.004 -0.9289 -1.8875 -0.6382
 1662SOL     OW 6426   4.147   7.034   2.200 -0.3544 -0.5532 -0.0219
 1662SOL    HW1 6427   4.125   7.089   2.275 -1.3888 -0.4526 -0.3842
 1662SOL    HW2 6428   4.077   6.969   2.197  0.0567 -0.9797 -0.4897
 1663SOL     OW 6429   0.854   4.902  10.543 -0.3752 -0.1385  0.2869
 1663SOL    HW1 6430   0.783   4.940  10.593  0.3496  1.8540 -0.0947
 1663SOL    HW2 6431   0.929   4.901  10.603 -0.3348 -0.8090  0.2316
 1664SOL     OW 6432   7.115   0.950   8.866  0.0808 -0.0781  0.3715
 1664SOL    HW1 6433   7.149   0.872   8.821 -1.2765 -1.2253  1.2281
 1664SOL    HW2 6434   7.119   1.019   8.801 -0.3145 -1.3001 -0.9981
 1665SOL     OW 6435   2.553   6.506   4.444  0.4772 -0.4158 -0.0141
 1665SOL    HW1 6436   2.589   6.432   4.493  0.2486 -0.3747  0.2208
 1665SOL    HW2 6437   2.560   6.480   4.352  1.0779 -0.4171  0.0320
 1666SOL     OW 6438   0.179   1.961   3.151  0.5339  0.2655  0.1252
 1666SOL    HW1 6439   0.214   1.884   3.196  0.8980  0.3884  0.0599
 1666SOL    HW2 6440   0.181   1.937   3.058  0.3140  0.2205  0.1333
 1667SOL     OW 6441   0.302   2.447   2.113  0.3305 -0.6708  0.1927
 1667SOL    HW1 6442   0.374   2.430   2.173  0.2340  0.0929  0.5416
 1667SOL    HW2 6443   0.296   2.543   2.109 -1.0701 -0.7028  0.6909
 1668SOL     OW 6444   0.600   1.269   6.210 -0.0228  0.0106  0.2333
 1668SOL    HW1 6445   0.686   1.284   6.170 -0.9123  1.1199 -1.4068
 1668SOL    HW2 6446   0.557   1.209   6.150 -0.0309 -1.4631  1.6503
 1669SOL     OW 6447   3.398   7.055   7.986 -0.5524  0.7916  0.6792
 1669SOL    HW1 6448   3.372   7.141   7.953 -0.4323  0.2379 -0.9678
 1669SOL    HW2 6449   3.361   6.993   7.924  0.8075 -0.2594  0.8525
 1670SOL     OW 6450   5.044   7.235  10.232  0.4276 -0.7868 -0.0799
 1670SOL    HW1 6451   4.951   7.215  10.219  0.5196 -1.8282  0.6939
 1670SOL    HW2 6452   5.057   7.319  10.189 -0.5022 -1.3989 -1.6433
 1671SOL     OW 6453   1.295   2.003   9.376 -0.3615  0.1330  0.0196
 1671SOL    HW1 6454   1.210   2.047   9.381  0.3275  1.4955  0.2049
 1671SOL    HW2 6455   1.274   1.910   9.383 -1.7671  0.4837  0.9305
 1672SOL     OW 6456   7.393   4.725   1.134  0.1297  0.0072 -0.2757
 1672SOL    HW1 6457   7.363   4.794   1.074  0.1840  0.6568  0.4240
 1672SOL    HW2 6458   7.368   4.644   1.091 -0.4354  0.4756 -0.8643
 1673SOL     OW 6459   4.037   1.833   1.297  0.0013 -0.4218  0.3911
 1673SOL    HW1 6460   4.104   1.897   1.271  0.9079 -1.0695  1.0471
 1673SOL    HW2 6461   4.064   1.806   1.385 -1.3392 -0.4392  0.8068
 1674SOL     OW 6462   2.526   2.447   0.656  0.6624  0.4617 -0.5324
 1674SOL    HW1 6463   2.490   2.360   0.673  0.6046  0.9673  2.4232
 1674SOL    HW2 6464   2.617   2.441   0.686  0.6140  1.4497 -0.1661
 1675SOL     OW 6465   5.093   0.857   7.518  0.1911  0.2876  0.7229
 1675SOL    HW1 6466   5.018   0.875   7.575  0.1439  0.4871  0.5963
 1675SOL    HW2 6467   5.161   0.919   7.547  0.2169  0.2888  0.6599
 1676SOL     OW 6468   5.961   3.006   6.990  0.0472 -0.0387 -0.3820
 1676SOL    HW1 6469   5.904   2.989   7.065 -0.1413 -0.0801 -0.5332
 1676SOL    HW2 6470   6.018   3.078   7.019 -0.2792  0.2013 -0.3355
 1677SOL     OW 6471   7.078   7.151   9.811 -0.0475 -0.3280 -0.0836
 1677SOL    HW1 6472   7.035   7.237   9.807  0.6407  0.0880  0.8469
 1677SOL    HW2 6473   7.100   7.130   9.721 -2.3505 -0.6610 -0.6323
 1678SOL     OW 6474   2.873   4.339  12.149  0.2837 -0.0114  0.4592
 1678SOL    HW1 6475   2.781   4.363  12.145  0.1639 -0.5984 -0.8923
 1678SOL    HW2 6476   2.913   4.386  12.076  1.2043  0.8065  1.4690
 1679SOL     OW 6477   7.855   6.777   1.382 -0.1372 -0.3378  0.1437
 1679SOL    HW1 6478   7.768   6.811   1.399  0.2840  0.8864 -0.0558
 1679SOL    HW2 6479   7.882   6.820   1.301  1.3966  0.7847  1.1918
 1680SOL     OW 6480   2.973   6.041   3.010  0.2698 -0.3129  0.3096
 1680SOL    HW1 6481   3.048   6.027   2.952  0.4027 -2.4978  0.8999
 1680SOL    HW2 6482   2.924   6.113   2.970  1.5656 -0.2295 -1.2287
 1681SOL     OW 6483   0.043   0.004   4.839  0.3286  0.4079 -0.4746
 1681SOL    HW1 6484   0.071  -0.081   4.806  0.4685 -0.3299  1.3791
 1681SOL    HW2 6485  -0.052  -0.003   4.847  0.4476 -0.0165  0.7484
 1682SOL     OW 6486   0.697   0.826   4.084 -0.6175  0.0563 -0.3582
 1682SOL    HW1 6487   0.634   0.763   4.048 -0.4771 -0.2934 -0.0115
 1682SOL    HW2 6488   0.751   0.774   4.144  1.6141 -0.1972 -2.4493
 1683SOL     OW 6489   1.125   6.546   5.031  0.2004 -0.2496  0.1714
 1683SOL    HW1 6490   1.124   6.473   4.968  2.2494 -0.1940  0.0356
 1683SOL    HW2 6491   1.064   6.518   5.099 -0.0560 -1.5036 -0.5312
 1684SOL     OW 6492   3.754   6.491   8.380  0.0266  0.6240  0.4747
 1684SOL    HW1 6493   3.697   6.552   8.334 -1.5755 -0.3334  1.0966
 1684SOL    HW2 6494   3.841   6.505   8.342 -0.7672  1.5822 -1.0668
 1685SOL     OW 6495   4.050   7.641   4.334 -0.3401  0.6056 -0.5926
 1685SOL    HW1 6496   4.137   7.604   4.323  0.3913  1.7050  1.0681
 1685SOL    HW2 6497   4.040   7.652   4.429 -2.1404  0.8471 -0.7708
 1686SOL     OW 6498   3.048   5.800   1.085 -0.1327  0.1532 -0.5436
 1686SOL    HW1 6499   3.068   5.770   0.996  1.5618  0.0460 -0.1579
 1686SOL    HW2 6500   3.059   5.895   1.081  2.9398 -0.0859  0.1980
 1687SOL     OW 6501   7.259   3.624   5.606 -0.0028 -0.8305  0.0095
 1687SOL    HW1 6502   7.275   3.531   5.624  1.0213 -0.5449  0.6451
 1687SOL    HW2 6503   7.179   3.624   5.553 -0.4172 -2.0294  0.5781
 1688SOL     OW 6504   0.640   1.646   9.754 -0.1501  0.0662  0.0562
 1688SOL    HW1 6505   0.599   1.565   9.723  0.7610 -0.3365 -0.1194
 1688SOL    HW2 6506   0.694   1.675   9.681  2.4270 -1.1704  1.3509
 1689SOL     OW 6507   5.847   2.279   9.001  0.1572  0.4418 -0.0149
 1689SOL    HW1 6508   5.915   2.342   9.025  0.8420 -0.1009 -0.4524
 1689SOL    HW2 6509   5.889   2.224   8.934  0.1716 -1.5094  1.4849
 1690SOL     OW 6510   4.851   0.051  10.685  0.4614  0.2295  0.3977
 1690SOL    HW1 6511   4.924   0.111  10.703  0.5925  0.3794 -0.5865
 1690SOL    HW2 6512   4.884  -0.006  10.615  0.3428 -1.0199  1.3180
 1691SOL     OW 6513   6.183   0.040   7.910 -0.3725 -0.3907 -0.1150
 1691SOL    HW1 6514   6.174   0.122   7.862 -0.0620  0.3464  1.0262
 1691SOL    HW2 6515   6.105   0.036   7.965 -0.1681 -0.6155  0.1622
 1692SOL     OW 6516   1.023   2.516   5.755 -0.2773 -0.0045  0.0165
 1692SOL    HW1 6517   0.935   2.552   5.751 -0.6309 -0.8950 -0.5947
 1692SOL    HW2 6518   1.046   2.500   5.663 -0.7712 -2.7781  0.2920
 1693SOL     OW 6519   0.430   5.105  12.161  0.4844  0.2984 -0.0592
 1693SOL    HW1 6520   0.366   5.039  12.188  1.0317 -0.9498 -1.6690
 1693SOL    HW2 6521   0.376   5.176  12.125 -0.0792 -1.0524 -2.1019
 1694SOL     OW 6522   7.366   2.597   5.638 -0.3373 -0.2740  0.4439
 1694SOL    HW1 6523   7.287   2.646   5.613 -0.6775 -0.1498  1.6944
 1694SOL    HW2 6524   7.398   2.560   5.556 -1.3413  0.1988 -0.1839
 1695SOL     OW 6525   2.637   0.726   3.612 -0.2226 -0.3789  0.3589
 1695SOL    HW1 6526   2.581   0.711   3.688 -1.5415 -1.7189 -0.7862
 1695SOL    HW2 6527   2.670   0.639   3.589  1.8559  0.2980  0.5999
 1696SOL     OW 6528   0.714   3.591   3.342  0.1030  0.1101  0.5083
 1696SOL    HW1 6529   0.670   3.520   3.295  1.1924  0.0817 -0.5223
 1696SOL    HW2 6530   0.698   3.669   3.289 -0.1204  0.4245  1.0270
 1697SOL     OW 6531   7.121   1.170   7.111 -0.3712 -0.6595  0.2089
 1697SOL    HW1 6532   7.180   1.237   7.145  0.9344 -0.7951 -1.6338
 1697SOL    HW2 6533   7.127   1.098   7.174  0.9724 -0.4327  0.3559
 1698SOL     OW 6534   6.788   6.718   4.646 -0.2109 -0.0637 -0.2213
 1698SOL    HW1 6535   6.702   6.721   4.688 -1.6793  0.2023 -3.0050
 1698SOL    HW2 6536   6.807   6.625   4.636  0.0725 -0.1248  0.8483
 1699SOL     OW 6537   1.533   7.726   9.959  0.4582 -0.0816  0.3137
 1699SOL    HW1 6538   1.562   7.635   9.949 -0.3333 -0.2874 -0.1174
 1699SOL    HW2 6539   1.600   7.777   9.913 -0.8201 -0.6897 -2.4087
 1700SOL     OW 6540   7.049   3.571  12.001  0.8553 -0.3620 -0.3422
 1700SOL    HW1 6541   7.133   3.554  12.044  0.1704 -2.7854  0.1726
 1700SOL    HW2 6542   7.068   3.638  11.936  3.1466 -0.7274 -0.1200
 1701SOL     OW 6543   1.636   5.665  12.302  0.1578 -0.2188 -0.0208
 1701SOL    HW1 6544   1.668   5.605  12.235  3.2968 -0.7579  1.7696
 1701SOL    HW2 6545   1.686   5.746  12.287  0.4987 -0.1693  1.3195
 1702SOL     OW 6546   2.644   6.854   7.678  0.2462 -0.1479  0.0521
 1702SOL    HW1 6547   2.650   6.942   7.643 -1.0245  0.6559  1.7045
 1702SOL    HW2 6548   2.645   6.796   7.602  0.0934  1.3461 -1.1051
 1703SOL     OW 6549   2.223   2.791   9.938 -0.2997 -0.4338  0.0852
 1703SOL    HW1 6550   2.195   2.774  10.028 -1.7732 -0.7588 -0.3979
 1703SOL    HW2 6551   2.233   2.886   9.934 -0.6323 -0.3762  0.4912
 1704SOL     OW 6552   1.345   3.018   1.905 -0.0963  0.9532 -0.0020
 1704SOL    HW1 6553   1.319   3.106   1.880 -1.4374  0.3306 -0.8865
 1704SOL    HW2 6554   1.400   2.988   1.833  0.8943  1.2809  0.5998
 1705SOL     OW 6555   1.592   1.129  10.153  0.0674 -0.0609  0.3067
 1705SOL    HW1 6556   1.530   1.153  10.084  0.7519  1.7185  0.2472
 1705SOL    HW2 6557   1.625   1.043  10.127 -2.5294 -1.1776  0.4793
 1706SOL     OW 6558   7.715   7.755   0.643 -0.6332 -0.0683  0.4418
 1706SOL    HW1 6559   7.699   7.778   0.552  3.3874 -0.2894 -0.4795
 1706SOL    HW2 6560   7.663   7.817   0.693 -0.8439  1.8426 -2.0010
 1707SOL     OW 6561   5.778   4.004   6.309  0.2215  0.5234 -0.1933
 1707SOL    HW1 6562   5.867   4.022   6.340 -0.3937  0.7685  1.5303
 1707SOL    HW2 6563   5.769   3.909   6.315 -0.5947  0.6964  2.6006
 1708SOL     OW 6564   2.719   5.840   2.834  0.0910  0.5947  0.5898
 1708SOL    HW1 6565   2.676   5.923   2.855 -1.6309 -0.2092  0.3854
 1708SOL    HW2 6566   2.648   5.782   2.809  1.4955 -0.1066 -2.2003
 1709SOL     OW 6567   7.519   6.646   4.337  0.0635  0.4322 -0.7326
 1709SOL    HW1 6568   7.449   6.676   4.279 -0.8006 -0.7447 -0.3477
 1709SOL    HW2 6569   7.497   6.684   4.422  0.0694  0.3281 -0.6843
 1710SOL     OW 6570   1.969   0.670   4.116 -0.0418 -0.0815 -0.4226
 1710SOL    HW1 6571   1.913   0.737   4.155 -0.4261  0.2223 -1.4662
 1710SOL    HW2 6572   1.913   0.624   4.054  0.8085  0.1524 -1.4081
 1711SOL     OW 6573   2.436   2.546   2.387  0.1101 -0.5496  0.3035
 1711SOL    HW1 6574   2.501   2.514   2.450 -0.7926 -0.4304  1.3327
 1711SOL    HW2 6575   2.436   2.481   2.317  0.5269 -1.1427  0.8463
 1712SOL     OW 6576   3.864   2.555   3.567 -0.2278  0.1824 -0.2227
 1712SOL    HW1 6577   3.941   2.608   3.546  0.8613 -1.0505  0.5092
 1712SOL    HW2 6578   3.882   2.470   3.525  0.0335 -0.9460  2.0439
 1713SOL     OW 6579   4.552   0.865   1.502 -0.4361  0.5568  0.0775
 1713SOL    HW1 6580   4.540   0.771   1.518 -1.8715  0.6547 -0.2228
 1713SOL    HW2 6581   4.525   0.907   1.583 -0.0158  0.7189  0.1337
 1714SOL     OW 6582   7.540   0.493   7.799 -0.4541  0.0709 -0.3399
 1714SOL    HW1 6583   7.550   0.539   7.716  1.4541 -0.6705 -0.5710
 1714SOL    HW2 6584   7.452   0.516   7.829 -0.1300  2.6696 -1.1426
 1715SOL     OW 6585   7.029   1.491   8.791 -0.2001  0.3809 -0.7844
 1715SOL    HW1 6586   7.035   1.549   8.867  0.1203 -0.9407  0.2280
 1715SOL    HW2 6587   6.935   1.477   8.779 -0.2988  1.3129 -1.2266
 1716SOL     OW 6588   7.771   5.840  11.421  0.2775  0.9226  0.1180
 1716SOL    HW1 6589   7.866   5.838  11.430  0.4531  0.5187 -1.4679
 1716SOL    HW2 6590   7.753   5.917  11.367 -0.1493  0.2116 -0.7860
 1717SOL     OW 6591   6.552   0.634   4.252 -0.5066  0.3503 -0.7542
 1717SOL    HW1 6592   6.519   0.549   4.283 -2.4923  1.3666  0.0710
 1717SOL    HW2 6593   6.586   0.677   4.331 -1.4416  1.1445 -0.7662
 1718SOL     OW 6594   4.934   0.184   6.250 -0.1061  0.1727  0.3221
 1718SOL    HW1 6595   4.906   0.118   6.187 -1.8896  0.9420  0.2360
 1718SOL    HW2 6596   5.005   0.143   6.298  0.7272 -0.7594 -1.5868
 1719SOL     OW 6597   7.912   0.008   3.232 -0.6726  0.1294 -0.6155
 1719SOL    HW1 6598   7.885  -0.078   3.264 -0.6500  0.0846 -0.7162
 1719SOL    HW2 6599   7.970   0.042   3.300 -0.1130 -0.2380 -0.9079
 1720SOL     OW 6600   3.438   5.517   2.658 -0.6664  0.1041 -0.4626
 1720SOL    HW1 6601   3.462   5.603   2.694 -0.2169  0.6356 -1.9449
 1720SOL    HW2 6602   3.514   5.462   2.675 -0.3913  0.3968 -0.7276
 1721SOL     OW 6603   1.399   0.323   8.483 -0.2271 -0.2327 -0.1531
 1721SOL    HW1 6604   1.468   0.381   8.453 -0.6002  0.2324 -0.1284
 1721SOL    HW2 6605   1.351   0.375   8.548 -0.1834 -0.7859  0.3317
 1722SOL     OW 6606   1.654   1.547   3.910 -0.0723 -0.3603 -0.4300
 1722SOL    HW1 6607   1.610   1.462   3.901  0.3923 -0.6376 -0.1656
 1722SOL    HW2 6608   1.747   1.526   3.897 -0.1692  0.5203 -3.1044
 1723SOL     OW 6609   0.967   0.420  11.736  0.1658 -0.3225  0.0188
 1723SOL    HW1 6610   1.025   0.496  11.747  0.0113 -0.3326  0.9772
 1723SOL    HW2 6611   0.931   0.430  11.648  0.4915  0.4777 -0.0308
 1724SOL     OW 6612   6.234   5.365   7.911 -0.2276  0.1842  0.2605
 1724SOL    HW1 6613   6.166   5.378   7.977 -1.2972 -0.0239 -0.7717
 1724SOL    HW2 6614   6.260   5.273   7.922  0.9686  0.6316  1.6123
 1725SOL     OW 6615   4.336   1.722  11.805 -0.4857 -0.5254  0.6649
 1725SOL    HW1 6616   4.273   1.774  11.756 -0.8835 -1.2778  0.3449
 1725SOL    HW2 6617   4.293   1.704  11.889 -0.6046 -0.8327  0.5414
 1726SOL     OW 6618   3.280   4.408  10.847  0.0091 -0.7528 -0.1727
 1726SOL    HW1 6619   3.358   4.464  10.846  0.9756 -2.0533 -0.8901
 1726SOL    HW2 6620   3.313   4.322  10.874 -1.3934 -1.0531  0.6476
 1727SOL     OW 6621   6.226   7.392   4.995 -0.0596 -0.1694 -0.3138
 1727SOL    HW1 6622   6.138   7.368   4.968  0.4259 -1.5463 -0.7972
 1727SOL    HW2 6623   6.265   7.309   5.024  1.5227  0.1302 -1.4388
 1728SOL     OW 6624   6.929   2.194   4.832 -0.2245 -0.0888  1.0677
 1728SOL    HW1 6625   6.882   2.276   4.818 -0.2412 -0.1706  0.6317
 1728SOL    HW2 6626   6.865   2.136   4.872 -1.3128 -1.0157 -1.7465
 1729SOL     OW 6627   1.340   6.795   8.476  0.0439 -0.1158 -0.2640
 1729SOL    HW1 6628   1.334   6.704   8.502 -0.5271 -0.5241 -1.7206
 1729SOL    HW2 6629   1.419   6.800   8.422  0.2548  0.3308  0.0738
 1730SOL     OW 6630   1.822   1.902  10.344 -0.3835 -0.4077 -0.3637
 1730SOL    HW1 6631   1.782   1.815  10.341 -2.7791  0.5785 -0.1047
 1730SOL    HW2 6632   1.747   1.962  10.339  1.1805  1.6407 -0.4560
 1731SOL     OW 6633   7.256   0.662   1.583 -0.2365 -0.6047  0.1273
 1731SOL    HW1 6634   7.286   0.680   1.494 -0.3563 -1.3448 -0.0655
 1731SOL    HW2 6635   7.335   0.636   1.631  0.4305  2.6394  1.0595
 1732SOL     OW 6636   2.204   2.607   8.020 -0.0403  0.3954  0.0017
 1732SOL    HW1 6637   2.173   2.675   7.960  1.3147  0.1745 -0.9925
 1732SOL    HW2 6638   2.233   2.536   7.963  1.4569  0.2450  0.8931
 1733SOL     OW 6639   5.109   7.058   6.849  0.0418  0.3410 -0.0281
 1733SOL    HW1 6640   5.034   7.073   6.906  0.0355  0.1552  0.0147
 1733SOL    HW2 6641   5.104   6.965   6.826  1.0045 -0.0090  1.0565
 1734SOL     OW 6642   1.128   3.816   9.518  0.3951 -0.4384  0.4669
 1734SOL    HW1 6643   1.042   3.855   9.506  0.1562 -0.6400  1.4092
 1734SOL    HW2 6644   1.119   3.727   9.484  0.5803 -0.0966 -0.5163
 1735SOL     OW 6645   0.056   4.075   4.250  0.0458 -0.4295  0.1705
 1735SOL    HW1 6646   0.090   4.026   4.325  0.9093  1.1823  0.8798
 1735SOL    HW2 6647   0.113   4.151   4.243 -2.0542  1.2498  0.0060
 1736SOL     OW 6648   5.732   3.472   4.730 -0.4798  0.1402  0.1976
 1736SOL    HW1 6649   5.810   3.508   4.772 -0.9442  0.2562  0.9857
 1736SOL    HW2 6650   5.666   3.541   4.739 -0.2548  0.7015 -1.8750
 1737SOL     OW 6651   0.635   3.055   9.468  0.1767 -0.2923  0.2181
 1737SOL    HW1 6652   0.647   2.967   9.431 -2.1817 -0.6147  0.0423
 1737SOL    HW2 6653   0.566   3.043   9.534  0.4618  1.2788  0.8244
 1738SOL     OW 6654   6.433   6.223   2.742  0.1960  0.1451  0.0317
 1738SOL    HW1 6655   6.493   6.296   2.757 -0.2390  0.3210  0.9642
 1738SOL    HW2 6656   6.370   6.256   2.679  0.0767  0.5404  0.3521
 1739SOL     OW 6657   2.421   0.106  11.521 -0.0544 -0.0933 -0.2910
 1739SOL    HW1 6658   2.500   0.113  11.467 -0.2921  1.2029 -0.4933
 1739SOL    HW2 6659   2.443   0.152  11.602 -0.6639  0.4349 -0.4206
 1740SOL     OW 6660   1.462   2.076   7.820 -0.5275 -0.2349 -0.2350
 1740SOL    HW1 6661   1.534   2.124   7.860 -1.2288 -0.2717  1.1219
 1740SOL    HW2 6662   1.386   2.134   7.828 -0.7435 -0.3457 -1.3102
 1741SOL     OW 6663   3.527   5.963  11.258  0.0644  0.3443 -0.3326
 1741SOL    HW1 6664   3.560   5.926  11.340 -1.1013  0.1154  0.0548
 1741SOL    HW2 6665   3.596   6.023  11.229  1.1335 -0.6867  0.0351
 1742SOL     OW 6666   2.535   3.698  10.431  0.3521  0.4626  0.7076
 1742SOL    HW1 6667   2.532   3.663  10.343  0.4927  0.1958  0.8108
 1742SOL    HW2 6668   2.472   3.645  10.480  0.9490  0.0094  0.9890
 1743SOL     OW 6669   4.761   4.343  11.344  0.4460  0.1898  0.7535
 1743SOL    HW1 6670   4.694   4.380  11.401 -0.8966  0.5600 -0.9752
 1743SOL    HW2 6671   4.773   4.410  11.276  1.0152 -0.7887 -0.1302
 1744SOL     OW 6672   3.317   3.564   1.374 -0.0863  0.0398  0.5760
 1744SOL    HW1 6673   3.397   3.610   1.400 -0.1872  0.5529  0.0032
 1744SOL    HW2 6674   3.265   3.630   1.328 -0.4583 -0.5183  0.1806
 1745SOL     OW 6675   7.064   6.368   8.783  0.1795 -0.2266  0.1751
 1745SOL    HW1 6676   7.127   6.427   8.826  0.1083 -0.2461  0.3054
 1745SOL    HW2 6677   7.064   6.289   8.837 -0.1202 -0.1433  0.2989
 1746SOL     OW 6678   0.704   7.619   0.028  0.1944 -0.2314 -0.3222
 1746SOL    HW1 6679   0.771   7.684   0.049  0.2297 -0.3430 -0.0864
 1746SOL    HW2 6680   0.668   7.592   0.112  0.8069 -1.1786 -0.3436
 1747SOL     OW 6681   6.159   4.921   8.781 -0.2681  0.0554  0.2088
 1747SOL    HW1 6682   6.186   4.997   8.832 -2.4915  1.2777 -0.3043
 1747SOL    HW2 6683   6.147   4.852   8.846 -1.9097  1.2543  1.2426
 1748SOL     OW 6684   3.549   5.931   4.472 -0.2910  0.2092 -0.0635
 1748SOL    HW1 6685   3.582   5.894   4.553 -2.4513 -0.2263  0.6633
 1748SOL    HW2 6686   3.463   5.892   4.460 -0.6324  1.3652 -1.8090
 1749SOL     OW 6687   5.225   2.593   4.993 -0.0372 -0.0197 -0.1376
 1749SOL    HW1 6688   5.217   2.511   5.042 -0.0101  0.7941  1.2954
 1749SOL    HW2 6689   5.320   2.608   4.989 -0.0790  0.4631  0.5377
 1750SOL     OW 6690   5.808   5.401   7.796 -0.1053 -0.0494  0.1678
 1750SOL    HW1 6691   5.774   5.423   7.882 -1.3576  0.6649 -0.4812
 1750SOL    HW2 6692   5.846   5.483   7.764  0.9929 -0.4869  0.3098
 1751SOL     OW 6693   7.765   7.485   0.494  0.1492 -0.0318  0.0725
 1751SOL    HW1 6694   7.765   7.394   0.526  0.2668  0.2476  0.9042
 1751SOL    HW2 6695   7.672   7.506   0.484  0.0141  0.3651  1.7587
 1752SOL     OW 6696   6.944   0.464   7.730  0.8660  0.0609  0.3084
 1752SOL    HW1 6697   7.024   0.431   7.769  0.0635 -1.1342  1.0225
 1752SOL    HW2 6698   6.955   0.449   7.636  1.7403  0.5196  0.3357
 1753SOL     OW 6699   7.785   2.222   1.852  0.2995  0.2169 -0.3198
 1753SOL    HW1 6700   7.757   2.149   1.909  0.2289  0.1511 -0.4375
 1753SOL    HW2 6701   7.714   2.286   1.859  0.6345  0.5361  0.2461
 1754SOL     OW 6702   6.186   7.903  10.467  0.1720  0.2443 -0.0120
 1754SOL    HW1 6703   6.171   7.995  10.446  2.4225  0.4991 -0.7346
 1754SOL    HW2 6704   6.099   7.869  10.489 -0.5614  2.7772  1.3702
 1755SOL     OW 6705   7.144   0.665  11.537  0.0971  0.3043 -0.2389
 1755SOL    HW1 6706   7.070   0.647  11.594 -0.3542  0.4574 -0.7680
 1755SOL    HW2 6707   7.219   0.671  11.596 -0.3262  0.2578  0.3119
 1756SOL     OW 6708   0.993   5.584   4.063 -0.0371 -0.2514  0.2731
 1756SOL    HW1 6709   1.073   5.615   4.021 -0.5986  1.7702  0.5891
 1756SOL    HW2 6710   1.002   5.608   4.155 -0.3127 -1.4925  0.6412
 1757SOL     OW 6711   6.330   7.589   5.170  0.3259 -0.4849  0.0121
 1757SOL    HW1 6712   6.289   7.568   5.253  0.7708  1.7799  0.8988
 1757SOL    HW2 6713   6.274   7.549   5.104 -0.6518 -1.4051  1.3518
 1758SOL     OW 6714   5.564   2.838   5.898 -0.6357  0.7386  0.4131
 1758SOL    HW1 6715   5.541   2.913   5.844 -0.1711  0.7971  0.2917
 1758SOL    HW2 6716   5.488   2.780   5.892 -1.1988  1.4011  0.8912
 1759SOL     OW 6717   6.548   3.414   7.564  0.3941  0.5033  0.4759
 1759SOL    HW1 6718   6.495   3.399   7.642  1.9735 -1.5661  1.2557
 1759SOL    HW2 6719   6.486   3.410   7.491 -1.3503  3.8872  1.5776
 1760SOL     OW 6720   3.121   1.820   8.222  0.1676  0.0906 -0.2457
 1760SOL    HW1 6721   3.143   1.903   8.180 -1.0324  0.3323 -0.4256
 1760SOL    HW2 6722   3.103   1.843   8.313 -0.6069  0.1043 -0.3990
 1761SOL     OW 6723   4.581   1.834   8.906  0.1398  0.6415 -0.1096
 1761SOL    HW1 6724   4.631   1.819   8.826  2.5148  2.7071  0.8577
 1761SOL    HW2 6725   4.526   1.910   8.887 -0.2596  0.3364 -0.1792
 1762SOL     OW 6726   5.515   4.690   0.244  0.0571  0.1185  0.3560
 1762SOL    HW1 6727   5.535   4.783   0.234 -0.2382  0.1338 -0.1630
 1762SOL    HW2 6728   5.541   4.669   0.333  0.5873  0.5811  0.3145
 1763SOL     OW 6729   7.699   0.118   2.994 -0.2557  0.3023  0.0772
 1763SOL    HW1 6730   7.643   0.137   2.919  1.3900  0.5935 -1.1436
 1763SOL    HW2 6731   7.638   0.103   3.067 -1.8529  1.9345 -0.8443
 1764SOL     OW 6732   1.952   4.710   9.355 -0.0424  0.3764  0.2731
 1764SOL    HW1 6733   1.969   4.649   9.427  1.9080 -2.1665 -2.1232
 1764SOL    HW2 6734   1.898   4.660   9.294  1.6157  0.9832 -1.7825
 1765SOL     OW 6735   3.158   2.648   2.753 -0.0308 -0.0188  0.2013
 1765SOL    HW1 6736   3.205   2.658   2.836 -1.1602  0.3903  0.8134
 1765SOL    HW2 6737   3.089   2.585   2.773 -1.6344  1.6677  0.1765
 1766SOL     OW 6738   6.965   7.507   0.947 -0.0102 -0.5585 -0.2359
 1766SOL    HW1 6739   6.934   7.496   1.037  1.6539  0.8912  0.5877
 1766SOL    HW2 6740   7.011   7.426   0.927  0.5326 -0.4874  0.6612
 1767SOL     OW 6741   3.291   3.920  11.338 -0.0163 -0.1850 -0.4847
 1767SOL    HW1 6742   3.201   3.937  11.365 -0.4719 -0.7141 -1.5875
 1767SOL    HW2 6743   3.311   3.833  11.374  0.0330 -0.0919 -0.2879
 1768SOL     OW 6744   4.982   6.803   3.931 -0.8622 -0.3198 -0.2429
 1768SOL    HW1 6745   4.940   6.775   4.012 -0.0816 -2.6537 -0.5852
 1768SOL    HW2 6746   4.948   6.744   3.864  1.9151 -1.4815 -0.7541
 1769SOL     OW 6747   4.029   6.222   5.346  0.2238 -0.7258  0.1347
 1769SOL    HW1 6748   3.948   6.231   5.395  1.4879 -0.3625  2.2795
 1769SOL    HW2 6749   4.018   6.141   5.296 -1.1177 -1.1325  1.0444
 1770SOL     OW 6750   5.081   5.094   3.998  0.0473  0.4401 -0.4699
 1770SOL    HW1 6751   5.055   5.008   4.029 -1.9129  1.2923  0.4531
 1770SOL    HW2 6752   5.150   5.122   4.059 -0.0350 -0.0522 -0.1472
 1771SOL     OW 6753   0.281   2.973   4.834  0.4414 -0.0907  0.1251
 1771SOL    HW1 6754   0.251   2.934   4.752  0.6137  0.3134 -0.1347
 1771SOL    HW2 6755   0.273   3.067   4.820 -0.7869 -0.0354  1.0508
 1772SOL     OW 6756   7.567   2.812   7.379 -0.1339  0.2191 -0.2226
 1772SOL    HW1 6757   7.629   2.808   7.451 -0.6298 -0.4321  0.1775
 1772SOL    HW2 6758   7.489   2.766   7.411 -0.2808 -0.2752 -1.2455
 1773SOL     OW 6759   6.902   7.312   1.611  0.0381 -0.0299 -0.1489
 1773SOL    HW1 6760   6.937   7.306   1.700  0.2207  1.5360 -0.0796
 1773SOL    HW2 6761   6.917   7.403   1.585 -1.2191 -0.1022 -1.2836
 1774SOL     OW 6762   3.509   0.865   4.449 -0.1585 -0.4205 -0.0052
 1774SOL    HW1 6763   3.528   0.956   4.429  1.9656 -0.7955  0.0404
 1774SOL    HW2 6764   3.424   0.849   4.410 -0.4476  1.4981 -0.2566
 1775SOL     OW 6765   3.986   5.071  10.970 -0.0566  0.2094 -0.2658
 1775SOL    HW1 6766   3.899   5.054  10.933  0.6438 -0.1247 -1.8789
 1775SOL    HW2 6767   3.981   5.159  11.007 -1.6319 -0.5621  1.4958
 1776SOL     OW 6768   6.449   6.616   7.136 -0.7161 -0.0579  0.2946
 1776SOL    HW1 6769   6.513   6.658   7.194  0.1242 -1.4129  0.4078
 1776SOL    HW2 6770   6.447   6.672   7.059  1.0840 -0.2669  0.0380
 1777SOL     OW 6771   1.252   2.138   6.419 -0.2063 -0.3110  0.7207
 1777SOL    HW1 6772   1.192   2.144   6.345  0.9831 -0.7819 -0.3125
 1777SOL    HW2 6773   1.197   2.154   6.496 -1.3437  0.8414 -0.2954
 1778SOL     OW 6774   7.562   5.957  12.235 -0.1275 -0.1270  0.0198
 1778SOL    HW1 6775   7.562   5.879  12.291 -0.4566 -0.2027 -0.0815
 1778SOL    HW2 6776   7.487   5.945  12.177 -0.6309  0.6240  0.5004
 1779SOL     OW 6777   3.155   4.800   2.367 -0.0408 -0.4230  0.2031
 1779SOL    HW1 6778   3.188   4.722   2.323 -1.2117 -0.6822 -0.2542
 1779SOL    HW2 6779   3.162   4.780   2.460 -0.3895 -1.1056  0.0875
 1780SOL     OW 6780   5.566   2.935   5.114 -0.2549 -0.0557 -0.5429
 1780SOL    HW1 6781   5.606   2.912   5.198  0.1887 -1.2624 -1.0699
 1780SOL    HW2 6782   5.530   3.023   5.128  0.8794  0.2629  0.5443
 1781SOL     OW 6783   7.248   7.876   1.909  0.0325  0.2680 -0.3204
 1781SOL    HW1 6784   7.205   7.962   1.906  1.4363  0.9984 -0.0416
 1781SOL    HW2 6785   7.281   7.862   1.820 -0.3198 -0.0577 -0.4029
 1782SOL     OW 6786   2.785   0.517  12.372  0.0678 -0.4262 -0.3822
 1782SOL    HW1 6787   2.781   0.577  12.297 -0.0960 -0.2237 -0.2133
 1782SOL    HW2 6788   2.878   0.496  12.382  0.2475  0.5518  0.1499
 1783SOL     OW 6789   0.821   2.122   6.126 -0.1448 -0.6633 -0.1001
 1783SOL    HW1 6790   0.813   2.192   6.061 -1.4527 -0.1981  0.5256
 1783SOL    HW2 6791   0.834   2.043   6.074  0.4212 -0.0853 -0.8561
 1784SOL     OW 6792   6.042   3.115   3.183  0.0128  0.2268  0.0613
 1784SOL    HW1 6793   5.952   3.102   3.153  0.2610  0.8971 -1.0726
 1784SOL    HW2 6794   6.036   3.184   3.249 -0.2778  0.5352 -0.2794
 1785SOL     OW 6795   0.350   5.599  11.060 -0.3021  0.2799  0.9837
 1785SOL    HW1 6796   0.341   5.608  11.154 -1.7995  1.0871  0.8033
 1785SOL    HW2 6797   0.278   5.652  11.024 -0.1509 -0.5162 -0.5865
 1786SOL     OW 6798   0.938   5.581  11.851  0.2383  0.1029 -0.6269
 1786SOL    HW1 6799   0.884   5.512  11.887  1.5376 -1.0975 -0.9058
 1786SOL    HW2 6800   0.920   5.657  11.906  0.8785 -1.2103  1.4914
 1787SOL     OW 6801   2.405   1.598   1.913 -0.2607 -0.4664 -0.3448
 1787SOL    HW1 6802   2.452   1.575   1.993  1.7646  1.4859 -0.8643
 1787SOL    HW2 6803   2.374   1.515   1.878 -0.1514 -1.4766  1.8268
 1788SOL     OW 6804   4.577   4.192   7.241  0.2931  0.0423 -0.0354
 1788SOL    HW1 6805   4.517   4.262   7.218 -0.2960 -0.5241 -0.2682
 1788SOL    HW2 6806   4.648   4.198   7.178 -0.6210 -0.6366 -1.1710
 1789SOL     OW 6807   2.484   1.807   4.488  0.3327 -0.1071  0.2583
 1789SOL    HW1 6808   2.503   1.765   4.572  0.4802  0.3363  0.4450
 1789SOL    HW2 6809   2.388   1.813   4.485  0.1713 -2.0407 -0.5371
 1790SOL     OW 6810   6.426   5.382   7.274  0.0742  0.5024  0.0158
 1790SOL    HW1 6811   6.371   5.305   7.287  0.2679 -0.4553 -3.6342
 1790SOL    HW2 6812   6.513   5.355   7.302 -0.1659 -0.0819  0.2078
 1791SOL     OW 6813   3.964   2.589   1.793 -0.4569  0.1669  0.3464
 1791SOL    HW1 6814   3.869   2.582   1.783 -0.5081  0.6911  0.4296
 1791SOL    HW2 6815   3.987   2.518   1.853 -0.4324 -1.6490 -1.6787
 1792SOL     OW 6816   4.198   5.276   7.444 -0.0352  0.1492  0.7800
 1792SOL    HW1 6817   4.229   5.334   7.514 -1.6158 -1.1875  2.7143
 1792SOL    HW2 6818   4.129   5.325   7.400  0.3761  0.6748  0.7042
 1793SOL     OW 6819   3.630   5.673   6.516  0.1713  0.1984 -0.8527
 1793SOL    HW1 6820   3.683   5.594   6.514 -0.7148 -0.3986 -1.1517
 1793SOL    HW2 6821   3.585   5.675   6.432  1.5180  1.9793 -1.6094
 1794SOL     OW 6822   4.075   0.809   1.116 -0.3366  0.2809 -0.1006
 1794SOL    HW1 6823   4.077   0.760   1.035  1.3942  0.4320 -0.1868
 1794SOL    HW2 6824   4.045   0.897   1.091 -2.4541 -0.3899 -0.0999
 1795SOL     OW 6825   4.062   6.779   8.644 -0.0095 -0.1399 -0.1441
 1795SOL    HW1 6826   4.035   6.870   8.635  0.9885  0.1798 -0.0067
 1795SOL    HW2 6827   4.150   6.776   8.607  0.6960 -0.6682  1.4850
 1796SOL     OW 6828   7.776   6.225   4.189 -0.1417 -0.0165 -0.3022
 1796SOL    HW1 6829   7.828   6.305   4.190 -1.1741  0.8077 -3.1619
 1796SOL    HW2 6830   7.689   6.252   4.218 -0.0238 -0.5648  0.6253
 1797SOL     OW 6831   2.034   5.886   2.570 -0.1348  0.2977  0.6689
 1797SOL    HW1 6832   2.093   5.961   2.583 -0.5458  0.2988  2.8342
 1797SOL    HW2 6833   2.018   5.853   2.658 -1.2750 -1.3489 -0.1185
 1798SOL     OW 6834   3.067   1.887  11.014  0.2220 -0.0279 -0.5394
 1798SOL    HW1 6835   3.013   1.809  11.030  1.2789 -0.7932 -0.6136
 1798SOL    HW2 6836   3.087   1.920  11.101 -1.0184  0.7477 -0.5195
 1799SOL     OW 6837   5.729   3.278   8.514 -0.1038 -0.1492 -0.4551
 1799SOL    HW1 6838   5.697   3.284   8.604  0.2006  1.3935 -0.4255
 1799SOL    HW2 6839   5.820   3.250   8.522 -0.4085 -1.1314 -0.3545
 1800SOL     OW 6840   6.916   0.881   7.408  0.6371  0.5209 -0.5105
 1800SOL    HW1 6841   6.846   0.937   7.375  0.0744  1.0200  1.3722
 1800SOL    HW2 6842   6.996   0.921   7.374  0.0741  0.5560 -1.8371
 1801SOL     OW 6843   7.321   2.678   7.193 -0.1099 -0.0053  0.4136
 1801SOL    HW1 6844   7.331   2.691   7.288  2.0494 -0.7630  0.3496
 1801SOL    HW2 6845   7.387   2.613   7.171 -0.3943  0.3506 -1.6744
 1802SOL     OW 6846   7.272   0.181  10.145  0.1402  0.1846  0.3915
 1802SOL    HW1 6847   7.350   0.185  10.090 -0.2836 -1.3506 -0.3670
 1802SOL    HW2 6848   7.286   0.250  10.210  2.5869 -0.6596  0.8850
 1803SOL     OW 6849   7.757   3.172   3.234 -0.3110 -0.1219 -0.0002
 1803SOL    HW1 6850   7.780   3.095   3.286 -1.7374  0.5966  1.8172
 1803SOL    HW2 6851   7.801   3.245   3.278 -1.0393  0.4204 -0.1459
 1804SOL     OW 6852   1.448   5.240   9.929  0.0706  0.4587 -0.0380
 1804SOL    HW1 6853   1.513   5.190   9.978 -0.1931 -0.5830 -0.7434
 1804SOL    HW2 6854   1.410   5.178   9.868  0.4796  1.7545 -1.6785
 1805SOL     OW 6855   4.421   3.944   2.186  0.3483 -0.5719 -0.2679
 1805SOL    HW1 6856   4.347   3.982   2.137  1.5083  1.5564 -0.4943
 1805SOL    HW2 6857   4.498   3.976   2.140  1.4623 -2.6974  0.0043
 1806SOL     OW 6858   1.872   0.738  11.634 -0.1255 -0.0865 -0.7225
 1806SOL    HW1 6859   1.852   0.779  11.718 -0.0067 -0.9179 -0.2779
 1806SOL    HW2 6860   1.808   0.667  11.626 -0.3943  0.2291 -1.5269
 1807SOL     OW 6861   7.154   6.641   5.368  0.3442  0.3237 -0.3819
 1807SOL    HW1 6862   7.150   6.735   5.387 -0.1793  0.1221  0.5719
 1807SOL    HW2 6863   7.071   6.622   5.326 -0.1586  0.0389  0.6975
 1808SOL     OW 6864   0.811   3.966   6.030  0.0389 -0.2500 -0.3469
 1808SOL    HW1 6865   0.892   3.947   6.078  0.7380  0.3873 -1.2466
 1808SOL    HW2 6866   0.793   3.886   5.980  0.0510 -0.4262 -0.0737
 1809SOL     OW 6867   7.406   4.941   1.882  0.2779  0.1499 -0.4095
 1809SOL    HW1 6868   7.405   4.854   1.842 -1.6620  0.3000 -0.8103
 1809SOL    HW2 6869   7.327   4.943   1.936  0.7332  1.3756  0.2424
 1810SOL     OW 6870   1.480   5.902   5.102 -0.3892 -0.7212  0.3241
 1810SOL    HW1 6871   1.549   5.855   5.149 -0.5990  0.7138  2.1693
 1810SOL    HW2 6872   1.424   5.832   5.066  0.4798 -1.8868  1.1587
 1811SOL     OW 6873   7.062   1.728   0.916 -0.9753  0.0959  0.2370
 1811SOL    HW1 6874   7.146   1.685   0.932 -0.6798  0.8981  0.9477
 1811SOL    HW2 6875   7.024   1.739   1.003 -1.7552 -0.1342 -0.0709
 1812SOL     OW 6876   5.082   6.300   8.373  0.3790  0.2221 -0.2744
 1812SOL    HW1 6877   5.099   6.216   8.331  1.4385 -0.4377  1.3581
 1812SOL    HW2 6878   5.139   6.300   8.450 -3.1088  0.2493  2.5731
 1813SOL     OW 6879   2.822   3.714  10.459 -0.0744  0.2940 -0.5466
 1813SOL    HW1 6880   2.730   3.691  10.451  0.3289 -2.4286  1.4697
 1813SOL    HW2 6881   2.870   3.633  10.441  1.8504  1.1688  0.2764
 1814SOL     OW 6882   4.771   6.554   2.754 -0.1593 -0.1586  0.1825
 1814SOL    HW1 6883   4.847   6.585   2.704  0.2179 -0.2102  0.7128
 1814SOL    HW2 6884   4.758   6.464   2.726 -0.9533  0.2962 -1.0037
 1815SOL     OW 6885   1.468   1.190   4.399 -0.0152  0.1241 -0.4097
 1815SOL    HW1 6886   1.515   1.107   4.392  0.0331  0.2502 -1.8490
 1815SOL    HW2 6887   1.536   1.257   4.398 -0.1463  0.2501 -0.9959
 1816SOL     OW 6888   3.036   6.744   6.144 -0.2705 -0.0420 -0.6359
 1816SOL    HW1 6889   3.077   6.827   6.167 -0.1095 -0.1956 -0.3578
 1816SOL    HW2 6890   2.953   6.744   6.193 -0.5538  0.2135 -1.1017
 1817SOL     OW 6891   5.398   2.737   9.053  0.0545 -0.9408  0.4786
 1817SOL    HW1 6892   5.340   2.758   8.980 -0.9375 -3.6329  0.3699
 1817SOL    HW2 6893   5.460   2.809   9.055 -1.6672  0.7260 -1.1146
 1818SOL     OW 6894   6.791   4.303   6.064 -0.1819 -0.2275 -0.1890
 1818SOL    HW1 6895   6.752   4.388   6.083  1.0621  0.5415 -0.9297
 1818SOL    HW2 6896   6.830   4.275   6.147  2.1477  1.4466 -0.6232
 1819SOL     OW 6897   3.315   4.684   1.500  0.2409 -0.5578 -0.3272
 1819SOL    HW1 6898   3.371   4.761   1.510  0.8965 -1.0279 -0.3256
 1819SOL    HW2 6899   3.231   4.720   1.472  0.6546  0.1351 -0.7358
 1820SOL     OW 6900   4.461   1.822   3.308  0.3184 -0.1272  0.9424
 1820SOL    HW1 6901   4.508   1.905   3.317 -1.9187  1.0898  2.0450
 1820SOL    HW2 6902   4.380   1.834   3.358 -0.7042 -2.4990  0.0023
 1821SOL     OW 6903   6.745   2.160   9.634 -0.3020 -0.0148  0.3352
 1821SOL    HW1 6904   6.688   2.157   9.711 -1.0549  0.7618 -0.1841
 1821SOL    HW2 6905   6.734   2.249   9.599  2.9133  0.9961  1.4967
 1822SOL     OW 6906   7.452   6.153   8.074  0.1036  0.2261  0.1378
 1822SOL    HW1 6907   7.514   6.094   8.032  0.1290  0.0171  0.4637
 1822SOL    HW2 6908   7.376   6.098   8.094  0.5533  0.0352  1.4196
 1823SOL     OW 6909   1.567   3.347  11.829  0.3271  0.1808 -0.0789
 1823SOL    HW1 6910   1.567   3.292  11.751  1.1533 -0.5471  0.4144
 1823SOL    HW2 6911   1.563   3.285  11.902 -4.0120  0.8571  0.5377
 1824SOL     OW 6912   0.493   6.188   0.108 -0.7906  0.5972 -0.0396
 1824SOL    HW1 6913   0.406   6.172   0.145 -1.6277  1.2377 -1.6094
 1824SOL    HW2 6914   0.477   6.196   0.014  1.1825 -0.5797 -0.5230
 1825SOL     OW 6915   1.136   4.013   0.469 -0.7091 -0.3347 -0.4216
 1825SOL    HW1 6916   1.095   4.095   0.441 -2.4472 -0.8647  0.4364
 1825SOL    HW2 6917   1.107   3.948   0.405  2.0983 -0.0514 -2.1657
 1826SOL     OW 6918   0.677   1.357  11.584  0.3747 -0.0754  0.5485
 1826SOL    HW1 6919   0.754   1.301  11.584 -0.7915 -1.8083 -1.3234
 1826SOL    HW2 6920   0.659   1.374  11.492 -0.9031  1.1394  0.9859
 1827SOL     OW 6921   1.430   3.536   2.288  0.0503  0.2343 -0.3391
 1827SOL    HW1 6922   1.405   3.458   2.337  1.2525 -0.4381 -0.7393
 1827SOL    HW2 6923   1.491   3.582   2.346 -0.0715  0.4808 -0.4061
 1828SOL     OW 6924   5.378   0.540  11.764  0.0888  0.2147  0.4078
 1828SOL    HW1 6925   5.314   0.492  11.815  1.3404  0.0864  1.9388
 1828SOL    HW2 6926   5.331   0.568  11.686 -2.0205  0.7837  1.8192
 1829SOL     OW 6927   4.882   2.468   6.036 -0.1881 -0.2405 -0.0583
 1829SOL    HW1 6928   4.963   2.431   6.071 -0.2140 -2.4298 -2.0739
 1829SOL    HW2 6929   4.907   2.555   6.004  0.5497  0.4672  2.2613
 1830SOL     OW 6930   1.517   6.505  11.023 -0.1692 -0.5554 -0.4338
 1830SOL    HW1 6931   1.535   6.554  11.103  0.1811  0.4364 -1.0913
 1830SOL    HW2 6932   1.599   6.460  11.003 -0.0102 -0.1758 -0.6485
 1831SOL     OW 6933   3.039   5.334   2.140  0.1124  0.0914  0.6400
 1831SOL    HW1 6934   3.033   5.342   2.235  0.2761 -1.4686  0.8051
 1831SOL    HW2 6935   3.108   5.395   2.115  1.0113 -0.4557  1.6859
 1832SOL     OW 6936   2.504   3.259   9.922  0.3366 -0.0519  0.0144
 1832SOL    HW1 6937   2.556   3.200   9.978  0.2082  0.0068  0.1976
 1832SOL    HW2 6938   2.568   3.310   9.875  0.4478 -0.1015  0.1117
 1833SOL     OW 6939   2.603   2.417  11.778  0.1575 -0.2324 -0.1835
 1833SOL    HW1 6940   2.642   2.426  11.691  1.3171  0.6146  0.3909
 1833SOL    HW2 6941   2.641   2.489  11.829 -2.3702  0.7904  0.3820
 1834SOL     OW 6942   0.100   5.405   2.233  0.3514  0.1242 -0.2172
 1834SOL    HW1 6943   0.112   5.467   2.305  0.0867  1.3616 -1.2143
 1834SOL    HW2 6944   0.007   5.384   2.234  0.7239 -1.9023  1.3772
 1835SOL     OW 6945   2.871   0.162   1.206  0.2538 -0.5256 -0.8827
 1835SOL    HW1 6946   2.861   0.250   1.242 -0.8251 -1.4076  1.1374
 1835SOL    HW2 6947   2.966   0.151   1.196  0.4602  0.5120 -0.1820
 1836SOL     OW 6948   4.272   3.280   9.036 -0.1008 -0.5611  0.6032
 1836SOL    HW1 6949   4.319   3.264   9.118 -0.5350 -0.1749  0.9341
 1836SOL    HW2 6950   4.199   3.217   9.037 -0.6261  0.0420  0.9419
 1837SOL     OW 6951   2.054   4.339   2.124 -0.6317  0.1870  0.3892
 1837SOL    HW1 6952   2.133   4.309   2.169 -1.4557  0.7432  2.3078
 1837SOL    HW2 6953   2.086   4.403   2.060  0.5767 -0.5494  0.2341
 1838SOL     OW 6954   3.044   3.624   3.275  0.2383  0.0538  0.2796
 1838SOL    HW1 6955   3.056   3.719   3.281  0.5693  0.0188  0.1605
 1838SOL    HW2 6956   3.122   3.592   3.231  0.8345 -0.4559  1.6639
 1839SOL     OW 6957   1.944   0.784   0.516  0.8411 -0.2660  0.5908
 1839SOL    HW1 6958   1.952   0.735   0.598  0.7930 -0.0167  0.7454
 1839SOL    HW2 6959   2.035   0.801   0.489  0.9073  2.0413  2.0308
 1840SOL     OW 6960   1.917   5.374   5.246 -0.2919 -0.4990 -0.7309
 1840SOL    HW1 6961   2.010   5.392   5.233 -0.2216  0.1198  0.4090
 1840SOL    HW2 6962   1.903   5.288   5.207  0.8390 -0.7456 -0.6352
 1841SOL     OW 6963   7.362   5.953   5.795  0.7069  0.4092 -0.3595
 1841SOL    HW1 6964   7.336   6.018   5.729  0.0114  0.0941 -0.4099
 1841SOL    HW2 6965   7.456   5.968   5.808  1.2610 -0.6050 -2.6728
 1842SOL     OW 6966   3.053   2.036   6.692  0.3245  0.7012 -0.0672
 1842SOL    HW1 6967   3.019   1.984   6.619 -0.5164 -0.6402  1.2269
 1842SOL    HW2 6968   2.987   2.105   6.704  0.0482  0.4333 -0.0470
 1843SOL     OW 6969   2.338   2.907   2.732 -0.3104 -0.2163  0.4551
 1843SOL    HW1 6970   2.309   2.930   2.644  0.7265 -0.9693 -0.0894
 1843SOL    HW2 6971   2.366   2.816   2.726  1.7020  0.3133  1.0577
 1844SOL     OW 6972   2.796   5.424   7.177  0.6496  0.4014 -0.0372
 1844SOL    HW1 6973   2.704   5.422   7.202  1.3824 -0.8243  3.0119
 1844SOL    HW2 6974   2.830   5.505   7.215  1.2477 -0.1432  0.6069
 1845SOL     OW 6975   0.416   3.409   1.821  0.2207 -0.6241 -0.5600
 1845SOL    HW1 6976   0.477   3.368   1.882 -1.9408 -1.7045  1.0183
 1845SOL    HW2 6977   0.400   3.496   1.857 -0.3825 -0.9417 -0.0356
 1846SOL     OW 6978   1.471   2.779   8.962 -0.0326  0.4672  0.1755
 1846SOL    HW1 6979   1.446   2.851   8.905 -0.9306  1.0333  1.2495
 1846SOL    HW2 6980   1.458   2.812   9.051  1.5669 -0.3026  0.7410
 1847SOL     OW 6981   6.708   1.603   7.488  0.6043  0.0433 -0.1468
 1847SOL    HW1 6982   6.771   1.538   7.458  0.6011  0.2084 -0.5201
 1847SOL    HW2 6983   6.702   1.590   7.582  1.1430 -0.0207 -0.1209
 1848SOL     OW 6984   2.052   0.874   3.034 -0.3111 -0.5425  0.8908
 1848SOL    HW1 6985   2.120   0.940   3.019 -0.5903 -0.2793  0.7772
 1848SOL    HW2 6986   2.094   0.809   3.090  0.8884 -1.7061 -1.2037
 1849SOL     OW 6987   5.888   3.267   3.897  0.1293  0.1833 -0.0305
 1849SOL    HW1 6988   5.867   3.210   3.971 -1.8772 -0.4009 -0.9786
 1849SOL    HW2 6989   5.827   3.341   3.906 -2.1353 -1.2170 -2.5011
 1850SOL     OW 6990   0.933   2.200  12.294 -0.2569 -0.3945 -0.7470
 1850SOL    HW1 6991   0.902   2.286  12.322  1.9897  0.4171 -0.6166
 1850SOL    HW2 6992   0.919   2.200  12.199  0.6752  0.5377 -0.8995
 1851SOL     OW 6993   0.675   5.533   6.330 -0.6914 -0.2970  0.0721
 1851SOL    HW1 6994   0.767   5.525   6.303 -1.2156 -0.8619 -1.6993
 1851SOL    HW2 6995   0.663   5.462   6.393 -0.1823 -0.9697 -0.5562
 1852SOL     OW 6996   3.969   3.910   5.801  0.2545  0.4146  0.1331
 1852SOL    HW1 6997   3.923   3.831   5.772 -1.4832  0.7197  1.8793
 1852SOL    HW2 6998   3.910   3.982   5.779 -0.5506  0.7614  3.0465
 1853SOL     OW 6999   2.537   6.513   0.471  0.3906  0.1867 -0.6803
 1853SOL    HW1 7000   2.594   6.470   0.534  0.9369  0.0109 -1.2824
 1853SOL    HW2 7001   2.451   6.473   0.485  0.5203  0.1125 -0.0903
 1854SOL     OW 7002   3.247   2.657   3.859  0.5542 -0.8036 -0.4686
 1854SOL    HW1 7003   3.195   2.689   3.785  1.4366  0.3426 -0.6019
 1854SOL    HW2 7004   3.193   2.586   3.896 -0.1634 -1.0192 -1.8416
 1855SOL     OW 7005   4.268   2.280   3.141  0.1663 -0.2108  0.5082
 1855SOL    HW1 7006   4.314   2.210   3.094 -1.1987 -1.3548  0.7879
 1855SOL    HW2 7007   4.232   2.236   3.219 -3.1399  0.0446 -0.7107
 1856SOL     OW 7008   7.493   2.605  11.933  0.0465 -0.3483 -0.1193
 1856SOL    HW1 7009   7.470   2.688  11.891  1.3600  0.6499  1.0576
 1856SOL    HW2 7010   7.562   2.568  11.877 -0.1126 -0.3574 -0.3118
 1857SOL     OW 7011   2.516   0.704   9.800  0.2097 -0.1415 -0.0700
 1857SOL    HW1 7012   2.535   0.797   9.817  2.3816 -0.6912  0.8403
 1857SOL    HW2 7013   2.459   0.678   9.873  0.3299  0.2689  0.1756
 1858SOL     OW 7014   1.796   7.672   9.607  0.7787 -0.5237  0.0278
 1858SOL    HW1 7015   1.784   7.739   9.674  0.5680  0.5357 -1.0438
 1858SOL    HW2 7016   1.712   7.626   9.603  0.8111 -0.6317  0.5175
 1859SOL     OW 7017   5.001   7.537   5.896  0.2213  0.0597  0.0138
 1859SOL    HW1 7018   5.005   7.458   5.842  3.9727  0.9926 -1.3418
 1859SOL    HW2 7019   5.027   7.508   5.983  1.9879 -0.2345 -0.5679
 1860SOL     OW 7020   3.562   5.364   4.125 -0.0362  0.3286  0.2556
 1860SOL    HW1 7021   3.508   5.355   4.046 -1.0126  2.9296  0.5425
 1860SOL    HW2 7022   3.621   5.437   4.106  1.3307 -0.4896  1.1264
 1861SOL     OW 7023   6.454   2.968  10.085 -0.1745  0.3389  0.5739
 1861SOL    HW1 7024   6.445   2.920  10.168  0.0548 -1.2319 -0.2765
 1861SOL    HW2 7025   6.471   2.900  10.020  3.4843  1.7920 -0.2276
 1862SOL     OW 7026   7.512   1.510   2.951 -0.1393  0.0291  0.3702
 1862SOL    HW1 7027   7.438   1.568   2.936 -0.6971 -1.0886 -1.4674
 1862SOL    HW2 7028   7.558   1.505   2.867  2.2645  0.9355  1.5285
 1863SOL     OW 7029   3.208   6.016   2.182 -0.2114  0.0133  0.0433
 1863SOL    HW1 7030   3.236   5.987   2.269 -2.8729 -1.3882  0.5339
 1863SOL    HW2 7031   3.176   6.105   2.196  0.8329  0.3860  0.1416
 1864SOL     OW 7032   1.532   4.432   4.531 -0.4216 -0.0586  0.0523
 1864SOL    HW1 7033   1.571   4.511   4.494 -0.1235 -0.2368 -0.0224
 1864SOL    HW2 7034   1.578   4.417   4.613 -1.0560  0.3115  0.4831
 1865SOL     OW 7035   1.467   3.639  12.081  0.4814  0.2771  0.1182
 1865SOL    HW1 7036   1.383   3.643  12.128  0.2737 -0.4641 -0.1889
 1865SOL    HW2 7037   1.443   3.631  11.989  0.8927  1.7474 -0.1484
 1866SOL     OW 7038   2.064   6.781  10.262  0.0399 -0.0329 -0.1050
 1866SOL    HW1 7039   1.998   6.737  10.208 -1.3398  1.6856  0.1001
 1866SOL    HW2 7040   2.016   6.809  10.340  0.6713  2.3298 -0.4943
 1867SOL     OW 7041   6.580   5.168  11.914  0.2176 -0.0495 -0.5223
 1867SOL    HW1 7042   6.624   5.169  11.999 -0.9816 -0.2087  0.1264
 1867SOL    HW2 7043   6.511   5.234  11.923 -1.2230 -1.5042 -0.6550
 1868SOL     OW 7044   2.889   4.952   6.413  0.1814  0.1059 -0.2597
 1868SOL    HW1 7045   2.902   5.025   6.474  1.3053 -0.2084 -0.0962
 1868SOL    HW2 7046   2.977   4.914   6.402  0.3571  1.1984 -3.4314
 1869SOL     OW 7047   4.867   3.223   5.230 -0.0555 -0.4159  0.4997
 1869SOL    HW1 7048   4.827   3.260   5.151  1.7054 -1.2975 -0.8847
 1869SOL    HW2 7049   4.929   3.158   5.197  0.7304 -0.8332  2.6389
 1870SOL     OW 7050   2.899   3.343   4.898 -0.5413 -0.1315  0.0932
 1870SOL    HW1 7051   2.914   3.402   4.972 -1.6434  0.5813 -0.2238
 1870SOL    HW2 7052   2.811   3.364   4.868 -0.8797 -1.7784 -0.1968
 1871SOL     OW 7053   6.587   5.260   4.333 -0.2307  0.3707  0.0274
 1871SOL    HW1 7054   6.516   5.307   4.290 -1.0159  0.6857  1.6033
 1871SOL    HW2 7055   6.544   5.186   4.377 -0.3008  2.5466  4.0795
 1872SOL     OW 7056   6.199   5.069   1.283 -0.4493 -0.1322 -0.4329
 1872SOL    HW1 7057   6.288   5.098   1.265  0.5784 -1.8670  1.4462
 1872SOL    HW2 7058   6.186   5.084   1.377 -0.9496 -2.6897 -0.0131
 1873SOL     OW 7059   7.117   3.214   9.219 -0.2476  0.0530 -0.4974
 1873SOL    HW1 7060   7.195   3.245   9.172 -0.0652 -0.4910 -0.5538
 1873SOL    HW2 7061   7.134   3.237   9.311 -0.4193  0.7338 -0.6266
 1874SOL     OW 7062   5.116   7.368  10.466 -0.0053  0.4304  0.0243
 1874SOL    HW1 7063   5.069   7.378  10.383 -0.4786 -1.8216 -0.0491
 1874SOL    HW2 7064   5.076   7.434  10.524 -1.4575  0.3359 -0.8113
 1875SOL     OW 7065   0.600   1.267   4.005  0.0998 -0.4847  0.3381
 1875SOL    HW1 7066   0.674   1.313   3.965  1.5012 -2.8733 -0.0096
 1875SOL    HW2 7067   0.523   1.314   3.975  1.2943 -0.0748 -2.3279
 1876SOL     OW 7068   2.114   1.408   2.275  0.1201  0.4424 -0.5447
 1876SOL    HW1 7069   2.052   1.339   2.250  1.1617  0.5402 -3.8280
 1876SOL    HW2 7070   2.074   1.449   2.352 -2.9499 -0.6996 -1.3749
 1877SOL     OW 7071   5.880   7.040   3.422 -0.2244  0.8364  0.4459
 1877SOL    HW1 7072   5.813   6.986   3.464 -0.8164 -0.5927 -2.0997
 1877SOL    HW2 7073   5.957   6.984   3.419 -0.1612  0.9524 -0.2317
 1878SOL     OW 7074   4.099   0.151  11.747  0.0153  0.2392  0.2409
 1878SOL    HW1 7075   4.022   0.094  11.747  0.5471 -0.5013  1.2292
 1878SOL    HW2 7076   4.140   0.136  11.662 -0.3197 -0.1993  0.1533
 1879SOL     OW 7077   5.925   1.989   4.849 -0.1671  0.1486  0.5134
 1879SOL    HW1 7078   6.013   2.028   4.851 -1.0294  2.2488  1.0341
 1879SOL    HW2 7079   5.902   1.986   4.756  0.5688 -0.7398  0.3503
 1880SOL     OW 7080   1.980   2.844   6.247 -0.3003 -0.0079 -0.5360
 1880SOL    HW1 7081   2.042   2.782   6.210 -0.6497 -0.4184 -0.4348
 1880SOL    HW2 7082   1.894   2.805   6.231 -0.5567  0.6891 -0.9328
 1881SOL     OW 7083   5.628   4.485   0.047 -0.6551  0.3870  0.3219
 1881SOL    HW1 7084   5.572   4.536   0.105  1.1966  1.1126  1.6059
 1881SOL    HW2 7085   5.715   4.524   0.058  0.0989 -0.6295 -1.6029
 1882SOL     OW 7086   1.307   7.258   8.220  0.1476 -0.3281 -0.0694
 1882SOL    HW1 7087   1.366   7.271   8.294  1.1566  1.3770 -1.0958
 1882SOL    HW2 7088   1.307   7.163   8.206  0.3093 -0.6456  1.7762
 1883SOL     OW 7089   4.328   1.998   9.581 -0.2485 -0.4100 -0.7831
 1883SOL    HW1 7090   4.364   2.072   9.533 -1.1317  0.6723  0.1609
 1883SOL    HW2 7091   4.254   2.034   9.630 -0.2553 -1.7478  0.2760
 1884SOL     OW 7092   7.041   7.666  10.691 -0.4103  0.1940 -0.5229
 1884SOL    HW1 7093   7.048   7.698  10.602  0.8518 -0.2317 -0.5957
 1884SOL    HW2 7094   7.073   7.576  10.687 -1.7841 -0.3499  0.0892
 1885SOL     OW 7095   3.170   1.674   9.552 -0.0902 -0.4927 -0.6927
 1885SOL    HW1 7096   3.121   1.658   9.471 -1.9856  0.6893  0.1462
 1885SOL    HW2 7097   3.125   1.747   9.593  2.7443  1.0276 -0.0593
 1886SOL     OW 7098   1.456   7.488   8.857  0.0618 -0.1917  0.3844
 1886SOL    HW1 7099   1.463   7.410   8.911 -1.0780 -0.8229 -0.3422
 1886SOL    HW2 7100   1.546   7.506   8.829  0.3233 -1.2966  0.4902
 1887SOL     OW 7101   6.600   3.017   1.958  0.3078  0.1301 -0.9071
 1887SOL    HW1 7102   6.631   3.037   2.046  1.0387  0.0987 -1.1509
 1887SOL    HW2 7103   6.551   2.936   1.968  0.7565 -0.1086 -0.5978
 1888SOL     OW 7104   5.415   5.800   8.122 -0.0169  0.0597  0.6518
 1888SOL    HW1 7105   5.386   5.877   8.171  0.7313  1.6905 -1.3169
 1888SOL    HW2 7106   5.507   5.819   8.101 -0.3853 -0.3831 -1.5878
 1889SOL     OW 7107   5.295   0.331   1.035  0.2961 -0.2111 -0.1078
 1889SOL    HW1 7108   5.382   0.294   1.048  0.6452  0.7777  0.5834
 1889SOL    HW2 7109   5.247   0.307   1.115 -0.0269 -0.6635 -0.4393
 1890SOL     OW 7110   0.005   6.139   1.051 -0.0271  0.3661  0.2683
 1890SOL    HW1 7111  -0.002   6.192   1.130  1.0857 -0.3124  0.8591
 1890SOL    HW2 7112  -0.084   6.112   1.031 -0.3431  0.6951  1.2064
 1891SOL     OW 7113   4.373   2.918   4.467  0.0131  0.1758  0.6554
 1891SOL    HW1 7114   4.435   2.903   4.538  0.9647 -1.9081 -0.5219
 1891SOL    HW2 7115   4.302   2.855   4.482 -0.2938  0.4364  0.3236
 1892SOL     OW 7116   7.155   3.021  10.554 -0.9971  0.2016  0.5388
 1892SOL    HW1 7117   7.239   2.984  10.526  0.0257  2.3035  0.5844
 1892SOL    HW2 7118   7.125   2.963  10.623 -0.4849 -1.6105 -0.7068
 1893SOL     OW 7119   4.001   3.544   1.581  0.2241 -0.0356 -0.3598
 1893SOL    HW1 7120   4.053   3.469   1.551 -0.0040 -0.6264  0.6599
 1893SOL    HW2 7121   3.926   3.504   1.625  0.5881  0.7799  1.0560
 1894SOL     OW 7122   3.409   4.439  11.961  0.6271  0.3043  0.1011
 1894SOL    HW1 7123   3.390   4.523  11.919 -2.3842 -0.8545 -1.1612
 1894SOL    HW2 7124   3.367   4.446  12.047  0.5150  0.1473  0.0580
 1895SOL     OW 7125   4.072   1.837   1.854 -0.1660 -0.5381 -0.1565
 1895SOL    HW1 7126   4.078   1.904   1.923 -0.2447 -0.8436  0.1507
 1895SOL    HW2 7127   3.981   1.843   1.824 -0.3772 -0.9866  0.3680
 1896SOL     OW 7128   0.459   2.252   9.798 -0.0417  0.1932 -0.3366
 1896SOL    HW1 7129   0.506   2.222   9.876 -0.8483 -0.6577 -0.1472
 1896SOL    HW2 7130   0.427   2.171   9.757 -0.3201  0.6785 -1.0970
 1897SOL     OW 7131   0.054   5.058   8.670 -0.4393  0.8105  0.6471
 1897SOL    HW1 7132   0.019   4.970   8.681  0.2037  0.6302  1.4319
 1897SOL    HW2 7133   0.010   5.093   8.593  1.7205 -1.4307 -1.7747
 1898SOL     OW 7134   3.509   1.469   6.130  0.2745  0.1396  0.0645
 1898SOL    HW1 7135   3.514   1.374   6.117 -1.3334  0.1205 -0.6625
 1898SOL    HW2 7136   3.443   1.481   6.198 -1.1998  0.7808 -1.4025
 1899SOL     OW 7137   1.042   4.159   7.957 -0.2997  0.0850 -0.2929
 1899SOL    HW1 7138   1.029   4.120   7.870  1.7589  2.5133 -1.8418
 1899SOL    HW2 7139   0.957   4.197   7.979 -0.0864  2.5752 -3.0634
 1900SOL     OW 7140   5.677   3.712   5.876 -0.0454 -0.0126  0.1356
 1900SOL    HW1 7141   5.593   3.676   5.847  0.0269  0.8474 -1.2092
 1900SOL    HW2 7142   5.735   3.636   5.881 -0.5678 -0.4386 -0.1536
 1901SOL     OW 7143   5.101   1.593   3.954  0.0469  0.2364 -0.2032
 1901SOL    HW1 7144   5.105   1.498   3.943 -0.4500  0.4095 -2.2432
 1901SOL    HW2 7145   5.068   1.605   4.044 -1.2523 -1.5458 -0.3786
 1902SOL     OW 7146   3.014   5.991   8.492 -0.2367  0.5097  0.6091
 1902SOL    HW1 7147   3.056   5.937   8.559 -0.8584  1.6117  1.9663
 1902SOL    HW2 7148   2.947   6.040   8.541 -0.1822  1.9442 -0.6796
 1903SOL     OW 7149   6.088   4.617   8.594 -0.2262 -0.0551 -0.0165
 1903SOL    HW1 7150   6.143   4.696   8.591 -0.7328  0.2939 -0.2857
 1903SOL    HW2 7151   6.124   4.565   8.666  1.7731 -0.8225 -1.4750
 1904SOL     OW 7152   2.384   7.514   8.749  0.4249 -0.1874 -0.6542
 1904SOL    HW1 7153   2.435   7.470   8.817  0.9567  1.4340  0.0484
 1904SOL    HW2 7154   2.306   7.545   8.796  1.2145  1.7243 -0.5172
 1905SOL     OW 7155   2.654   1.202   7.642  0.4999  0.5444 -0.2647
 1905SOL    HW1 7156   2.689   1.275   7.694 -1.8544  0.6895  1.3325
 1905SOL    HW2 7157   2.577   1.240   7.598  0.2470 -0.5461 -0.7836
 1906SOL     OW 7158   2.562   4.251   1.539  0.3749 -0.5655 -0.1451
 1906SOL    HW1 7159   2.555   4.181   1.604 -0.0168  1.7202  2.4620
 1906SOL    HW2 7160   2.472   4.281   1.527  0.6385  0.0993 -0.5176
 1907SOL     OW 7161   6.047   2.165  10.883 -0.5663 -0.2397 -0.4047
 1907SOL    HW1 7162   6.069   2.129  10.969  1.7643  0.8278 -0.4842
 1907SOL    HW2 7163   6.051   2.089  10.824 -0.5287 -0.6962  0.1801
 1908SOL     OW 7164   7.723   2.101  10.209  0.0276  0.0118  0.7587
 1908SOL    HW1 7165   7.785   2.035  10.180 -0.3057 -0.5834  1.3870
 1908SOL    HW2 7166   7.651   2.095  10.146  0.2399  0.1458  0.5032
 1909SOL     OW 7167   4.470   6.457   5.860 -0.3898 -0.5432  0.1322
 1909SOL    HW1 7168   4.412   6.525   5.828  2.2870  1.8138 -0.1489
 1909SOL    HW2 7169   4.495   6.486   5.948 -1.0998 -2.5287  1.0463
 1910SOL     OW 7170   0.689   3.354  11.699 -0.4755 -0.6939 -0.3286
 1910SOL    HW1 7171   0.768   3.388  11.739 -2.1482  1.8596  1.1024
 1910SOL    HW2 7172   0.694   3.259  11.713  2.7107 -0.7499 -1.1828
 1911SOL     OW 7173   1.577   1.298  11.885  0.3333  0.8196 -0.2059
 1911SOL    HW1 7174   1.655   1.260  11.844  1.0708  2.3225 -0.2304
 1911SOL    HW2 7175   1.514   1.304  11.813  0.0339 -0.7140 -0.1167
 1912SOL     OW 7176   2.180   5.897  10.910  0.1872  0.8871  0.6780
 1912SOL    HW1 7177   2.104   5.942  10.948 -0.4071 -0.1971  0.7965
 1912SOL    HW2 7178   2.230   5.968  10.868  0.5748  2.0339  2.9298
 1913SOL     OW 7179   7.891   0.463   4.328  0.2525 -0.0588 -0.2050
 1913SOL    HW1 7180   7.849   0.378   4.317 -1.9229  1.0029 -0.8783
 1913SOL    HW2 7181   7.873   0.509   4.245  1.0439  1.1653  0.2771
 1914SOL     OW 7182   6.285   7.755   6.101 -0.1636 -0.3901  0.1455
 1914SOL    HW1 7183   6.233   7.833   6.122  0.7705  0.6603 -1.2125
 1914SOL    HW2 7184   6.343   7.784   6.031  0.0979 -2.3844 -0.5233
 1915SOL     OW 7185   6.348   7.268   6.745 -0.2472  0.5404  0.2560
 1915SOL    HW1 7186   6.358   7.359   6.771  2.0190  0.1099  1.1473
 1915SOL    HW2 7187   6.436   7.240   6.722 -0.7416 -1.6457  0.7810
 1916SOL     OW 7188   4.829   3.832  11.192  0.0523 -0.2217 -0.5718
 1916SOL    HW1 7189   4.850   3.784  11.272 -0.4654 -0.8420 -0.8049
 1916SOL    HW2 7190   4.894   3.803  11.128  0.5307  0.3523 -0.3538
 1917SOL     OW 7191   2.323   0.589   4.703 -0.1684  0.0309  0.5805
 1917SOL    HW1 7192   2.360   0.635   4.778  0.1566  0.6330  0.0614
 1917SOL    HW2 7193   2.290   0.659   4.646 -0.1945 -0.4051  0.0536
 1918SOL     OW 7194   6.736   6.018   4.063 -0.3089  0.7285  0.3588
 1918SOL    HW1 7195   6.763   6.014   4.155  0.0010 -0.6127  0.2220
 1918SOL    HW2 7196   6.760   6.106   4.035 -0.5423  1.2058  1.5970
 1919SOL     OW 7197   2.287   4.614   8.691 -0.1972  0.4437  0.3539
 1919SOL    HW1 7198   2.364   4.577   8.647 -0.5869  1.1432 -0.9590
 1919SOL    HW2 7199   2.321   4.649   8.773  0.3357 -2.0333  1.2820
 1920SOL     OW 7200   3.578   5.684  10.730 -0.0112 -0.3256 -0.1347
 1920SOL    HW1 7201   3.534   5.664  10.813 -1.7012 -1.2146 -1.1868
 1920SOL    HW2 7202   3.506   5.691  10.666  1.3513 -1.5615 -1.8888
 1921SOL     OW 7203   2.759   6.079   4.206 -0.0515 -0.2724  0.1202
 1921SOL    HW1 7204   2.664   6.086   4.197 -0.0078 -0.3135 -0.4221
 1921SOL    HW2 7205   2.781   6.138   4.278 -0.2472  1.3978 -1.1412
 1922SOL     OW 7206   6.314   7.377   7.926  0.3146 -0.0558  0.2766
 1922SOL    HW1 7207   6.338   7.284   7.932 -0.5621 -0.3896 -0.9648
 1922SOL    HW2 7208   6.348   7.405   7.841  1.8527  1.1948  1.2345
 1923SOL     OW 7209   5.179   3.147   4.559  0.4772 -0.2375 -0.2419
 1923SOL    HW1 7210   5.114   3.213   4.536  1.2551  0.8718  0.6917
 1923SOL    HW2 7211   5.181   3.146   4.654  0.5721 -1.5481 -0.2278
 1924SOL     OW 7212   4.718   4.514   5.506  0.0408 -0.2989 -0.0031
 1924SOL    HW1 7213   4.736   4.544   5.596 -0.7001 -0.0755  0.0735
 1924SOL    HW2 7214   4.623   4.511   5.500  0.0793 -2.4368 -0.0991
 1925SOL     OW 7215   1.647   1.990  11.596 -0.0345  0.1186 -0.7136
 1925SOL    HW1 7216   1.604   2.054  11.653  0.9136  0.6272 -0.5471
 1925SOL    HW2 7217   1.665   1.916  11.653 -0.0807  0.1809 -0.6168
 1926SOL     OW 7218   7.184   5.584   3.905  0.3273 -0.2195  0.1900
 1926SOL    HW1 7219   7.235   5.517   3.860  1.3645  0.2023  0.7032
 1926SOL    HW2 7220   7.111   5.536   3.944  0.3477 -0.8422 -0.5140
 1927SOL     OW 7221   5.174   6.329   9.040 -0.1195  0.5207 -0.3340
 1927SOL    HW1 7222   5.097   6.273   9.045  0.8090 -0.7641  0.1138
 1927SOL    HW2 7223   5.139   6.418   9.030 -1.6116 -0.1552 -1.3566
 1928SOL     OW 7224   6.366   5.860   0.597  0.3840 -0.1211 -0.5174
 1928SOL    HW1 7225   6.316   5.942   0.603 -0.1295 -0.3718 -1.2949
 1928SOL    HW2 7226   6.434   5.869   0.664  0.5329  1.0829 -0.8059
 1929SOL     OW 7227   3.361   1.538  11.830  0.4154  0.3253  0.1373
 1929SOL    HW1 7228   3.324   1.491  11.755  0.3071  2.7228 -1.4227
 1929SOL    HW2 7229   3.364   1.473  11.900  1.2990 -2.2789 -2.1509
 1930SOL     OW 7230   6.603   4.773   8.746 -0.8335 -0.1264  0.0436
 1930SOL    HW1 7231   6.627   4.731   8.663  1.3475 -0.8301  0.9742
 1930SOL    HW2 7232   6.556   4.706   8.795  0.1006 -0.5491  0.3713
 1931SOL     OW 7233   7.646   4.530   0.749  0.6708  0.7037  0.0013
 1931SOL    HW1 7234   7.555   4.536   0.722  0.5249 -0.4740  0.1596
 1931SOL    HW2 7235   7.690   4.484   0.677  0.8793  0.1855  0.4450
 1932SOL     OW 7236   2.226   1.423   9.819  0.1366  0.2833  0.0166
 1932SOL    HW1 7237   2.158   1.415   9.752  0.2909 -0.6504 -0.0441
 1932SOL    HW2 7238   2.253   1.515   9.814  2.5028 -0.3900 -3.5516
 1933SOL     OW 7239   2.022   1.117   2.489  0.2422  0.4104  0.1439
 1933SOL    HW1 7240   2.083   1.060   2.535 -0.0495  0.5523  0.7087
 1933SOL    HW2 7241   2.052   1.206   2.508 -0.9172  0.5251  1.5324
 1934SOL     OW 7242   4.482   3.613   4.567  0.1288 -0.4522 -0.3095
 1934SOL    HW1 7243   4.509   3.685   4.624 -0.4546 -0.3989 -0.0991
 1934SOL    HW2 7244   4.486   3.651   4.479  1.1463 -0.5707 -0.3324
 1935SOL     OW 7245   3.778   1.599   1.963  0.1634 -0.2395  0.4865
 1935SOL    HW1 7246   3.748   1.687   1.985 -0.2183 -0.2929  0.1902
 1935SOL    HW2 7247   3.870   1.598   1.988  0.6344  0.8134 -1.0818
 1936SOL     OW 7248   6.001   6.677   2.718 -0.2119 -0.2390 -0.4301
 1936SOL    HW1 7249   5.910   6.646   2.711  0.2784 -1.2544 -3.9121
 1936SOL    HW2 7250   6.049   6.602   2.752 -0.1790 -0.9542 -1.9732
 1937SOL     OW 7251   4.553   4.524  11.425  0.3023 -0.3516 -0.1807
 1937SOL    HW1 7252   4.614   4.593  11.452 -0.9141  0.0519  1.6861
 1937SOL    HW2 7253   4.498   4.565  11.359  0.5808 -0.0010 -0.2006
 1938SOL     OW 7254   7.075   1.472   0.494 -0.3178 -0.0923 -0.1224
 1938SOL    HW1 7255   7.093   1.538   0.427 -2.0216  0.7841  0.2211
 1938SOL    HW2 7256   7.142   1.486   0.560  0.3399  0.1727 -0.8273
 1939SOL     OW 7257   5.512   5.184   9.787 -0.3064 -0.1412  0.4923
 1939SOL    HW1 7258   5.550   5.265   9.754 -1.8335  0.2385 -0.4070
 1939SOL    HW2 7259   5.534   5.119   9.721 -0.2998 -0.1602  0.5134
 1940SOL     OW 7260   6.698   1.983  12.270  0.4178  0.0413  0.3411
 1940SOL    HW1 7261   6.736   2.068  12.291 -0.9428  0.9693 -0.7997
 1940SOL    HW2 7262   6.673   1.990  12.178 -1.9737 -0.6842  0.8719
 1941SOL     OW 7263   5.373   7.295   8.715  0.1347  0.0271 -0.0905
 1941SOL    HW1 7264   5.330   7.373   8.678  1.2135  0.2656 -0.9133
 1941SOL    HW2 7265   5.341   7.223   8.662 -0.1940  0.0246  0.1063
 1942SOL     OW 7266   4.901   6.956   1.016 -0.0830  0.0525  0.3255
 1942SOL    HW1 7267   4.989   6.952   0.980  0.3403 -1.8539  1.4630
 1942SOL    HW2 7268   4.885   7.050   1.031  2.5931  0.3142  2.0907
 1943SOL     OW 7269   2.274   0.723   4.306  0.4986 -0.3349 -0.4099
 1943SOL    HW1 7270   2.261   0.752   4.396 -1.6149  0.0785 -0.8121
 1943SOL    HW2 7271   2.224   0.785   4.253 -1.3401 -2.6869 -1.5696
 1944SOL     OW 7272   0.646   6.318   6.175 -0.3676  0.3591 -0.0525
 1944SOL    HW1 7273   0.581   6.380   6.142 -0.2558  0.1294 -0.7116
 1944SOL    HW2 7274   0.616   6.233   6.143  0.0579  0.2079 -0.0539
 1945SOL     OW 7275   2.993   0.076  10.594 -0.0085 -0.1020  0.0193
 1945SOL    HW1 7276   3.051   0.022  10.648  0.2507 -1.9539 -1.9731
 1945SOL    HW2 7277   3.046   0.150  10.567  1.1779 -1.3060 -1.0370
 1946SOL     OW 7278   3.526   0.544   9.054  0.2665  0.2213  0.1586
 1946SOL    HW1 7279   3.524   0.614   8.989 -0.3186  0.1655  0.1080
 1946SOL    HW2 7280   3.618   0.521   9.062  0.3482  0.2534 -0.6274
 1947SOL     OW 7281   7.145   1.991   0.800 -0.0088 -0.3207  0.0267
 1947SOL    HW1 7282   7.226   1.989   0.750  0.3724 -0.4183  0.6444
 1947SOL    HW2 7283   7.142   1.906   0.845 -0.2085 -0.1235  0.3935
 1948SOL     OW 7284   5.233   3.387   7.598  0.1566 -0.2960 -0.1845
 1948SOL    HW1 7285   5.190   3.351   7.675  0.3200 -1.3151 -0.5488
 1948SOL    HW2 7286   5.178   3.461   7.571 -1.0910 -1.2431 -0.3412
 1949SOL     OW 7287   5.695   0.363   5.744 -0.0123  0.2133 -0.0614
 1949SOL    HW1 7288   5.624   0.349   5.681 -0.9613  1.6634  0.6421
 1949SOL    HW2 7289   5.693   0.285   5.800  0.7771 -1.0603 -1.6783
 1950SOL     OW 7290   5.861   3.622   7.523 -0.2192  0.0914 -0.4110
 1950SOL    HW1 7291   5.820   3.703   7.495  0.3781  0.8463  0.8163
 1950SOL    HW2 7292   5.901   3.643   7.607  1.2458 -1.0603 -0.7750
 1951SOL     OW 7293   3.682   4.978   8.886 -0.1826  0.1730  0.0797
 1951SOL    HW1 7294   3.607   4.979   8.944  0.5500 -0.3063  1.0706
 1951SOL    HW2 7295   3.749   5.029   8.931  0.0967  0.6058 -0.7913
 1952SOL     OW 7296   7.512   6.577  11.171 -0.4244 -0.1202  0.1454
 1952SOL    HW1 7297   7.509   6.665  11.136 -0.2501  0.0450  0.5381
 1952SOL    HW2 7298   7.579   6.532  11.120 -1.9844 -0.6857 -1.5313
 1953SOL     OW 7299   2.402   2.771   8.826  0.3402  0.2330  0.4579
 1953SOL    HW1 7300   2.495   2.751   8.831  0.6930  0.7549 -2.2869
 1953SOL    HW2 7301   2.397   2.856   8.781 -1.4345  1.1821  2.2756
 1954SOL     OW 7302   4.460   3.883   5.160  0.1528 -0.3786  0.0835
 1954SOL    HW1 7303   4.462   3.792   5.130  0.0493  0.0271 -1.2119
 1954SOL    HW2 7304   4.500   3.933   5.089  1.5235  0.4485  1.3789
 1955SOL     OW 7305   2.241   4.589   3.741 -0.3076 -0.8100 -0.4455
 1955SOL    HW1 7306   2.313   4.607   3.802 -1.5911  0.4851  0.7800
 1955SOL    HW2 7307   2.220   4.675   3.704  0.2360 -1.5172 -2.5778
 1956SOL     OW 7308   3.396   4.536  12.366 -0.3593 -0.8196  0.4059
 1956SOL    HW1 7309   3.348   4.531  12.284  2.1418 -2.0159 -1.1162
 1956SOL    HW2 7310   3.388   4.627  12.393  0.0431  0.0080 -2.0309
 1957SOL     OW 7311   1.014   6.986   7.093 -0.0305 -0.2719  0.1886
 1957SOL    HW1 7312   0.935   7.011   7.044 -0.1975 -2.2331 -0.6100
 1957SOL    HW2 7313   1.086   6.999   7.031  0.5009  2.4489  1.2118
 1958SOL     OW 7314   2.670   1.877   7.892  0.3630 -1.1196  0.1964
 1958SOL    HW1 7315   2.729   1.860   7.966 -0.0147 -1.3527  0.4510
 1958SOL    HW2 7316   2.682   1.969   7.872 -0.6158 -0.6617  1.5404
 1959SOL     OW 7317   1.751   4.089  10.194 -0.1695 -0.4199 -0.2853
 1959SOL    HW1 7318   1.793   4.076  10.280 -0.5222 -2.3273 -0.3600
 1959SOL    HW2 7319   1.664   4.123  10.215 -0.2078 -0.7501  0.1126
 1960SOL     OW 7320   5.744   6.655   5.411  0.4477 -0.7784  0.3442
 1960SOL    HW1 7321   5.783   6.693   5.490 -0.2732 -1.0287  0.8407
 1960SOL    HW2 7322   5.657   6.628   5.439  0.0886 -0.6517 -0.6125
 1961SOL     OW 7323   4.827   7.307   2.358  1.0580 -0.3588 -0.6241
 1961SOL    HW1 7324   4.822   7.403   2.367  0.8967 -0.5225  1.7363
 1961SOL    HW2 7325   4.915   7.285   2.388  1.2917 -0.9165 -1.7049
 1962SOL     OW 7326   2.923   5.249   4.171 -0.3702  0.0693  0.3946
 1962SOL    HW1 7327   3.008   5.232   4.132  0.2790  1.7043  1.0127
 1962SOL    HW2 7328   2.905   5.341   4.152 -1.5613  0.0098  1.0818
 1963SOL     OW 7329   4.175   1.514   2.726 -0.0886 -0.4716 -0.2571
 1963SOL    HW1 7330   4.258   1.503   2.772  0.4238  0.0464 -1.0335
 1963SOL    HW2 7331   4.109   1.483   2.787  0.7758 -2.0069 -0.0560
 1964SOL     OW 7332   0.730   0.056   3.373  0.2186 -0.3468  0.2842
 1964SOL    HW1 7333   0.757   0.060   3.281 -0.0663  1.0272  0.2409
 1964SOL    HW2 7334   0.793  -0.004   3.413  1.9201  0.9745 -0.2919
 1965SOL     OW 7335   7.633   6.631   1.974 -0.1920  0.4688 -0.4392
 1965SOL    HW1 7336   7.712   6.638   2.029 -1.2401 -1.3305  1.4452
 1965SOL    HW2 7337   7.574   6.697   2.011 -1.0977 -1.1038  1.0902
 1966SOL     OW 7338   7.713   0.185   1.996 -0.6439 -0.2007 -0.1626
 1966SOL    HW1 7339   7.732   0.217   2.085 -1.8875 -0.9629  0.4071
 1966SOL    HW2 7340   7.628   0.142   2.004  0.3686 -2.5400 -1.1710
 1967SOL     OW 7341   2.772   1.204   6.195  0.2937 -0.3131  0.3780
 1967SOL    HW1 7342   2.758   1.129   6.253  1.2908 -0.4529  0.4447
 1967SOL    HW2 7343   2.683   1.233   6.172 -0.1469  0.2710  2.6319
 1968SOL     OW 7344   1.955   3.307   0.661  0.4163 -0.1882  0.1689
 1968SOL    HW1 7345   2.040   3.267   0.646  1.0273  1.0787  0.0729
 1968SOL    HW2 7346   1.944   3.307   0.757  0.0301 -1.3043  0.1337
 1969SOL     OW 7347   5.283   7.244   1.356 -0.5328  1.1774 -0.5072
 1969SOL    HW1 7348   5.229   7.179   1.311 -1.1982  1.8573 -0.6971
 1969SOL    HW2 7349   5.350   7.192   1.400  0.8321  0.5136 -3.1483
 1970SOL     OW 7350   3.938   0.259   2.824  0.6818 -0.0944 -0.9423
 1970SOL    HW1 7351   3.927   0.341   2.777  2.8252  1.9302  1.7385
 1970SOL    HW2 7352   3.848   0.230   2.843 -0.2178  2.8180 -0.1582
 1971SOL     OW 7353   0.625   1.047  11.694  0.1793  0.1981 -0.3624
 1971SOL    HW1 7354   0.572   0.982  11.649  0.7220  0.1136 -0.8736
 1971SOL    HW2 7355   0.680   1.085  11.626  1.6351 -0.5467  0.3699
 1972SOL     OW 7356   4.146   0.612  12.299 -0.1456  0.0579  0.2774
 1972SOL    HW1 7357   4.161   0.518  12.312  0.0694  0.1931  1.1004
 1972SOL    HW2 7358   4.103   0.618  12.214  2.8712 -0.5162 -1.4288
 1973SOL     OW 7359   4.320   3.526   4.109  0.8177  0.1211  0.2079
 1973SOL    HW1 7360   4.387   3.487   4.165 -1.5124  0.3157  3.4263
 1973SOL    HW2 7361   4.237   3.490   4.143 -0.9232  2.0850 -1.6696
 1974SOL     OW 7362   5.472   7.528   1.838 -0.3758  0.3110  0.0056
 1974SOL    HW1 7363   5.393   7.536   1.891  0.6927  2.8344  1.4285
 1974SOL    HW2 7364   5.492   7.618   1.811  0.6482 -0.5642 -2.4849
 1975SOL     OW 7365   5.579   6.467   9.824  0.4835 -0.5307 -0.4834
 1975SOL    HW1 7366   5.509   6.500   9.880  1.4995  2.7861 -0.9812
 1975SOL    HW2 7367   5.534   6.413   9.759 -1.3681 -0.0640  0.3488
 1976SOL     OW 7368   1.441   7.697   5.964  0.4082 -0.0989  0.6018
 1976SOL    HW1 7369   1.480   7.750   5.895  1.0187 -0.2134  0.8499
 1976SOL    HW2 7370   1.346   7.704   5.950  0.5332 -0.4359 -0.4735
 1977SOL     OW 7371   0.751   4.242  10.516  0.3170 -0.3859  0.2848
 1977SOL    HW1 7372   0.833   4.243  10.467 -1.0882 -2.1034 -2.2996
 1977SOL    HW2 7373   0.707   4.323  10.491 -0.3619 -1.2182 -1.3692
 1978SOL     OW 7374   2.374   7.761   3.317 -0.3470  0.0808 -0.3675
 1978SOL    HW1 7375   2.330   7.783   3.235 -1.3524 -1.7924 -0.3800
 1978SOL    HW2 7376   2.405   7.671   3.304 -0.8874 -0.4033  1.4364
 1979SOL     OW 7377   5.680   2.556  11.461 -0.1493  0.2954 -0.2272
 1979SOL    HW1 7378   5.696   2.641  11.419 -0.6780 -0.0496 -1.1467
 1979SOL    HW2 7379   5.735   2.558  11.539  0.8787  0.9386 -0.9430
 1980SOL     OW 7380   0.845   4.991   6.529  0.3626  0.2817 -0.7851
 1980SOL    HW1 7381   0.884   5.068   6.488  2.2179  0.0924  0.4882
 1980SOL    HW2 7382   0.870   4.997   6.621 -1.9109 -0.3774 -0.0520
 1981SOL     OW 7383   0.093   4.354   4.249 -0.1287  0.6886 -0.6588
 1981SOL    HW1 7384   0.086   4.419   4.179  0.1633  1.1624 -0.2521
 1981SOL    HW2 7385   0.030   4.384   4.316  0.4669  0.9101 -0.1921
 1982SOL     OW 7386   3.751   4.981   8.570  0.2456  0.4793  0.3733
 1982SOL    HW1 7387   3.754   4.924   8.493  0.6669  2.0999 -0.8659
 1982SOL    HW2 7388   3.675   4.950   8.620  1.6458 -2.4786  0.8741
 1983SOL     OW 7389   2.725   0.028   5.231 -0.0785 -0.3798 -0.0027
 1983SOL    HW1 7390   2.782   0.001   5.303  1.7282 -3.0678 -2.2104
 1983SOL    HW2 7391   2.648  -0.030   5.238 -0.0314 -0.4506 -0.0676
 1984SOL     OW 7392   7.348   1.161   8.685  0.2434  0.3545 -0.2728
 1984SOL    HW1 7393   7.395   1.244   8.682 -1.8387  1.6845  1.2017
 1984SOL    HW2 7394   7.256   1.185   8.687 -0.4365 -1.9954  0.2460
 1985SOL     OW 7395   4.115   0.428   1.339 -0.0736  0.1369 -0.1947
 1985SOL    HW1 7396   4.046   0.445   1.275 -0.7863 -0.7898  0.3064
 1985SOL    HW2 7397   4.127   0.333   1.336  0.1838  0.1340  0.7505
 1986SOL     OW 7398   6.892   5.102   8.777  0.0138  0.0231 -0.2308
 1986SOL    HW1 7399   6.926   5.096   8.688  0.8420  0.5355  0.0275
 1986SOL    HW2 7400   6.798   5.116   8.767  0.1170  0.1979 -1.0270
 1987SOL     OW 7401   4.081   5.713   5.174  0.1599 -0.2599  0.2826
 1987SOL    HW1 7402   4.149   5.745   5.115  0.4743 -1.7113 -0.1751
 1987SOL    HW2 7403   4.006   5.694   5.117  0.4730 -1.6948  0.3067
 1988SOL     OW 7404   6.672   0.701   7.820 -0.6276  0.2810  0.1352
 1988SOL    HW1 7405   6.750   0.733   7.776 -1.1366  0.0748 -0.9579
 1988SOL    HW2 7406   6.664   0.610   7.791 -1.2152  0.2751  0.2979
 1989SOL     OW 7407   3.155   0.043   3.044 -0.1608  0.3241  0.3041
 1989SOL    HW1 7408   3.158   0.080   2.956  0.6741 -1.5811 -0.5018
 1989SOL    HW2 7409   3.097  -0.032   3.037  0.0174  0.0746  1.3435
 1990SOL     OW 7410   0.985   0.054   5.181  0.3360  0.1902  0.6719
 1990SOL    HW1 7411   0.991   0.123   5.247 -1.0240 -0.4585  1.5217
 1990SOL    HW2 7412   0.910   0.079   5.126  0.7811  0.1646  0.0383
 1991SOL     OW 7413   4.248   0.909   1.456 -0.4584 -0.3184 -0.1266
 1991SOL    HW1 7414   4.228   0.815   1.460  0.0122 -0.4197 -0.1757
 1991SOL    HW2 7415   4.343   0.914   1.464 -0.5642  0.2263  1.0182
 1992SOL     OW 7416   2.358   4.313   8.821  0.0076  0.5613 -0.1835
 1992SOL    HW1 7417   2.326   4.358   8.900  2.3252 -1.4220  2.0389
 1992SOL    HW2 7418   2.451   4.334   8.818 -0.0583  0.7272 -2.5776
 1993SOL     OW 7419   1.872   2.722   1.696 -0.1920  0.2236  0.3133
 1993SOL    HW1 7420   1.811   2.792   1.719 -2.4831 -1.3376 -0.6424
 1993SOL    HW2 7421   1.933   2.718   1.770 -1.8104  1.2710  1.7855
 1994SOL     OW 7422   6.352   2.198   2.730  0.1634  0.3845  0.4397
 1994SOL    HW1 7423   6.321   2.257   2.660  0.6638  0.4825  0.2990
 1994SOL    HW2 7424   6.281   2.135   2.741  0.9874 -1.0657 -1.7933
 1995SOL     OW 7425   6.605   0.198  11.498 -0.0997  0.0038  0.1980
 1995SOL    HW1 7426   6.568   0.209  11.411  0.6946  3.7628  0.1565
 1995SOL    HW2 7427   6.691   0.159  11.484 -0.1925  0.0909 -0.6356
 1996SOL     OW 7428   0.973   0.680   0.821  0.4697  0.4267 -0.7449
 1996SOL    HW1 7429   0.895   0.627   0.806  0.5318  0.1797 -0.2176
 1996SOL    HW2 7430   0.941   0.754   0.874  0.9737 -0.8453  1.4574
 1997SOL     OW 7431   3.768   4.350   5.076  0.4453 -0.3477 -0.0148
 1997SOL    HW1 7432   3.835   4.332   5.142  0.6217  0.5947  0.0829
 1997SOL    HW2 7433   3.768   4.446   5.067 -2.4363 -0.0975  1.6007
 1998SOL     OW 7434   3.669   3.820   1.055  0.0100 -0.2501 -0.1976
 1998SOL    HW1 7435   3.754   3.865   1.049  0.2580 -0.2311  2.4564
 1998SOL    HW2 7436   3.683   3.737   1.008  1.6538 -0.4172  0.5059
 1999SOL     OW 7437   6.412   0.581   2.981  0.1834 -0.2605  0.3236
 1999SOL    HW1 7438   6.488   0.606   3.034  0.0970  2.0615 -0.5491
 1999SOL    HW2 7439   6.360   0.526   3.039  1.4570 -0.0896  1.6910
 2000SOL     OW 7440   6.134   2.787   0.541  0.1880  0.0156 -0.2011
 2000SOL    HW1 7441   6.160   2.696   0.526  0.9562  0.1996 -0.0510
 2000SOL    HW2 7442   6.162   2.806   0.630 -1.4437 -0.0855  0.3714
 2001SOL     OW 7443   3.329   1.431  11.438  0.1127  0.2596  0.7580
 2001SOL    HW1 7444   3.387   1.384  11.497  0.6148 -1.9958 -1.3477
 2001SOL    HW2 7445   3.242   1.416  11.473  0.3819 -1.2108  0.8676
 2002SOL     OW 7446   5.465   0.622  10.753 -0.2686 -0.4265  0.1634
 2002SOL    HW1 7447   5.386   0.663  10.718 -0.0503 -0.1780 -0.0441
 2002SOL    HW2 7448   5.536   0.659  10.700  0.0027 -0.5186  0.4623
 2003SOL     OW 7449   0.719   5.729   1.730 -0.1207  0.1544  0.7601
 2003SOL    HW1 7450   0.713   5.665   1.801  0.3568  0.4972  1.1148
 2003SOL    HW2 7451   0.630   5.737   1.697 -0.2464 -0.4245  0.9542
 2004SOL     OW 7452   0.721   2.090   6.990 -0.1473 -0.0286 -0.0231
 2004SOL    HW1 7453   0.726   2.143   6.911  1.1682 -0.0989 -0.0082
 2004SOL    HW2 7454   0.637   2.043   6.982 -0.5954  0.8648 -0.7761
 2005SOL     OW 7455   5.252   4.321   9.221 -0.1692  0.2629 -0.2405
 2005SOL    HW1 7456   5.308   4.254   9.261 -0.3017 -1.5914 -2.9000
 2005SOL    HW2 7457   5.168   4.312   9.268 -0.0062 -1.0715 -0.1604
 2006SOL     OW 7458   2.468   6.191  11.491  0.2594  0.0396 -0.3167
 2006SOL    HW1 7459   2.453   6.282  11.517  0.6133  0.6508 -2.1364
 2006SOL    HW2 7460   2.413   6.140  11.550  1.3768  1.2686  1.9257
 2007SOL     OW 7461   1.941   7.214  10.908 -0.0019  0.2935  0.0789
 2007SOL    HW1 7462   1.995   7.142  10.938  0.6716  0.1002 -1.5138
 2007SOL    HW2 7463   1.984   7.293  10.941 -0.5655  0.0224  1.5464
 2008SOL     OW 7464   5.839   3.693  12.357 -0.2250  0.0912  0.0631
 2008SOL    HW1 7465   5.898   3.619  12.374  0.2945  0.1458 -1.4407
 2008SOL    HW2 7466   5.758   3.652  12.327 -0.0148  0.1093 -0.5439
 2009SOL     OW 7467   4.189   0.744   5.676  0.2415 -0.1762  0.1124
 2009SOL    HW1 7468   4.123   0.811   5.694  0.4395  0.0589 -0.0281
 2009SOL    HW2 7469   4.241   0.739   5.756 -1.0860 -1.6960  0.9329
 2010SOL     OW 7470   6.276   3.933   1.580 -0.2601  0.1827 -0.5460
 2010SOL    HW1 7471   6.359   3.888   1.597 -0.3378 -0.3466 -1.4891
 2010SOL    HW2 7472   6.253   3.907   1.491 -1.2478  0.6320 -0.4309
 2011SOL     OW 7473   6.129   4.441   8.784 -0.1373 -0.0847 -0.0571
 2011SOL    HW1 7474   6.135   4.427   8.878  0.8675 -0.6076 -0.1838
 2011SOL    HW2 7475   6.131   4.353   8.747 -1.3665  0.0681 -0.5400
 2012SOL     OW 7476   1.061   1.248   4.117  0.2161  0.9936 -0.0642
 2012SOL    HW1 7477   1.005   1.325   4.128 -0.6863  0.5494 -1.2973
 2012SOL    HW2 7478   1.001   1.178   4.091  0.9076 -0.3693  1.7978
 2013SOL     OW 7479   0.350   5.046   4.299  0.8139 -0.5091 -0.0281
 2013SOL    HW1 7480   0.267   5.061   4.253  1.0942  0.1745 -0.3261
 2013SOL    HW2 7481   0.335   4.967   4.351 -0.8653  0.9655  1.8670
 2014SOL     OW 7482   5.962   0.942   5.091 -0.1841  0.4551 -0.1029
 2014SOL    HW1 7483   5.901   0.872   5.113 -1.1604  1.2208 -0.2830
 2014SOL    HW2 7484   5.945   0.961   4.999  0.4733  0.5410 -0.2116
 2015SOL     OW 7485   5.278   4.238   4.941  0.1879 -0.3633  0.2838
 2015SOL    HW1 7486   5.341   4.200   5.002 -1.9154 -0.5610  2.4401
 2015SOL    HW2 7487   5.233   4.162   4.903 -1.5050 -0.1820  1.8409
 2016SOL     OW 7488   4.496   6.248   1.989  0.0143 -0.1999 -0.0787
 2016SOL    HW1 7489   4.529   6.165   2.023  1.4971  1.1894  2.1651
 2016SOL    HW2 7490   4.402   6.246   2.007  0.3470 -0.6238  1.8403
 2017SOL     OW 7491   7.916   6.103   6.573 -0.5073 -0.3467  0.2471
 2017SOL    HW1 7492   7.876   6.104   6.486 -1.6220  0.2777  0.7491
 2017SOL    HW2 7493   7.899   6.015   6.606 -0.7522 -0.3384  0.1409
 2018SOL     OW 7494   7.164   2.763  10.199 -0.3321  0.6692  0.1084
 2018SOL    HW1 7495   7.182   2.689  10.141  1.7545  1.2265 -0.0266
 2018SOL    HW2 7496   7.088   2.735  10.249 -1.7164 -0.1783 -2.2726
 2019SOL     OW 7497   3.164   1.771   7.107  0.2433  0.8039 -0.0974
 2019SOL    HW1 7498   3.098   1.793   7.041 -1.1425 -0.6718  0.7063
 2019SOL    HW2 7499   3.140   1.824   7.183 -3.1380 -2.9315  1.8628
 2020SOL     OW 7500   7.279   6.966   1.120 -0.1236  0.4650 -0.8933
 2020SOL    HW1 7501   7.302   6.961   1.212 -2.3471 -0.5290 -0.3288
 2020SOL    HW2 7502   7.236   6.883   1.101 -3.4497  2.1908 -1.6559
 2021SOL     OW 7503   5.850   5.948   4.028 -0.1206  0.1104  0.5219
 2021SOL    HW1 7504   5.893   5.964   3.944 -0.2335 -0.8024  0.2692
 2021SOL    HW2 7505   5.764   5.989   4.019 -0.8396 -1.4871 -0.5262
 2022SOL     OW 7506   5.455   5.355   4.347 -0.2422 -0.4533  0.0215
 2022SOL    HW1 7507   5.423   5.350   4.437  0.5303  2.4497  0.5564
 2022SOL    HW2 7508   5.428   5.442   4.317  0.9067 -0.7411 -1.9967
 2023SOL     OW 7509   4.651   2.490   3.406  0.1673 -0.1275  0.3880
 2023SOL    HW1 7510   4.564   2.526   3.391  0.2974  0.0391  0.0486
 2023SOL    HW2 7511   4.634   2.408   3.453 -0.1867 -0.2392  0.0669
 2024SOL     OW 7512   3.945   4.740  11.013  0.2041  0.1440 -0.1290
 2024SOL    HW1 7513   4.032   4.699  11.012 -0.0931 -0.5627  1.3251
 2024SOL    HW2 7514   3.962   4.833  11.024  0.8029  0.1751 -1.1528
 2025SOL     OW 7515   1.318   0.434   2.456 -0.5853  0.3616  0.2087
 2025SOL    HW1 7516   1.259   0.507   2.477 -0.1190  1.4869 -2.1316
 2025SOL    HW2 7517   1.314   0.426   2.361  1.5970 -0.7952  0.1556
 2026SOL     OW 7518   7.339   0.923  10.195  0.0368  0.1555 -0.1584
 2026SOL    HW1 7519   7.396   0.999  10.183 -0.6587  0.6686 -0.2835
 2026SOL    HW2 7520   7.341   0.905  10.289  1.5218 -0.7293 -0.3224
 2027SOL     OW 7521   4.950   0.415  11.029  0.2222  0.2282  0.6085
 2027SOL    HW1 7522   4.896   0.383  10.956 -0.1704  2.2889 -0.0471
 2027SOL    HW2 7523   4.981   0.500  11.000  0.1152  1.0694  2.8454
 2028SOL     OW 7524   1.824   0.603  12.149  0.0551  0.1041  0.2178
 2028SOL    HW1 7525   1.739   0.646  12.147  0.5113  1.0403  0.4882
 2028SOL    HW2 7526   1.814   0.528  12.091 -0.6862  0.7113 -0.4620
 2029SOL     OW 7527   7.075   1.839   0.228 -0.3580  0.3687  0.2760
 2029SOL    HW1 7528   7.027   1.847   0.146  0.3896 -0.3033 -0.2458
 2029SOL    HW2 7529   7.110   1.749   0.227  1.8832  1.1673  0.0458
 2030SOL     OW 7530   2.092   0.373   8.340  0.3181 -0.3447  0.9997
 2030SOL    HW1 7531   2.187   0.377   8.344  0.3100 -0.1097  0.9495
 2030SOL    HW2 7532   2.067   0.437   8.274  0.0145  1.0995  2.4289
 2031SOL     OW 7533   4.351   2.197   8.036 -0.3536 -0.1992  0.0116
 2031SOL    HW1 7534   4.352   2.181   8.131 -1.1664  2.7079  0.6082
 2031SOL    HW2 7535   4.423   2.257   8.021 -0.6596 -0.0903 -1.1048
 2032SOL     OW 7536   1.324   7.791   0.850 -0.5767 -0.4947 -0.5607
 2032SOL    HW1 7537   1.299   7.775   0.941  1.2105 -1.9902 -0.2848
 2032SOL    HW2 7538   1.280   7.722   0.800 -1.0731 -0.0375 -0.7650
 2033SOL     OW 7539   3.327   4.730   7.480 -0.5763  0.2537  0.3051
 2033SOL    HW1 7540   3.383   4.654   7.466  0.0831  0.8223 -0.1925
 2033SOL    HW2 7541   3.354   4.764   7.566 -1.1171 -0.2700  0.6906
 2034SOL     OW 7542   6.971   5.680   4.104  0.4129  0.0403 -0.4451
 2034SOL    HW1 7543   6.999   5.738   4.032 -3.0214  1.6560 -0.6896
 2034SOL    HW2 7544   6.987   5.731   4.183  0.3533 -0.0080 -0.4020
 2035SOL     OW 7545   7.844   6.074   7.265  0.2945 -0.0387  0.4276
 2035SOL    HW1 7546   7.771   6.013   7.273 -1.1085  1.3120 -1.1063
 2035SOL    HW2 7547   7.883   6.053   7.180 -0.7517  1.6383 -0.5439
 2036SOL     OW 7548   2.163   2.251   6.235  0.3916  0.1754  0.0988
 2036SOL    HW1 7549   2.153   2.311   6.309 -2.8817 -0.4491  0.2893
 2036SOL    HW2 7550   2.151   2.164   6.273 -2.5289 -0.0920 -1.2383
 2037SOL     OW 7551   6.070   4.454   4.638 -0.3652  0.5116  0.0381
 2037SOL    HW1 7552   6.075   4.441   4.543 -0.9039  0.5880 -0.0017
 2037SOL    HW2 7553   6.040   4.371   4.673 -0.4886  0.5879  0.1126
 2038SOL     OW 7554   6.477   1.410   8.544  0.1656  0.3739  0.3466
 2038SOL    HW1 7555   6.532   1.436   8.471 -0.0266 -0.9559 -0.2968
 2038SOL    HW2 7556   6.521   1.333   8.581 -1.2956 -0.8058 -0.2689
 2039SOL     OW 7557   3.584   5.750   5.100 -0.4890  0.1073 -0.5535
 2039SOL    HW1 7558   3.526   5.825   5.087  1.0853  1.0084 -3.2533
 2039SOL    HW2 7559   3.583   5.704   5.016 -0.2855 -2.1084  0.5865
 2040SOL     OW 7560   2.940   7.239   4.167  0.3148  0.4152  0.6620
 2040SOL    HW1 7561   3.023   7.214   4.209 -0.1728  0.4656  1.6991
 2040SOL    HW2 7562   2.944   7.334   4.163  1.4427  0.3282 -1.7488
 2041SOL     OW 7563   4.015   4.536  12.013  0.2908 -0.2150 -0.1144
 2041SOL    HW1 7564   4.071   4.504  12.084 -1.1881 -0.6157  0.9253
 2041SOL    HW2 7565   3.950   4.592  12.057  0.6814  1.3743 -1.4486
 2042SOL     OW 7566   5.378   1.667   4.763  0.5610  0.5443  0.5869
 2042SOL    HW1 7567   5.369   1.644   4.671 -1.2595  0.8172  0.6575
 2042SOL    HW2 7568   5.293   1.706   4.787  0.7627 -0.0643  2.5134
 2043SOL     OW 7569   1.729   0.106   6.934  0.2963  0.3148  0.2866
 2043SOL    HW1 7570   1.795   0.041   6.959  1.0298  0.9722  0.1062
 2043SOL    HW2 7571   1.741   0.178   6.995 -0.5586  0.2641  0.5272
 2044SOL     OW 7572   5.361   1.076   4.864  0.1286 -0.5112 -0.7710
 2044SOL    HW1 7573   5.343   1.133   4.789 -0.1079 -0.0901 -0.4064
 2044SOL    HW2 7574   5.274   1.048   4.894  0.2033 -0.4537 -0.4923
 2045SOL     OW 7575   4.214   2.132  11.234  0.1398 -0.4652  0.0054
 2045SOL    HW1 7576   4.234   2.165  11.146  2.9089 -0.2598  0.6190
 2045SOL    HW2 7577   4.278   2.063  11.248 -0.4133 -0.6510  1.7913
 2046SOL     OW 7578   5.582   3.774   6.444 -0.2213 -0.0190 -0.5712
 2046SOL    HW1 7579   5.664   3.742   6.406 -0.1421  1.1700 -1.4371
 2046SOL    HW2 7580   5.611   3.837   6.510 -0.4319 -0.0386 -0.4618
 2047SOL     OW 7581   0.804   2.666  10.520  0.4155 -0.1169 -0.6104
 2047SOL    HW1 7582   0.889   2.661  10.564  0.6595  0.6461 -0.9803
 2047SOL    HW2 7583   0.746   2.708  10.584  0.8461  1.2738 -1.1002
 2048SOL     OW 7584   5.127   2.932   7.400  0.5557  0.1456  0.8693
 2048SOL    HW1 7585   5.205   2.906   7.351 -1.7529 -1.9582 -2.1292
 2048SOL    HW2 7586   5.129   3.027   7.401  2.4450  0.1711 -0.4434
 2049SOL     OW 7587   7.536   5.423   7.940 -0.2163  0.3034 -0.5282
 2049SOL    HW1 7588   7.568   5.491   7.999 -1.5457  0.3759  0.1442
 2049SOL    HW2 7589   7.492   5.360   7.998 -1.0922  0.1093 -1.3832
 2050SOL     OW 7590   3.524   3.780   3.806  0.1356  0.7506 -0.1698
 2050SOL    HW1 7591   3.544   3.834   3.882 -0.7211  1.3409 -0.3438
 2050SOL    HW2 7592   3.543   3.690   3.833  0.7661  1.0537  0.4078
 2051SOL     OW 7593   4.360   7.599  12.096 -0.2070 -0.0626  0.6317
 2051SOL    HW1 7594   4.395   7.677  12.137 -0.2003 -0.1983  0.8899
 2051SOL    HW2 7595   4.406   7.526  12.138 -1.8023 -0.3238  2.0262
 2052SOL     OW 7596   0.197   1.107  12.312  0.6434 -0.1428 -0.2245
 2052SOL    HW1 7597   0.219   1.135  12.223  0.9469 -0.3970 -0.2293
 2052SOL    HW2 7598   0.112   1.147  12.329  1.1718  0.9964 -0.1435
 2053SOL     OW 7599   1.675   7.807   7.567 -0.2325 -0.0204 -0.5540
 2053SOL    HW1 7600   1.627   7.883   7.598 -0.2296  0.0799 -0.7914
 2053SOL    HW2 7601   1.738   7.788   7.637  0.9410  1.2467 -1.2259
 2054SOL     OW 7602   3.101   4.501   8.279  0.1484  0.7353  0.3012
 2054SOL    HW1 7603   3.075   4.498   8.371 -0.1519 -1.0529  0.1937
 2054SOL    HW2 7604   3.152   4.582   8.271 -0.7337  1.4702  1.7760
 2055SOL     OW 7605   7.752   1.812   0.361 -0.0998 -0.6322 -0.2270
 2055SOL    HW1 7606   7.757   1.791   0.454 -3.1047 -1.3488 -0.1143
 2055SOL    HW2 7607   7.731   1.905   0.358 -0.1498 -0.6411 -0.1555
 2056SOL     OW 7608   0.929   1.129   7.851  0.1867 -0.6659 -0.0704
 2056SOL    HW1 7609   0.993   1.101   7.786 -0.1321 -1.2054 -0.1606
 2056SOL    HW2 7610   0.871   1.189   7.804 -0.4449 -1.5721 -0.4723
 2057SOL     OW 7611   6.337   5.193   1.061  0.1740  0.2072  0.5774
 2057SOL    HW1 7612   6.248   5.172   1.036  0.0359  0.2481  1.0150
 2057SOL    HW2 7613   6.385   5.201   0.979  0.0878 -1.1970  0.3837
 2058SOL     OW 7614   2.947   6.512   0.682  0.0965  0.0602 -0.2505
 2058SOL    HW1 7615   3.033   6.493   0.645  0.1874 -1.3727  0.6377
 2058SOL    HW2 7616   2.933   6.605   0.663  0.5652 -0.3324 -2.9670
 2059SOL     OW 7617   7.357   6.328  11.721  0.1709 -0.0216  0.2802
 2059SOL    HW1 7618   7.409   6.273  11.779  2.1409  0.9683 -0.4803
 2059SOL    HW2 7619   7.346   6.276  11.641 -1.7408 -1.0005  1.0998
 2060SOL     OW 7620   7.386   5.591   6.430  0.5536 -0.1154  0.5506
 2060SOL    HW1 7621   7.304   5.545   6.412  0.8360  0.0605 -1.3664
 2060SOL    HW2 7622   7.441   5.526   6.473 -0.3916 -0.3794  1.4128
 2061SOL     OW 7623   3.837   5.827   7.221 -0.5666 -0.0816 -0.1331
 2061SOL    HW1 7624   3.930   5.805   7.235 -0.5583 -0.6185 -0.9631
 2061SOL    HW2 7625   3.839   5.914   7.182 -0.4511  0.2030  0.4932
 2062SOL     OW 7626   1.657   4.382  12.225 -0.0069 -0.2535 -0.4359
 2062SOL    HW1 7627   1.629   4.461  12.178  1.9172 -0.1909 -1.5810
 2062SOL    HW2 7628   1.603   4.312  12.189 -2.8465  0.6475  1.6674
 2063SOL     OW 7629   1.863   7.093   5.166 -0.1111  1.1115 -0.2759
 2063SOL    HW1 7630   1.859   7.177   5.120 -0.8102  1.1466 -0.1500
 2063SOL    HW2 7631   1.920   7.039   5.110 -1.6243  0.8690 -1.6641
 2064SOL     OW 7632   5.238   6.651   2.232  0.4649  0.0168 -0.3073
 2064SOL    HW1 7633   5.296   6.583   2.197 -0.2432 -0.3303 -0.8238
 2064SOL    HW2 7634   5.153   6.631   2.195  0.3971  1.6683 -1.1158
 2065SOL     OW 7635   7.306   6.841   7.155  0.1056  0.2560  0.3736
 2065SOL    HW1 7636   7.338   6.898   7.224 -1.0810  0.9986  0.3441
 2065SOL    HW2 7637   7.327   6.886   7.074 -2.8630  1.9144  0.3764
 2066SOL     OW 7638   1.749   2.720   6.281  0.1484 -0.0485 -0.1946
 2066SOL    HW1 7639   1.675   2.701   6.224  0.7983  0.4165 -1.2154
 2066SOL    HW2 7640   1.790   2.635   6.297 -0.6989 -0.3329  0.5284
 2067SOL     OW 7641   5.641   3.414  11.840  0.1513 -0.5815  0.1740
 2067SOL    HW1 7642   5.581   3.353  11.798  2.2541 -1.1472 -2.2094
 2067SOL    HW2 7643   5.598   3.499  11.833 -0.0989 -0.8462 -2.1719
 2068SOL     OW 7644   3.798   0.521   9.051 -0.2753  0.4314  0.3876
 2068SOL    HW1 7645   3.825   0.432   9.027 -1.0429  0.0711  0.8279
 2068SOL    HW2 7646   3.815   0.573   8.972 -1.4641 -0.4576 -0.4954
 2069SOL     OW 7647   7.407   3.654  10.514  0.3031 -0.8579  0.1136
 2069SOL    HW1 7648   7.319   3.663  10.477 -0.2183 -1.4331  1.1684
 2069SOL    HW2 7649   7.440   3.571  10.480  0.9137 -0.1143 -1.1872
 2070SOL     OW 7650   3.103   5.008   7.295  0.4344 -0.0005  0.3296
 2070SOL    HW1 7651   3.136   5.056   7.370  4.1613 -0.6245 -0.7003
 2070SOL    HW2 7652   3.117   5.068   7.221  0.8100 -0.9062 -0.3531
 2071SOL     OW 7653   7.274   6.988   3.456  0.2469 -0.2231  0.7399
 2071SOL    HW1 7654   7.217   7.037   3.515 -0.6312 -1.0488  0.6048
 2071SOL    HW2 7655   7.285   7.046   3.380 -0.2964  0.0126  0.8351
 2072SOL     OW 7656   3.455   5.203   8.111 -0.1120 -0.0533 -0.4719
 2072SOL    HW1 7657   3.510   5.153   8.050 -0.9211 -0.2992 -1.0117
 2072SOL    HW2 7658   3.486   5.177   8.198  1.6862  1.0022 -0.7530
 2073SOL     OW 7659   7.663   4.882  11.158  0.1616  0.3938 -0.3357
 2073SOL    HW1 7660   7.703   4.961  11.122 -0.2210  0.7848  0.0802
 2073SOL    HW2 7661   7.720   4.858  11.231  0.4776  0.0710 -0.6803
 2074SOL     OW 7662   3.565   7.339   4.107 -0.2887  0.1822 -0.3100
 2074SOL    HW1 7663   3.640   7.312   4.160 -0.8701 -0.6645  0.1102
 2074SOL    HW2 7664   3.581   7.431   4.087  0.5884  0.1556  0.2380
 2075SOL     OW 7665   7.764   0.212   5.736 -0.2442 -0.4126 -0.3108
 2075SOL    HW1 7666   7.695   0.268   5.700 -0.5357 -1.0686 -0.7830
 2075SOL    HW2 7667   7.716   0.144   5.784 -0.0566 -2.2304 -2.5555
 2076SOL     OW 7668   3.561   4.896  11.433  0.3749  0.3245 -0.1083
 2076SOL    HW1 7669   3.528   4.909  11.344  0.1631  1.7257  0.1504
 2076SOL    HW2 7670   3.538   4.805  11.454 -0.4177  0.2655 -1.1259
 2077SOL     OW 7671   1.273   4.221   6.873 -0.1112  0.0429  0.0196
 2077SOL    HW1 7672   1.334   4.212   6.800  1.7246 -0.7415  1.5661
 2077SOL    HW2 7673   1.265   4.316   6.886 -1.0031  0.2179 -1.5768
 2078SOL     OW 7674   2.600   1.412   8.071 -0.3249  0.1016  0.5666
 2078SOL    HW1 7675   2.551   1.491   8.050 -1.6628 -0.2332  2.2529
 2078SOL    HW2 7676   2.652   1.395   7.992 -1.2604  1.7043 -0.4556
 2079SOL     OW 7677   3.685   5.144  11.144 -0.3785  0.3748 -0.0493
 2079SOL    HW1 7678   3.746   5.098  11.202 -0.4839 -0.1174 -0.3249
 2079SOL    HW2 7679   3.617   5.080  11.125 -1.1499  1.0179  0.4888
 2080SOL     OW 7680   2.965   5.409   0.587  0.2325  0.0997  0.4225
 2080SOL    HW1 7681   2.915   5.489   0.602 -0.4853 -0.3145  0.3006
 2080SOL    HW2 7682   2.914   5.341   0.631 -0.2296 -0.6142 -1.1819
 2081SOL     OW 7683   3.198   7.146   4.648  0.1268 -0.6635  0.2611
 2081SOL    HW1 7684   3.211   7.229   4.601 -2.0312 -0.0439  0.6311
 2081SOL    HW2 7685   3.247   7.157   4.729 -0.8034  0.6592  0.6912
 2082SOL     OW 7686   5.901   6.378  11.386  0.2072  0.1050 -0.1861
 2082SOL    HW1 7687   5.895   6.282  11.382  0.1741  0.1435 -1.3840
 2082SOL    HW2 7688   5.895   6.398  11.479 -0.9158 -0.9918  0.0080
 2083SOL     OW 7689   6.497   3.857  10.336  0.1648  0.1017  0.4229
 2083SOL    HW1 7690   6.450   3.907  10.403 -1.5891 -1.1919  0.2173
 2083SOL    HW2 7691   6.432   3.842  10.267  1.0259 -1.3051 -0.1206
 2084SOL     OW 7692   5.710   5.599   6.467 -0.0791  0.1580  0.0349
 2084SOL    HW1 7693   5.801   5.585   6.493  0.0655  0.7005 -0.1714
 2084SOL    HW2 7694   5.702   5.694   6.456 -0.5628  0.0799 -0.3340
 2085SOL     OW 7695   7.865   0.607   9.904 -0.1423  0.3317  0.2555
 2085SOL    HW1 7696   7.875   0.699   9.928 -1.0825  0.2517  1.0044
 2085SOL    HW2 7697   7.867   0.560   9.987  0.4697 -0.3577 -0.1260
 2086SOL     OW 7698   1.441   4.037   4.120  0.3838 -0.1636 -0.1873
 2086SOL    HW1 7699   1.479   4.051   4.034  0.6984  2.8431  0.3341
 2086SOL    HW2 7700   1.348   4.057   4.109  0.4932  0.6180  0.2139
 2087SOL     OW 7701   1.216   4.372   3.300  0.3073  0.4863 -0.9249
 2087SOL    HW1 7702   1.170   4.288   3.296  0.2943  0.4672 -0.4506
 2087SOL    HW2 7703   1.167   4.428   3.240  0.5144  0.0656 -1.4992
 2088SOL     OW 7704   6.935   7.661   5.347  0.6892 -0.7382  0.0481
 2088SOL    HW1 7705   6.931   7.637   5.440  0.5832 -1.4004 -0.1232
 2088SOL    HW2 7706   6.878   7.597   5.303 -2.4191  1.8210 -0.0544
 2089SOL     OW 7707   3.698   4.592   7.234  0.5583 -0.2196  0.5124
 2089SOL    HW1 7708   3.699   4.617   7.141  1.2079  1.1358  0.8551
 2089SOL    HW2 7709   3.752   4.658   7.277  0.2869 -0.8440  1.8606
 2090SOL     OW 7710   1.756   1.275   0.940  0.0225 -1.0422  0.3206
 2090SOL    HW1 7711   1.712   1.305   0.860  0.1101  0.7872  0.9293
 2090SOL    HW2 7712   1.845   1.254   0.912  0.9821  2.4385  0.3877
 2091SOL     OW 7713   2.755   7.441   1.435  0.2219 -0.2048  0.5018
 2091SOL    HW1 7714   2.714   7.499   1.499 -1.5281 -1.3276  0.4687
 2091SOL    HW2 7715   2.759   7.494   1.355  0.3884  0.4776  0.9463
 2092SOL     OW 7716   5.164   0.244   0.246  0.0796  0.0859  0.1048
 2092SOL    HW1 7717   5.201   0.322   0.287 -0.7153  0.5366 -0.0064
 2092SOL    HW2 7718   5.239   0.187   0.230  0.4303 -0.0472  2.0346
 2093SOL     OW 7719   0.778   1.122   7.225  0.2651  0.0638 -0.2449
 2093SOL    HW1 7720   0.762   1.057   7.294 -1.4433  0.2433 -0.4491
 2093SOL    HW2 7721   0.741   1.083   7.146 -0.6473  1.2260 -0.3990
 2094SOL     OW 7722   0.338   1.483   2.326  0.3690  0.3933  0.2123
 2094SOL    HW1 7723   0.269   1.495   2.261  0.0398 -0.3349  0.4152
 2094SOL    HW2 7724   0.418   1.510   2.280  0.1147  0.0851 -0.4306
 2095SOL     OW 7725   3.311   5.811   1.990  0.4498 -1.1612 -0.0753
 2095SOL    HW1 7726   3.280   5.885   2.043 -0.6052 -1.9051  0.3744
 2095SOL    HW2 7727   3.272   5.826   1.904  1.5349 -0.3638 -0.4481
 2096SOL     OW 7728   4.510   0.457   9.043  0.2624 -0.3318  0.3384
 2096SOL    HW1 7729   4.547   0.516   9.108  0.5144 -1.4681  1.2701
 2096SOL    HW2 7730   4.492   0.512   8.967  1.5647  0.7082  0.7511
 2097SOL     OW 7731   1.689   5.588   2.060 -0.0178 -0.0318  0.2424
 2097SOL    HW1 7732   1.744   5.618   1.987  0.0735  1.3203  0.8403
 2097SOL    HW2 7733   1.751   5.565   2.129 -0.1373 -0.3589  0.2399
 2098SOL     OW 7734   4.935   6.391   3.572  0.0578 -0.4556  0.0896
 2098SOL    HW1 7735   4.911   6.367   3.662 -0.6748  0.1982  0.0801
 2098SOL    HW2 7736   4.991   6.320   3.543 -0.1383 -0.9530  0.8802
 2099SOL     OW 7737   5.746   4.660   7.178 -0.2304  0.3619 -0.9939
 2099SOL    HW1 7738   5.745   4.744   7.132 -0.6483 -0.4478 -2.5006
 2099SOL    HW2 7739   5.827   4.662   7.229 -1.1842  2.4988  0.6281
 2100SOL     OW 7740   1.014   6.825   5.452  0.1283  0.0170 -0.1084
 2100SOL    HW1 7741   1.012   6.730   5.439 -0.2527  0.1148 -0.8627
 2100SOL    HW2 7742   1.032   6.837   5.545 -1.4139 -0.8136  0.3164
 2101SOL     OW 7743   7.481   7.818   6.837 -0.8048 -0.0469  0.3190
 2101SOL    HW1 7744   7.425   7.798   6.762 -0.3660  1.2154 -0.3563
 2101SOL    HW2 7745   7.556   7.759   6.827 -1.4085 -0.8823  0.5624
 2102SOL     OW 7746   1.669   0.084   3.597  0.2583 -0.3708 -0.1989
 2102SOL    HW1 7747   1.610   0.059   3.526 -0.6970 -0.5606  0.6301
 2102SOL    HW2 7748   1.700   0.172   3.574 -1.6662  0.4373  0.1532
 2103SOL     OW 7749   6.504   2.177   3.191  0.2991  0.2198 -0.0718
 2103SOL    HW1 7750   6.536   2.095   3.229 -4.4398 -2.4062 -0.8791
 2103SOL    HW2 7751   6.476   2.228   3.267  1.0698  0.0303  0.3560
 2104SOL     OW 7752   7.393   6.540   1.829 -0.4667 -0.0176 -0.1070
 2104SOL    HW1 7753   7.478   6.573   1.860 -0.6399 -0.0443  0.4028
 2104SOL    HW2 7754   7.332   6.559   1.900 -0.4004 -2.2357  0.6098
 2105SOL     OW 7755   2.949   6.461   3.585  0.1087  0.3873 -0.3219
 2105SOL    HW1 7756   3.040   6.473   3.611 -0.3128  0.4738  1.2610
 2105SOL    HW2 7757   2.950   6.387   3.525  1.1012 -0.3182  0.5215
 2106SOL     OW 7758   3.057   4.327   0.653 -0.0266  0.3801  0.1539
 2106SOL    HW1 7759   3.110   4.256   0.690 -0.0337 -0.4139 -1.3051
 2106SOL    HW2 7760   2.966   4.297   0.665 -0.0834  0.7854  0.7746
 2107SOL     OW 7761   1.845   5.767  10.505 -0.0534  0.3019  0.5620
 2107SOL    HW1 7762   1.903   5.818  10.449 -1.3257 -0.5462 -1.6998
 2107SOL    HW2 7763   1.777   5.735  10.445 -0.5719 -2.1125  2.2833
 2108SOL     OW 7764   1.281   7.915   1.758  0.5731 -0.5115 -0.6255
 2108SOL    HW1 7765   1.247   7.989   1.708  1.4823  0.3166 -0.0536
 2108SOL    HW2 7766   1.376   7.922   1.749  0.7093 -0.9868  0.3112
 2109SOL     OW 7767   0.979   0.433  11.402  0.6319 -0.3012  0.9720
 2109SOL    HW1 7768   0.915   0.366  11.426  0.9223 -0.1930  2.1482
 2109SOL    HW2 7769   0.930   0.497  11.351  0.0164 -0.6730  1.0941
 2110SOL     OW 7770   2.131   3.565   4.388  0.1377 -0.3269 -0.3519
 2110SOL    HW1 7771   2.171   3.487   4.427  0.3812 -0.6343 -1.1702
 2110SOL    HW2 7772   2.197   3.634   4.400  0.3581 -0.5042 -0.5172
 2111SOL     OW 7773   2.178   5.495   9.615  0.0523  0.2070  0.5369
 2111SOL    HW1 7774   2.168   5.407   9.579  0.2910  0.1220  0.6784
 2111SOL    HW2 7775   2.127   5.492   9.697  0.0921  0.1874  0.5607
 2112SOL     OW 7776   0.853   6.558   5.133  0.7651 -0.3580  0.3967
 2112SOL    HW1 7777   0.804   6.501   5.073 -2.0774  1.2844  0.9990
 2112SOL    HW2 7778   0.885   6.629   5.078  0.1458 -0.0453  0.4372
 2113SOL     OW 7779   0.882   1.298   7.596  0.4740 -0.1072  0.0175
 2113SOL    HW1 7780   0.820   1.348   7.543  1.4318  1.3247  0.1865
 2113SOL    HW2 7781   0.961   1.294   7.543  1.5672  1.6552  1.4162
 2114SOL     OW 7782   3.342   0.362   9.127  0.0793  0.2948 -0.5418
 2114SOL    HW1 7783   3.420   0.411   9.101 -0.3554  0.0787 -2.3993
 2114SOL    HW2 7784   3.272   0.428   9.129 -0.3147 -0.0328 -2.1131
 2115SOL     OW 7785   4.053   4.263  11.680  0.6945  0.0351  0.6646
 2115SOL    HW1 7786   4.104   4.251  11.761 -0.2894  0.2868  1.3297
 2115SOL    HW2 7787   3.987   4.328  11.703 -0.1393 -0.5332 -0.0920
 2116SOL     OW 7788   1.349   6.235   8.223  0.8937  0.5460  0.0873
 2116SOL    HW1 7789   1.421   6.253   8.163  1.2150  0.3820  0.4181
 2116SOL    HW2 7790   1.352   6.140   8.235 -0.0241  0.4016 -0.7014
 2117SOL     OW 7791   7.336   7.704   9.327  0.1740  0.1308 -0.3432
 2117SOL    HW1 7792   7.369   7.615   9.313  0.1683  0.0777 -0.0211
 2117SOL    HW2 7793   7.371   7.729   9.412 -1.9037 -0.5276  0.7791
 2118SOL     OW 7794   4.802   7.147   9.098  0.3101 -0.0837 -0.6203
 2118SOL    HW1 7795   4.765   7.059   9.095  1.0173 -0.4057 -0.2676
 2118SOL    HW2 7796   4.740   7.197   9.151 -0.1875 -0.3192 -0.9709
 2119SOL     OW 7797   3.938   7.073   4.325 -0.2346  0.6179  0.1050
 2119SOL    HW1 7798   3.885   7.010   4.276 -0.5532  1.8104 -1.1395
 2119SOL    HW2 7799   4.001   7.019   4.373  1.2090 -0.6090 -2.8986
 2120SOL     OW 7800   6.363   2.623  10.267 -0.3623  0.6118  0.4119
 2120SOL    HW1 7801   6.268   2.617  10.275 -0.2451 -0.1112  1.4883
 2120SOL    HW2 7802   6.397   2.573  10.341  0.8694 -0.7751 -0.9886
 2121SOL     OW 7803   7.143   2.703  11.600  0.2474  0.0478 -0.0827
 2121SOL    HW1 7804   7.172   2.776  11.546  1.4676  0.6576  1.3313
 2121SOL    HW2 7805   7.082   2.741  11.663 -2.6865 -0.9751 -2.0875
 2122SOL     OW 7806   2.384   1.878   5.472  0.5926 -0.3456 -0.0839
 2122SOL    HW1 7807   2.445   1.805   5.468  0.9537  0.0200 -3.3501
 2122SOL    HW2 7808   2.326   1.856   5.545  1.1655 -3.5072 -0.4451
 2123SOL     OW 7809   1.234   6.569   5.421  0.2686  0.4397  0.3375
 2123SOL    HW1 7810   1.229   6.474   5.404  0.1571  0.5392 -0.2125
 2123SOL    HW2 7811   1.250   6.608   5.335 -1.7130  1.0734  0.1986
 2124SOL     OW 7812   2.123   1.041   0.191 -0.2424  0.1279 -0.3808
 2124SOL    HW1 7813   2.109   1.057   0.098 -1.7536 -1.0412 -0.4028
 2124SOL    HW2 7814   2.036   1.052   0.230  0.2755  0.1137  0.8133
 2125SOL     OW 7815   7.636   5.953   1.245 -0.5718  0.0433  0.6739
 2125SOL    HW1 7816   7.547   5.917   1.238  0.1255 -1.7094  0.3743
 2125SOL    HW2 7817   7.653   5.991   1.159 -0.8232 -0.1559  0.5316
 2126SOL     OW 7818   5.367   5.567  10.816  0.5141 -0.0603  0.3061
 2126SOL    HW1 7819   5.289   5.555  10.762  1.4554 -1.4039 -0.8221
 2126SOL    HW2 7820   5.349   5.646  10.868 -1.5407 -0.2899  0.0151
 2127SOL     OW 7821   2.703   7.295   1.759  0.5452 -0.2251  0.2463
 2127SOL    HW1 7822   2.766   7.265   1.693  0.4778  0.1041  0.0335
 2127SOL    HW2 7823   2.733   7.382   1.784  0.4913 -0.2928  0.5531
 2128SOL     OW 7824   5.196   5.390   2.550 -0.0266  0.0522 -0.2028
 2128SOL    HW1 7825   5.140   5.334   2.603  0.3750 -0.7496 -0.6134
 2128SOL    HW2 7826   5.190   5.476   2.592 -1.2017 -0.1245  0.0148
 2129SOL     OW 7827   0.477   3.317  11.184  0.9630 -0.7746 -0.4133
 2129SOL    HW1 7828   0.432   3.257  11.243 -2.5447  0.8955 -1.1798
 2129SOL    HW2 7829   0.557   3.340  11.230 -0.4041 -1.4845  2.5364
 2130SOL     OW 7830   3.195   1.444   2.138  0.5038 -0.2416  0.5806
 2130SOL    HW1 7831   3.205   1.500   2.215 -1.0569  3.2989 -1.5620
 2130SOL    HW2 7832   3.228   1.496   2.065 -0.9099 -2.1708 -1.5964
 2131SOL     OW 7833   0.555   7.475  12.252 -0.7213  0.2301 -0.5702
 2131SOL    HW1 7834   0.611   7.512  12.321 -1.3834  0.4878 -0.1653
 2131SOL    HW2 7835   0.613   7.416  12.204 -0.2914 -0.0779  0.3049
 2132SOL     OW 7836   1.748   1.077  10.931  0.3790  0.8778 -0.3859
 2132SOL    HW1 7837   1.683   1.070  10.860  0.5455  1.4776 -0.6044
 2132SOL    HW2 7838   1.713   1.021  11.000  0.1532  0.3719 -0.8965
 2133SOL     OW 7839   5.777   3.161   9.558 -0.1419 -0.6488  0.1314
 2133SOL    HW1 7840   5.698   3.115   9.529  0.4806 -0.9888 -1.1066
 2133SOL    HW2 7841   5.849   3.109   9.523  0.6088  0.3093  0.2199
 2134SOL     OW 7842   4.392   1.473   2.886 -0.1448 -0.3934 -0.1507
 2134SOL    HW1 7843   4.486   1.473   2.869 -0.3331 -2.7284 -1.6421
 2134SOL    HW2 7844   4.374   1.385   2.919 -1.8651 -0.1591 -0.3895
 2135SOL     OW 7845   0.648   6.975   0.395  0.4144 -0.7516 -0.0641
 2135SOL    HW1 7846   0.738   6.948   0.412  0.8436  1.4915  1.6738
 2135SOL    HW2 7847   0.626   6.934   0.311  2.5855 -2.3624  0.0692
 2136SOL     OW 7848   0.012   2.232   6.297  0.1320 -0.7486  0.5413
 2136SOL    HW1 7849   0.025   2.181   6.217  1.3226 -1.8720  1.4043
 2136SOL    HW2 7850  -0.034   2.311   6.269 -0.8176 -1.8022 -1.0183
 2137SOL     OW 7851   7.513   7.277   5.811  0.4580 -0.3151  0.0264
 2137SOL    HW1 7852   7.562   7.315   5.884  0.0875  0.3273 -0.0496
 2137SOL    HW2 7853   7.482   7.352   5.760  0.0143 -0.7263 -0.3334
 2138SOL     OW 7854   1.650   5.789  11.951  0.1396  0.0939 -0.0683
 2138SOL    HW1 7855   1.727   5.761  11.901  0.4237  0.0471  0.3882
 2138SOL    HW2 7856   1.576   5.771  11.894  0.2887 -1.6834  0.2380
 2139SOL     OW 7857   3.967   6.471   7.173  0.7829  0.0282 -0.2360
 2139SOL    HW1 7858   3.927   6.498   7.255  0.1035  0.2824 -0.6372
 2139SOL    HW2 7859   3.893   6.465   7.111  1.3322  0.2955 -0.9365
 2140SOL     OW 7860   1.253   6.766   4.972 -0.6331 -1.0220  0.0248
 2140SOL    HW1 7861   1.281   6.763   4.880 -0.6782 -0.5571 -0.0046
 2140SOL    HW2 7862   1.229   6.676   4.993 -0.7438 -1.1046 -0.4590
 2141SOL     OW 7863   4.107   5.713   0.340  0.0513  0.4666 -0.2576
 2141SOL    HW1 7864   4.105   5.756   0.426  2.0418 -0.1153  0.1210
 2141SOL    HW2 7865   4.015   5.694   0.321 -0.3902 -0.1497  2.1511
 2142SOL     OW 7866   1.776   2.735   5.154  0.2463  0.0382  0.3559
 2142SOL    HW1 7867   1.817   2.771   5.075  0.9153  0.8504  1.0437
 2142SOL    HW2 7868   1.721   2.806   5.186  2.1936  0.8431  2.1753
 2143SOL     OW 7869   4.585   4.785   0.617  0.1209 -0.8125 -0.1834
 2143SOL    HW1 7870   4.515   4.832   0.664 -0.0030 -2.5362  1.4909
 2143SOL    HW2 7871   4.547   4.765   0.531 -0.3535  0.7865 -0.3774
 2144SOL     OW 7872   1.398   0.169  11.059 -0.0908  0.0629  0.0074
 2144SOL    HW1 7873   1.317   0.197  11.017 -0.1912  0.6763  0.5983
 2144SOL    HW2 7874   1.383   0.076  11.079  0.1159 -0.3573 -1.6462
 2145SOL     OW 7875   3.748   0.352  10.156  0.6989 -0.0593  0.1179
 2145SOL    HW1 7876   3.700   0.387  10.081 -1.1915 -2.0654  0.2592
 2145SOL    HW2 7877   3.734   0.257  10.151  1.6540 -0.3827  2.2491
 2146SOL     OW 7878   0.498   5.321  10.225  0.2319 -0.1305  0.0550
 2146SOL    HW1 7879   0.566   5.387  10.241 -1.3394  1.3570  1.0089
 2146SOL    HW2 7880   0.430   5.343  10.289 -1.0114 -1.7445 -0.6798
 2147SOL     OW 7881   6.527   3.131   5.418 -0.2652  0.4258 -0.3592
 2147SOL    HW1 7882   6.546   3.041   5.446 -1.8141  0.0157 -0.4897
 2147SOL    HW2 7883   6.449   3.122   5.363  1.1151  1.5630 -2.5850
 2148SOL     OW 7884   5.736   7.425   3.621 -0.1251  0.0545  0.4483
 2148SOL    HW1 7885   5.669   7.494   3.619 -1.9101 -1.6051 -1.0888
 2148SOL    HW2 7886   5.743   7.402   3.714 -1.6912  0.3019  0.6574
 2149SOL     OW 7887   4.916   4.076  11.205  0.2430  0.7171  0.5132
 2149SOL    HW1 7888   4.926   4.095  11.111  2.2171 -0.6767  0.3856
 2149SOL    HW2 7889   4.880   3.987  11.207  0.7024  0.5400  1.0730
 2150SOL     OW 7890   6.498   2.515   3.608 -0.4354  0.2638  0.2915
 2150SOL    HW1 7891   6.514   2.606   3.632  1.6957 -0.3076  1.2990
 2150SOL    HW2 7892   6.465   2.474   3.688  0.1443 -0.1759  0.3125
 2151SOL     OW 7893   2.652   1.206   6.451 -0.2999  0.5401 -0.6044
 2151SOL    HW1 7894   2.729   1.263   6.454 -0.0435  0.1844 -0.3147
 2151SOL    HW2 7895   2.578   1.266   6.444 -0.0021  0.8883 -0.7878
 2152SOL     OW 7896   3.576   0.502  11.708 -0.5746  0.0783 -0.3540
 2152SOL    HW1 7897   3.557   0.501  11.615 -0.5049  0.8936 -0.3906
 2152SOL    HW2 7898   3.631   0.426  11.723 -0.1765  0.2214 -1.0679
 2153SOL     OW 7899   7.688   3.328   0.938 -0.3081 -0.4643  0.2209
 2153SOL    HW1 7900   7.648   3.389   0.876  0.7501  0.5629  0.5178
 2153SOL    HW2 7901   7.636   3.337   1.018 -0.1597  0.0606  0.2628
 2154SOL     OW 7902   5.192   4.698  10.455 -0.1820 -0.5242 -1.0249
 2154SOL    HW1 7903   5.202   4.606  10.478  0.1892 -0.2944 -0.2244
 2154SOL    HW2 7904   5.281   4.727  10.433 -0.0242  0.0146  0.2248
 2155SOL     OW 7905   2.313   5.468  12.256  0.3093 -0.0984 -0.3395
 2155SOL    HW1 7906   2.348   5.525  12.188  0.2788  1.2753  0.7653
 2155SOL    HW2 7907   2.284   5.527  12.325  0.3714 -1.4542  0.8987
 2156SOL     OW 7908   3.542   7.312   2.132 -0.1698 -0.0638  0.1587
 2156SOL    HW1 7909   3.587   7.387   2.170  0.1059 -0.3789  0.4631
 2156SOL    HW2 7910   3.501   7.346   2.052 -1.3458  0.7673  1.0981
 2157SOL     OW 7911   2.235   2.372   6.875 -0.2035 -0.0324  0.2889
 2157SOL    HW1 7912   2.225   2.427   6.953  0.6920  0.0476  0.3561
 2157SOL    HW2 7913   2.306   2.312   6.897 -0.1894 -0.2487 -0.3362
 2158SOL     OW 7914   0.390   7.674   0.838 -0.0185  0.2210  0.6223
 2158SOL    HW1 7915   0.327   7.604   0.820  0.1506  0.7854 -2.6027
 2158SOL    HW2 7916   0.471   7.627   0.862 -0.5328 -0.6180  0.7552
 2159SOL     OW 7917   2.278   0.473   7.663  0.6708  0.2067 -0.6698
 2159SOL    HW1 7918   2.282   0.516   7.578  0.7844  0.0019 -0.7698
 2159SOL    HW2 7919   2.272   0.379   7.643 -2.4370  0.2700 -0.5146
 2160SOL     OW 7920   7.007   0.977   0.812 -0.3432  0.0044 -0.6602
 2160SOL    HW1 7921   7.083   1.030   0.837  0.0240  0.2587 -2.2273
 2160SOL    HW2 7922   6.935   1.040   0.806 -1.0119 -0.4101  1.9999
 2161SOL     OW 7923   0.159   0.509   3.746 -0.1693 -0.2837  1.2291
 2161SOL    HW1 7924   0.077   0.459   3.747 -1.3793  1.5722  0.1053
 2161SOL    HW2 7925   0.221   0.454   3.796 -1.5377 -2.6052  0.5317
 2162SOL     OW 7926   0.321   1.838   2.303 -0.3401  0.2255  0.0278
 2162SOL    HW1 7927   0.398   1.892   2.314  0.2235 -0.3420 -0.9301
 2162SOL    HW2 7928   0.256   1.896   2.262 -0.3889  0.6712  0.7290
 2163SOL     OW 7929   0.991   1.324   0.005 -0.3386 -0.9347  0.3110
 2163SOL    HW1 7930   1.004   1.365  -0.080  0.7302  0.0182  0.9119
 2163SOL    HW2 7931   0.902   1.349   0.031 -1.5711 -3.1023 -1.4839
 2164SOL     OW 7932   1.879   7.597  11.200 -0.3031 -0.2868 -0.8205
 2164SOL    HW1 7933   1.873   7.613  11.106  0.5599 -2.2757 -1.2608
 2164SOL    HW2 7934   1.795   7.557  11.223 -0.2020 -0.5558 -0.9165
 2165SOL     OW 7935   7.878   5.778   5.119  0.4781  0.3186 -0.0114
 2165SOL    HW1 7936   7.871   5.858   5.067  0.1291  0.9066  0.9217
 2165SOL    HW2 7937   7.965   5.744   5.097  1.1600  1.6297  0.5045
 2166SOL     OW 7938   2.561   6.991   1.913  0.3324  0.0768 -0.5944
 2166SOL    HW1 7939   2.568   7.045   1.834  0.2714  0.8462 -0.0840
 2166SOL    HW2 7940   2.468   6.975   1.923  0.2219  1.0289  0.0040
 2167SOL     OW 7941   2.524   4.832   7.791  0.0690 -0.1163  0.2547
 2167SOL    HW1 7942   2.606   4.812   7.835  0.1844  0.7900  0.4690
 2167SOL    HW2 7943   2.548   4.894   7.722 -0.1252 -1.3970 -1.0109
 2168SOL     OW 7944   6.329   6.703  11.916  0.4844  0.3664 -0.6287
 2168SOL    HW1 7945   6.360   6.650  11.988 -0.0687  1.4384  0.4425
 2168SOL    HW2 7946   6.408   6.734  11.872  0.8476  0.1624 -0.1234
 2169SOL     OW 7947   0.727   7.545   9.693  0.2766 -0.0873 -0.0563
 2169SOL    HW1 7948   0.709   7.452   9.679  0.7441 -0.2384  0.3212
 2169SOL    HW2 7949   0.822   7.549   9.704  0.4533  0.6204 -1.5606
 2170SOL     OW 7950   5.902   7.759   7.731 -0.7466  0.0334  0.0947
 2170SOL    HW1 7951   5.915   7.737   7.824 -2.2291 -0.2306  0.2692
 2170SOL    HW2 7952   5.821   7.713   7.707 -2.2183  2.6958 -0.4141
 2171SOL     OW 7953   4.943   7.577   7.942 -0.1979  0.5240 -0.0133
 2171SOL    HW1 7954   4.861   7.536   7.970 -0.6833  0.5391 -1.3292
 2171SOL    HW2 7955   5.000   7.503   7.920  0.3706  0.4975  1.4312
 2172SOL     OW 7956   4.298   6.014  11.760 -0.2516  0.2310  0.1612
 2172SOL    HW1 7957   4.289   5.999  11.854 -0.9458  0.5419  0.1511
 2172SOL    HW2 7958   4.227   6.075  11.739 -0.8753 -0.7861 -0.7836
 2173SOL     OW 7959   5.511   4.045  12.119  0.0765 -0.0136  0.1572
 2173SOL    HW1 7960   5.438   4.098  12.151 -0.4372  0.8097 -2.1701
 2173SOL    HW2 7961   5.483   3.954  12.136 -0.3564  0.3378  1.5022
 2174SOL     OW 7962   4.114   0.345   8.980  0.0732 -0.2241 -0.4997
 2174SOL    HW1 7963   4.183   0.283   8.955  0.8313  0.7180 -0.8233
 2174SOL    HW2 7964   4.100   0.398   8.902 -0.6971 -0.0998 -0.2862
 2175SOL     OW 7965   2.890   1.004   3.101 -0.2844 -0.5307 -0.1081
 2175SOL    HW1 7966   2.904   1.077   3.161 -1.2090  1.6433 -2.3655
 2175SOL    HW2 7967   2.930   1.031   3.019  0.1282 -2.9911 -0.8141
 2176SOL     OW 7968   0.520   4.890   6.722 -0.1183 -0.6663 -0.0288
 2176SOL    HW1 7969   0.465   4.936   6.786 -0.4128 -0.8642 -0.1413
 2176SOL    HW2 7970   0.609   4.922   6.740 -0.2380 -0.5148  0.2987
 2177SOL     OW 7971   5.515   1.099  11.854 -0.0286  0.1614  0.0241
 2177SOL    HW1 7972   5.592   1.110  11.798 -0.9542  0.0192 -1.3147
 2177SOL    HW2 7973   5.503   1.185  11.895  1.5837 -0.1604  1.2815
 2178SOL     OW 7974   6.017   2.227   1.190  0.1096  0.3109 -0.1419
 2178SOL    HW1 7975   6.092   2.170   1.180 -0.0387 -0.1250  1.0627
 2178SOL    HW2 7976   5.961   2.183   1.254 -0.2682  1.5240  0.4106
 2179SOL     OW 7977   5.134   2.684   0.602  0.3363  0.1036 -0.0244
 2179SOL    HW1 7978   5.108   2.714   0.514  1.1629 -1.9382 -1.0414
 2179SOL    HW2 7979   5.098   2.596   0.608  1.4305 -0.2799  1.1634
 2180SOL     OW 7980   7.104   7.551   3.960  0.0299 -0.1306 -0.5406
 2180SOL    HW1 7981   7.174   7.530   4.022  0.3277 -1.3355 -1.2517
 2180SOL    HW2 7982   7.024   7.523   4.004  0.1889 -0.5037 -0.4826
 2181SOL     OW 7983   1.487   7.149  12.156 -0.0180 -0.2006  0.2712
 2181SOL    HW1 7984   1.570   7.135  12.111 -1.1581 -1.5936 -1.5598
 2181SOL    HW2 7985   1.479   7.244  12.164  1.6298 -0.0412  0.3238
 2182SOL     OW 7986   6.408   4.243   8.818  0.3192  0.1244  0.6527
 2182SOL    HW1 7987   6.341   4.267   8.754  0.6395  0.3803  0.4110
 2182SOL    HW2 7988   6.491   4.255   8.772  0.5118 -1.2852  0.5693
 2183SOL     OW 7989   2.371   5.445   5.700  0.5601 -0.5260  0.0307
 2183SOL    HW1 7990   2.447   5.503   5.694 -1.1784  1.8648 -0.5883
 2183SOL    HW2 7991   2.301   5.492   5.653 -1.2608 -2.6906  0.3810
 2184SOL     OW 7992   5.432   3.631   5.783 -0.2178  0.3911  0.2018
 2184SOL    HW1 7993   5.390   3.557   5.740 -0.3757  0.5650  0.0569
 2184SOL    HW2 7994   5.365   3.699   5.786 -0.2122  0.3760  0.7337
 2185SOL     OW 7995   6.022   5.201   3.902  0.0163  0.2354 -0.5735
 2185SOL    HW1 7996   6.070   5.122   3.925  1.2182  1.6752  2.2438
 2185SOL    HW2 7997   5.932   5.171   3.888  0.4577 -1.6195  0.2842
 2186SOL     OW 7998   3.144   6.710  12.140 -0.6491 -0.6547 -0.7675
 2186SOL    HW1 7999   3.176   6.650  12.073  1.2958 -0.8422  0.2249
 2186SOL    HW2 8000   3.123   6.654  12.215  0.9154 -0.1862  0.0729
 2187SOL     OW 8001   3.912   2.766   2.465  0.2011 -0.0118 -0.1018
 2187SOL    HW1 8002   3.914   2.845   2.520 -0.0616 -0.6626  0.8666
 2187SOL    HW2 8003   3.943   2.696   2.523 -0.9111 -0.8749 -0.5070
 2188SOL     OW 8004   6.362   4.769   4.759  0.2808  0.0250  0.3433
 2188SOL    HW1 8005   6.307   4.795   4.832  0.2620  2.2690 -0.4001
 2188SOL    HW2 8006   6.438   4.827   4.764  0.6394 -0.2915 -0.9592
 2189SOL     OW 8007   2.773   2.973  11.420 -0.1027  0.3831  0.2245
 2189SOL    HW1 8008   2.796   2.976  11.327 -0.3448  2.3537  0.1796
 2189SOL    HW2 8009   2.679   2.955  11.422  0.1248 -0.8515  0.1462
 2190SOL     OW 8010   0.988   1.157   8.757  0.3232  0.2923  0.3569
 2190SOL    HW1 8011   0.941   1.237   8.783  0.8948  0.7089  0.1208
 2190SOL    HW2 8012   0.991   1.104   8.837 -0.6162  0.2182  0.3599
 2191SOL     OW 8013   4.177   7.052  11.647  0.2786  0.1062  0.1942
 2191SOL    HW1 8014   4.145   7.033  11.559  1.4839 -0.9197 -0.0533
 2191SOL    HW2 8015   4.212   6.969  11.678  2.1986  1.0088  0.6274
 2192SOL     OW 8016   3.607   3.322   3.744  0.3134 -0.1886 -0.7063
 2192SOL    HW1 8017   3.660   3.402   3.750  1.3079 -0.8606 -0.1295
 2192SOL    HW2 8018   3.653   3.259   3.800 -1.2187 -0.7504 -0.0205
 2193SOL     OW 8019   6.408   5.289   9.189  0.1329  0.3832 -0.5800
 2193SOL    HW1 8020   6.442   5.289   9.278 -0.5936 -0.7146 -0.2838
 2193SOL    HW2 8021   6.315   5.270   9.199  0.2015 -0.5448 -1.6233
 2194SOL     OW 8022   5.493   7.027   7.600 -0.3258  0.2606 -0.0908
 2194SOL    HW1 8023   5.427   7.087   7.565 -0.4575 -0.1499 -0.5680
 2194SOL    HW2 8024   5.444   6.966   7.654 -0.7088 -1.3687 -2.1392
 2195SOL     OW 8025   5.082   5.586   3.190 -0.0704  0.0220  0.1454
 2195SOL    HW1 8026   5.145   5.602   3.260 -0.2734  0.6853  0.1902
 2195SOL    HW2 8027   5.110   5.644   3.119 -0.7014  0.4194  0.2157
 2196SOL     OW 8028   3.167   2.726   6.480 -0.3761  0.4294 -0.1121
 2196SOL    HW1 8029   3.198   2.788   6.414 -0.4173 -0.2062 -0.7364
 2196SOL    HW2 8030   3.189   2.767   6.564  1.1829  0.4855 -0.5269
 2197SOL     OW 8031   2.494   7.885   7.687  0.2708  0.8297 -0.1883
 2197SOL    HW1 8032   2.439   7.899   7.610 -0.8255  2.0679  0.7780
 2197SOL    HW2 8033   2.561   7.952   7.682 -0.3527  1.5183  0.3857
 2198SOL     OW 8034   3.757   7.462   3.578  0.3437 -0.2470  0.5411
 2198SOL    HW1 8035   3.707   7.524   3.631  0.2696  0.8875 -0.7763
 2198SOL    HW2 8036   3.848   7.479   3.601  0.3513  0.6714 -0.0986
 2199SOL     OW 8037   5.055   1.336   9.839  0.2085  0.1428 -0.3551
 2199SOL    HW1 8038   5.059   1.303   9.928 -0.0952 -1.2974 -0.8423
 2199SOL    HW2 8039   4.992   1.408   9.843 -0.1477 -0.2031  0.5132
 2200SOL     OW 8040   5.905   0.650   1.067  0.2868  0.5002 -0.7763
 2200SOL    HW1 8041   5.839   0.586   1.041  0.2677  0.9548 -1.8767
 2200SOL    HW2 8042   5.942   0.614   1.148  1.1439 -1.5480 -1.9895
 2201SOL     OW 8043   3.128   7.804   7.808  0.2415  0.2633  0.2892
 2201SOL    HW1 8044   3.164   7.853   7.734  1.3304 -2.1922 -0.9485
 2201SOL    HW2 8045   3.035   7.796   7.789  0.2367  0.9889  0.0055
 2202SOL     OW 8046   0.740   7.693   8.480  0.0680  0.7206  0.1524
 2202SOL    HW1 8047   0.834   7.677   8.490 -0.2003 -0.8117  0.3611
 2202SOL    HW2 8048   0.697   7.620   8.525 -1.2104  0.0020 -2.0721
 2203SOL     OW 8049   5.439   6.852   2.460 -0.0357 -0.3448 -0.0922
 2203SOL    HW1 8050   5.363   6.902   2.430  0.7072  0.3102 -0.9554
 2203SOL    HW2 8051   5.409   6.807   2.539 -1.1509  0.3332 -0.1107
 2204SOL     OW 8052   4.997   7.914   2.449 -0.5300  0.2027 -0.2129
 2204SOL    HW1 8053   5.066   7.950   2.505  0.2952  0.1124 -1.1576
 2204SOL    HW2 8054   5.042   7.854   2.390 -1.4111  0.1742 -0.8778
 2205SOL     OW 8055   4.688   2.273   7.176  0.1407 -0.3452 -0.8452
 2205SOL    HW1 8056   4.688   2.323   7.094 -0.1692  0.3959 -0.3979
 2205SOL    HW2 8057   4.777   2.282   7.210 -0.1785  0.7385 -0.2689
 2206SOL     OW 8058   5.309   4.948   8.144 -0.5556  0.5365 -0.0575
 2206SOL    HW1 8059   5.293   5.041   8.155 -0.3369  0.5190  0.4751
 2206SOL    HW2 8060   5.283   4.909   8.228  2.2923  0.5167  0.9407
 2207SOL     OW 8061   7.803   7.298   1.734 -0.2475 -0.0344 -0.5066
 2207SOL    HW1 8062   7.717   7.271   1.765 -0.0285 -0.5302 -0.3285
 2207SOL    HW2 8063   7.833   7.361   1.800 -0.1907 -0.3601 -0.2221
 2208SOL     OW 8064   2.023   2.248   2.924 -0.5439  0.1092 -0.3289
 2208SOL    HW1 8065   1.980   2.164   2.906  1.0398 -0.9115  0.3373
 2208SOL    HW2 8066   2.111   2.223   2.952  0.4519  2.0774 -1.5161
 2209SOL     OW 8067   3.577   7.767  10.336 -0.2420 -0.2070  0.0466
 2209SOL    HW1 8068   3.660   7.720  10.323 -0.4828 -0.9948  1.2978
 2209SOL    HW2 8069   3.590   7.818  10.416 -0.3964  1.0064 -0.6622
 2210SOL     OW 8070   2.240   2.223   5.321  0.8919 -0.2604  0.3392
 2210SOL    HW1 8071   2.202   2.310   5.324  0.0481 -0.6126  0.2150
 2210SOL    HW2 8072   2.241   2.194   5.413 -1.9370 -1.3890  0.1263
 2211SOL     OW 8073   5.113   1.403  10.599  0.3190 -0.9035  0.2600
 2211SOL    HW1 8074   5.165   1.361  10.668 -1.1772 -1.7643  0.9092
 2211SOL    HW2 8075   5.055   1.463  10.646 -0.4187 -1.1864 -0.2729
 2212SOL     OW 8076   4.625   1.213  11.104 -0.2647 -0.3211  0.0695
 2212SOL    HW1 8077   4.537   1.177  11.096 -0.9546  1.4664 -1.1245
 2212SOL    HW2 8078   4.625   1.260  11.187 -0.8755  0.7216 -0.5039
 2213SOL     OW 8079   2.510   7.234   0.374  0.3674 -0.5428  0.0405
 2213SOL    HW1 8080   2.568   7.237   0.451  0.5317  1.1075 -0.1034
 2213SOL    HW2 8081   2.568   7.214   0.301  1.3094  3.1729 -0.4533
 2214SOL     OW 8082   1.907   3.647  12.202 -0.2043 -0.0465 -0.4968
 2214SOL    HW1 8083   2.000   3.637  12.218 -0.4183 -0.9615  0.2629
 2214SOL    HW2 8084   1.893   3.604  12.117  0.0440 -0.0380 -0.5420
 2215SOL     OW 8085   0.168   7.104   9.479  0.3884  0.7400  0.2413
 2215SOL    HW1 8086   0.244   7.160   9.465 -0.4459  2.5077  2.2811
 2215SOL    HW2 8087   0.107   7.127   9.409  0.5590  1.4640  0.3308
 2216SOL     OW 8088   7.169   0.672   0.640  0.0802 -0.4047 -0.5239
 2216SOL    HW1 8089   7.085   0.627   0.627  0.5624 -1.0913 -1.3368
 2216SOL    HW2 8090   7.230   0.626   0.582  1.0976 -0.1197  0.3024
 2217SOL     OW 8091   6.049   3.485   0.032  0.5699 -0.0954 -0.1972
 2217SOL    HW1 8092   6.133   3.445   0.008 -0.3229 -1.8647 -0.4740
 2217SOL    HW2 8093   6.060   3.510   0.124  1.8311  0.9471 -0.5865
 2218SOL     OW 8094   2.315   4.927  10.776  0.4892 -0.0473  0.1436
 2218SOL    HW1 8095   2.398   4.943  10.733  2.5751 -2.4971  2.8149
 2218SOL    HW2 8096   2.283   4.845  10.738 -0.5127  0.6497 -0.5537
 2219SOL     OW 8097   7.113   2.438   5.323  0.2612  0.6772  0.4574
 2219SOL    HW1 8098   7.060   2.405   5.396  0.4749 -0.9890 -0.0916
 2219SOL    HW2 8099   7.083   2.388   5.247  2.6965 -0.5099  0.1543
 2220SOL     OW 8100   7.567   3.297   1.180  0.3664  0.0576 -0.3351
 2220SOL    HW1 8101   7.586   3.204   1.193 -0.1927 -0.0350 -0.1157
 2220SOL    HW2 8102   7.507   3.319   1.251  2.6342  1.2953  1.3118
 2221SOL     OW 8103   1.964   7.175   8.318  0.3674 -0.0822  0.1075
 2221SOL    HW1 8104   1.876   7.184   8.353  0.1784  1.9187 -0.7824
 2221SOL    HW2 8105   2.015   7.243   8.363  1.5145 -1.3140  0.7363
 2222SOL     OW 8106   7.354   3.616   5.891 -0.1525 -0.5706 -0.0071
 2222SOL    HW1 8107   7.347   3.547   5.825  1.3164 -0.6250 -0.1375
 2222SOL    HW2 8108   7.432   3.666   5.866  0.1862 -0.3322  1.4274
 2223SOL     OW 8109   3.156   4.415  11.697 -0.8599  0.6199 -0.3198
 2223SOL    HW1 8110   3.208   4.335  11.706 -0.3121  1.0383  0.3186
 2223SOL    HW2 8111   3.065   4.385  11.699 -0.6815  0.1113  0.9031
 2224SOL     OW 8112   5.477   5.705   5.811 -0.0543 -0.3620  0.0484
 2224SOL    HW1 8113   5.392   5.678   5.845 -0.3832 -0.6074 -0.9362
 2224SOL    HW2 8114   5.486   5.796   5.840 -1.8612  0.5666 -1.9846
 2225SOL     OW 8115   2.699   5.510   7.947  0.0392 -0.2585 -0.2207
 2225SOL    HW1 8116   2.631   5.551   7.893  0.5465 -0.1209 -0.7594
 2225SOL    HW2 8117   2.708   5.568   8.023 -0.9297 -0.6392  0.2046
 2226SOL     OW 8118   4.983   1.623  10.138 -0.7157 -0.9547 -0.4045
 2226SOL    HW1 8119   4.926   1.637  10.062 -1.4455  2.3162  0.5857
 2226SOL    HW2 8120   4.941   1.552  10.186 -1.6227 -1.3954 -1.7715
 2227SOL     OW 8121   0.956   4.883  11.438  0.0805 -0.1768 -0.6475
 2227SOL    HW1 8122   0.982   4.790  11.439  0.5326 -0.0635 -1.2536
 2227SOL    HW2 8123   0.878   4.885  11.383  1.1645  0.0560 -2.2519
 2228SOL     OW 8124   4.435   0.125  11.768  0.4012  0.3538  0.6035
 2228SOL    HW1 8125   4.435   0.034  11.738 -1.6157  0.3132  0.6026
 2228SOL    HW2 8126   4.511   0.131  11.827  1.7927 -0.7393 -0.9752
 2229SOL     OW 8127   0.436   4.635   4.616 -0.6807 -0.0015 -0.5948
 2229SOL    HW1 8128   0.421   4.723   4.651 -1.1621 -0.5466  0.5883
 2229SOL    HW2 8129   0.496   4.594   4.678 -0.7419 -0.6419 -0.9515
 2230SOL     OW 8130   4.473   5.769   4.427  0.3730  0.1017 -0.4639
 2230SOL    HW1 8131   4.457   5.812   4.343 -1.5378  0.8196  0.2200
 2230SOL    HW2 8132   4.503   5.839   4.485  0.9529 -0.2499 -0.3240
 2231SOL     OW 8133   4.938   7.879   3.282  0.3655 -0.1930 -0.1230
 2231SOL    HW1 8134   4.860   7.850   3.328  0.8007  0.3654  0.9922
 2231SOL    HW2 8135   4.912   7.959   3.238  0.1424 -0.3495 -0.2771
 2232SOL     OW 8136   4.813   5.728   4.178 -0.1316  0.1645  0.5236
 2232SOL    HW1 8137   4.755   5.701   4.250  0.2888 -2.9824 -0.1353
 2232SOL    HW2 8138   4.753   5.764   4.112 -0.9300  0.1065  1.1988
 2233SOL     OW 8139   2.168   4.589   0.332 -0.6052  0.0224  0.0428
 2233SOL    HW1 8140   2.182   4.639   0.412  0.0640 -0.6961  0.3824
 2233SOL    HW2 8141   2.153   4.499   0.361 -0.6801 -0.1877 -0.6171
 2234SOL     OW 8142   7.491   5.053  11.504 -0.4036 -0.7548 -0.1931
 2234SOL    HW1 8143   7.494   5.084  11.594 -3.0203 -0.6665 -0.0645
 2234SOL    HW2 8144   7.563   5.098  11.460  0.9978 -0.8985  1.8363
 2235SOL     OW 8145   5.562   0.262   0.543  0.2110  0.2040 -0.0998
 2235SOL    HW1 8146   5.529   0.186   0.495  1.1992 -0.2333 -0.1142
 2235SOL    HW2 8147   5.544   0.243   0.635  1.6023 -0.6759  0.0257
 2236SOL     OW 8148   4.686   1.586   1.349 -0.2776 -0.5027 -0.0247
 2236SOL    HW1 8149   4.695   1.670   1.394  0.5613  0.6708 -2.1967
 2236SOL    HW2 8150   4.630   1.533   1.406  1.6964  0.3570  2.9795
 2237SOL     OW 8151   6.333   5.842   4.635  0.2178 -0.4251 -0.1783
 2237SOL    HW1 8152   6.411   5.891   4.659  0.3937  0.4486 -2.3182
 2237SOL    HW2 8153   6.266   5.872   4.696  1.0912  0.1837  0.4991
 2238SOL     OW 8154   6.319   0.835   2.777 -0.2458  0.1758 -0.0790
 2238SOL    HW1 8155   6.380   0.874   2.840 -0.7476  1.5014 -0.3956
 2238SOL    HW2 8156   6.359   0.852   2.692 -1.3099  1.5512 -0.3239
 2239SOL     OW 8157   1.212   1.469   8.963 -0.1471 -0.7408  0.3151
 2239SOL    HW1 8158   1.157   1.547   8.971  0.2883 -0.3303 -0.4979
 2239SOL    HW2 8159   1.235   1.446   9.053 -0.1529  0.1693  0.5612
 2240SOL     OW 8160   3.313   6.246   6.382 -0.2164 -0.0181 -0.1853
 2240SOL    HW1 8161   3.273   6.262   6.467 -1.6001  0.2658 -0.8410
 2240SOL    HW2 8162   3.377   6.177   6.397 -0.5884 -0.1162  1.0402
 2241SOL     OW 8163   7.818   6.460   2.428 -0.3555 -0.2767 -0.0847
 2241SOL    HW1 8164   7.755   6.409   2.479 -0.5163 -1.1366 -1.1062
 2241SOL    HW2 8165   7.886   6.396   2.404  0.2356  0.3442 -0.1010
 2242SOL     OW 8166   4.535   0.750   2.649 -0.1951 -0.0179 -0.2307
 2242SOL    HW1 8167   4.619   0.722   2.686  0.2335 -0.4555 -1.4865
 2242SOL    HW2 8168   4.552   0.758   2.555 -1.9217 -1.5229 -0.7227
 2243SOL     OW 8169   2.551   5.809   2.386 -0.1946 -0.5849 -0.1649
 2243SOL    HW1 8170   2.507   5.875   2.439 -0.0929  0.3695 -1.2245
 2243SOL    HW2 8171   2.624   5.856   2.345 -0.5977 -1.1389 -1.5718
 2244SOL     OW 8172   0.813   4.015  11.947 -0.0676  0.6730  0.0889
 2244SOL    HW1 8173   0.866   3.977  12.016 -1.0918  0.1378  0.6033
 2244SOL    HW2 8174   0.782   4.098  11.983  0.6795  1.1494 -0.3407
 2245SOL     OW 8175   5.002   4.828   1.431 -0.2073 -0.2365  0.2485
 2245SOL    HW1 8176   5.048   4.888   1.490 -0.8604 -0.1334  0.6635
 2245SOL    HW2 8177   5.043   4.842   1.345  0.9223 -0.5705  0.7178
 2246SOL     OW 8178   7.465   1.518   0.059  0.0663 -0.1605  0.0218
 2246SOL    HW1 8179   7.450   1.532   0.152  0.2030 -2.0449  0.3690
 2246SOL    HW2 8180   7.494   1.427   0.053  0.9225  0.1944 -1.7725
 2247SOL     OW 8181   0.707   2.310   6.829  0.1817  0.0151 -0.0584
 2247SOL    HW1 8182   0.655   2.382   6.865  0.7231  1.1076 -1.3812
 2247SOL    HW2 8183   0.666   2.291   6.744 -0.3560 -1.7093  0.5382
 2248SOL     OW 8184   1.283   7.709   8.953 -0.1766  0.2376 -0.8472
 2248SOL    HW1 8185   1.218   7.674   9.014 -0.1016  1.4451 -0.0410
 2248SOL    HW2 8186   1.335   7.633   8.927  0.0564 -0.2453  0.9415
 2249SOL     OW 8187   6.405   6.662   5.166  0.0110  0.0428 -0.1008
 2249SOL    HW1 8188   6.349   6.678   5.242  1.2567  1.7049  0.5252
 2249SOL    HW2 8189   6.349   6.682   5.091 -0.5943  0.5176  0.4623
 2250SOL     OW 8190   4.536   0.612   5.817 -0.3575 -0.1026 -0.3124
 2250SOL    HW1 8191   4.458   0.667   5.829  0.1314  0.7872 -1.0794
 2250SOL    HW2 8192   4.609   0.674   5.816  0.0241 -0.4517 -3.4800
 2251SOL     OW 8193   1.522   1.983   9.104  0.2550  0.3143  0.0261
 2251SOL    HW1 8194   1.435   1.950   9.082  1.1298 -1.6070 -0.7828
 2251SOL    HW2 8195   1.544   1.940   9.187  0.8135  0.0451 -0.2604
 2252SOL     OW 8196   0.971   6.022   7.069  0.0484 -0.2974 -0.4583
 2252SOL    HW1 8197   0.974   5.976   6.985 -0.1623 -1.7570  0.3086
 2252SOL    HW2 8198   0.890   5.991   7.110 -0.2668  1.0162 -0.0402
 2253SOL     OW 8199   2.314   4.229   2.238 -0.3503  0.8111  0.2824
 2253SOL    HW1 8200   2.366   4.259   2.164 -0.7510 -1.0720 -0.8128
 2253SOL    HW2 8201   2.356   4.268   2.314  2.3692 -0.1980 -0.5948
 2254SOL     OW 8202   3.116   0.011   3.685 -0.4121 -0.1865  0.5542
 2254SOL    HW1 8203   3.112   0.003   3.590 -1.1482 -1.2233  0.6474
 2254SOL    HW2 8204   3.072   0.094   3.705  1.2437  0.8883 -0.0901
 2255SOL     OW 8205   7.780   0.829   9.038  0.0665 -0.4204 -0.1011
 2255SOL    HW1 8206   7.732   0.784   8.968 -0.2910  1.6044 -1.2708
 2255SOL    HW2 8207   7.862   0.782   9.046 -0.2234 -1.1805 -1.3398
 2256SOL     OW 8208   0.608   1.700   0.368  0.1008 -0.1055 -0.0199
 2256SOL    HW1 8209   0.593   1.623   0.314  2.2184  0.2020 -1.1619
 2256SOL    HW2 8210   0.550   1.767   0.330 -0.8193 -0.7722  0.1821
 2257SOL     OW 8211   5.008   3.894  12.146 -0.5896 -0.3798  0.8342
 2257SOL    HW1 8212   5.077   3.951  12.181 -0.2519 -0.1738 -0.1574
 2257SOL    HW2 8213   4.927   3.941  12.163 -0.4882 -0.5249  1.8122
 2258SOL     OW 8214   4.396   0.539   2.561 -0.1591 -0.2873  0.2698
 2258SOL    HW1 8215   4.368   0.484   2.635 -0.9087  2.7466  2.4338
 2258SOL    HW2 8216   4.454   0.604   2.599  1.1531  0.1663 -2.2706
 2259SOL     OW 8217   3.933   3.233   3.177  0.1906 -0.0930  0.3560
 2259SOL    HW1 8218   3.877   3.232   3.255 -0.3658 -1.4665 -0.0419
 2259SOL    HW2 8219   3.999   3.166   3.194  0.2302 -0.2069 -0.2510
 2260SOL     OW 8220   5.609   4.737  11.884 -0.6930  0.8336 -0.0851
 2260SOL    HW1 8221   5.563   4.726  11.801 -0.0425  0.3962 -0.3972
 2260SOL    HW2 8222   5.630   4.831  11.888  0.2976  0.6707 -0.9842
 2261SOL     OW 8223   1.232   3.695   2.203  0.2548  0.7816 -0.6218
 2261SOL    HW1 8224   1.307   3.636   2.211 -1.1494 -1.1368 -0.6622
 2261SOL    HW2 8225   1.229   3.741   2.286  1.4503  0.8785 -0.6149
 2262SOL     OW 8226   1.424   2.472   9.733 -0.1624 -0.3768  0.1087
 2262SOL    HW1 8227   1.474   2.455   9.653  3.0088  0.1752  1.7677
 2262SOL    HW2 8228   1.338   2.433   9.718  0.2284 -0.1064 -3.5751
 2263SOL     OW 8229   3.937   3.877  10.897 -0.2025 -0.0724 -0.2546
 2263SOL    HW1 8230   3.959   3.928  10.819  0.0887  0.8792  0.4267
 2263SOL    HW2 8231   3.970   3.789  10.878  0.0296  0.1929 -1.1293
 2264SOL     OW 8232   0.681   5.430   9.550 -0.3286  0.2655  0.0244
 2264SOL    HW1 8233   0.730   5.379   9.485  1.4758  0.7508  0.9442
 2264SOL    HW2 8234   0.641   5.364   9.607  0.6675 -0.1410  0.2608
 2265SOL     OW 8235   4.193   0.436   9.969 -0.2436  0.1973 -0.0703
 2265SOL    HW1 8236   4.263   0.431   9.904  2.1694  2.1079  2.1546
 2265SOL    HW2 8237   4.161   0.526   9.964 -0.2654  0.2773  1.0850
 2266SOL     OW 8238   7.293   6.096   6.108  0.0620  0.1634  0.2567
 2266SOL    HW1 8239   7.274   6.062   6.021  0.2020  0.8037 -0.0304
 2266SOL    HW2 8240   7.212   6.083   6.157  0.8792 -3.0321  0.9879
 2267SOL     OW 8241   5.768   6.647  11.352 -0.1144 -0.1346  0.4127
 2267SOL    HW1 8242   5.673   6.638  11.350 -0.0135 -1.1045 -0.5582
 2267SOL    HW2 8243   5.799   6.559  11.376  0.6155 -0.5649 -1.8640
 2268SOL     OW 8244   0.924   2.079   4.087  0.5541 -0.0044 -0.1825
 2268SOL    HW1 8245   0.839   2.057   4.049  1.1650  1.7112 -2.8126
 2268SOL    HW2 8246   0.906   2.095   4.180 -1.6831 -1.1234 -0.3730
 2269SOL     OW 8247   5.941   0.079   7.072  0.4227  0.1722 -0.1709
 2269SOL    HW1 8248   5.979   0.147   7.017 -0.4513  0.7279 -0.1163
 2269SOL    HW2 8249   5.935   0.120   7.159 -0.8542  0.3452 -0.3111
 2270SOL     OW 8250   2.821   1.322   4.938  0.0630  0.4571  0.0259
 2270SOL    HW1 8251   2.906   1.280   4.922  0.2524  1.3407 -1.4947
 2270SOL    HW2 8252   2.788   1.279   5.017  1.8835  0.0338  0.6192
 2271SOL     OW 8253   1.257   3.740   3.465 -0.4165 -0.0617 -0.3191
 2271SOL    HW1 8254   1.253   3.692   3.382  0.9534 -0.4588 -0.1859
 2271SOL    HW2 8255   1.310   3.817   3.446 -0.0420 -0.1885  0.2045
 2272SOL     OW 8256   4.678   4.914  11.435  0.6066 -0.3417  0.0305
 2272SOL    HW1 8257   4.662   4.858  11.512 -1.9353 -2.8079 -2.0742
 2272SOL    HW2 8258   4.761   4.882  11.400  0.9332 -0.3449  0.7753
 2273SOL     OW 8259   6.872   4.251   8.515  0.1875 -0.2507 -0.3881
 2273SOL    HW1 8260   6.821   4.231   8.436 -0.5427  0.1380 -0.0194
 2273SOL    HW2 8261   6.963   4.240   8.487 -0.0876 -1.1433 -1.0045
 2274SOL     OW 8262   2.182   0.161   8.611  0.0160  0.2520  0.0571
 2274SOL    HW1 8263   2.215   0.077   8.643  1.1925  0.6971  0.0378
 2274SOL    HW2 8264   2.175   0.215   8.690  1.1350  0.7496 -0.1635
 2275SOL     OW 8265   6.253   5.547  11.215  0.7564 -0.6141 -0.2486
 2275SOL    HW1 8266   6.269   5.640  11.231 -0.3058 -0.2955 -0.9379
 2275SOL    HW2 8267   6.320   5.502  11.266  1.2771  0.5277  0.1046
 2276SOL     OW 8268   0.155   6.223  10.427 -0.0056  0.4157  0.7426
 2276SOL    HW1 8269   0.199   6.307  10.419  1.4369 -0.3168  0.7560
 2276SOL    HW2 8270   0.216   6.160  10.390 -1.6524 -0.4790 -0.5957
 2277SOL     OW 8271   0.195   2.177   8.723 -0.4671  0.0144 -0.4136
 2277SOL    HW1 8272   0.114   2.227   8.731 -0.0611  0.7030 -0.5515
 2277SOL    HW2 8273   0.211   2.142   8.811  0.8054  2.5930  0.4613
 2278SOL     OW 8274   2.937   2.088   0.858 -0.6313 -0.0287  0.5242
 2278SOL    HW1 8275   2.948   2.181   0.876 -1.1721 -0.0131  0.8207
 2278SOL    HW2 8276   2.856   2.064   0.905 -1.4215 -0.2650 -0.8887
 2279SOL     OW 8277   5.255   4.115  11.737  0.0107 -0.4396 -0.4426
 2279SOL    HW1 8278   5.209   4.143  11.817 -1.3110  1.3214 -1.7542
 2279SOL    HW2 8279   5.324   4.179  11.725 -0.1000 -0.4189 -0.9815
 2280SOL     OW 8280   5.171   7.034   7.703  0.6085 -0.6434  0.1679
 2280SOL    HW1 8281   5.150   6.941   7.705  1.4989 -0.9524 -1.8825
 2280SOL    HW2 8282   5.093   7.076   7.667  0.2055 -0.5780  1.0983
 2281SOL     OW 8283   5.755   2.785   3.224  0.2451  0.2710 -0.0383
 2281SOL    HW1 8284   5.704   2.731   3.164 -1.0155  0.8078  0.4959
 2281SOL    HW2 8285   5.718   2.767   3.310 -0.4736  2.1969  0.1199
 2282SOL     OW 8286   5.915   7.872   8.284 -0.0182 -0.3906  0.0823
 2282SOL    HW1 8287   5.983   7.886   8.350  0.4701 -0.2340 -0.4445
 2282SOL    HW2 8288   5.852   7.814   8.327 -0.0883  0.3041  0.9331
 2283SOL     OW 8289   3.742   6.281   9.658  0.1516 -0.3556 -0.1652
 2283SOL    HW1 8290   3.799   6.210   9.687  0.1106  0.0349  0.9423
 2283SOL    HW2 8291   3.677   6.289   9.728  0.4115  1.0383 -0.0543
 2284SOL     OW 8292   3.049   1.712  10.000 -0.0870  0.1974 -0.0297
 2284SOL    HW1 8293   3.077   1.664   9.922 -0.3855  1.1012 -0.7117
 2284SOL    HW2 8294   3.088   1.799   9.990 -0.4003  0.4251  0.6656
 2285SOL     OW 8295   2.889   4.135   2.601  0.5298  0.6968 -0.4815
 2285SOL    HW1 8296   2.887   4.135   2.697  0.0101  0.3199 -0.4880
 2285SOL    HW2 8297   2.871   4.044   2.577  1.5108  0.6118 -0.9245
 2286SOL     OW 8298   0.032   5.043   3.020  0.6761 -0.5559  0.1990
 2286SOL    HW1 8299  -0.013   5.060   3.103 -2.4332  2.0609 -1.8004
 2286SOL    HW2 8300   0.080   5.124   3.002  0.9790 -0.9403 -0.7816
 2287SOL     OW 8301   5.901   3.624   4.216  0.0017  0.2370 -0.1295
 2287SOL    HW1 8302   5.835   3.574   4.168 -0.1011 -1.7472  1.9393
 2287SOL    HW2 8303   5.854   3.701   4.247 -1.1093 -0.6660  0.4891
 2288SOL     OW 8304   7.287   1.304   3.905 -0.8966 -0.2120  0.1522
 2288SOL    HW1 8305   7.339   1.382   3.924  0.4802 -1.2837  0.9650
 2288SOL    HW2 8306   7.198   1.328   3.932 -0.5823  1.2022  0.0180
 2289SOL     OW 8307   3.334   6.414   1.546  0.5070  0.6333  0.7463
 2289SOL    HW1 8308   3.357   6.474   1.616  0.4722  0.1075  1.2123
 2289SOL    HW2 8309   3.334   6.327   1.587  0.8184  0.2820  0.0249
 2290SOL     OW 8310   4.665   1.998   6.962  0.0451  0.0458 -0.2903
 2290SOL    HW1 8311   4.688   1.918   6.915 -1.1222 -1.3804  1.4236
 2290SOL    HW2 8312   4.732   2.005   7.031 -0.1913  0.2170 -0.0766
 2291SOL     OW 8313   0.012   4.536   4.073 -0.0773  0.2828 -0.2363
 2291SOL    HW1 8314   0.039   4.593   4.001 -0.4043  1.7058  0.7264
 2291SOL    HW2 8315  -0.081   4.517   4.055 -0.0233  0.2055 -0.4443
 2292SOL     OW 8316   6.399   4.532   7.947  0.3474 -0.2444 -0.1066
 2292SOL    HW1 8317   6.478   4.557   7.996  1.6240 -0.7990 -1.7765
 2292SOL    HW2 8318   6.429   4.462   7.889 -1.2365 -0.0134 -1.2516
 2293SOL     OW 8319   7.027   7.092   9.088 -0.2488  0.4603  0.6359
 2293SOL    HW1 8320   7.094   7.054   9.146 -0.2547 -1.1918 -0.3757
 2293SOL    HW2 8321   6.946   7.047   9.114 -0.3003 -0.0936 -0.4322
 2294SOL     OW 8322   7.665   5.193  10.763  0.1122 -0.2288  0.1434
 2294SOL    HW1 8323   7.624   5.279  10.770  0.0871 -0.1419 -0.8901
 2294SOL    HW2 8324   7.759   5.211  10.774  0.1137 -0.0582 -0.1336
 2295SOL     OW 8325   0.958   5.784   7.887  0.0646 -0.2832  0.1793
 2295SOL    HW1 8326   0.981   5.709   7.832  2.5901 -0.9035  1.8999
 2295SOL    HW2 8327   0.947   5.747   7.975 -0.4866  1.1292  0.7393
 2296SOL     OW 8328   3.649   0.214   8.027 -0.4004  0.2627 -0.4348
 2296SOL    HW1 8329   3.681   0.126   8.046 -0.7859  0.1084 -0.4767
 2296SOL    HW2 8330   3.724   0.271   8.042 -0.2792 -0.0188  0.0760
 2297SOL     OW 8331   3.548   2.423   9.579 -0.4360 -0.1879  0.2449
 2297SOL    HW1 8332   3.487   2.351   9.596 -0.5569 -0.4153 -1.0601
 2297SOL    HW2 8333   3.494   2.492   9.541  0.1576 -0.5689 -1.3831
 2298SOL     OW 8334   6.491   2.849   3.210  0.1194 -0.4822  0.5623
 2298SOL    HW1 8335   6.446   2.905   3.148  0.9600 -0.1478  0.2461
 2298SOL    HW2 8336   6.581   2.879   3.209  0.7833 -2.3108 -0.2016
 2299SOL     OW 8337   4.696   7.158   0.905 -0.2226 -0.0038 -0.0831
 2299SOL    HW1 8338   4.782   7.181   0.941 -0.0149  2.5215 -1.9368
 2299SOL    HW2 8339   4.634   7.180   0.974  0.5093 -1.1193  0.9817
 2300SOL     OW 8340   3.430   6.445   3.870 -0.6017  0.4629  0.2958
 2300SOL    HW1 8341   3.457   6.536   3.881  0.0108  0.3028  0.1536
 2300SOL    HW2 8342   3.367   6.430   3.940 -0.6836  0.9885  0.3378
 2301SOL     OW 8343   5.235   7.627   9.819 -0.1603 -0.2901  0.0270
 2301SOL    HW1 8344   5.173   7.555   9.804  0.1282 -0.6487  0.5230
 2301SOL    HW2 8345   5.185   7.692   9.868 -0.1232 -0.6142  0.4956
 2302SOL     OW 8346   0.816   2.056  12.035  0.2761  0.0086  0.3352
 2302SOL    HW1 8347   0.767   2.052  11.953 -1.7428  0.5449  1.4557
 2302SOL    HW2 8348   0.807   1.969  12.073 -2.5348  0.8882  1.9659
 2303SOL     OW 8349   4.053   2.711   5.998  0.2264  0.3763 -0.1514
 2303SOL    HW1 8350   4.072   2.637   5.940  0.7867  0.1006  0.3788
 2303SOL    HW2 8351   3.979   2.755   5.956 -0.8019 -1.0701  0.0460
 2304SOL     OW 8352   0.725   3.237   3.461  0.3772  0.2364  0.0112
 2304SOL    HW1 8353   0.717   3.322   3.504  1.4961  0.3072  0.1174
 2304SOL    HW2 8354   0.724   3.258   3.368  0.3548  0.3430  0.0346
 2305SOL     OW 8355   4.669   7.189   3.081  0.5923 -0.3631  0.0814
 2305SOL    HW1 8356   4.648   7.190   2.988 -1.3344 -1.2767  0.4643
 2305SOL    HW2 8357   4.706   7.102   3.097  1.2319 -0.0925  0.1374
 2306SOL     OW 8358   0.105   5.043   6.513  0.1876  0.7277 -0.5233
 2306SOL    HW1 8359   0.131   4.956   6.481  1.0248  1.3812 -1.6600
 2306SOL    HW2 8360   0.024   5.026   6.562  0.4734 -0.7316 -0.5038
 2307SOL     OW 8361   0.252   3.480   2.209 -0.2440  0.2687  0.1048
 2307SOL    HW1 8362   0.208   3.396   2.199  0.1255 -0.3129  2.7048
 2307SOL    HW2 8363   0.301   3.491   2.127  0.2820 -2.4276 -0.0383
 2308SOL     OW 8364   7.198   3.274   7.244 -0.2911  0.4794 -0.0335
 2308SOL    HW1 8365   7.116   3.226   7.235  0.5788 -0.8529 -1.3555
 2308SOL    HW2 8366   7.235   3.242   7.327 -1.5394  1.8651  1.1130
 2309SOL     OW 8367   3.177   2.509   0.141 -0.2123  0.4898  0.3503
 2309SOL    HW1 8368   3.132   2.583   0.182 -1.2592  0.6381 -0.9988
 2309SOL    HW2 8369   3.184   2.534   0.048 -1.4256 -1.4581 -0.3245
 2310SOL     OW 8370   5.910   1.596   5.777 -0.1263  0.1654 -0.3471
 2310SOL    HW1 8371   5.996   1.606   5.818  0.3232 -0.5974 -1.0671
 2310SOL    HW2 8372   5.850   1.643   5.835  0.6949  0.2704  0.4397
 2311SOL     OW 8373   7.487   1.956   6.518  0.1819  0.1741  0.3358
 2311SOL    HW1 8374   7.491   2.050   6.534  1.0876  0.1203  0.4772
 2311SOL    HW2 8375   7.530   1.943   6.434 -3.1903  0.2688 -1.5590
 2312SOL     OW 8376   1.692   6.780   1.492 -0.5993  0.1143 -0.2532
 2312SOL    HW1 8377   1.700   6.791   1.398  0.0966  1.4152 -0.0732
 2312SOL    HW2 8378   1.746   6.851   1.529 -1.0800 -0.1979  1.1098
 2313SOL     OW 8379   1.496   3.033   7.660 -0.2310  0.2051  0.2556
 2313SOL    HW1 8380   1.510   3.004   7.570 -0.3013  2.4517 -0.5519
 2313SOL    HW2 8381   1.541   2.968   7.714  0.5471 -0.7369 -1.4571
 2314SOL     OW 8382   0.584   1.883   5.811 -0.2742  0.0916  0.1221
 2314SOL    HW1 8383   0.615   1.819   5.875 -2.1818 -1.1615 -0.1251
 2314SOL    HW2 8384   0.617   1.853   5.727  1.0435  0.9493  0.3076
 2315SOL     OW 8385   1.264   1.372   4.668 -0.3588 -0.3977  0.0426
 2315SOL    HW1 8386   1.179   1.373   4.711 -0.3590 -1.0965  0.0699
 2315SOL    HW2 8387   1.296   1.462   4.675 -0.3849 -0.4782  1.4267
 2316SOL     OW 8388   0.107   2.179   5.506 -0.1947  0.2429 -0.4401
 2316SOL    HW1 8389   0.044   2.148   5.571  0.7281  1.0442  0.8602
 2316SOL    HW2 8390   0.093   2.121   5.431 -1.3667 -0.6219  0.3989
 2317SOL     OW 8391   4.358   2.491   5.500  0.0309  0.6091 -0.1312
 2317SOL    HW1 8392   4.411   2.412   5.514  0.5510  0.8131 -0.9006
 2317SOL    HW2 8393   4.401   2.536   5.428 -0.0004  1.8342  0.5941
 2318SOL     OW 8394   0.565   6.025   2.704  0.3058  0.4116 -0.1233
 2318SOL    HW1 8395   0.484   5.991   2.666 -1.4270  2.1403  1.7759
 2318SOL    HW2 8396   0.621   6.044   2.628 -1.4693  0.1859 -1.5649
 2319SOL     OW 8397   5.420   7.048   1.457  0.3875 -0.6906 -0.0408
 2319SOL    HW1 8398   5.448   6.968   1.412  0.5353 -0.2998 -0.6468
 2319SOL    HW2 8399   5.500   7.083   1.496 -0.1193 -2.4624  2.9087
 2320SOL     OW 8400   2.562   4.170   0.899  0.3911 -0.4640  0.0940
 2320SOL    HW1 8401   2.482   4.121   0.918  0.1340  0.2461  0.8802
 2320SOL    HW2 8402   2.532   4.254   0.866  0.8244 -1.2055 -2.4484
 2321SOL     OW 8403   3.802   0.656  10.162 -0.3750  0.1597  0.1517
 2321SOL    HW1 8404   3.720   0.662  10.210  0.6676  0.1102  2.0155
 2321SOL    HW2 8405   3.822   0.562  10.160 -1.3446 -0.0698 -2.1268
 2322SOL     OW 8406   0.217   4.945   6.006  0.0191 -0.0055 -0.2450
 2322SOL    HW1 8407   0.229   4.870   6.064 -0.3576 -0.0984 -0.2866
 2322SOL    HW2 8408   0.306   4.977   5.991  0.3057 -1.2273 -1.2752
 2323SOL     OW 8409   5.924   5.715   5.695  0.0812 -0.2511  0.2872
 2323SOL    HW1 8410   6.017   5.738   5.698 -0.4655  2.1736  0.8059
 2323SOL    HW2 8411   5.913   5.668   5.613  1.0975  2.9474 -1.8740
 2324SOL     OW 8412   2.093   3.072   3.892 -0.3470 -0.6136  0.2192
 2324SOL    HW1 8413   2.032   3.009   3.930 -1.0798  0.8889  1.6740
 2324SOL    HW2 8414   2.050   3.157   3.904  1.6909  0.4143  0.6119
 2325SOL     OW 8415   2.936   1.527  10.837  0.1507 -0.6405 -0.5165
 2325SOL    HW1 8416   2.979   1.564  10.915  0.0611 -1.1564 -0.2201
 2325SOL    HW2 8417   3.007   1.484  10.789 -0.2993 -3.1011  0.9040
 2326SOL     OW 8418   0.855   0.144   1.030 -0.1013 -0.3766 -0.0014
 2326SOL    HW1 8419   0.942   0.184   1.032 -0.2760 -0.0203  0.7500
 2326SOL    HW2 8420   0.866   0.060   1.075  0.3447 -1.3868 -1.8815
 2327SOL     OW 8421   7.441   7.350   9.641  0.2071  0.0892  0.4738
 2327SOL    HW1 8422   7.443   7.258   9.666 -0.1350  0.1682  0.8067
 2327SOL    HW2 8423   7.360   7.383   9.680 -0.2073  0.2776 -0.5165
 2328SOL     OW 8424   4.128   5.467   7.769  0.0771 -0.0351  0.2018
 2328SOL    HW1 8425   4.182   5.419   7.833 -0.8990 -1.8099 -0.2534
 2328SOL    HW2 8426   4.178   5.462   7.688 -0.4412 -1.1267 -0.0663
 2329SOL     OW 8427   4.747   0.891   6.376  0.1141 -0.2933 -0.5632
 2329SOL    HW1 8428   4.803   0.968   6.367  0.8009 -0.8341 -1.0475
 2329SOL    HW2 8429   4.666   0.924   6.415  1.2222  0.3298  1.3516
 2330SOL     OW 8430   5.551   1.741   9.435 -0.2515 -0.2029  0.0562
 2330SOL    HW1 8431   5.468   1.757   9.480  0.1701  3.3052 -0.1223
 2330SOL    HW2 8432   5.613   1.724   9.506 -0.5929  0.0301  0.4180
 2331SOL     OW 8433   3.699   0.493   6.010 -0.2396 -0.1730  0.1128
 2331SOL    HW1 8434   3.755   0.436   5.957 -0.3130  1.6457 -2.0825
 2331SOL    HW2 8435   3.610   0.462   5.992 -0.2966  0.6960 -1.2709
 2332SOL     OW 8436   1.992   6.504   1.212  0.6173 -0.5429  0.0674
 2332SOL    HW1 8437   1.970   6.467   1.127  1.7305 -1.0450 -0.0305
 2332SOL    HW2 8438   1.912   6.545   1.243 -0.0096 -1.0347 -0.8747
 2333SOL     OW 8439   1.170   1.446  11.684 -0.1055 -0.0163  0.0396
 2333SOL    HW1 8440   1.083   1.475  11.713 -0.7851 -1.2742 -0.6325
 2333SOL    HW2 8441   1.158   1.425  11.591  1.1903  0.7756 -0.3252
 2334SOL     OW 8442   1.578   3.709   8.025 -0.4063  0.1720 -0.3899
 2334SOL    HW1 8443   1.609   3.798   8.012  0.9727 -0.0382  1.1775
 2334SOL    HW2 8444   1.544   3.683   7.939 -2.3101  2.6996 -0.4887
 2335SOL     OW 8445   1.503   1.315  11.596  0.5261 -0.0770  0.6869
 2335SOL    HW1 8446   1.560   1.373  11.544  3.2047 -1.9303  1.3199
 2335SOL    HW2 8447   1.548   1.230  11.593 -2.8228 -1.9931  0.4153
 2336SOL     OW 8448   0.206   5.127   4.803  0.5366  0.1031 -0.6589
 2336SOL    HW1 8449   0.190   5.087   4.718  0.5843 -1.7362  0.1632
 2336SOL    HW2 8450   0.274   5.193   4.786  0.0650  0.2406 -2.1343
 2337SOL     OW 8451   4.464   6.092   0.631  0.6299  0.6331 -0.5062
 2337SOL    HW1 8452   4.396   6.122   0.571  2.0643  1.0628 -1.9786
 2337SOL    HW2 8453   4.475   6.163   0.693 -0.6679  0.3053  0.1311
 2338SOL     OW 8454   3.369   4.865   8.042  0.5910 -0.5021  0.1497
 2338SOL    HW1 8455   3.369   4.779   7.999 -0.1816 -0.4947  0.1192
 2338SOL    HW2 8456   3.444   4.911   8.005  0.2414 -0.6861 -0.8121
 2339SOL     OW 8457   7.198   3.319   5.998  0.1559 -0.3980  0.2990
 2339SOL    HW1 8458   7.277   3.280   6.036  0.3831 -0.3393 -0.1057
 2339SOL    HW2 8459   7.175   3.390   6.057  1.0650  0.3089 -0.1712
 2340SOL     OW 8460   6.532   6.810  12.244 -0.4341 -0.5301 -0.3240
 2340SOL    HW1 8461   6.536   6.751  12.168  0.7464 -1.9344  0.7598
 2340SOL    HW2 8462   6.620   6.848  12.249 -0.5257 -0.4025  0.3030
 2341SOL     OW 8463   3.834   6.157  10.703  0.1452 -0.2332  0.4650
 2341SOL    HW1 8464   3.910   6.205  10.672  0.2045 -1.1875 -0.9495
 2341SOL    HW2 8465   3.821   6.087  10.639 -0.3085 -1.7439  2.1178
 2342SOL     OW 8466   7.651   7.060   2.974  0.2959  0.2880 -0.0973
 2342SOL    HW1 8467   7.627   7.153   2.969  1.7382  0.7322  0.7447
 2342SOL    HW2 8468   7.616   7.023   2.893  0.2331  1.6945 -0.7551
 2343SOL     OW 8469   5.349   3.590  12.067 -0.1078 -0.2100 -0.2575
 2343SOL    HW1 8470   5.353   3.498  12.094 -0.9561 -0.1017  0.2772
 2343SOL    HW2 8471   5.424   3.601  12.008  0.6150 -0.9635  0.4953
 2344SOL     OW 8472   7.204   4.439   3.334 -0.4981 -0.3914 -0.3049
 2344SOL    HW1 8473   7.283   4.434   3.389 -0.9832 -0.4555  0.4063
 2344SOL    HW2 8474   7.139   4.387   3.381 -0.5702 -1.5073 -1.5874
 2345SOL     OW 8475   1.304   3.753   6.290 -0.2684 -0.3630  0.4884
 2345SOL    HW1 8476   1.292   3.834   6.338  1.9474 -0.9070  2.1095
 2345SOL    HW2 8477   1.248   3.690   6.336 -2.4886  0.2842 -1.1567
 2346SOL     OW 8478   0.028   3.652   9.544  0.3690 -0.5960  0.2037
 2346SOL    HW1 8479   0.110   3.683   9.505  0.1506 -1.0313 -0.6321
 2346SOL    HW2 8480   0.020   3.701   9.626  1.3664 -0.4169  0.2035
 2347SOL     OW 8481   3.200   7.269   4.256  0.2538  0.0144  0.1087
 2347SOL    HW1 8482   3.177   7.302   4.343 -0.3875  0.6306 -0.2869
 2347SOL    HW2 8483   3.201   7.347   4.200 -0.9088 -0.5730 -0.7715
 2348SOL     OW 8484   3.186   5.624   2.750 -0.5882 -0.2918  0.4984
 2348SOL    HW1 8485   3.227   5.617   2.664 -0.2699 -1.1757  0.7189
 2348SOL    HW2 8486   3.216   5.547   2.798 -2.4612 -0.9546  0.6881
 2349SOL     OW 8487   1.696   0.282   4.048 -0.7534 -0.3407  0.0108
 2349SOL    HW1 8488   1.714   0.375   4.035 -0.5468 -0.4356 -0.4025
 2349SOL    HW2 8489   1.710   0.268   4.142  0.9269 -0.3092 -0.1952
 2350SOL     OW 8490   6.303   0.481   7.840  0.7309  0.0295  0.2353
 2350SOL    HW1 8491   6.258   0.538   7.901  0.4494 -0.2447  0.2850
 2350SOL    HW2 8492   6.238   0.416   7.814  0.3230  1.1045 -1.6505
 2351SOL     OW 8493   6.145   3.441  10.083  0.1198  0.9423 -0.0837
 2351SOL    HW1 8494   6.134   3.351  10.114 -0.4612  0.8570 -0.4948
 2351SOL    HW2 8495   6.104   3.441   9.996 -0.1469  1.6746  0.0318
 2352SOL     OW 8496   7.000   3.830   3.411 -0.1129  0.0214 -0.5182
 2352SOL    HW1 8497   6.927   3.771   3.393 -0.1117  0.4494 -2.1008
 2352SOL    HW2 8498   7.051   3.785   3.478 -2.4190  0.2468  1.5366
 2353SOL     OW 8499   3.469   3.810   6.951 -0.5382  0.0259  0.3790
 2353SOL    HW1 8500   3.440   3.845   6.867 -1.3286 -0.5618  0.3894
 2353SOL    HW2 8501   3.488   3.718   6.933 -0.6382 -0.0848  0.8260
 2354SOL     OW 8502   6.298   0.290   8.332  0.4889  0.5279  0.2654
 2354SOL    HW1 8503   6.222   0.347   8.319  0.3760  0.4281  0.4977
 2354SOL    HW2 8504   6.304   0.279   8.426  0.3984 -0.0072  0.2097
 2355SOL     OW 8505   5.301   3.956   2.630 -0.4561 -0.5121 -0.4436
 2355SOL    HW1 8506   5.340   3.991   2.550  1.5233 -0.3178  0.5481
 2355SOL    HW2 8507   5.264   4.033   2.674  1.7619  0.0572  0.5690
 2356SOL     OW 8508   1.052   0.449   4.275  0.8368 -0.0824 -0.0525
 2356SOL    HW1 8509   1.134   0.477   4.315  0.9463 -0.1148 -0.2501
 2356SOL    HW2 8510   1.011   0.392   4.340  0.2884  1.0650  0.6349
 2357SOL     OW 8511   1.619   3.746   0.899 -0.6170  0.0645 -0.4136
 2357SOL    HW1 8512   1.641   3.675   0.960 -0.5464  1.5394  1.3790
 2357SOL    HW2 8513   1.659   3.720   0.816  4.0527  0.3476  1.4219
 2358SOL     OW 8514   6.904   3.422   1.872  0.4676 -0.8189 -0.1126
 2358SOL    HW1 8515   6.928   3.380   1.955 -0.7387 -0.6152  0.3480
 2358SOL    HW2 8516   6.811   3.442   1.881  0.4264 -0.3936 -1.3496
 2359SOL     OW 8517   0.821   1.337   1.069 -0.4644 -0.1149  0.3822
 2359SOL    HW1 8518   0.839   1.249   1.102  0.1881 -0.2730 -0.3484
 2359SOL    HW2 8519   0.903   1.385   1.084 -0.0462 -0.2764 -1.2170
 2360SOL     OW 8520   0.553   6.203   7.210  0.0098 -0.2629  0.4749
 2360SOL    HW1 8521   0.463   6.173   7.198  0.1808 -0.3382 -0.7895
 2360SOL    HW2 8522   0.579   6.237   7.124  1.0067  0.2638  0.9607
 2361SOL     OW 8523   2.804   6.989   5.673  0.4205 -0.2978 -0.2934
 2361SOL    HW1 8524   2.807   7.085   5.682  1.4169 -0.5330  2.7722
 2361SOL    HW2 8525   2.892   6.966   5.642  0.9483 -0.3417  1.1633
 2362SOL     OW 8526   4.205   3.572  10.361  0.4018 -0.0952 -0.3191
 2362SOL    HW1 8527   4.216   3.665  10.341  0.4064  0.8307  3.2544
 2362SOL    HW2 8528   4.124   3.548  10.316 -0.5720  2.1649  0.0714
 2363SOL     OW 8529   7.254   7.275   7.055  0.2646 -0.1268  0.4266
 2363SOL    HW1 8530   7.263   7.325   6.974  0.1930  1.0558  1.1307
 2363SOL    HW2 8531   7.343   7.249   7.077  0.1362 -1.8751 -0.8646
 2364SOL     OW 8532   3.422   3.372   9.141  0.5970  0.5150  0.0164
 2364SOL    HW1 8533   3.426   3.285   9.180 -0.0769  0.9551  1.1045
 2364SOL    HW2 8534   3.427   3.433   9.215  4.1174  1.5414 -0.8569
 2365SOL     OW 8535   1.113   0.589   1.139  0.4093 -0.5241  0.1633
 2365SOL    HW1 8536   1.043   0.651   1.160  1.5137  0.4068  1.2379
 2365SOL    HW2 8537   1.135   0.548   1.223  2.2061  0.3405  0.1525
 2366SOL     OW 8538   7.004   0.431  12.035 -0.1831 -0.5928 -0.0582
 2366SOL    HW1 8539   6.987   0.356  12.092  0.8246 -0.6858  0.1472
 2366SOL    HW2 8540   7.080   0.474  12.075  0.2493 -0.3851 -1.0601
 2367SOL     OW 8541   6.948   2.268   3.200 -0.1785  0.2036 -0.2543
 2367SOL    HW1 8542   6.859   2.282   3.231 -0.0506  0.4945 -0.0192
 2367SOL    HW2 8543   6.963   2.338   3.137 -0.7435 -0.8876 -1.6507
 2368SOL     OW 8544   6.267   1.522   5.567  0.4257 -0.2357 -0.4842
 2368SOL    HW1 8545   6.279   1.442   5.516 -0.1634  0.3996 -1.6595
 2368SOL    HW2 8546   6.349   1.570   5.555  0.6024 -0.4475 -0.1506
 2369SOL     OW 8547   5.852   0.506   5.495 -0.0784 -0.1359 -0.0319
 2369SOL    HW1 8548   5.870   0.519   5.588 -4.5400  3.1785  0.7012
 2369SOL    HW2 8549   5.777   0.447   5.493 -0.2089  0.0473 -1.4969
 2370SOL     OW 8550   7.897   0.266   3.975  0.1842  0.0639 -0.1309
 2370SOL    HW1 8551   7.905   0.347   4.026  1.1271  0.6196 -1.1200
 2370SOL    HW2 8552   7.881   0.296   3.885 -0.9107 -0.8870 -0.2760
 2371SOL     OW 8553   2.114   4.244   0.974 -0.4256 -0.7924 -0.1112
 2371SOL    HW1 8554   2.147   4.157   0.949  0.4453 -0.1769 -1.1525
 2371SOL    HW2 8555   2.038   4.258   0.917 -0.8050 -1.0176  0.3276
 2372SOL     OW 8556   5.666   3.942   6.678 -0.4339 -0.9130  0.2099
 2372SOL    HW1 8557   5.762   3.935   6.676 -0.4482 -1.5448 -2.4638
 2372SOL    HW2 8558   5.648   4.007   6.746  1.8747 -0.9356  0.9288
 2373SOL     OW 8559   7.130   1.277   2.542  0.3079 -0.0692 -0.4501
 2373SOL    HW1 8560   7.212   1.262   2.495  0.1509  0.0814 -0.7730
 2373SOL    HW2 8561   7.148   1.352   2.599 -0.3516  1.6402 -2.3759
 2374SOL     OW 8562   0.968   6.221  11.607  0.4433  0.2624 -0.0356
 2374SOL    HW1 8563   0.888   6.266  11.634  0.3480 -0.0197  0.1519
 2374SOL    HW2 8564   0.995   6.266  11.527  0.0405  0.2898 -0.1559
 2375SOL     OW 8565   6.140   6.375  10.547  0.1848  0.0233 -0.9899
 2375SOL    HW1 8566   6.169   6.284  10.545  0.8662  0.2197 -0.6418
 2375SOL    HW2 8567   6.219   6.424  10.568 -0.4252  0.5758  0.1139
 2376SOL     OW 8568   4.624   5.016   8.047 -0.4830 -0.0646  0.6784
 2376SOL    HW1 8569   4.689   5.011   7.977 -0.9793  0.2873  0.1837
 2376SOL    HW2 8570   4.595   5.107   8.047  0.1753  0.1812  1.9747
 2377SOL     OW 8571   6.840   4.662   3.447  0.6184 -0.1762 -0.1189
 2377SOL    HW1 8572   6.748   4.650   3.468  0.5019  1.0666  0.1507
 2377SOL    HW2 8573   6.879   4.697   3.527  1.4584 -1.2576 -0.0388
 2378SOL     OW 8574   0.825   0.432   0.753  0.0565 -0.0194  0.6082
 2378SOL    HW1 8575   0.757   0.436   0.686  1.0294 -0.7529 -0.4696
 2378SOL    HW2 8576   0.778   0.417   0.835 -1.1343  0.5390  0.0460
 2379SOL     OW 8577   3.161   2.183   4.423  0.4739 -0.1348  0.4128
 2379SOL    HW1 8578   3.085   2.192   4.481  0.0071  1.5202 -0.3708
 2379SOL    HW2 8579   3.233   2.223   4.472  0.6949 -1.0973  0.8860
 2380SOL     OW 8580   1.375   6.761  10.589  0.0522 -0.0657  0.5950
 2380SOL    HW1 8581   1.292   6.753  10.543  0.7822 -1.3096 -0.5654
 2380SOL    HW2 8582   1.373   6.692  10.656  1.1588 -1.8564 -1.1251
 2381SOL     OW 8583   1.782   6.713   2.007  0.4799 -0.2727  0.0127
 2381SOL    HW1 8584   1.837   6.649   1.962 -0.3583 -1.1006  0.1315
 2381SOL    HW2 8585   1.693   6.676   2.003  0.1067  0.4932  0.7795
 2382SOL     OW 8586   5.718   4.292   1.304  0.0288 -1.0664 -0.1632
 2382SOL    HW1 8587   5.778   4.222   1.277 -0.0510 -0.8263 -1.0092
 2382SOL    HW2 8588   5.772   4.352   1.354 -0.0135 -1.9897  1.0357
 2383SOL     OW 8589   0.624   7.688  10.377  0.3493  0.0652  0.3714
 2383SOL    HW1 8590   0.559   7.626  10.408 -0.5724  1.0664  0.5199
 2383SOL    HW2 8591   0.703   7.636  10.364 -0.1979 -0.9943  1.1419
 2384SOL     OW 8592   6.511   3.351   0.814  0.1200  0.2901  0.1178
 2384SOL    HW1 8593   6.592   3.310   0.846  0.4634 -0.3834 -1.5001
 2384SOL    HW2 8594   6.444   3.285   0.827 -0.2755  0.9491  1.7161
 2385SOL     OW 8595   5.039   2.061   4.945  0.1625 -0.0897 -0.0235
 2385SOL    HW1 8596   5.122   2.060   4.993  0.4324  0.5913 -0.4602
 2385SOL    HW2 8597   5.054   2.123   4.874 -0.4265 -0.6417 -0.6364
 2386SOL     OW 8598   2.326   3.997   1.922 -0.0562 -0.4735 -0.3502
 2386SOL    HW1 8599   2.277   4.041   1.852  0.3304  1.0110  0.2691
 2386SOL    HW2 8600   2.261   3.982   1.991  0.0317  0.0948 -0.1420
 2387SOL     OW 8601   5.478   7.194   2.197 -0.1253  0.7219  0.3590
 2387SOL    HW1 8602   5.546   7.139   2.236  1.3814  0.9498 -1.7430
 2387SOL    HW2 8603   5.521   7.279   2.184 -1.1188  1.1558 -0.1633
 2388SOL     OW 8604   6.080   2.489  11.215 -0.3611 -0.4648  0.2199
 2388SOL    HW1 8605   6.174   2.479  11.226 -0.6732 -1.3667  2.6744
 2388SOL    HW2 8606   6.043   2.404  11.238 -1.7374 -0.8114 -2.7246
 2389SOL     OW 8607   6.697   0.978   1.651  0.5347 -0.3483  0.4044
 2389SOL    HW1 8608   6.688   0.955   1.559  0.1799 -0.3156  0.4286
 2389SOL    HW2 8609   6.611   1.012   1.676  0.5011 -0.7644  0.8645
 2390SOL     OW 8610   1.687   0.039   2.645  0.7032  0.1102 -0.0487
 2390SOL    HW1 8611   1.762  -0.009   2.608  1.5945 -0.3735  2.2305
 2390SOL    HW2 8612   1.660   0.098   2.575  3.9129  1.0578 -0.6604
 2391SOL     OW 8613   3.337   3.197   8.549 -0.2752  0.5208 -0.1643
 2391SOL    HW1 8614   3.324   3.243   8.466 -0.8900  0.8847  0.1251
 2391SOL    HW2 8615   3.341   3.266   8.615 -1.0004  0.1839  0.2484
 2392SOL     OW 8616   2.477   5.990   9.976 -0.3749  0.4720  0.0282
 2392SOL    HW1 8617   2.408   6.056   9.972 -0.6963  0.2378  1.3314
 2392SOL    HW2 8618   2.558   6.041   9.970 -0.6346  0.7598 -1.3504
 2393SOL     OW 8619   1.445   0.808   8.156 -0.2827 -0.0394 -0.3277
 2393SOL    HW1 8620   1.389   0.747   8.106 -1.5940  1.5587 -0.9135
 2393SOL    HW2 8621   1.442   0.775   8.246 -1.2694 -0.6376 -0.5577
 2394SOL     OW 8622   3.931   5.577   2.594  0.3414 -0.2563  0.4919
 2394SOL    HW1 8623   4.026   5.589   2.599  0.5354 -1.0934 -0.6336
 2394SOL    HW2 8624   3.896   5.624   2.669  1.5440  1.1907  0.1858
 2395SOL     OW 8625   2.016   2.075   4.728 -0.1201  0.0846 -0.4092
 2395SOL    HW1 8626   2.010   2.158   4.775 -0.8341 -1.5726  2.6855
 2395SOL    HW2 8627   2.102   2.040   4.752  0.0311 -0.2477 -1.3942
 2396SOL     OW 8628   5.584   0.460  11.956 -0.2497 -0.0247  0.4206
 2396SOL    HW1 8629   5.622   0.377  11.927 -1.1215 -0.8833  1.6232
 2396SOL    HW2 8630   5.503   0.467  11.905 -1.5375 -1.2962  2.1515
 2397SOL     OW 8631   1.570   4.005   0.980  0.3838  0.2376 -0.0154
 2397SOL    HW1 8632   1.659   4.037   0.998  0.6116 -0.4910  0.1886
 2397SOL    HW2 8633   1.582   3.913   0.957 -0.6104 -0.8733  3.3595
 2398SOL     OW 8634   5.913   2.668   4.877 -0.5007 -0.1005 -0.0371
 2398SOL    HW1 8635   5.982   2.608   4.905 -0.3221 -1.0727 -2.3524
 2398SOL    HW2 8636   5.832   2.623   4.901 -0.3737  0.0859  0.7978
 2399SOL     OW 8637   1.189   7.332   6.763 -0.4497 -0.2644 -0.6997
 2399SOL    HW1 8638   1.224   7.358   6.677 -0.8905  1.4765 -0.3943
 2399SOL    HW2 8639   1.218   7.402   6.822  1.1635 -2.1804  0.9413
 2400SOL     OW 8640   7.185   0.025   0.361  0.1119 -0.4646  0.5614
 2400SOL    HW1 8641   7.214  -0.026   0.285  2.4751  0.2563  0.8828
 2400SOL    HW2 8642   7.214  -0.026   0.436  1.3511  0.6548  0.8944
 2401SOL     OW 8643   5.593   6.849   0.965  0.1165 -0.1147 -0.0093
 2401SOL    HW1 8644   5.537   6.868   1.040 -0.7613 -0.6664 -0.5136
 2401SOL    HW2 8645   5.614   6.935   0.928  1.3336  0.2339  1.4022
 2402SOL     OW 8646   3.564   6.911  10.372  0.1498 -0.2682  0.1456
 2402SOL    HW1 8647   3.531   6.937  10.458 -1.5289  0.0753 -0.5602
 2402SOL    HW2 8648   3.493   6.932  10.312  0.9485 -1.3123 -1.2200
 2403SOL     OW 8649   3.657   5.995   2.915 -0.2464  0.3117  0.4251
 2403SOL    HW1 8650   3.706   5.950   2.985  1.3133 -0.9032 -1.3581
 2403SOL    HW2 8651   3.572   6.014   2.955  0.9310  0.6583  2.9926
 2404SOL     OW 8652   0.320   1.698   3.026  0.0549 -0.5942 -0.4776
 2404SOL    HW1 8653   0.349   1.771   2.972  0.2532 -1.1722 -1.1651
 2404SOL    HW2 8654   0.399   1.645   3.039  0.0632 -0.3443  0.5788
 2405SOL     OW 8655   0.558   1.753   6.218  0.5144  0.3273 -0.5526
 2405SOL    HW1 8656   0.529   1.838   6.251 -3.5873 -1.0378  0.0092
 2405SOL    HW2 8657   0.577   1.702   6.297 -1.2119 -0.4459 -0.5815
 2406SOL     OW 8658   1.433   1.640  10.574  0.3196 -0.6188 -0.4047
 2406SOL    HW1 8659   1.472   1.601  10.652 -1.0316 -0.1290  0.5578
 2406SOL    HW2 8660   1.482   1.602  10.501  2.4238 -0.1842  0.7009
 2407SOL     OW 8661   5.071   0.550   4.457 -0.2481  0.5245  0.1385
 2407SOL    HW1 8662   5.031   0.511   4.534 -0.1878  0.5218  0.1688
 2407SOL    HW2 8663   4.998   0.589   4.409 -0.5993 -1.3306 -0.9256
 2408SOL     OW 8664   5.978   7.806  10.689 -0.1256  0.6464  0.3802
 2408SOL    HW1 8665   5.938   7.724  10.716 -1.1041  1.2600  0.8505
 2408SOL    HW2 8666   5.936   7.826  10.605 -0.5808  1.1266  0.7164
 2409SOL     OW 8667   4.175   6.008   4.412  0.5355 -0.3154  0.8623
 2409SOL    HW1 8668   4.225   6.080   4.452  1.0213  0.2877 -0.7709
 2409SOL    HW2 8669   4.090   6.047   4.391  0.4383 -0.5130  0.8858
 2410SOL     OW 8670   2.733   5.458   0.222 -0.5554 -0.1503  0.1066
 2410SOL    HW1 8671   2.790   5.382   0.212 -0.3002  0.0335  0.1602
 2410SOL    HW2 8672   2.660   5.426   0.274 -0.4405 -0.3551  0.1449
 2411SOL     OW 8673   5.586   0.144   9.417  0.3416 -0.2051 -0.2766
 2411SOL    HW1 8674   5.681   0.144   9.428  0.2020  0.3493  1.0249
 2411SOL    HW2 8675   5.556   0.073   9.473 -0.0369 -0.2043 -0.4780
 2412SOL     OW 8676   0.598   0.596  10.862 -0.0999  0.2238 -0.1480
 2412SOL    HW1 8677   0.662   0.667  10.868 -1.1105  1.2302 -0.6787
 2412SOL    HW2 8678   0.645   0.525  10.819 -0.0183  1.8922 -3.1167
 2413SOL     OW 8679   0.538   3.729   8.694 -0.1633  0.4812 -0.3540
 2413SOL    HW1 8680   0.502   3.695   8.776 -0.3088  0.8614 -0.2596
 2413SOL    HW2 8681   0.618   3.679   8.680 -0.0836  0.4915  0.0763
 2414SOL     OW 8682   1.510   2.491   5.925 -0.0806 -0.1499 -0.2965
 2414SOL    HW1 8683   1.520   2.408   5.970  0.3082 -0.2226 -0.5104
 2414SOL    HW2 8684   1.595   2.534   5.934  0.5581 -0.8628 -2.3523
 2415SOL     OW 8685   7.050   4.684   5.156  0.2544 -0.3592  0.0797
 2415SOL    HW1 8686   6.986   4.620   5.125 -0.7098  0.5748  0.0742
 2415SOL    HW2 8687   7.065   4.660   5.247 -1.6156  0.5541  0.6746
 2416SOL     OW 8688   6.676   7.487   2.779 -0.1195 -0.5646 -0.0552
 2416SOL    HW1 8689   6.629   7.499   2.862 -0.3207  0.2912 -0.2816
 2416SOL    HW2 8690   6.696   7.576   2.750 -1.5127 -0.7621 -1.7577
 2417SOL     OW 8691   2.764   7.503   7.173  0.3795 -0.6934 -0.3175
 2417SOL    HW1 8692   2.717   7.422   7.152 -0.2719 -0.4436  0.1439
 2417SOL    HW2 8693   2.854   7.475   7.188  0.2034 -1.3054 -0.3560
 2418SOL     OW 8694   5.875   7.625   6.580 -0.6466  0.0858 -0.4698
 2418SOL    HW1 8695   5.819   7.622   6.502  0.5199 -0.6074 -1.3248
 2418SOL    HW2 8696   5.856   7.544   6.627 -0.1461 -0.3108 -0.9355
 2419SOL     OW 8697   3.685   4.285   9.643  0.4202  0.0754  0.3322
 2419SOL    HW1 8698   3.690   4.189   9.635  0.3134  0.0061  1.0309
 2419SOL    HW2 8699   3.633   4.300   9.723  2.2403  0.6869  1.4739
 2420SOL     OW 8700   5.195   7.600   4.731 -0.1727 -0.4494 -0.1746
 2420SOL    HW1 8701   5.165   7.525   4.679 -0.5378  0.8540 -1.9679
 2420SOL    HW2 8702   5.199   7.672   4.668  0.2187  1.0354  1.4675
 2421SOL     OW 8703   1.842   1.948   0.095  0.0849 -1.0896  0.1417
 2421SOL    HW1 8704   1.754   1.972   0.066  0.5943 -0.5378 -1.0322
 2421SOL    HW2 8705   1.870   2.020   0.151 -0.4284 -1.5501  1.0004
 2422SOL     OW 8706   5.576   2.398   8.514  0.0059  0.0142  0.1059
 2422SOL    HW1 8707   5.611   2.486   8.523 -1.6028  0.9495 -1.8575
 2422SOL    HW2 8708   5.493   2.409   8.467 -0.8261 -2.4479  0.7959
 2423SOL     OW 8709   1.031   7.586   8.573  0.2501 -0.2899 -0.3913
 2423SOL    HW1 8710   1.062   7.514   8.517 -0.8822 -0.3898 -0.9253
 2423SOL    HW2 8711   1.111   7.630   8.602  0.9045 -0.8127 -1.3346
 2424SOL     OW 8712   1.957   2.197  11.220  0.5858 -0.3536  0.7363
 2424SOL    HW1 8713   1.874   2.226  11.182  0.9149  3.2462  2.3419
 2424SOL    HW2 8714   1.932   2.155  11.303  0.3048 -1.0474  0.3104
 2425SOL     OW 8715   6.972   7.117  10.737 -0.0299  0.1096 -0.0835
 2425SOL    HW1 8716   6.913   7.066  10.794  0.2682 -0.2472 -0.0886
 2425SOL    HW2 8717   6.923   7.197  10.718 -0.1308  0.2484  0.6958
 2426SOL     OW 8718   3.948   4.766  10.032  0.0042  0.5739  0.0976
 2426SOL    HW1 8719   3.860   4.730  10.037  1.1460 -2.3954  0.7838
 2426SOL    HW2 8720   3.965   4.774   9.938 -0.6414  0.2743 -0.0508
 2427SOL     OW 8721   0.844   7.868   5.783  0.1605 -0.1449 -0.5469
 2427SOL    HW1 8722   0.834   7.963   5.780 -1.4013 -0.2796 -0.1251
 2427SOL    HW2 8723   0.755   7.834   5.778  0.7474 -1.6296 -1.6261
 2428SOL     OW 8724   1.212   3.388   4.802 -0.6989  0.5577 -0.1970
 2428SOL    HW1 8725   1.307   3.391   4.798 -0.7322  0.3457 -1.4117
 2428SOL    HW2 8726   1.184   3.477   4.781 -0.7680  0.7849  0.7960
 2429SOL     OW 8727   1.646   5.390   0.187  0.1675  0.3417  0.3363
 2429SOL    HW1 8728   1.721   5.403   0.245  0.6337  1.0652 -0.4019
 2429SOL    HW2 8729   1.685   5.377   0.101 -0.5176 -0.6990  0.1669
 2430SOL     OW 8730   1.263   4.281   2.699  0.0140  0.0740  0.0133
 2430SOL    HW1 8731   1.241   4.374   2.702  2.0244  0.6361 -0.9183
 2430SOL    HW2 8732   1.301   4.268   2.612 -0.5152 -1.7138  0.0002
 2431SOL     OW 8733   7.742   0.255  10.327  0.2357  0.3426  0.6488
 2431SOL    HW1 8734   7.671   0.318  10.331  1.5913  2.1103 -1.2844
 2431SOL    HW2 8735   7.745   0.216  10.415 -1.9386  1.4727  1.2788
 2432SOL     OW 8736   5.078   5.649   1.634 -0.4222 -0.3024  0.1065
 2432SOL    HW1 8737   5.069   5.563   1.593 -0.7841 -0.0884 -0.2790
 2432SOL    HW2 8738   5.139   5.636   1.706  0.5738 -0.5977 -0.7733
 2433SOL     OW 8739   7.644   1.860  11.294 -0.4163 -0.2377  0.1136
 2433SOL    HW1 8740   7.577   1.899  11.351 -1.7271 -0.0499 -1.4895
 2433SOL    HW2 8741   7.617   1.884  11.206  0.2461 -2.5041 -0.7691
 2434SOL     OW 8742   1.003   1.091   4.658 -0.8121  0.3580 -0.2725
 2434SOL    HW1 8743   1.014   1.133   4.743 -2.0098 -1.2089  0.6990
 2434SOL    HW2 8744   1.092   1.087   4.622 -0.3505  1.4661  0.6817
 2435SOL     OW 8745   4.617   0.055   0.181  0.4717  0.2946 -0.3110
 2435SOL    HW1 8746   4.590  -0.037   0.179  0.5882  0.2682 -0.7166
 2435SOL    HW2 8747   4.617   0.078   0.274 -0.2297  0.0816 -0.2520
 2436SOL     OW 8748   3.856   5.177   8.769 -0.3073  0.0066  0.2294
 2436SOL    HW1 8749   3.804   5.110   8.724  0.0807 -0.7996  0.9435
 2436SOL    HW2 8750   3.795   5.218   8.831 -0.5404  0.2983 -0.1932
 2437SOL     OW 8751   5.585   0.422   7.269 -0.2861  0.3901  0.2427
 2437SOL    HW1 8752   5.512   0.404   7.329 -0.8236 -1.3582 -0.8708
 2437SOL    HW2 8753   5.595   0.342   7.218  2.0894  0.7847 -0.0242
 2438SOL     OW 8754   0.179   7.125   1.094 -0.2923  0.7527 -0.5271
 2438SOL    HW1 8755   0.131   7.044   1.078  1.0596 -0.7658  2.3392
 2438SOL    HW2 8756   0.114   7.185   1.131 -0.6111 -0.3724  0.8392
 2439SOL     OW 8757   0.217   1.506   5.304  0.1127 -0.2277 -0.5601
 2439SOL    HW1 8758   0.258   1.441   5.360 -1.2698  0.4010  1.2724
 2439SOL    HW2 8759   0.204   1.461   5.220 -1.8074 -2.7402  0.9539
 2440SOL     OW 8760   7.818   4.680   2.170  0.8442  0.2528  0.2375
 2440SOL    HW1 8761   7.731   4.698   2.133  0.6372 -0.3781  0.4005
 2440SOL    HW2 8762   7.857   4.617   2.110  1.4440  1.0039 -0.1730
 2441SOL     OW 8763   3.450   2.526   8.907  0.0171  0.6736 -0.0372
 2441SOL    HW1 8764   3.466   2.474   8.828  0.1863 -0.7142  0.8791
 2441SOL    HW2 8765   3.420   2.463   8.972  1.5096  1.4736  1.5208
 2442SOL     OW 8766   2.937   0.926   9.029 -0.0544  0.0816 -0.4673
 2442SOL    HW1 8767   2.902   0.843   9.058 -0.2451  0.0114 -0.8849
 2442SOL    HW2 8768   2.884   0.949   8.952  0.5977  0.1278 -0.9159
 2443SOL     OW 8769   4.440   5.095  11.906 -0.2966  0.2370 -0.4317
 2443SOL    HW1 8770   4.348   5.077  11.890  0.3536 -2.8259 -1.3741
 2443SOL    HW2 8771   4.454   5.069  11.997  0.0531 -1.6770 -0.9805
 2444SOL     OW 8772   3.350   6.044   4.661 -0.1542 -0.0622  0.2429
 2444SOL    HW1 8773   3.386   6.018   4.577 -1.3430  1.9268 -0.9719
 2444SOL    HW2 8774   3.426   6.048   4.719  0.5572 -2.3927 -0.4183
 2445SOL     OW 8775   3.267   4.867   1.220 -0.3418  0.0798  0.2876
 2445SOL    HW1 8776   3.205   4.920   1.271  0.1906  0.5414  0.4559
 2445SOL    HW2 8777   3.318   4.930   1.170 -1.2776 -0.3913 -1.3501
 2446SOL     OW 8778   7.653   0.900   7.590  0.1245 -0.8292 -0.5092
 2446SOL    HW1 8779   7.604   0.957   7.531 -0.9551 -2.9511 -1.7889
 2446SOL    HW2 8780   7.626   0.927   7.678 -0.7202  0.2630 -1.0867
 2447SOL     OW 8781   2.707   4.415   2.401  0.0249 -0.3802 -0.2312
 2447SOL    HW1 8782   2.751   4.499   2.415 -2.2361  1.1318 -1.5371
 2447SOL    HW2 8783   2.734   4.388   2.313 -0.2361 -0.3731 -0.3148
 2448SOL     OW 8784   6.297   1.577   9.045 -0.6630 -0.1418 -0.6295
 2448SOL    HW1 8785   6.248   1.566   8.964 -0.7159 -2.2729 -0.3680
 2448SOL    HW2 8786   6.243   1.536   9.112  0.6427 -0.9404 -0.0213
 2449SOL     OW 8787   7.779   0.929   4.578  0.1984  0.0326 -0.0110
 2449SOL    HW1 8788   7.744   0.957   4.494  0.7049  2.0815  0.3997
 2449SOL    HW2 8789   7.715   0.957   4.642  0.7444  0.2855  0.4377
 2450SOL     OW 8790   3.716   1.067   1.139  0.4314 -0.0365  0.1274
 2450SOL    HW1 8791   3.660   1.145   1.139 -0.8965 -0.9317  0.8977
 2450SOL    HW2 8792   3.715   1.038   1.230  0.4283 -1.2746 -0.2515
 2451SOL     OW 8793   4.151   4.711   5.999 -0.4226 -0.2936 -0.1541
 2451SOL    HW1 8794   4.209   4.662   6.058 -0.8206  0.4304  0.8714
 2451SOL    HW2 8795   4.196   4.709   5.915  1.1047  0.2301  0.6105
 2452SOL     OW 8796   0.853   6.172  11.083  0.2441 -0.6326 -0.1716
 2452SOL    HW1 8797   0.851   6.079  11.059 -1.0576 -0.5061 -0.6404
 2452SOL    HW2 8798   0.813   6.217  11.008 -0.0141  0.2098  0.4536
 2453SOL     OW 8799   2.040   3.584   8.737  0.3697  0.1981 -0.5145
 2453SOL    HW1 8800   1.974   3.615   8.799 -1.1663 -0.2382 -1.8534
 2453SOL    HW2 8801   2.029   3.640   8.660 -1.0957 -2.1901 -2.1943
 2454SOL     OW 8802   3.245   3.665   1.658 -0.7108  0.1533 -0.4382
 2454SOL    HW1 8803   3.290   3.673   1.742 -1.5610 -1.0425  0.1559
 2454SOL    HW2 8804   3.310   3.627   1.599 -0.0721  1.1114 -0.3686
 2455SOL     OW 8805   0.489   3.617   8.953  0.1082 -0.4387 -0.1453
 2455SOL    HW1 8806   0.581   3.635   8.969  0.2875 -0.7210 -0.8497
 2455SOL    HW2 8807   0.448   3.624   9.040  1.1035 -2.2221  0.5060
 2456SOL     OW 8808   6.705   2.324   3.330  0.7457  0.5307 -0.2657
 2456SOL    HW1 8809   6.656   2.406   3.334  1.4412  0.9708 -0.5047
 2456SOL    HW2 8810   6.749   2.319   3.415 -0.4579 -0.3474  0.3225
 2457SOL     OW 8811   2.458   1.657   5.110  0.3502 -0.3588 -0.5370
 2457SOL    HW1 8812   2.514   1.653   5.187  0.6592  0.7120 -0.6934
 2457SOL    HW2 8813   2.435   1.749   5.101 -0.3763 -0.5950 -1.2357
 2458SOL     OW 8814   7.309   4.132   7.609  0.0015  0.2359 -0.3297
 2458SOL    HW1 8815   7.214   4.132   7.597  0.2126  1.2161 -2.5087
 2458SOL    HW2 8816   7.324   4.192   7.682 -1.0296 -0.1095  0.1959
 2459SOL     OW 8817   1.187   4.736   9.972  0.1675  0.4372  0.1325
 2459SOL    HW1 8818   1.230   4.657  10.006 -0.1651  0.6833  1.1645
 2459SOL    HW2 8819   1.169   4.716   9.880 -1.1149 -1.2224  0.6969
 2460SOL     OW 8820   6.189   4.656   8.266 -0.0963 -0.0603 -0.0745
 2460SOL    HW1 8821   6.192   4.663   8.362  0.9268  2.5056 -0.2006
 2460SOL    HW2 8822   6.205   4.564   8.247  0.4315 -0.4853  2.2002
 2461SOL     OW 8823   0.155   5.289   1.015 -0.8766 -0.3360 -0.3145
 2461SOL    HW1 8824   0.126   5.245   0.935 -0.3561  1.0348 -1.2986
 2461SOL    HW2 8825   0.250   5.291   1.009 -0.8590  0.2787  0.0602
 2462SOL     OW 8826   2.796   1.328   3.590  0.0618 -0.3835  0.2021
 2462SOL    HW1 8827   2.793   1.335   3.495 -0.9130 -0.1454  0.2405
 2462SOL    HW2 8828   2.757   1.243   3.609  1.6184 -1.1117  0.3303
 2463SOL     OW 8829   2.125   3.489   1.927  0.7849 -0.3345 -0.4575
 2463SOL    HW1 8830   2.163   3.536   1.853 -1.5084  1.0088 -0.8956
 2463SOL    HW2 8831   2.112   3.557   1.994  2.6197 -1.4704  1.1848
 2464SOL     OW 8832   2.088   5.214   8.019  0.0735  0.0859  0.2706
 2464SOL    HW1 8833   2.111   5.274   8.089  1.1922  3.4915 -2.7335
 2464SOL    HW2 8834   2.171   5.173   7.994 -0.4553 -1.7605  1.3615
 2465SOL     OW 8835   0.986   0.800  10.513 -0.5196 -0.0328  0.9576
 2465SOL    HW1 8836   0.894   0.775  10.519 -0.9567  0.8926 -0.9471
 2465SOL    HW2 8837   1.003   0.849  10.593 -1.5027 -0.7275  1.6109
 2466SOL     OW 8838   2.912   2.700   8.728 -0.2742 -0.0156 -0.1961
 2466SOL    HW1 8839   2.979   2.657   8.781  0.7412 -0.1016 -1.4944
 2466SOL    HW2 8840   2.937   2.680   8.638 -1.9443  0.1266 -0.7205
 2467SOL     OW 8841   1.399   4.770   5.092  0.4191 -0.5819 -0.2102
 2467SOL    HW1 8842   1.351   4.786   5.173  1.9898 -0.9523  0.8273
 2467SOL    HW2 8843   1.395   4.854   5.045  0.0328 -0.1730  0.5325
 2468SOL     OW 8844   5.353   6.774  10.346  0.1738 -0.6019  0.4928
 2468SOL    HW1 8845   5.393   6.828  10.414  2.7356 -1.9618  0.2039
 2468SOL    HW2 8846   5.346   6.831  10.271 -2.0631  0.7268  1.6002
 2469SOL     OW 8847   6.931   5.629   9.000  0.9862  0.0119 -0.0234
 2469SOL    HW1 8848   6.974   5.546   8.976  0.1894 -0.1688 -0.9304
 2469SOL    HW2 8849   6.868   5.604   9.067  0.2986 -0.2630 -0.7427
 2470SOL     OW 8850   3.457   6.597   2.975  0.0918  0.4713  0.4370
 2470SOL    HW1 8851   3.500   6.536   2.916 -1.1344 -0.5186  0.5376
 2470SOL    HW2 8852   3.408   6.656   2.917  1.0633  1.2197  0.3537
 2471SOL     OW 8853   0.690   3.112   5.499 -0.2814  0.3346 -0.0977
 2471SOL    HW1 8854   0.777   3.149   5.483  0.2742 -0.0529  1.7345
 2471SOL    HW2 8855   0.661   3.154   5.580 -1.9819  0.7117 -0.8623
 2472SOL     OW 8856   4.160   6.931   5.867 -0.3909  0.1546  0.2330
 2472SOL    HW1 8857   4.209   6.946   5.786 -0.7082  0.0877  0.0254
 2472SOL    HW2 8858   4.212   6.974   5.935 -2.0029  3.7215 -0.5280
 2473SOL     OW 8859   5.621   7.282   0.921 -0.3950 -0.3348  0.0148
 2473SOL    HW1 8860   5.564   7.218   0.878  0.6353 -1.7538  0.6843
 2473SOL    HW2 8861   5.581   7.367   0.902 -1.0672 -1.0681 -2.0230
 2474SOL     OW 8862   0.609   6.605   6.127  0.0990  0.2957 -0.3036
 2474SOL    HW1 8863   0.546   6.609   6.056  0.9295  1.8030 -1.0015
 2474SOL    HW2 8864   0.694   6.621   6.085  1.0715 -2.1011  0.5230
 2475SOL     OW 8865   3.363   2.854   5.834 -0.5052 -0.2376 -0.3396
 2475SOL    HW1 8866   3.327   2.938   5.863  0.3480 -0.1812  0.6263
 2475SOL    HW2 8867   3.400   2.872   5.747 -2.3525 -0.1921 -1.1490
 2476SOL     OW 8868   7.337   6.732   9.692  0.8838  0.0422  0.2112
 2476SOL    HW1 8869   7.362   6.641   9.705  0.5767 -0.0556  0.1356
 2476SOL    HW2 8870   7.262   6.728   9.633 -0.3202  0.2088  1.6545
 2477SOL     OW 8871   5.665   2.703   6.659  0.1786 -0.0726  0.8615
 2477SOL    HW1 8872   5.609   2.631   6.632 -0.2979  0.9452 -1.0613
 2477SOL    HW2 8873   5.744   2.661   6.693 -0.9341 -1.4929  1.8085
 2478SOL     OW 8874   6.165   4.940   3.914  0.3443  0.2714  0.4353
 2478SOL    HW1 8875   6.099   4.906   3.974 -0.1565  0.5738  0.0591
 2478SOL    HW2 8876   6.119   4.948   3.830  1.4723 -1.8212 -0.4600
 2479SOL     OW 8877   1.810   5.872   0.781 -0.2094 -0.5786 -0.8044
 2479SOL    HW1 8878   1.716   5.877   0.762 -0.2791  0.7471 -0.2245
 2479SOL    HW2 8879   1.824   5.784   0.814 -1.2405 -0.8160 -0.9837
 2480SOL     OW 8880   1.383   5.430  11.635  0.1743  0.3039 -0.1330
 2480SOL    HW1 8881   1.427   5.498  11.584  0.1690 -0.7342 -1.6005
 2480SOL    HW2 8882   1.291   5.455  11.633  0.2818  0.7161  0.0761
 2481SOL     OW 8883   5.356   3.227   5.852 -0.3431 -0.1875 -0.2601
 2481SOL    HW1 8884   5.362   3.133   5.837  0.4128  0.0554 -1.7540
 2481SOL    HW2 8885   5.347   3.236   5.947  0.5333 -1.7204  0.0045
 2482SOL     OW 8886   3.785   1.478   0.065  0.3212 -0.1358 -0.1323
 2482SOL    HW1 8887   3.723   1.405   0.055  0.5631 -0.1931 -1.4512
 2482SOL    HW2 8888   3.761   1.518   0.148 -1.1050 -0.5263 -0.3170
 2483SOL     OW 8889   3.731   3.706  11.400 -0.4006 -0.1541  0.1062
 2483SOL    HW1 8890   3.792   3.705  11.326  0.6739 -1.1013  0.9724
 2483SOL    HW2 8891   3.661   3.645  11.374  1.0885 -2.2319  0.7267
 2484SOL     OW 8892   5.472   0.319   7.860 -0.1113  0.3222 -0.5651
 2484SOL    HW1 8893   5.532   0.251   7.889 -0.0112  0.1506 -1.1521
 2484SOL    HW2 8894   5.514   0.356   7.782 -1.1707 -0.3736 -1.4884
 2485SOL     OW 8895   7.846   1.972   6.379 -0.2740  0.1878  0.3606
 2485SOL    HW1 8896   7.898   1.956   6.458  0.3306 -1.1110 -0.2751
 2485SOL    HW2 8897   7.874   2.058   6.348  0.8428 -0.1029  0.5314
 2486SOL     OW 8898   5.507   4.631  10.634 -0.2139 -0.3894  0.3657
 2486SOL    HW1 8899   5.597   4.599  10.623 -0.6122 -1.3175 -0.3324
 2486SOL    HW2 8900   5.517   4.725  10.644  1.0241 -0.6930  2.7743
 2487SOL     OW 8901   2.299   3.560   2.488  0.2654 -0.4865  0.3966
 2487SOL    HW1 8902   2.366   3.581   2.553  1.8905 -0.0027 -1.3379
 2487SOL    HW2 8903   2.346   3.510   2.421 -1.2181 -0.5269 -0.6498
 2488SOL     OW 8904   0.294   0.795   1.867 -0.3850  0.4156  0.0232
 2488SOL    HW1 8905   0.257   0.879   1.895  0.1291  1.2535 -1.6494
 2488SOL    HW2 8906   0.381   0.793   1.906 -0.2996  0.8068 -0.1349
 2489SOL     OW 8907   4.988   3.066   6.022  0.5197  0.0020 -0.6409
 2489SOL    HW1 8908   4.904   3.055   6.066  0.2667 -0.3466 -1.2153
 2489SOL    HW2 8909   5.045   3.001   6.064  0.9441  1.2626  0.8198
 2490SOL     OW 8910   7.028   5.361   1.956 -0.1913  0.4796 -0.4681
 2490SOL    HW1 8911   7.008   5.270   1.936  1.4248 -0.2284  0.8916
 2490SOL    HW2 8912   6.942   5.401   1.972 -0.9470 -0.7215 -1.3514
 2491SOL     OW 8913   7.653   7.821   2.287 -0.2380 -0.2940  0.7791
 2491SOL    HW1 8914   7.561   7.844   2.293 -0.9688 -1.5396 -2.7944
 2491SOL    HW2 8915   7.654   7.725   2.292  0.7279 -0.3407  0.0305
 2492SOL     OW 8916   5.786   5.524  11.536 -0.0952 -0.3297  0.7223
 2492SOL    HW1 8917   5.816   5.509  11.626  0.0333 -2.5686  0.3750
 2492SOL    HW2 8918   5.783   5.436  11.497  0.7353  0.6583 -1.7676
 2493SOL     OW 8919   5.766   5.409   1.724  0.1466 -0.5053 -0.2634
 2493SOL    HW1 8920   5.846   5.393   1.672  0.5648 -1.0264  0.5281
 2493SOL    HW2 8921   5.695   5.377   1.669  0.3367  0.9832 -1.4758
 2494SOL     OW 8922   2.722   4.827   3.917  0.8240  0.2824 -0.0161
 2494SOL    HW1 8923   2.769   4.903   3.949 -0.4551  1.4326 -0.7784
 2494SOL    HW2 8924   2.629   4.852   3.920  0.0587 -2.3524  2.6135
 2495SOL     OW 8925   7.733   6.844   6.413  0.5543 -0.0226 -0.0651
 2495SOL    HW1 8926   7.727   6.865   6.320  0.4400 -2.0410 -0.5618
 2495SOL    HW2 8927   7.643   6.827   6.441  0.8037 -1.8229 -0.2376
 2496SOL     OW 8928   4.055   4.680   4.776 -0.1132 -0.1317  0.5219
 2496SOL    HW1 8929   3.991   4.610   4.791 -1.6050  1.3607  1.4589
 2496SOL    HW2 8930   4.003   4.760   4.775  1.7780  1.1889  1.6665
 2497SOL     OW 8931   3.953   2.595   1.130  0.2125 -0.1857  0.3415
 2497SOL    HW1 8932   3.924   2.587   1.039 -0.6327  3.9760  0.0368
 2497SOL    HW2 8933   3.874   2.584   1.182 -0.0715  1.2051  0.2383
 2498SOL     OW 8934   2.558   1.713   4.728  0.1177  0.2526 -0.4041
 2498SOL    HW1 8935   2.625   1.665   4.679 -1.1169 -0.9885 -0.9530
 2498SOL    HW2 8936   2.604   1.747   4.805  1.4842 -0.1191 -1.0333
 2499SOL     OW 8937   5.530   6.067  11.117 -0.0859 -0.3843  0.1254
 2499SOL    HW1 8938   5.470   6.140  11.108  0.6870  0.7818  3.0720
 2499SOL    HW2 8939   5.517   6.014  11.039 -2.5343  1.5328 -0.8720
 2500SOL     OW 8940   5.200   7.866   1.389 -0.4161  0.1597 -0.2562
 2500SOL    HW1 8941   5.131   7.800   1.385 -0.8993  0.7073 -3.0613
 2500SOL    HW2 8942   5.281   7.817   1.375 -0.1129 -0.4726  2.9559
 2501SOL     OW 8943   6.388   2.505   7.633  0.1085 -0.3278 -0.2541
 2501SOL    HW1 8944   6.349   2.497   7.546 -2.3885  0.4251  0.6942
 2501SOL    HW2 8945   6.465   2.560   7.620 -1.1727  1.2263 -1.7846
 2502SOL     OW 8946   6.162   7.050   1.672 -0.7797  0.6293 -0.6815
 2502SOL    HW1 8947   6.227   7.071   1.604 -0.0031 -0.8735 -0.4337
 2502SOL    HW2 8948   6.133   6.962   1.651 -2.7199  1.2351 -0.7232
 2503SOL     OW 8949   1.703   3.794   8.427  0.5727 -0.0497 -0.3227
 2503SOL    HW1 8950   1.775   3.819   8.369  0.7412 -0.0527 -0.1153
 2503SOL    HW2 8951   1.672   3.878   8.463  0.5003 -0.0533 -0.3737
 2504SOL     OW 8952   7.114   0.707   7.130  0.0829  0.2651  0.2625
 2504SOL    HW1 8953   7.191   0.665   7.093  0.6600  0.3017  1.3928
 2504SOL    HW2 8954   7.148   0.777   7.185 -0.8367  1.6901 -0.9053
 2505SOL     OW 8955   0.937   5.525   3.123 -0.4670 -0.3988  0.2230
 2505SOL    HW1 8956   0.906   5.550   3.210  0.4337  0.1951  0.3832
 2505SOL    HW2 8957   0.901   5.591   3.065 -1.6569 -1.1901  0.0235
 2506SOL     OW 8958   7.444   1.021   7.187  0.0942  0.5082  0.0609
 2506SOL    HW1 8959   7.418   1.113   7.191  0.1980  0.5579 -0.3097
 2506SOL    HW2 8960   7.369   0.974   7.223  0.0351  0.7378  0.2415
 2507SOL     OW 8961   6.685   1.334   5.740 -0.0276  0.2784  0.4203
 2507SOL    HW1 8962   6.773   1.297   5.747  0.0331 -0.4210 -2.7187
 2507SOL    HW2 8963   6.644   1.286   5.669 -1.6602  3.0242 -0.6602
 2508SOL     OW 8964   4.199   4.771   0.835  0.2071 -0.4922 -0.0182
 2508SOL    HW1 8965   4.178   4.831   0.906 -1.0368 -1.1830  0.2301
 2508SOL    HW2 8966   4.154   4.807   0.759  1.3748  0.1379 -0.4287
 2509SOL     OW 8967   0.447   1.915   4.495 -0.3548 -0.0067 -0.0459
 2509SOL    HW1 8968   0.511   1.875   4.436 -0.3207 -0.9225  0.6007
 2509SOL    HW2 8969   0.389   1.965   4.438  1.6492  1.8786 -0.5566
 2510SOL     OW 8970   2.853   7.839   3.592  0.4352  0.5932  0.2885
 2510SOL    HW1 8971   2.938   7.802   3.618 -0.0943 -1.3262 -0.4864
 2510SOL    HW2 8972   2.867   7.870   3.502  0.4324  0.7021  0.3256
 2511SOL     OW 8973   0.481   2.790   5.426 -0.1238 -0.1030 -0.3708
 2511SOL    HW1 8974   0.538   2.866   5.416  1.9507 -1.5628 -0.1536
 2511SOL    HW2 8975   0.540   2.717   5.440 -2.0885 -1.6178  0.5462
 2512SOL     OW 8976   6.375   6.499  10.580  0.3132 -0.0146 -0.2286
 2512SOL    HW1 8977   6.411   6.449  10.653  0.3621 -0.6275 -0.6650
 2512SOL    HW2 8978   6.441   6.566  10.562  2.0486 -2.0577 -2.0185
 2513SOL     OW 8979   5.942   0.299   9.631  0.2348  0.7954  0.4118
 2513SOL    HW1 8980   6.014   0.347   9.672  0.4547 -0.6174  1.7825
 2513SOL    HW2 8981   5.868   0.359   9.636  0.7718  1.4308  1.0178
 2514SOL     OW 8982   1.114   5.776   7.471 -0.3276 -0.1039 -0.5110
 2514SOL    HW1 8983   1.130   5.789   7.378  1.8764 -1.1761 -0.3279
 2514SOL    HW2 8984   1.119   5.681   7.483  1.7129  0.1340  1.0281
 2515SOL     OW 8985   4.924   4.683   0.479  0.4824 -0.1573  0.1146
 2515SOL    HW1 8986   4.930   4.745   0.552  3.1810 -1.1440  0.8682
 2515SOL    HW2 8987   4.891   4.603   0.518 -2.7879  0.5666 -0.8179
 2516SOL     OW 8988   7.323   6.775   3.097 -0.5248  0.1037  0.1279
 2516SOL    HW1 8989   7.254   6.813   3.042 -1.0214  0.3840  0.9370
 2516SOL    HW2 8990   7.286   6.693   3.128 -0.5285  0.2910  0.6230
 2517SOL     OW 8991   1.285   7.431   0.278  0.0190  0.2492  0.7500
 2517SOL    HW1 8992   1.315   7.446   0.367 -0.3978  1.9030  0.6416
 2517SOL    HW2 8993   1.352   7.374   0.240  1.1160  0.9335  1.5954
 2518SOL     OW 8994   7.443   7.194   6.223  0.3094 -0.1150  0.6411
 2518SOL    HW1 8995   7.395   7.260   6.173  1.5126  0.4148  0.1451
 2518SOL    HW2 8996   7.396   7.112   6.206  0.1217  0.2241 -0.5873
 2519SOL     OW 8997   4.788   4.209   7.067 -0.2002 -0.7985 -0.3271
 2519SOL    HW1 8998   4.770   4.118   7.043  0.8562 -1.0381 -0.2763
 2519SOL    HW2 8999   4.883   4.215   7.068 -0.2400  0.0631  0.5904
 2520SOL     OW 9000   2.042   3.078   0.383 -0.0043  0.0330 -0.4555
 2520SOL    HW1 9001   2.113   3.123   0.429  1.3665 -1.8695 -0.5642
 2520SOL    HW2 9002   2.030   3.129   0.303  2.1048 -0.2310 -1.0021
 2521SOL     OW 9003   1.782   7.496   5.772 -0.1792  0.1924 -0.2019
 2521SOL    HW1 9004   1.869   7.459   5.757  0.3849  1.9847 -1.6416
 2521SOL    HW2 9005   1.797   7.590   5.782 -2.0500  0.7185 -1.7488
 2522SOL     OW 9006   2.996   3.043   2.400 -1.1181  0.5475  0.0841
 2522SOL    HW1 9007   3.021   2.990   2.476 -1.3351  1.0020  0.4751
 2522SOL    HW2 9008   3.006   2.984   2.326  2.5172  1.0531 -0.0082
 2523SOL     OW 9009   6.960   2.695   0.967 -0.4809 -0.4659 -0.1695
 2523SOL    HW1 9010   7.012   2.695   0.886 -1.6204 -0.8022 -0.9314
 2523SOL    HW2 9011   7.009   2.641   1.028  2.0943  2.4075  0.5410
 2524SOL     OW 9012   3.777   0.941   7.161  0.3856  0.0935  0.0260
 2524SOL    HW1 9013   3.856   0.992   7.145  0.1396  0.0777 -1.3196
 2524SOL    HW2 9014   3.705   1.004   7.158  0.2628 -0.0307  0.3129
 2525SOL     OW 9015   2.087   3.365   2.569 -0.2853 -0.0800 -0.4242
 2525SOL    HW1 9016   2.146   3.425   2.524  0.1081 -0.3607 -0.2903
 2525SOL    HW2 9017   2.145   3.310   2.623 -0.5996 -0.8253 -0.8359
 2526SOL     OW 9018   7.011   2.114   0.234 -0.2042 -0.0031 -0.2625
 2526SOL    HW1 9019   7.004   2.173   0.159 -0.5498 -0.3034 -0.4699
 2526SOL    HW2 9020   7.025   2.028   0.195  0.5658 -0.0267  0.0440
 2527SOL     OW 9021   0.126   6.319   9.957  0.5592  0.1972 -0.6849
 2527SOL    HW1 9022   0.100   6.401   9.999  0.5242  1.0542 -2.2909
 2527SOL    HW2 9023   0.050   6.262   9.968  0.9923 -0.0561  1.4157
 2528SOL     OW 9024   2.882   3.834   1.206  0.1947  0.1678 -0.1800
 2528SOL    HW1 9025   2.898   3.789   1.123  0.9179 -0.2677  0.1882
 2528SOL    HW2 9026   2.885   3.764   1.271 -1.1888  0.3770  0.1375
 2529SOL     OW 9027   4.028   5.860   4.868 -0.2719  0.7029 -0.7564
 2529SOL    HW1 9028   3.973   5.791   4.906  0.7615  0.1301 -0.2628
 2529SOL    HW2 9029   3.983   5.885   4.787 -1.0737  0.0032 -0.5351
 2530SOL     OW 9030   5.041   0.818   3.280  0.1109  0.1062 -0.1225
 2530SOL    HW1 9031   4.998   0.816   3.366 -0.4050 -0.0179 -0.3777
 2530SOL    HW2 9032   5.133   0.798   3.298 -0.3166 -1.7338  0.2076
 2531SOL     OW 9033   4.450   0.895   1.113 -0.4356  0.8308  0.1282
 2531SOL    HW1 9034   4.438   0.868   1.022  1.6345  0.6413 -0.1361
 2531SOL    HW2 9035   4.407   0.826   1.164  1.0393 -0.7481 -0.6587
 2532SOL     OW 9036   7.377   1.055   4.150  0.1696  0.0197  0.1891
 2532SOL    HW1 9037   7.361   0.980   4.208  1.8380  0.9737  2.0092
 2532SOL    HW2 9038   7.290   1.081   4.120 -0.5429 -1.9159  0.4380
 2533SOL     OW 9039   3.726   1.157   1.434  0.1904  0.1900 -0.3506
 2533SOL    HW1 9040   3.657   1.201   1.483 -0.6433 -1.2329 -0.1909
 2533SOL    HW2 9041   3.738   1.074   1.480  2.4272  0.6208 -0.0292
 2534SOL     OW 9042   2.802   0.850   0.382  0.4228 -0.5568  0.2138
 2534SOL    HW1 9043   2.709   0.863   0.400  0.7446 -0.4369  2.0193
 2534SOL    HW2 9044   2.828   0.929   0.333 -0.3851 -0.5267 -0.1778
 2535SOL     OW 9045   6.256   1.419   3.822 -0.1110 -0.1376 -0.2256
 2535SOL    HW1 9046   6.202   1.342   3.802 -0.6863  0.3373 -0.5381
 2535SOL    HW2 9047   6.339   1.403   3.777  0.2556 -1.1675  0.7731
 2536SOL     OW 9048   6.906   6.531   5.566  0.1233 -0.0138  0.1999
 2536SOL    HW1 9049   6.878   6.621   5.583  0.1303  0.1744 -0.7325
 2536SOL    HW2 9050   6.825   6.480   5.563  0.1452 -0.1119  1.1094
 2537SOL     OW 9051   6.313   2.858   0.174 -0.6466  0.0933 -0.0118
 2537SOL    HW1 9052   6.356   2.936   0.137 -1.3526 -0.2851 -1.7248
 2537SOL    HW2 9053   6.226   2.889   0.200  0.2149  0.6305  2.5614
 2538SOL     OW 9054   5.737   1.782   2.692  0.3050 -0.3450 -0.3294
 2538SOL    HW1 9055   5.828   1.782   2.662  0.1784  0.3945 -0.7355
 2538SOL    HW2 9056   5.715   1.875   2.699  0.0610 -0.5036  1.2487
 2539SOL     OW 9057   1.710   4.862   2.538 -0.4256 -0.0497 -0.1820
 2539SOL    HW1 9058   1.788   4.816   2.505  0.5770  0.9599  0.6908
 2539SOL    HW2 9059   1.729   4.954   2.521 -1.8392  0.1533 -0.7369
 2540SOL     OW 9060   5.366   3.965   1.038 -0.2299  0.4284  0.1401
 2540SOL    HW1 9061   5.355   3.871   1.054 -0.1551  0.4607  0.3882
 2540SOL    HW2 9062   5.451   3.986   1.078 -0.6273  0.7669  0.8197
 2541SOL     OW 9063   5.691   4.076  10.447  0.2578 -0.4071 -0.6323
 2541SOL    HW1 9064   5.668   3.998  10.397 -0.4093  0.8267 -2.3709
 2541SOL    HW2 9065   5.778   4.100  10.417 -0.0753  0.2424 -1.1193
 2542SOL     OW 9066   2.220   3.068   4.553 -0.1865  0.1021  0.0899
 2542SOL    HW1 9067   2.143   3.012   4.567  0.8695 -1.2627  0.6649
 2542SOL    HW2 9068   2.235   3.108   4.638 -0.3247  0.4513 -0.0505
 2543SOL     OW 9069   0.490   1.691   2.146 -0.0322  0.6857 -0.8447
 2543SOL    HW1 9070   0.459   1.739   2.222  0.0001 -0.7667  0.1375
 2543SOL    HW2 9071   0.511   1.758   2.082 -0.1233  1.9561  0.4023
 2544SOL     OW 9072   3.411   6.826   9.134 -0.5781 -0.1298 -0.2982
 2544SOL    HW1 9073   3.325   6.784   9.131  0.4708 -2.3514 -1.2860
 2544SOL    HW2 9074   3.472   6.755   9.151  1.1643  1.2713 -0.4004
 2545SOL     OW 9075   2.121   1.821   1.854 -0.1050  0.4986  0.0883
 2545SOL    HW1 9076   2.119   1.756   1.784  0.2741  1.2740 -0.6621
 2545SOL    HW2 9077   2.041   1.805   1.903 -0.7752  0.4449 -0.9885
 2546SOL     OW 9078   4.900   4.307   8.455  0.1751 -0.2178  0.0859
 2546SOL    HW1 9079   4.873   4.256   8.532 -1.1622  0.0570 -0.1838
 2546SOL    HW2 9080   4.843   4.383   8.455  0.5849  0.1057 -0.8359
 2547SOL     OW 9081   5.215   0.081   5.074 -0.2716  0.8873  0.2987
 2547SOL    HW1 9082   5.256   0.039   5.150  1.1350  0.5129 -0.6295
 2547SOL    HW2 9083   5.270   0.157   5.055 -1.2923  1.6695  0.3503
 2548SOL     OW 9084   4.845   6.599   3.836 -0.1349  0.1385  0.4581
 2548SOL    HW1 9085   4.834   6.577   3.928 -0.2628 -0.3456  0.3324
 2548SOL    HW2 9086   4.877   6.518   3.796  0.5580  0.5310  0.1972
 2549SOL     OW 9087   7.399   6.755   3.449  0.2055  0.6263 -0.1404
 2549SOL    HW1 9088   7.371   6.721   3.364 -1.2829 -0.4055  0.7157
 2549SOL    HW2 9089   7.384   6.849   3.443  1.0159  0.6950 -1.3292
 2550SOL     OW 9090   1.580   6.723   0.223 -0.4462 -0.3391  0.2384
 2550SOL    HW1 9091   1.625   6.779   0.287  0.7352 -0.6991 -0.2456
 2550SOL    HW2 9092   1.650   6.674   0.182 -1.3653 -1.3857 -0.1167
 2551SOL     OW 9093   3.746   6.153  11.254 -0.2263  0.2484  0.0311
 2551SOL    HW1 9094   3.742   6.112  11.341 -0.3749  1.2699  0.5212
 2551SOL    HW2 9095   3.716   6.243  11.268  0.6341  0.7070 -0.9025
 2552SOL     OW 9096   0.307   0.240   4.998 -0.5917  0.1412  0.5663
 2552SOL    HW1 9097   0.350   0.205   4.920 -2.0382  0.9489 -0.6544
 2552SOL    HW2 9098   0.371   0.299   5.037 -0.0520  0.1577 -0.3257
 2553SOL     OW 9099   5.448   2.716   1.328  0.2545  0.5185 -0.4378
 2553SOL    HW1 9100   5.396   2.769   1.267 -0.1944  0.6529  0.0534
 2553SOL    HW2 9101   5.497   2.656   1.271  1.9214  2.4218 -1.1038
 2554SOL     OW 9102   2.777   5.112  10.239  0.6947 -0.2054  0.5011
 2554SOL    HW1 9103   2.789   5.077  10.151  0.1902 -0.5302  0.5567
 2554SOL    HW2 9104   2.866   5.127  10.272  0.8814  0.1702 -0.1614
 2555SOL     OW 9105   0.427   5.316   0.977  0.0350 -0.3955  0.6425
 2555SOL    HW1 9106   0.446   5.223   0.964 -1.3717 -0.6315  0.0141
 2555SOL    HW2 9107   0.421   5.352   0.888 -0.7323 -0.0127  0.8333
 2556SOL     OW 9108   0.492   2.264   8.609 -0.2374 -0.4223  0.0759
 2556SOL    HW1 9109   0.494   2.170   8.592 -0.5769 -0.6621  1.2282
 2556SOL    HW2 9110   0.473   2.270   8.703 -2.1778  0.8029 -0.3350
 2557SOL     OW 9111   7.221   1.341   3.501 -0.0802 -0.9222  0.3967
 2557SOL    HW1 9112   7.222   1.437   3.503  0.2154 -0.8324 -1.6283
 2557SOL    HW2 9113   7.145   1.317   3.553 -0.9206  0.4785 -0.1216
 2558SOL     OW 9114   3.629   4.698  10.314  0.1373 -0.5590 -0.0547
 2558SOL    HW1 9115   3.634   4.616  10.363 -1.8778 -0.9510 -0.4090
 2558SOL    HW2 9116   3.668   4.763  10.372  1.0215 -1.6165  0.5776
 2559SOL     OW 9117   2.728   3.501   7.143  0.1182  0.1522  0.2660
 2559SOL    HW1 9118   2.788   3.472   7.074  0.2419  0.5365  0.2096
 2559SOL    HW2 9119   2.750   3.593   7.156  0.2269  0.0338  0.9537
 2560SOL     OW 9120   0.313   6.819   6.833 -0.5070  0.3508 -0.2024
 2560SOL    HW1 9121   0.299   6.870   6.913  0.6567  0.7809 -0.2472
 2560SOL    HW2 9122   0.334   6.885   6.766  1.2434 -0.1473 -0.2083
 2561SOL     OW 9123   7.311   0.649   8.980  0.1070 -0.0365 -0.3539
 2561SOL    HW1 9124   7.270   0.686   8.902  0.6190  0.4338 -0.4079
 2561SOL    HW2 9125   7.405   0.658   8.964  0.2493  1.7736  1.0833
 2562SOL     OW 9126   2.831   6.567   8.747  0.1595  0.2037 -0.1382
 2562SOL    HW1 9127   2.736   6.564   8.732 -0.0955  1.0043  1.1489
 2562SOL    HW2 9128   2.855   6.476   8.766 -0.7023  0.2554  1.3607
 2563SOL     OW 9129   7.056   4.433   0.600 -0.2601 -0.1040  0.0657
 2563SOL    HW1 9130   7.138   4.483   0.595 -1.2804  1.8093  1.0800
 2563SOL    HW2 9131   7.078   4.346   0.567  1.9971  0.5662 -0.3450
 2564SOL     OW 9132   2.141   7.126   7.524  0.7224  0.2874 -0.5360
 2564SOL    HW1 9133   2.184   7.103   7.607  0.5914 -0.7543 -0.7350
 2564SOL    HW2 9134   2.060   7.074   7.524  1.5332 -1.0763 -2.0695
 2565SOL     OW 9135   6.147   5.455   1.665  0.3089  0.7375  0.1984
 2565SOL    HW1 9136   6.095   5.474   1.743  2.1828 -1.9723  2.2978
 2565SOL    HW2 9137   6.084   5.426   1.599 -1.1333  1.0679  1.3883
 2566SOL     OW 9138   1.832   4.924   7.310 -0.5895 -0.4112 -0.0104
 2566SOL    HW1 9139   1.751   4.904   7.355 -0.1347 -0.8799  0.6108
 2566SOL    HW2 9140   1.879   4.984   7.368 -0.9435  0.7101 -0.8398
 2567SOL     OW 9141   7.827   1.031  10.683  0.1835  0.0559  0.4178
 2567SOL    HW1 9142   7.874   1.114  10.687  0.8840 -0.3722  1.3362
 2567SOL    HW2 9143   7.895   0.964  10.686 -0.0880 -0.6270 -3.5164
 2568SOL     OW 9144   4.890   1.791   2.279 -0.2028  0.2888 -0.5417
 2568SOL    HW1 9145   4.889   1.884   2.303 -0.7887  0.2023 -0.2167
 2568SOL    HW2 9146   4.980   1.774   2.254 -0.2711  1.1626 -1.4495
 2569SOL     OW 9147   1.401   6.390   7.954 -0.3902  0.1909  0.0421
 2569SOL    HW1 9148   1.448   6.313   7.922  2.1165  0.6116  2.3336
 2569SOL    HW2 9149   1.466   6.461   7.953 -2.6951  2.4839 -2.3228
 2570SOL     OW 9150   2.011   0.634   8.240 -0.3702 -0.1840 -0.0174
 2570SOL    HW1 9151   2.032   0.662   8.151 -2.5802  0.7186 -0.3327
 2570SOL    HW2 9152   2.052   0.699   8.296 -0.7544  0.4783 -0.4932
 2571SOL     OW 9153   6.897   6.250  10.943  0.1634 -0.0820 -0.4417
 2571SOL    HW1 9154   6.829   6.262  11.009  0.8444 -0.9662  0.4512
 2571SOL    HW2 9155   6.979   6.266  10.990  0.6160  0.2595 -1.3226
 2572SOL     OW 9156   5.093   1.770   3.270  0.1785 -0.6451 -0.1069
 2572SOL    HW1 9157   5.170   1.822   3.248 -0.7388  0.4147 -0.9647
 2572SOL    HW2 9158   5.081   1.781   3.364 -0.4865  1.4404 -0.4001
 2573SOL     OW 9159   4.925   7.325   6.874  0.1086 -0.4855 -0.4068
 2573SOL    HW1 9160   4.901   7.252   6.930  0.8728 -0.4963 -0.0799
 2573SOL    HW2 9161   5.003   7.363   6.915  0.4411 -0.2412 -1.2300
 2574SOL     OW 9162   0.889   5.130   7.318  0.2070 -0.5018 -0.1187
 2574SOL    HW1 9163   0.868   5.222   7.299 -2.0863 -1.2163 -1.3297
 2574SOL    HW2 9164   0.906   5.129   7.412  0.9220  1.2396 -0.1698
 2575SOL     OW 9165   1.993   7.482   2.852  0.5120 -0.2342  0.4962
 2575SOL    HW1 9166   2.060   7.461   2.786  0.0938  0.5233 -0.1725
 2575SOL    HW2 9167   2.044   7.505   2.930  1.0729  1.3752 -0.3150
 2576SOL     OW 9168   5.162   3.435   1.106  0.3812  0.1094 -0.0630
 2576SOL    HW1 9169   5.097   3.404   1.044 -0.4072 -0.6621  1.1127
 2576SOL    HW2 9170   5.246   3.416   1.065 -0.1260 -0.5284 -0.8215
 2577SOL     OW 9171   0.846   3.183  11.218  0.2045 -0.0017  0.2127
 2577SOL    HW1 9172   0.882   3.095  11.232 -0.4380 -0.7102 -2.0349
 2577SOL    HW2 9173   0.783   3.171  11.146  0.8193  2.4754 -0.8214
 2578SOL     OW 9174   2.934   2.405   8.670 -0.6094  0.3992 -0.3801
 2578SOL    HW1 9175   3.022   2.414   8.634 -0.3835  1.3034  0.3718
 2578SOL    HW2 9176   2.876   2.430   8.598 -0.2930 -0.7096 -1.0476
 2579SOL     OW 9177   7.734   2.755   5.316  0.1279  0.2700  0.0899
 2579SOL    HW1 9178   7.757   2.719   5.230 -0.1581 -0.0955  0.1683
 2579SOL    HW2 9179   7.767   2.691   5.379 -2.0295 -0.8302  0.1899
 2580SOL     OW 9180   0.425   5.999   5.789 -0.3752 -0.1956 -0.3151
 2580SOL    HW1 9181   0.412   6.053   5.867  1.0862  1.4057 -1.1311
 2580SOL    HW2 9182   0.516   5.969   5.794  0.4078  1.5914 -2.3335
 2581SOL     OW 9183   0.128   5.800   9.557  0.0772 -0.1055  0.2902
 2581SOL    HW1 9184   0.072   5.792   9.480 -0.3901  0.8674  0.5025
 2581SOL    HW2 9185   0.166   5.713   9.569 -1.9391 -1.0135  0.5449
 2582SOL     OW 9186   1.134   6.103   3.639  0.2166 -0.1455  0.4433
 2582SOL    HW1 9187   1.166   6.014   3.633 -1.0182 -0.5856 -0.1206
 2582SOL    HW2 9188   1.202   6.151   3.685  1.0656 -1.2923  0.4139
 2583SOL     OW 9189   3.607   6.939   4.281  0.2491 -0.1028  0.2807
 2583SOL    HW1 9190   3.547   6.991   4.228  0.8454  3.3217  2.6500
 2583SOL    HW2 9191   3.677   6.914   4.220 -1.3629 -0.4774 -1.5309
 2584SOL     OW 9192   6.384   3.311   4.347 -0.4410 -0.0570  0.1440
 2584SOL    HW1 9193   6.361   3.403   4.332  0.1984  0.0729 -0.0624
 2584SOL    HW2 9194   6.352   3.265   4.269 -2.1427 -0.2638  0.9264
 2585SOL     OW 9195   1.934   5.794   9.322  0.0592  0.0064 -0.6703
 2585SOL    HW1 9196   1.969   5.762   9.405  0.1109 -1.0358 -1.0847
 2585SOL    HW2 9197   1.919   5.715   9.269 -1.1642  0.5562 -1.1907
 2586SOL     OW 9198   0.566   3.789  11.530  0.1563  0.2022  0.5156
 2586SOL    HW1 9199   0.521   3.818  11.451  0.6313  0.2247  0.2430
 2586SOL    HW2 9200   0.577   3.869  11.582  0.4444  0.3183  0.2873
 2587SOL     OW 9201   1.662   0.855   3.960 -0.2260  0.6372  0.4277
 2587SOL    HW1 9202   1.619   0.932   3.923 -1.3499  0.5322  1.4411
 2587SOL    HW2 9203   1.733   0.836   3.900 -2.1601  0.2455 -1.9078
 2588SOL     OW 9204   0.751   7.329   4.497 -0.0048 -0.0057 -0.6950
 2588SOL    HW1 9205   0.831   7.278   4.505  0.6720  1.1287 -0.0328
 2588SOL    HW2 9206   0.680   7.266   4.511  0.8114 -0.6902  0.4446
 2589SOL     OW 9207   0.657   0.501   1.187 -0.5993  0.0546  0.1705
 2589SOL    HW1 9208   0.592   0.495   1.257  1.1527  0.1676  1.8942
 2589SOL    HW2 9209   0.668   0.595   1.172 -0.2398  0.0658  0.4852
 2590SOL     OW 9210   4.433   7.553   7.863 -0.0821 -0.0209 -0.0730
 2590SOL    HW1 9211   4.492   7.611   7.911 -0.1260  1.0947 -1.3206
 2590SOL    HW2 9212   4.458   7.562   7.771 -2.5138  0.9702 -0.7308
 2591SOL     OW 9213   5.892   0.034   7.404  0.2409  0.7661 -0.5912
 2591SOL    HW1 9214   5.956   0.008   7.471  0.2653 -0.3842 -1.0441
 2591SOL    HW2 9215   5.808   0.006   7.440  0.3945 -1.2314 -1.6548
 2592SOL     OW 9216   6.713   3.801  11.796  0.0472 -0.8278  0.0925
 2592SOL    HW1 9217   6.786   3.780  11.738 -1.1442  0.4822 -1.9870
 2592SOL    HW2 9218   6.733   3.889  11.828 -1.9278  0.8244 -2.8527
 2593SOL     OW 9219   3.468   3.794  11.808  0.3791 -0.8390 -0.5253
 2593SOL    HW1 9220   3.404   3.726  11.791  0.6085 -1.3974  0.7288
 2593SOL    HW2 9221   3.513   3.765  11.888  0.7047  0.6136 -0.1570
 2594SOL     OW 9222   5.105   4.645   9.241  0.7476  1.0770  0.6082
 2594SOL    HW1 9223   5.052   4.710   9.194  1.4865  1.2125 -0.0665
 2594SOL    HW2 9224   5.088   4.662   9.333 -1.7366 -0.0173  0.4349
 2595SOL     OW 9225   0.091   3.998   2.988 -0.3684  0.2052  0.0179
 2595SOL    HW1 9226   0.027   4.041   2.931 -0.1640  2.7445  1.5533
 2595SOL    HW2 9227   0.152   3.955   2.927 -0.0469  2.9352 -1.8007
 2596SOL     OW 9228   1.679   3.775   3.435  0.3568 -0.4703  0.1618
 2596SOL    HW1 9229   1.615   3.731   3.491  0.6650 -1.5755 -0.3359
 2596SOL    HW2 9230   1.650   3.867   3.434 -0.2201 -0.6188  1.3120
 2597SOL     OW 9231   4.783   4.805   4.701 -0.1462  0.0529  0.2647
 2597SOL    HW1 9232   4.760   4.896   4.678 -0.4992 -0.0598  0.1670
 2597SOL    HW2 9233   4.756   4.754   4.625 -1.5368 -0.3586  1.0194
 2598SOL     OW 9234   3.503   4.600   6.087 -0.1415  0.3412 -0.0532
 2598SOL    HW1 9235   3.475   4.660   6.018 -0.3506 -0.0561 -0.3183
 2598SOL    HW2 9236   3.468   4.638   6.167  0.8698  1.2897 -0.0458
 2599SOL     OW 9237   0.689   5.522  10.275  0.8574  0.0665  0.6283
 2599SOL    HW1 9238   0.698   5.521  10.370  0.9406 -2.0673  0.6591
 2599SOL    HW2 9239   0.760   5.465  10.245  0.0933 -0.2594 -0.6174
 2600SOL     OW 9240   4.180   6.256   3.551 -0.9635  0.9811 -0.0305
 2600SOL    HW1 9241   4.092   6.248   3.587 -1.2521 -0.5980 -1.0176
 2600SOL    HW2 9242   4.222   6.172   3.570 -0.5336  0.7671 -1.7395
 2601SOL     OW 9243   0.692   3.662   5.272 -0.4116  0.2454 -0.3734
 2601SOL    HW1 9244   0.617   3.706   5.312 -0.5855  0.7296 -1.2092
 2601SOL    HW2 9245   0.767   3.692   5.325 -0.7483  0.0889  0.2042
 2602SOL     OW 9246   0.942   0.662   5.580 -0.0654  0.5386 -0.4788
 2602SOL    HW1 9247   0.924   0.702   5.665 -1.7216  0.5941 -0.8218
 2602SOL    HW2 9248   0.920   0.730   5.517 -0.5041 -0.0766 -0.9948
 2603SOL     OW 9249   1.091   7.339   0.523  0.4642  0.5033  0.0287
 2603SOL    HW1 9250   1.022   7.389   0.567  0.4222  1.3081 -0.9090
 2603SOL    HW2 9251   1.172   7.369   0.565  0.4623  1.5949 -0.7000
 2604SOL     OW 9252   7.591   1.940  12.084  0.1489  0.3328 -0.0430
 2604SOL    HW1 9253   7.572   2.011  12.145  0.0897  0.6881 -0.4646
 2604SOL    HW2 9254   7.687   1.935  12.083  0.1348 -0.4940  0.9920
 2605SOL     OW 9255   2.134   3.072   5.968 -0.1634 -0.9538  0.0412
 2605SOL    HW1 9256   2.178   3.075   6.053 -1.1239  0.6020  0.5263
 2605SOL    HW2 9257   2.089   3.157   5.961 -0.3023 -1.1359 -1.9161
 2606SOL     OW 9258   5.052   4.336   1.087 -0.6018 -0.0848 -1.0759
 2606SOL    HW1 9259   5.106   4.373   1.156  0.0284 -1.3145 -0.8826
 2606SOL    HW2 9260   4.989   4.405   1.066 -0.5658  0.4440  0.4585
 2607SOL     OW 9261   3.706   7.346   9.162  0.0776  0.1623  0.1164
 2607SOL    HW1 9262   3.750   7.272   9.120 -0.9854  0.9202 -2.5083
 2607SOL    HW2 9263   3.777   7.396   9.202  0.7840 -2.4558  2.4302
 2608SOL     OW 9264   2.995   2.573   7.954  0.0284 -0.2058  0.0956
 2608SOL    HW1 9265   2.917   2.528   7.923 -1.9175  1.6727  1.8920
 2608SOL    HW2 9266   3.009   2.538   8.042  0.2696  0.5829  0.3770
 2609SOL     OW 9267   4.353   7.123   5.294  0.1809  0.1852 -0.1563
 2609SOL    HW1 9268   4.351   7.219   5.292  1.1203  0.2073 -0.4157
 2609SOL    HW2 9269   4.284   7.096   5.233 -2.2933  0.6416  2.2420
 2610SOL     OW 9270   5.406   4.565   8.074 -0.7143 -0.2214 -0.6624
 2610SOL    HW1 9271   5.314   4.579   8.053 -0.3075  1.2440 -1.7255
 2610SOL    HW2 9272   5.449   4.557   7.988  0.1848 -0.5009 -0.2023
 2611SOL     OW 9273   0.125   6.531   2.830  0.4361  0.7581  0.0955
 2611SOL    HW1 9274   0.142   6.465   2.763 -1.1095 -0.7839  1.1682
 2611SOL    HW2 9275   0.212   6.565   2.852  1.2895 -1.0191 -0.3866
 2612SOL     OW 9276   2.637   1.352   4.703 -0.0809  0.1303  0.0115
 2612SOL    HW1 9277   2.699   1.331   4.773 -0.5370 -0.1739  0.3271
 2612SOL    HW2 9278   2.594   1.269   4.683  0.2287  0.1627 -0.8165
 2613SOL     OW 9279   6.295   0.992   9.581 -0.2236 -0.4237 -0.6442
 2613SOL    HW1 9280   6.282   1.020   9.490  2.5038 -0.6117 -1.1729
 2613SOL    HW2 9281   6.282   1.072   9.632 -0.2676  0.0363 -1.3509
 2614SOL     OW 9282   1.968   5.075   3.611 -0.1355 -0.0881  0.8311
 2614SOL    HW1 9283   1.923   5.149   3.568  0.7667  0.1194  0.2313
 2614SOL    HW2 9284   1.901   5.037   3.668 -0.8688  0.6602  0.4937
 2615SOL     OW 9285   2.304   1.712   0.498 -0.3593 -0.4812 -0.0428
 2615SOL    HW1 9286   2.391   1.738   0.527  0.4891 -1.1544 -1.8594
 2615SOL    HW2 9287   2.303   1.617   0.509 -0.9030 -0.4749  0.0096
 2616SOL     OW 9288   1.165   1.906   5.650 -0.0416  0.0837 -0.6994
 2616SOL    HW1 9289   1.252   1.878   5.622  0.4871  0.5337  0.4216
 2616SOL    HW2 9290   1.136   1.966   5.581  1.4712  1.6457 -0.0676
 2617SOL     OW 9291   3.512   2.956   0.286  0.1985 -0.3099 -0.4022
 2617SOL    HW1 9292   3.513   3.048   0.315  0.2735 -0.0291 -1.2797
 2617SOL    HW2 9293   3.503   2.961   0.191 -0.3420 -1.2287 -0.4015
 2618SOL     OW 9294   5.066   6.996   4.319 -0.3157  0.1706 -0.6264
 2618SOL    HW1 9295   5.020   7.063   4.369  2.4361  1.9036 -0.2562
 2618SOL    HW2 9296   5.092   7.040   4.238 -1.1486 -1.4223 -1.8352
 2619SOL     OW 9297   7.876   0.450   1.028 -0.0729  0.1512 -0.1878
 2619SOL    HW1 9298   7.898   0.368   0.984 -0.3823  0.6088 -1.2107
 2619SOL    HW2 9299   7.808   0.489   0.974 -0.4749  0.7281  0.7114
 2620SOL     OW 9300   6.841   6.570  12.322 -0.2730 -0.2307 -0.0888
 2620SOL    HW1 9301   6.862   6.544  12.232 -1.3293 -0.0669 -0.4034
 2620SOL    HW2 9302   6.816   6.662  12.315 -0.8991 -0.3658  0.2732
 2621SOL     OW 9303   2.730   1.956   6.691 -0.1579 -0.3231 -0.3064
 2621SOL    HW1 9304   2.727   1.863   6.672 -0.4870 -0.2200 -0.7613
 2621SOL    HW2 9305   2.655   1.993   6.644  0.4360  0.2844 -0.7923
 2622SOL     OW 9306   0.871   6.077   3.719  0.7698 -0.8645 -0.2389
 2622SOL    HW1 9307   0.966   6.081   3.717  0.7809  3.2122 -1.9738
 2622SOL    HW2 9308   0.845   6.079   3.627 -0.8859  1.8442  0.1860
 2623SOL     OW 9309   0.660   2.492   9.951  0.4904  0.2639  0.7324
 2623SOL    HW1 9310   0.573   2.484   9.911  0.8821  0.5762 -0.2101
 2623SOL    HW2 9311   0.647   2.552  10.024 -0.2679 -0.4096  1.1691
 2624SOL     OW 9312   5.538   0.043  11.390  0.2697 -0.2249 -0.0644
 2624SOL    HW1 9313   5.452   0.070  11.358  0.2800  0.5362  0.5387
 2624SOL    HW2 9314   5.542  -0.051  11.371 -1.5340 -0.7455  1.7168
 2625SOL     OW 9315   7.815   3.119   0.570  0.1934  0.9883  0.3418
 2625SOL    HW1 9316   7.884   3.075   0.619  0.8287  0.9769 -0.5353
 2625SOL    HW2 9317   7.855   3.138   0.485 -1.0986  0.3733 -0.4279
 2626SOL     OW 9318   4.414   6.279   6.877 -0.5540  0.0131 -0.4837
 2626SOL    HW1 9319   4.453   6.278   6.964 -0.7570  1.2506 -0.3720
 2626SOL    HW2 9320   4.382   6.368   6.865 -0.5548 -0.1455 -1.8188
 2627SOL     OW 9321   5.289   5.049  10.426 -0.0177 -0.8320  0.1235
 2627SOL    HW1 9322   5.316   4.963  10.391  0.6560 -0.6884  0.2759
 2627SOL    HW2 9323   5.322   5.049  10.515  0.8634 -0.0187 -0.1900
 2628SOL     OW 9324   5.011   6.278   2.518  0.3205  0.2529  0.4960
 2628SOL    HW1 9325   4.922   6.276   2.555 -0.6037 -1.2765 -1.6575
 2628SOL    HW2 9326   5.005   6.340   2.445  1.0084  0.0486  0.2617
 2629SOL     OW 9327   4.508   1.853  11.530 -0.0006 -0.4162  0.1955
 2629SOL    HW1 9328   4.500   1.947  11.511  0.0786 -0.7428 -1.7021
 2629SOL    HW2 9329   4.460   1.840  11.612  0.3332  1.3373  0.7090
 2630SOL     OW 9330   7.255   5.231   9.880  0.2868  0.0822  0.2621
 2630SOL    HW1 9331   7.186   5.192   9.827  1.0631  0.4409 -1.0681
 2630SOL    HW2 9332   7.333   5.226   9.824  1.4712 -0.8244  1.9322
 2631SOL     OW 9333   0.365   6.398  12.095 -0.1660  0.3170 -0.0479
 2631SOL    HW1 9334   0.389   6.449  12.017  0.9503  0.6845  0.5181
 2631SOL    HW2 9335   0.413   6.316  12.085 -0.2301  0.2586  0.1298
 2632SOL     OW 9336   1.774   0.351  11.408  0.0603 -0.2610 -0.4548
 2632SOL    HW1 9337   1.698   0.294  11.418 -1.0132  0.8247 -1.8986
 2632SOL    HW2 9338   1.836   0.298  11.358  0.2083 -1.0936  0.5751
 2633SOL     OW 9339   7.229   7.285   6.070 -0.1384 -0.2462 -0.1451
 2633SOL    HW1 9340   7.140   7.317   6.084 -0.0904 -0.2221  0.1165
 2633SOL    HW2 9341   7.271   7.354   6.017 -0.7202 -0.9661 -1.5910
 2634SOL     OW 9342   6.389   0.739  10.801 -0.1636  0.8178  0.2781
 2634SOL    HW1 9343   6.394   0.826  10.763 -2.7601  1.3012  0.8128
 2634SOL    HW2 9344   6.349   0.752  10.887  0.7792 -0.7675  1.0032
 2635SOL     OW 9345   3.789   1.962  10.825 -0.0270  0.7793  0.1906
 2635SOL    HW1 9346   3.803   1.893  10.890 -0.2667  0.3829 -0.1765
 2635SOL    HW2 9347   3.823   2.041  10.867 -1.3061  0.7758  1.2969
 2636SOL     OW 9348   4.850   4.189   9.511 -0.8902 -0.3961  0.5483
 2636SOL    HW1 9349   4.919   4.126   9.532  0.6132  1.7530  2.5704
 2636SOL    HW2 9350   4.775   4.136   9.487  0.6808 -2.8958  0.8284
 2637SOL     OW 9351   6.470   1.176   4.665 -0.3706 -0.4076 -0.1430
 2637SOL    HW1 9352   6.437   1.143   4.581  0.2165 -1.2277 -0.0678
 2637SOL    HW2 9353   6.540   1.115   4.688  0.6561  0.8154  0.0839
 2638SOL     OW 9354   6.663   6.371  10.590  0.0606  0.3205  0.2312
 2638SOL    HW1 9355   6.658   6.300  10.526 -0.1149  0.3996  0.1573
 2638SOL    HW2 9356   6.621   6.336  10.668 -1.2394  0.8035 -0.2258
 2639SOL     OW 9357   2.624   7.650   5.629  0.1409  0.4549  0.2244
 2639SOL    HW1 9358   2.580   7.571   5.598  0.4301 -0.1396  1.2724
 2639SOL    HW2 9359   2.709   7.649   5.585  1.3354 -1.4113  2.3546
 2640SOL     OW 9360   3.705   4.126   3.202  0.1882 -0.0725  0.4739
 2640SOL    HW1 9361   3.672   4.162   3.285 -0.0095  1.0825 -0.0787
 2640SOL    HW2 9362   3.786   4.081   3.225  0.0455  0.0886  1.3199
 2641SOL     OW 9363   7.671   1.551   9.631 -0.6344  0.2480 -0.3333
 2641SOL    HW1 9364   7.705   1.591   9.711 -0.5070 -1.0373  0.2838
 2641SOL    HW2 9365   7.748   1.538   9.576 -0.5774  0.1966 -0.2408
 2642SOL     OW 9366   6.102   7.392   6.909  0.4059 -0.3903 -0.2551
 2642SOL    HW1 9367   6.040   7.322   6.932 -0.8598  0.4262 -1.0638
 2642SOL    HW2 9368   6.090   7.404   6.815 -1.5167  2.8249  0.2576
 2643SOL     OW 9369   6.600   4.884   5.503  0.3929  0.0946  0.1579
 2643SOL    HW1 9370   6.679   4.937   5.512  1.3151 -1.1869 -0.0815
 2643SOL    HW2 9371   6.632   4.796   5.487 -1.0707 -0.1851 -1.6808
 2644SOL     OW 9372   5.303   6.922   3.462  0.6148  0.4177  0.7758
 2644SOL    HW1 9373   5.351   6.842   3.486  0.4934  0.4366  1.0793
 2644SOL    HW2 9374   5.292   6.969   3.544 -1.1143 -0.2312  0.9629
 2645SOL     OW 9375   6.665   2.434   4.407  0.3822  0.3422  0.0466
 2645SOL    HW1 9376   6.589   2.464   4.457  1.2542  1.5055  0.7222
 2645SOL    HW2 9377   6.633   2.424   4.317 -0.7274  0.1424  0.4541
 2646SOL     OW 9378   6.157   5.840   1.464  0.1929 -0.3094  0.3312
 2646SOL    HW1 9379   6.182   5.922   1.422 -1.2359  0.1704  0.3807
 2646SOL    HW2 9380   6.207   5.839   1.546 -0.3435  0.9007  0.7013
 2647SOL     OW 9381   4.519   0.332   3.248 -0.5885  0.2244 -0.5377
 2647SOL    HW1 9382   4.525   0.363   3.157  1.5696  1.0232 -0.1936
 2647SOL    HW2 9383   4.467   0.399   3.292 -0.7777  0.3749 -0.9844
 2648SOL     OW 9384   3.399   2.123   0.703 -0.0062 -0.2709  0.0337
 2648SOL    HW1 9385   3.316   2.076   0.697 -0.5169  0.8169 -2.0741
 2648SOL    HW2 9386   3.380   2.210   0.670  1.8124  0.2427  0.2353
 2649SOL     OW 9387   3.595   4.594   0.234 -0.6186  0.1060 -0.0947
 2649SOL    HW1 9388   3.680   4.627   0.206 -0.2241 -0.0388  0.8806
 2649SOL    HW2 9389   3.537   4.669   0.228 -0.1710  0.4869  0.2792
 2650SOL     OW 9390   4.645   6.762   3.239  0.0675  0.3692  0.0599
 2650SOL    HW1 9391   4.730   6.739   3.200 -0.0732  1.4201 -0.9423
 2650SOL    HW2 9392   4.589   6.782   3.164 -1.0883 -0.3066  0.7122
 2651SOL     OW 9393   7.220   2.647   1.431  0.0535 -0.1061  0.1423
 2651SOL    HW1 9394   7.223   2.707   1.506 -0.4447  0.1536 -0.0419
 2651SOL    HW2 9395   7.285   2.580   1.452  1.5683  1.1625 -0.2050
 2652SOL     OW 9396   3.369   2.513   2.543  0.1280 -0.2989  0.1885
 2652SOL    HW1 9397   3.393   2.435   2.593 -0.2222  0.2978  1.3279
 2652SOL    HW2 9398   3.280   2.495   2.512  0.4405 -0.7757 -0.4451
 2653SOL     OW 9399   3.342   0.116  11.360  0.1850 -0.1398 -0.8710
 2653SOL    HW1 9400   3.299   0.032  11.377  1.4909 -0.6685 -0.0432
 2653SOL    HW2 9401   3.298   0.151  11.283 -2.1089 -0.3841  0.2447
 2654SOL     OW 9402   2.900   0.534  11.334  0.2692 -0.2392  0.1969
 2654SOL    HW1 9403   2.814   0.514  11.369  0.2082 -0.0909  0.1351
 2654SOL    HW2 9404   2.951   0.563  11.410 -0.6999  2.9137 -0.2024
 2655SOL     OW 9405   1.553   0.491   9.924 -0.5736 -0.4120  0.5281
 2655SOL    HW1 9406   1.487   0.550   9.960  0.8891  0.3513  2.0606
 2655SOL    HW2 9407   1.623   0.548   9.895  0.6131 -1.3405  1.4847
 2656SOL     OW 9408   3.220   5.385   8.546 -0.1748  0.0998  0.2939
 2656SOL    HW1 9409   3.253   5.349   8.628 -0.7484  1.8915  1.3750
 2656SOL    HW2 9410   3.159   5.319   8.513 -0.5639 -0.2973  1.7464
 2657SOL     OW 9411   4.594   1.400   3.313  0.8400 -0.1011 -0.3923
 2657SOL    HW1 9412   4.627   1.352   3.237 -1.2993 -1.2319 -0.6703
 2657SOL    HW2 9413   4.529   1.460   3.277 -0.4171 -0.8607  0.5562
 2658SOL     OW 9414   7.712   2.327  10.561  0.3912  0.1044  0.0457
 2658SOL    HW1 9415   7.744   2.417  10.551 -0.1494  0.3710  0.6145
 2658SOL    HW2 9416   7.701   2.317  10.656  2.6921 -1.3626  0.2263
 2659SOL     OW 9417   5.425   4.451   3.634 -0.4066 -0.0531 -0.0801
 2659SOL    HW1 9418   5.404   4.361   3.661 -3.7639  1.0776  1.7401
 2659SOL    HW2 9419   5.398   4.455   3.543 -0.3562 -0.8419 -0.1406
 2660SOL     OW 9420   3.052   2.504  10.179 -0.5973  0.1884  0.0320
 2660SOL    HW1 9421   2.969   2.483  10.135 -0.4584 -0.2858 -0.0117
 2660SOL    HW2 9422   3.105   2.546  10.111 -0.3392 -0.6517 -0.3026
 2661SOL     OW 9423   7.173   4.508   7.324 -0.1539 -0.2740 -0.2508
 2661SOL    HW1 9424   7.120   4.578   7.363  0.9350 -0.5508  1.8599
 2661SOL    HW2 9425   7.113   4.434   7.318 -0.3210 -0.2869  1.1611
 2662SOL     OW 9426   2.279   6.809   7.550  0.1737  0.1500 -0.1377
 2662SOL    HW1 9427   2.240   6.861   7.621  0.8992  2.0150 -1.0161
 2662SOL    HW2 9428   2.217   6.818   7.477  0.4216  0.0043 -0.3704
 2663SOL     OW 9429   2.378   5.996   3.275  0.1919  1.0434 -0.1891
 2663SOL    HW1 9430   2.361   6.088   3.295  1.1930  0.9482  1.3385
 2663SOL    HW2 9431   2.306   5.949   3.316 -0.0133  1.1104 -0.4721
 2664SOL     OW 9432   1.766   5.934   8.149 -0.1839 -0.1678 -0.2811
 2664SOL    HW1 9433   1.762   6.027   8.168 -2.2687 -0.3163  0.2555
 2664SOL    HW2 9434   1.676   5.911   8.124  0.3365 -1.9806 -0.6253
 2665SOL     OW 9435   2.481   0.526  11.813 -0.0578  0.5946 -0.1122
 2665SOL    HW1 9436   2.564   0.522  11.861 -0.9763 -0.3326  1.4804
 2665SOL    HW2 9437   2.465   0.436  11.785  0.0618  0.9864 -1.5063
 2666SOL     OW 9438   7.622   0.701   2.956  0.2098 -0.1878 -0.1606
 2666SOL    HW1 9439   7.606   0.614   2.918  0.4503 -0.2397 -0.1465
 2666SOL    HW2 9440   7.537   0.728   2.991  0.3050 -0.7537  0.5356
 2667SOL     OW 9441   2.889   2.071   3.004  0.3749 -0.4929 -0.0744
 2667SOL    HW1 9442   2.959   2.113   3.055 -0.2875  0.6274 -0.0676
 2667SOL    HW2 9443   2.809   2.115   3.033 -0.2958 -1.4688 -0.3943
 2668SOL     OW 9444   7.787   4.022   8.194  0.5319  0.1208 -0.2775
 2668SOL    HW1 9445   7.694   4.002   8.204  0.3120  1.4733  0.7185
 2668SOL    HW2 9446   7.808   4.076   8.271  1.4034  2.3161 -1.9371
 2669SOL     OW 9447   7.421   7.280   3.460 -0.9194  0.1646 -0.3107
 2669SOL    HW1 9448   7.485   7.226   3.506 -2.5313 -1.5230  0.0734
 2669SOL    HW2 9449   7.450   7.370   3.474  0.0327 -0.4248  1.8522
 2670SOL     OW 9450   2.697   4.034   1.214  0.4014 -0.1311 -0.0011
 2670SOL    HW1 9451   2.758   3.962   1.231 -0.4010 -0.6273  0.9357
 2670SOL    HW2 9452   2.624   4.017   1.274  0.1751  1.4384  0.1953
 2671SOL     OW 9453   1.856   5.146   6.707 -0.5044 -0.0457 -0.1059
 2671SOL    HW1 9454   1.811   5.228   6.690 -0.1073  0.1784 -0.0734
 2671SOL    HW2 9455   1.786   5.081   6.714 -0.8164  0.2903 -0.1215
 2672SOL     OW 9456   2.168   1.448  12.280 -0.5067 -0.0756  0.2491
 2672SOL    HW1 9457   2.145   1.372  12.334 -1.8370  0.4396  0.4468
 2672SOL    HW2 9458   2.170   1.414  12.191  1.2931 -0.8446  0.5490
 2673SOL     OW 9459   6.854   7.782   2.294  0.1571 -0.0180 -0.1709
 2673SOL    HW1 9460   6.776   7.837   2.304  1.0303  1.4277 -0.8038
 2673SOL    HW2 9461   6.920   7.826   2.347  0.8543 -0.5300 -0.6034
 2674SOL     OW 9462   2.138   3.987  10.808  0.0611 -0.0204  0.1769
 2674SOL    HW1 9463   2.060   3.991  10.753  1.0228 -0.1400 -1.2736
 2674SOL    HW2 9464   2.149   4.077  10.841 -0.3140  0.1535 -0.1598
 2675SOL     OW 9465   6.067   3.031   6.041 -0.1909  0.6624 -0.1493
 2675SOL    HW1 9466   6.043   2.997   5.955  1.3767  0.8707 -0.6816
 2675SOL    HW2 9467   6.023   3.116   6.046 -1.7695 -0.1117  0.0330
 2676SOL     OW 9468   7.362   2.001   3.173 -0.2414 -0.0499  0.8405
 2676SOL    HW1 9469   7.428   1.933   3.183 -0.6230 -0.6017 -0.2125
 2676SOL    HW2 9470   7.329   2.017   3.261 -0.2692 -1.3605  1.0760
 2677SOL     OW 9471   7.836   3.713   7.536  0.3311  0.0814  0.1750
 2677SOL    HW1 9472   7.811   3.730   7.445 -1.0771  1.0171  0.7025
 2677SOL    HW2 9473   7.754   3.696   7.581  1.1608 -2.5266  0.9057
 2678SOL     OW 9474   1.066   0.112   3.626  0.1885 -0.4430  0.5106
 2678SOL    HW1 9475   1.063   0.193   3.676  0.4350 -0.0648 -0.0894
 2678SOL    HW2 9476   1.048   0.044   3.691 -0.0621  0.0878  1.0078
 2679SOL     OW 9477   6.212   4.871   6.213  0.6352 -0.3157  0.4204
 2679SOL    HW1 9478   6.275   4.866   6.141  3.4444 -1.7334  2.7843
 2679SOL    HW2 9479   6.150   4.801   6.195 -1.2138  1.8456 -2.5880
 2680SOL     OW 9480   1.521   6.739  11.998  0.0699  0.3060  0.2378
 2680SOL    HW1 9481   1.451   6.801  12.019 -1.0872 -0.5833 -0.8092
 2680SOL    HW2 9482   1.554   6.710  12.083  0.9505  2.6377  0.7585
 2681SOL     OW 9483   1.738   4.079   7.337  0.3647  0.1728 -0.9423
 2681SOL    HW1 9484   1.788   4.090   7.257  0.5704 -2.2225 -1.2282
 2681SOL    HW2 9485   1.705   3.989   7.333 -1.3888  0.6627  0.6847
 2682SOL     OW 9486   2.307   3.838   8.188 -0.3375  0.0950  0.5581
 2682SOL    HW1 9487   2.311   3.928   8.220 -0.8633  0.2053  0.3305
 2682SOL    HW2 9488   2.307   3.784   8.267 -0.9204  0.3343  0.7260
 2683SOL     OW 9489   4.859   2.261   1.327  0.3690  0.2544 -0.7015
 2683SOL    HW1 9490   4.933   2.278   1.386 -1.2158 -0.0948  1.5072
 2683SOL    HW2 9491   4.784   2.299   1.372 -1.3498 -2.2918 -1.2552
 2684SOL     OW 9492   7.349   5.513   1.473  0.5416 -0.5489 -0.8058
 2684SOL    HW1 9493   7.294   5.564   1.533  0.2837  0.3618 -1.7776
 2684SOL    HW2 9494   7.360   5.429   1.517  1.9828  0.6889  1.4606
 2685SOL     OW 9495   1.354   4.461   0.153  0.3176  0.4818 -0.1517
 2685SOL    HW1 9496   1.290   4.395   0.124 -0.4630  0.6712  1.0711
 2685SOL    HW2 9497   1.439   4.418   0.145 -0.0305 -0.0673 -1.0117
 2686SOL     OW 9498   4.220   1.167   8.220  0.0087  0.3222 -0.0625
 2686SOL    HW1 9499   4.234   1.099   8.287 -1.6096  0.2450  0.2290
 2686SOL    HW2 9500   4.246   1.248   8.263 -0.3213  0.1785  0.4152
 2687SOL     OW 9501   7.230   6.883   5.703  0.0671 -0.3334 -0.5233
 2687SOL    HW1 9502   7.287   6.805   5.700 -1.3744 -1.5383  1.0842
 2687SOL    HW2 9503   7.182   6.881   5.620 -1.0425 -2.1077  0.0970
 2688SOL     OW 9504   4.024   6.139   2.350  0.0577  0.0414  0.0821
 2688SOL    HW1 9505   3.992   6.109   2.265 -0.2863 -1.7561  0.7935
 2688SOL    HW2 9506   4.105   6.089   2.364  0.7738  1.2323  0.2719
 2689SOL     OW 9507   3.707   7.035  11.482 -0.3852 -0.1048  0.3544
 2689SOL    HW1 9508   3.672   6.975  11.417 -2.4025 -0.9578  2.1099
 2689SOL    HW2 9509   3.692   7.122  11.445 -0.5334 -0.6002 -0.7714
 2690SOL     OW 9510   6.299   6.589  10.331 -0.1230  0.8221 -0.3094
 2690SOL    HW1 9511   6.381   6.590  10.282 -0.1105 -0.1258 -0.3190
 2690SOL    HW2 9512   6.320   6.544  10.413 -0.7694  0.0611 -0.5571
 2691SOL     OW 9513   6.927   6.392   9.510 -0.0968  0.0267  0.4356
 2691SOL    HW1 9514   6.982   6.466   9.485 -1.6434  1.2507  0.4461
 2691SOL    HW2 9515   6.909   6.406   9.604  1.0395 -1.3716  0.8880
 2692SOL     OW 9516   6.381   2.375   9.720  0.6515  0.1001 -0.2846
 2692SOL    HW1 9517   6.350   2.360   9.809 -2.1456  2.5590 -0.6921
 2692SOL    HW2 9518   6.404   2.288   9.688 -4.3412 -1.9954  0.8351
 2693SOL     OW 9519   0.343   3.743   1.207  0.1132  0.7509 -0.1165
 2693SOL    HW1 9520   0.319   3.824   1.253  0.6962  0.0837  1.4591
 2693SOL    HW2 9521   0.369   3.771   1.120  1.4437  2.4358  0.7652
 2694SOL     OW 9522   5.990   0.929  11.720  0.1938  0.0664  0.1254
 2694SOL    HW1 9523   6.041   0.988  11.665  0.1960 -0.9433 -0.9953
 2694SOL    HW2 9524   5.980   0.976  11.803  1.7042  0.8862 -0.1220
 2695SOL     OW 9525   6.677   2.155  11.740 -0.3920  0.5130  0.5095
 2695SOL    HW1 9526   6.597   2.207  11.750 -1.0655  0.2406 -2.3405
 2695SOL    HW2 9527   6.736   2.212  11.691 -0.1681 -0.4380 -0.3676
 2696SOL     OW 9528   7.503   1.103   7.480  0.0322  0.3824  0.1945
 2696SOL    HW1 9529   7.427   1.092   7.537 -0.5208  0.6191 -0.4921
 2696SOL    HW2 9530   7.506   1.196   7.460  1.2062  0.5773  1.1596
 2697SOL     OW 9531   6.615   6.765   7.276 -0.2297 -0.3788  0.0224
 2697SOL    HW1 9532   6.666   6.804   7.348 -1.2503  0.7423  0.1691
 2697SOL    HW2 9533   6.674   6.771   7.201  0.8087 -1.4613  0.7191
 2698SOL     OW 9534   0.435   6.192   5.602  0.5524 -0.4738  0.0091
 2698SOL    HW1 9535   0.508   6.164   5.548  1.4250 -1.5153  1.6450
 2698SOL    HW2 9536   0.416   6.117   5.659 -2.3377 -0.5435 -0.8592
 2699SOL     OW 9537   2.303   4.702  11.596  0.0215  0.2316 -0.4092
 2699SOL    HW1 9538   2.390   4.682  11.632 -0.3336  0.8341  0.8494
 2699SOL    HW2 9539   2.316   4.703  11.501  0.9232 -1.7940 -0.3581
 2700SOL     OW 9540   7.898   5.277   3.756 -0.4067 -0.1828  0.1132
 2700SOL    HW1 9541   7.961   5.210   3.783 -1.1428 -1.0836 -0.3265
 2700SOL    HW2 9542   7.948   5.359   3.755  1.2943 -1.1416 -2.0931
 2701SOL     OW 9543   4.446   6.079   9.752 -0.4200 -0.2559 -0.1619
 2701SOL    HW1 9544   4.454   5.985   9.763 -0.9343 -0.0861  2.1926
 2701SOL    HW2 9545   4.352   6.094   9.745 -0.5825  0.2356  2.1314
 2702SOL     OW 9546   6.094   0.310  10.992  0.9514  0.1652 -0.1778
 2702SOL    HW1 9547   6.004   0.281  10.975  1.6189 -1.2231 -1.6218
 2702SOL    HW2 9548   6.122   0.256  11.066  0.5931  0.6522  0.3234
 2703SOL     OW 9549   5.332   1.636  11.814  0.2716  0.1743 -0.3492
 2703SOL    HW1 9550   5.388   1.714  11.809 -0.8124  1.0026 -0.1091
 2703SOL    HW2 9551   5.392   1.562  11.804  1.1849  1.0649 -1.9161
 2704SOL     OW 9552   5.273   2.602   2.666 -0.2197  0.5180  0.1127
 2704SOL    HW1 9553   5.367   2.607   2.647 -0.1317 -1.5654 -0.2275
 2704SOL    HW2 9554   5.234   2.672   2.614  1.0027  0.6160 -0.7076
 2705SOL     OW 9555   4.650   7.686  12.352  0.0672 -0.4369 -0.1230
 2705SOL    HW1 9556   4.606   7.603  12.368  1.9771 -1.6496 -0.7573
 2705SOL    HW2 9557   4.704   7.701  12.429  0.6487 -0.4334 -0.5188
 2706SOL     OW 9558   1.598   6.590   7.963 -0.8841 -0.0935  0.0608
 2706SOL    HW1 9559   1.583   6.654   7.894  0.5569  1.7115  1.3427
 2706SOL    HW2 9560   1.656   6.634   8.025 -1.0225 -2.1343  1.7471
 2707SOL     OW 9561   0.078   2.013  10.156  0.0649  0.1676 -0.4182
 2707SOL    HW1 9562   0.136   2.074  10.112 -0.0220  0.3669 -0.2561
 2707SOL    HW2 9563   0.130   1.980  10.230 -0.2755  0.9082  0.1709
 2708SOL     OW 9564   5.812   1.517   9.297 -0.5312  0.1052  0.1478
 2708SOL    HW1 9565   5.873   1.587   9.277  1.8567 -2.2032 -1.3902
 2708SOL    HW2 9566   5.791   1.529   9.389 -0.6282  3.0345 -0.1617
 2709SOL     OW 9567   3.330   5.614   7.337 -0.2670 -0.0555 -0.7882
 2709SOL    HW1 9568   3.278   5.683   7.296  0.6626 -0.2913 -2.4202
 2709SOL    HW2 9569   3.417   5.652   7.349 -0.4047 -0.1321  0.6360
 2710SOL     OW 9570   3.083   3.028   3.120 -0.1203  0.2513  0.1595
 2710SOL    HW1 9571   3.005   2.993   3.163  0.3855 -1.0775  0.0405
 2710SOL    HW2 9572   3.102   3.109   3.168 -1.0373  0.1187  0.7821
 2711SOL     OW 9573   5.244   3.756  11.757  0.0174 -0.2763  0.2264
 2711SOL    HW1 9574   5.315   3.717  11.705 -1.0235 -2.1081  0.0614
 2711SOL    HW2 9575   5.169   3.755  11.698 -0.0263  2.3909  0.1219
 2712SOL     OW 9576   4.754   7.668   0.978  0.1518  0.3482 -0.1880
 2712SOL    HW1 9577   4.664   7.681   0.949  0.2598 -0.9544 -1.2045
 2712SOL    HW2 9578   4.751   7.584   1.026  0.8740  0.1287 -0.5162
 2713SOL     OW 9579   6.276   3.977  11.846 -0.5129 -0.1761  0.5807
 2713SOL    HW1 9580   6.207   3.919  11.814  0.9376 -1.1033 -1.0628
 2713SOL    HW2 9581   6.230   4.044  11.896 -2.5528 -0.9486 -0.1511
 2714SOL     OW 9582   5.539   1.815  11.785  0.3502  0.2118 -0.4660
 2714SOL    HW1 9583   5.531   1.903  11.822  0.1225 -0.7089  1.8233
 2714SOL    HW2 9584   5.596   1.827  11.708 -1.2358  2.6280 -1.3807
 2715SOL     OW 9585   7.248   1.957  11.251 -0.0131  0.5028  0.3399
 2715SOL    HW1 9586   7.187   1.982  11.320  0.3883  0.7257  0.6214
 2715SOL    HW2 9587   7.243   1.861  11.247  0.7699  0.3971  1.4474
 2716SOL     OW 9588   2.901   4.306  11.749  0.2256  0.1012  0.5270
 2716SOL    HW1 9589   2.878   4.214  11.733  0.2843 -0.0689  1.3753
 2716SOL    HW2 9590   2.827   4.341  11.799  0.3779  0.4141  0.5327
 2717SOL     OW 9591   0.698   0.899   4.514  0.0927  0.0324  0.2627
 2717SOL    HW1 9592   0.738   0.962   4.454  0.1555  1.3536  1.6048
 2717SOL    HW2 9593   0.609   0.932   4.527  0.2003 -0.0023  1.1688
 2718SOL     OW 9594   0.702   3.125   1.435  0.1115 -0.0220 -0.1958
 2718SOL    HW1 9595   0.757   3.056   1.471  1.3010  1.0173  0.0348
 2718SOL    HW2 9596   0.625   3.079   1.402  0.0698 -1.2681  1.5117
 2719SOL     OW 9597   2.243   7.168   4.836 -0.1909  0.5269  0.4490
 2719SOL    HW1 9598   2.243   7.210   4.922 -2.9754  0.5985  0.4877
 2719SOL    HW2 9599   2.212   7.235   4.775  0.2114  0.0096 -0.3521
 2720SOL     OW 9600   6.823   1.141   4.169 -0.5402  0.0790 -0.1271
 2720SOL    HW1 9601   6.747   1.188   4.202  0.9224  1.1262  2.0429
 2720SOL    HW2 9602   6.823   1.058   4.218 -0.4092 -0.0107 -0.2770
 2721SOL     OW 9603   6.875   1.806   8.461 -0.6642  0.3021  0.2271
 2721SOL    HW1 9604   6.854   1.781   8.551  0.2326 -2.7475 -0.2965
 2721SOL    HW2 9605   6.802   1.771   8.409  0.5037 -1.1490 -0.5231
 2722SOL     OW 9606   5.778   7.264  11.814  0.8456 -0.0867  0.2160
 2722SOL    HW1 9607   5.850   7.201  11.823 -0.4497 -1.5116  1.1922
 2722SOL    HW2 9608   5.742   7.271  11.902  0.0127  0.8632 -0.1881
 2723SOL     OW 9609   1.551   3.355  10.215  0.1828  0.0317  0.0970
 2723SOL    HW1 9610   1.461   3.382  10.199 -0.8553 -1.8202  2.1960
 2723SOL    HW2 9611   1.597   3.373  10.133 -1.7182  2.3922 -0.5437
 2724SOL     OW 9612   2.130   2.659   4.232 -0.6068 -0.1823  0.3546
 2724SOL    HW1 9613   2.069   2.637   4.162  0.7582 -0.9958 -0.6349
 2724SOL    HW2 9614   2.105   2.602   4.305 -3.0261  1.7608  1.1759
 2725SOL     OW 9615   2.700   0.152   4.836 -0.4330  0.8592 -0.2471
 2725SOL    HW1 9616   2.732   0.070   4.874 -0.5289  1.0314  0.2077
 2725SOL    HW2 9617   2.632   0.124   4.774  1.7057  0.3315 -2.5503
 2726SOL     OW 9618   0.308   0.970   4.292  0.4875 -0.5414 -0.5551
 2726SOL    HW1 9619   0.259   1.025   4.231 -0.2574 -1.2126 -0.5772
 2726SOL    HW2 9620   0.398   1.002   4.286 -0.2314  2.0072  0.8857
 2727SOL     OW 9621   7.685   5.331   9.293 -0.0453  0.4892 -0.6311
 2727SOL    HW1 9622   7.658   5.241   9.274 -0.2822  0.6425 -1.0403
 2727SOL    HW2 9623   7.719   5.328   9.382 -1.1336  0.2255 -0.2122
 2728SOL     OW 9624   1.557   1.164   1.723  0.2757 -0.4040  0.7380
 2728SOL    HW1 9625   1.498   1.106   1.770  0.1499 -1.2052 -0.3856
 2728SOL    HW2 9626   1.501   1.236   1.692  0.3808  0.1988  1.8701
 2729SOL     OW 9627   5.920   7.121   3.988  0.3780  0.2210  0.1643
 2729SOL    HW1 9628   5.948   7.032   3.964 -0.3651  0.5158 -1.9898
 2729SOL    HW2 9629   5.992   7.156   4.040  0.9637 -1.4082  0.5071
 2730SOL     OW 9630   2.855   3.353   9.865  0.3600 -0.2098 -0.2315
 2730SOL    HW1 9631   2.836   3.434   9.819 -1.2749 -0.7315 -0.5592
 2730SOL    HW2 9632   2.837   3.284   9.801  2.8934 -0.8546 -0.3603
 2731SOL     OW 9633   1.947   3.388  10.721 -0.2963 -0.1259  0.3106
 2731SOL    HW1 9634   2.011   3.414  10.655 -1.0880 -0.9446 -0.8288
 2731SOL    HW2 9635   1.871   3.358  10.671 -2.2173  2.2591  1.5947
 2732SOL     OW 9636   1.018   6.446  12.071 -0.4477  0.1251  0.3065
 2732SOL    HW1 9637   1.020   6.542  12.081  0.7072  0.3280 -1.3731
 2732SOL    HW2 9638   0.976   6.432  11.986 -0.8526 -0.8812  0.6655
 2733SOL     OW 9639   1.338   0.873   8.876  0.3834 -0.3224 -0.0746
 2733SOL    HW1 9640   1.364   0.864   8.968 -0.4346  3.6004  0.7504
 2733SOL    HW2 9641   1.243   0.886   8.879  0.5484  1.5680 -1.1887
 2734SOL     OW 9642   7.341   5.422   0.433  0.3843 -0.1280  0.2882
 2734SOL    HW1 9643   7.374   5.417   0.343  0.5356  0.3680  0.3145
 2734SOL    HW2 9644   7.253   5.384   0.428  0.2798  0.1657 -0.1260
 2735SOL     OW 9645   1.081   6.526   2.402 -0.5082  0.5132  0.2724
 2735SOL    HW1 9646   0.995   6.538   2.442 -1.2633 -0.8905 -0.8256
 2735SOL    HW2 9647   1.063   6.479   2.320  1.1377  1.7368 -0.8632
 2736SOL     OW 9648   4.730   5.666   1.227 -0.1610  0.3211  0.4393
 2736SOL    HW1 9649   4.726   5.573   1.252 -1.4700 -0.2185 -1.5047
 2736SOL    HW2 9650   4.720   5.665   1.132  0.4386  2.4424  0.3146
 2737SOL     OW 9651   1.396   6.682   0.800 -0.1760 -0.1281  0.2749
 2737SOL    HW1 9652   1.335   6.610   0.817 -1.3676  0.8794  0.3740
 2737SOL    HW2 9653   1.344   6.748   0.755  1.0050  0.5171 -0.1871
 2738SOL     OW 9654   5.094   7.472   6.136 -0.2259 -0.6500 -0.6704
 2738SOL    HW1 9655   5.136   7.507   6.214 -0.6756 -2.9737  0.6965
 2738SOL    HW2 9656   5.166   7.446   6.079  0.1610 -1.6273  0.2487
 2739SOL     OW 9657   0.144   5.698   1.614  0.4091 -0.2976 -0.4398
 2739SOL    HW1 9658   0.183   5.696   1.526  0.6885  0.0594 -0.3256
 2739SOL    HW2 9659   0.165   5.613   1.652  2.2148  0.3449  0.1072
 2740SOL     OW 9660   3.410   2.031   0.308  0.0311 -0.6127 -0.2577
 2740SOL    HW1 9661   3.425   2.124   0.295 -1.9760  0.0397  1.4836
 2740SOL    HW2 9662   3.497   1.994   0.324  0.6818  1.3637  1.1899
 2741SOL     OW 9663   6.969   6.741   8.874  0.3701  0.7767 -0.0307
 2741SOL    HW1 9664   7.060   6.733   8.904  0.7287 -1.0162 -1.4699
 2741SOL    HW2 9665   6.919   6.754   8.955  1.6714 -0.4551  1.0231
 2742SOL     OW 9666   0.051   0.682   0.419  0.4575  0.9980 -0.2952
 2742SOL    HW1 9667   0.140   0.668   0.453  1.0040  0.9240 -1.7151
 2742SOL    HW2 9668   0.062   0.687   0.324 -1.2696 -0.7815 -0.6566
 2743SOL     OW 9669   6.622   6.361   2.433  0.6573  0.5937  0.5290
 2743SOL    HW1 9670   6.606   6.268   2.421 -0.7901  0.7702  0.9138
 2743SOL    HW2 9671   6.708   6.376   2.392  0.3387 -0.6461 -0.6676
 2744SOL     OW 9672   1.870   2.750   7.985 -0.1510  0.4394  0.0440
 2744SOL    HW1 9673   1.809   2.679   8.004 -1.9967  1.8005 -0.4424
 2744SOL    HW2 9674   1.814   2.827   7.975  1.7532  1.9401  0.3829
 2745SOL     OW 9675   4.070   0.047   4.974 -0.2501  0.4229 -0.1602
 2745SOL    HW1 9676   4.126   0.034   4.898  0.3784  1.0681  0.1825
 2745SOL    HW2 9677   4.118   0.007   5.047 -0.0929  1.2141  0.1844
 2746SOL     OW 9678   4.182   1.527   8.721 -0.3454 -0.3154  0.0546
 2746SOL    HW1 9679   4.122   1.600   8.735  0.4869  0.3386  0.2909
 2746SOL    HW2 9680   4.128   1.449   8.734 -1.4620  0.2317 -1.1025
 2747SOL     OW 9681   5.650   3.319   8.808 -0.2608  0.7064 -0.0936
 2747SOL    HW1 9682   5.738   3.284   8.793  0.0702  1.5320 -0.1289
 2747SOL    HW2 9683   5.665   3.398   8.859 -0.9424  1.1702 -0.6130
 2748SOL     OW 9684   3.636   4.108   4.705  0.4995 -0.5660  0.0422
 2748SOL    HW1 9685   3.725   4.089   4.677  2.0362 -1.1200  4.4895
 2748SOL    HW2 9686   3.588   4.026   4.691  1.7336 -1.4615  0.7985
 2749SOL     OW 9687   5.682   1.969   0.349  0.4909  0.4805  0.1076
 2749SOL    HW1 9688   5.631   1.902   0.303  1.2377 -1.2005  1.6031
 2749SOL    HW2 9689   5.624   2.045   0.353 -0.2815  0.0683 -1.9038
 2750SOL     OW 9690   3.872   7.593   8.313 -0.2928  0.5076 -0.2640
 2750SOL    HW1 9691   3.824   7.668   8.280 -0.5898  0.2832 -0.3433
 2750SOL    HW2 9692   3.891   7.615   8.404  0.2237  0.9752 -0.4828
 2751SOL     OW 9693   6.031   3.100   0.842  0.0511  0.2080  0.1185
 2751SOL    HW1 9694   6.039   3.083   0.748 -0.1551  0.2899  0.0840
 2751SOL    HW2 9695   6.080   3.180   0.856  1.8968 -0.9337  0.4607
 2752SOL     OW 9696   6.962   3.626   6.185 -0.1374 -0.0644  0.2157
 2752SOL    HW1 9697   6.917   3.548   6.217 -0.7781  0.3475  0.3426
 2752SOL    HW2 9698   7.054   3.600   6.178 -0.5971 -1.4403 -1.5991
 2753SOL     OW 9699   7.115   5.083  11.864  0.2102  0.8813  0.6507
 2753SOL    HW1 9700   7.076   5.027  11.930 -0.4647  0.6659  0.0840
 2753SOL    HW2 9701   7.046   5.094  11.798  1.2388  0.1167 -0.6097
 2754SOL     OW 9702   2.563   0.461   0.813 -0.6390 -0.3396  0.3722
 2754SOL    HW1 9703   2.635   0.442   0.754 -1.1449 -0.3983 -0.2393
 2754SOL    HW2 9704   2.601   0.517   0.881 -0.1331  0.0244 -0.2050
 2755SOL     OW 9705   5.533   2.998   0.196 -0.2407 -0.2261  0.1770
 2755SOL    HW1 9706   5.558   3.066   0.258  1.3081  1.0498 -1.7527
 2755SOL    HW2 9707   5.446   2.970   0.226  0.3629  0.3995  2.7942
 2756SOL     OW 9708   1.578   6.377   4.397 -0.0654 -0.4948 -0.4603
 2756SOL    HW1 9709   1.558   6.411   4.310 -0.4895 -1.2785 -0.6795
 2756SOL    HW2 9710   1.667   6.343   4.390 -0.2704 -0.9874 -0.7304
 2757SOL     OW 9711   3.514   0.482   2.346  0.6171  0.3424  0.1457
 2757SOL    HW1 9712   3.503   0.568   2.305 -0.2799  0.2226  0.1100
 2757SOL    HW2 9713   3.438   0.473   2.404 -0.4127 -1.2413 -1.3354
 2758SOL     OW 9714   0.035   1.668   8.692 -0.2585  0.8355 -0.2498
 2758SOL    HW1 9715   0.054   1.574   8.685  1.1412  1.0850 -0.0555
 2758SOL    HW2 9716  -0.022   1.675   8.768  0.3982  0.2332  0.3169
 2759SOL     OW 9717   1.706   1.630   2.881  0.1824 -0.0157  0.1796
 2759SOL    HW1 9718   1.684   1.684   2.805  0.0004  0.3401  0.4818
 2759SOL    HW2 9719   1.764   1.562   2.846  0.2372  0.2434 -0.2438
 2760SOL     OW 9720   7.141   2.645  11.273 -0.0959 -0.0031  0.1170
 2760SOL    HW1 9721   7.222   2.658  11.323 -0.6530  1.6375  0.6452
 2760SOL    HW2 9722   7.126   2.728  11.229 -1.5439 -0.2496  0.0975
 2761SOL     OW 9723   6.702   7.205   0.387  0.7257 -0.4537  0.3065
 2761SOL    HW1 9724   6.664   7.237   0.304 -0.9760 -1.2992  0.7147
 2761SOL    HW2 9725   6.713   7.111   0.373  3.9879 -0.1005 -0.2331
 2762SOL     OW 9726   0.679   3.259   8.076  0.0921 -0.1295  0.7209
 2762SOL    HW1 9727   0.715   3.347   8.061 -0.2757 -0.0231  0.4543
 2762SOL    HW2 9728   0.751   3.211   8.117  0.8731 -0.1990 -0.6693
 2763SOL     OW 9729   0.150   3.274   3.607 -0.4396 -0.2807  0.0811
 2763SOL    HW1 9730   0.241   3.270   3.634  0.0532 -2.0657 -1.6282
 2763SOL    HW2 9731   0.105   3.213   3.665  0.2711 -2.5884 -1.6131
 2764SOL     OW 9732   0.325   3.897   8.143 -0.2022  0.1610 -0.4510
 2764SOL    HW1 9733   0.301   3.805   8.136 -0.3812  0.1130  0.6319
 2764SOL    HW2 9734   0.365   3.905   8.230  0.9876  0.8458 -1.0220
 2765SOL     OW 9735   1.040   6.139   3.056  0.4331 -0.1407  0.3196
 2765SOL    HW1 9736   1.004   6.111   3.141  0.4524 -0.2228  0.3008
 2765SOL    HW2 9737   1.111   6.076   3.039 -2.0351 -2.6335 -1.6274
 2766SOL     OW 9738   0.086   2.351   9.927 -0.0719  0.2872 -0.2803
 2766SOL    HW1 9739   0.112   2.301  10.004 -1.3530 -0.1477 -0.1099
 2766SOL    HW2 9740   0.024   2.295   9.881  0.8315  0.4556 -1.7633
 2767SOL     OW 9741   5.079   5.407   1.565  0.2096  0.0963  0.1527
 2767SOL    HW1 9742   5.164   5.368   1.545  0.0426  1.1116 -3.1150
 2767SOL    HW2 9743   5.018   5.362   1.507 -1.1642  0.7031  1.0755
 2768SOL     OW 9744   2.916   5.717   7.732  0.6524 -0.1878  0.0281
 2768SOL    HW1 9745   2.898   5.806   7.702  0.4515 -0.7494 -1.6494
 2768SOL    HW2 9746   2.831   5.672   7.728  0.6313 -0.3198  1.4390
 2769SOL     OW 9747   6.243   6.996   9.956  0.0083 -0.3794  0.1399
 2769SOL    HW1 9748   6.176   7.017  10.021  0.6889  0.7513  0.5083
 2769SOL    HW2 9749   6.219   7.048   9.880 -0.9988 -1.9794 -0.7083
 2770SOL     OW 9750   0.936   1.981   7.283 -0.2084 -0.6271  0.5287
 2770SOL    HW1 9751   0.933   1.950   7.374  1.2933 -0.5318  0.6377
 2770SOL    HW2 9752   0.991   1.918   7.238  2.7126  1.5770  0.7010
 2771SOL     OW 9753   3.481   7.419   6.183  0.3372  0.1734 -0.4073
 2771SOL    HW1 9754   3.411   7.421   6.118  1.6000 -0.8312 -1.8637
 2771SOL    HW2 9755   3.436   7.397   6.265 -1.0301 -0.7551 -1.3575
 2772SOL     OW 9756   4.354   6.664   3.054 -0.1398 -0.2510  0.0710
 2772SOL    HW1 9757   4.432   6.625   3.016 -0.4196 -2.5234  1.6289
 2772SOL    HW2 9758   4.365   6.758   3.039  2.2886 -0.5940 -0.8005
 2773SOL     OW 9759   2.580   0.158   0.113  1.1134 -0.2350  0.1058
 2773SOL    HW1 9760   2.622   0.136   0.030 -0.1690 -0.0971 -0.6060
 2773SOL    HW2 9761   2.595   0.252   0.124  1.1069 -0.2106 -0.0899
 2774SOL     OW 9762   1.911   2.869  10.039  0.7017 -0.7138  0.1372
 2774SOL    HW1 9763   1.932   2.935   9.973  1.6367  0.4507  1.5421
 2774SOL    HW2 9764   1.996   2.844  10.076  0.4345 -3.0874 -0.6467
 2775SOL     OW 9765   7.204   6.305   7.294  0.1887 -0.0385 -0.5566
 2775SOL    HW1 9766   7.275   6.365   7.316 -0.3574  0.4558 -0.1142
 2775SOL    HW2 9767   7.124   6.351   7.321 -0.1774 -1.4135  0.8410
 2776SOL     OW 9768   4.295   5.024   5.668  0.0370 -0.5501  0.0589
 2776SOL    HW1 9769   4.320   4.932   5.675 -0.3993 -0.5788  1.7253
 2776SOL    HW2 9770   4.247   5.030   5.586 -0.4965 -1.9715  0.2380
 2777SOL     OW 9771   3.396   3.169   2.854  0.4459  0.3707  0.7646
 2777SOL    HW1 9772   3.436   3.228   2.917  0.6812 -0.4849  1.4470
 2777SOL    HW2 9773   3.370   3.093   2.906 -3.5858  1.4880  0.7370
 2778SOL     OW 9774   2.349   6.631   0.831  0.2581 -0.7204 -0.1408
 2778SOL    HW1 9775   2.423   6.611   0.888 -0.1289 -1.7725  0.0193
 2778SOL    HW2 9776   2.374   6.711   0.785  1.0884 -0.5427  0.6038
 2779SOL     OW 9777   5.602   3.639   0.268 -0.1547 -0.4157 -0.2816
 2779SOL    HW1 9778   5.561   3.633   0.354 -1.5373 -0.0762 -0.8859
 2779SOL    HW2 9779   5.649   3.722   0.269 -0.6659 -0.1259 -0.0529
 2780SOL     OW 9780   1.700   1.598   8.727 -0.2231  0.4628 -0.5839
 2780SOL    HW1 9781   1.775   1.653   8.748  0.2270  0.0577 -1.0863
 2780SOL    HW2 9782   1.646   1.651   8.668  0.4506  0.2060 -1.4501
 2781SOL     OW 9783   6.112   7.291   2.061  0.0101  0.2725  0.0345
 2781SOL    HW1 9784   6.188   7.255   2.014  1.0845  2.2057  0.2020
 2781SOL    HW2 9785   6.124   7.261   2.152  0.5751  0.5443  0.0542
 2782SOL     OW 9786   3.493   7.479   2.687 -0.1772  0.4241  0.0933
 2782SOL    HW1 9787   3.561   7.473   2.619 -1.1953  1.5208 -1.0859
 2782SOL    HW2 9788   3.486   7.573   2.706  0.4657  0.0987  2.1717
 2783SOL     OW 9789   6.140   0.933  11.328 -0.3409 -0.5003 -0.1095
 2783SOL    HW1 9790   6.053   0.969  11.312 -1.0269 -0.6683  2.7409
 2783SOL    HW2 9791   6.128   0.869  11.399  2.3947  1.2933  2.2112
 2784SOL     OW 9792   1.822   3.675  10.319  0.5019 -0.6565 -0.0708
 2784SOL    HW1 9793   1.820   3.580  10.328  1.2963 -0.8401 -1.5403
 2784SOL    HW2 9794   1.734   3.698  10.289  0.4350 -0.9677 -0.1185
 2785SOL     OW 9795   7.713   1.528   3.177  0.0930  0.4539  0.1969
 2785SOL    HW1 9796   7.696   1.511   3.084  2.1242  0.0786 -0.1499
 2785SOL    HW2 9797   7.803   1.560   3.180  0.6903 -1.1693  2.1751
 2786SOL     OW 9798   3.507   1.489   1.987  0.2914  0.2572  0.0018
 2786SOL    HW1 9799   3.582   1.516   1.934  0.5633 -0.6567 -0.0896
 2786SOL    HW2 9800   3.543   1.475   2.075  0.1078  0.4278  0.1040
 2787SOL     OW 9801   4.224   1.581   4.069  0.1515 -0.1933 -0.0989
 2787SOL    HW1 9802   4.216   1.494   4.031  0.2360 -0.8141  1.2634
 2787SOL    HW2 9803   4.263   1.567   4.155 -3.0811  0.7869  1.6714
 2788SOL     OW 9804   3.420   0.479   1.843 -0.1739 -0.2095  0.1600
 2788SOL    HW1 9805   3.476   0.438   1.778 -0.7822 -1.3652  0.3411
 2788SOL    HW2 9806   3.348   0.518   1.793 -0.5595 -0.9649  0.1102
 2789SOL     OW 9807   4.530   4.509   5.864 -0.0560 -0.4100  0.2349
 2789SOL    HW1 9808   4.476   4.574   5.818  0.4714  0.1251  0.3477
 2789SOL    HW2 9809   4.510   4.426   5.822 -0.3982 -0.0948 -0.2280
 2790SOL     OW 9810   5.694   7.903  11.062 -0.0267  0.1673  0.5038
 2790SOL    HW1 9811   5.778   7.864  11.084 -0.3909 -1.8613 -1.4017
 2790SOL    HW2 9812   5.629   7.839  11.092 -0.7070 -0.0130 -1.2372
 2791SOL     OW 9813   0.012   7.526   8.393 -0.6327  0.6899 -0.7606
 2791SOL    HW1 9814  -0.067   7.472   8.398  0.1308 -0.3712  0.3554
 2791SOL    HW2 9815   0.085   7.465   8.400  0.3055  1.6851 -1.4371
 2792SOL     OW 9816   1.913   5.949  11.763  0.2653  0.0676 -0.1036
 2792SOL    HW1 9817   1.899   5.854  11.762 -0.7997  0.2178 -0.2755
 2792SOL    HW2 9818   1.948   5.966  11.850  0.0299 -0.4214  0.0938
 2793SOL     OW 9819   5.704   0.454   2.386 -0.2002 -0.3363 -0.4649
 2793SOL    HW1 9820   5.628   0.513   2.383  0.7641  1.0436  0.9484
 2793SOL    HW2 9821   5.697   0.411   2.471  1.4811  1.1204  0.4860
 2794SOL     OW 9822   2.512   2.679  11.144  0.5337 -0.1227  0.4506
 2794SOL    HW1 9823   2.597   2.696  11.105  0.8400 -1.4531  0.4955
 2794SOL    HW2 9824   2.522   2.594  11.188 -1.7707 -2.1905 -2.5841
 2795SOL     OW 9825   7.453   5.630   2.484  0.0251  0.6404 -0.2558
 2795SOL    HW1 9826   7.455   5.661   2.574  0.6903  0.3695 -0.1679
 2795SOL    HW2 9827   7.540   5.653   2.449 -0.1915  0.6549 -0.7924
 2796SOL     OW 9828   6.788   4.770   2.913 -0.0089 -0.1798  0.1302
 2796SOL    HW1 9829   6.714   4.749   2.855 -1.3598 -0.4938  1.8749
 2796SOL    HW2 9830   6.747   4.784   2.999  1.9121  0.3280  1.0056
 2797SOL     OW 9831   6.495   4.581   0.276  0.2978 -0.0292 -0.2362
 2797SOL    HW1 9832   6.588   4.564   0.262  0.0535 -0.3106 -1.6052
 2797SOL    HW2 9833   6.452   4.542   0.200 -0.7885  1.7503 -0.5729
 2798SOL     OW 9834   4.275   5.149   1.297 -0.7895 -0.8148 -0.7374
 2798SOL    HW1 9835   4.207   5.203   1.337 -0.9697 -0.7336 -1.1554
 2798SOL    HW2 9836   4.315   5.206   1.231 -0.4910 -0.9495 -0.6765
 2799SOL     OW 9837   6.411   4.633   6.782  0.4523  0.7635 -0.4860
 2799SOL    HW1 9838   6.465   4.669   6.852  0.7627 -1.8717  0.7817
 2799SOL    HW2 9839   6.474   4.588   6.725 -0.0812  0.5315 -0.8994
 2800SOL     OW 9840   4.375   6.689   3.520  0.7156  0.3408 -0.8262
 2800SOL    HW1 9841   4.322   6.661   3.446  2.7923  1.7291 -3.0059
 2800SOL    HW2 9842   4.464   6.661   3.498  1.9215  3.3916 -0.4378
 2801SOL     OW 9843   7.153   2.082   6.500 -0.4439 -0.2446 -0.3397
 2801SOL    HW1 9844   7.182   2.013   6.441  2.3926  0.8320 -0.3422
 2801SOL    HW2 9845   7.083   2.126   6.453 -1.5585 -2.3518 -0.7929
 2802SOL     OW 9846   4.466   7.381   4.287  0.2613  0.3179 -0.0412
 2802SOL    HW1 9847   4.496   7.319   4.221  0.9839  0.2325  0.3634
 2802SOL    HW2 9848   4.385   7.342   4.321 -0.1699  0.4135 -0.9362
 2803SOL     OW 9849   6.537   5.741   5.664 -0.2052  0.3076  0.2419
 2803SOL    HW1 9850   6.519   5.817   5.719  0.3997  0.0294  0.8351
 2803SOL    HW2 9851   6.580   5.778   5.587  0.0535  0.5749  0.5100
 2804SOL     OW 9852   4.787   4.852   1.775 -0.1769 -0.1124 -0.0868
 2804SOL    HW1 9853   4.843   4.884   1.845 -0.4207  0.8867 -0.3253
 2804SOL    HW2 9854   4.816   4.763   1.759  1.8884  0.6369 -0.7624
 2805SOL     OW 9855   3.105   1.051   0.953 -0.6393 -0.0514  0.1304
 2805SOL    HW1 9856   3.139   1.130   0.994 -0.7092 -1.4245  3.0582
 2805SOL    HW2 9857   3.145   1.050   0.865  1.0512  2.0851  0.7983
 2806SOL     OW 9858   6.286   3.991   0.497 -0.3778 -0.0503  0.6412
 2806SOL    HW1 9859   6.371   3.986   0.541  0.1330  0.8223 -0.2207
 2806SOL    HW2 9860   6.300   4.051   0.424 -1.3926 -0.9127 -0.3001
 2807SOL     OW 9861   4.150   5.391   5.212  0.2144  0.2257 -0.6657
 2807SOL    HW1 9862   4.183   5.408   5.123 -0.4911  1.2186 -0.7593
 2807SOL    HW2 9863   4.205   5.320   5.245  1.0779  0.4518 -1.5646
 2808SOL     OW 9864   3.671   3.349   1.527 -0.7704 -0.1263 -0.3679
 2808SOL    HW1 9865   3.701   3.334   1.617  0.9340  4.1902  0.0173
 2808SOL    HW2 9866   3.752   3.350   1.475 -1.3178  1.2097 -1.2308
 2809SOL     OW 9867   3.815   7.154   5.844  0.1568 -0.6252 -0.4606
 2809SOL    HW1 9868   3.867   7.202   5.780  0.0927 -0.3845 -0.3353
 2809SOL    HW2 9869   3.726   7.187   5.833 -0.2398 -1.9750 -1.5731
 2810SOL     OW 9870   2.892   2.863   9.149 -0.0515  0.6585 -0.4189
 2810SOL    HW1 9871   2.826   2.920   9.109 -1.4200 -1.6027 -1.6013
 2810SOL    HW2 9872   2.972   2.881   9.099 -0.9293  0.2648 -2.0564
 2811SOL     OW 9873   5.173   3.487   6.121 -0.2825  0.5479  0.2367
 2811SOL    HW1 9874   5.178   3.573   6.078  0.8687  0.4908  0.2276
 2811SOL    HW2 9875   5.166   3.425   6.048  1.2963  0.4798  0.0978
 2812SOL     OW 9876   2.750   4.922   8.084  0.0106  0.0953 -0.3386
 2812SOL    HW1 9877   2.664   4.957   8.108 -0.2347 -0.0714 -0.9458
 2812SOL    HW2 9878   2.800   4.998   8.055  0.2153  0.2557  0.4279
 2813SOL     OW 9879   4.297   7.130   9.911 -0.4046 -0.2993  0.3846
 2813SOL    HW1 9880   4.251   7.055   9.948 -0.8633 -0.1513  0.1349
 2813SOL    HW2 9881   4.350   7.093   9.840 -0.5171 -0.4070  0.3561
 2814SOL     OW 9882   4.131   4.335   2.363  0.2068  0.1929 -0.2031
 2814SOL    HW1 9883   4.134   4.245   2.331  1.2358 -0.0805  0.6098
 2814SOL    HW2 9884   4.135   4.326   2.459  2.1870  1.1480 -0.1567
 2815SOL     OW 9885   7.781   7.831  11.100  0.1174 -0.0396  0.0985
 2815SOL    HW1 9886   7.810   7.882  11.176 -0.3116 -0.0559  0.2722
 2815SOL    HW2 9887   7.708   7.779  11.132  0.0890 -0.2249 -0.2671
 2816SOL     OW 9888   5.094   6.546   2.852  0.7432  0.2021 -0.4226
 2816SOL    HW1 9889   5.151   6.615   2.886 -1.1201  1.6917 -0.2135
 2816SOL    HW2 9890   5.054   6.583   2.774 -1.9124  0.2666  0.8406
 2817SOL     OW 9891   7.511   3.962   3.419  0.3287 -0.3843 -0.1184
 2817SOL    HW1 9892   7.574   3.977   3.489  0.6790  2.1388 -0.8794
 2817SOL    HW2 9893   7.450   3.898   3.455 -0.0643  1.4907  2.9170
 2818SOL     OW 9894   4.130   4.415   5.633  0.4971  0.2768  0.1948
 2818SOL    HW1 9895   4.129   4.344   5.696 -1.2505  0.1642  0.1024
 2818SOL    HW2 9896   4.177   4.486   5.677 -1.2578  0.4344  1.9355
 2819SOL     OW 9897   1.181   3.571   8.148  0.2920  0.2619 -0.1683
 2819SOL    HW1 9898   1.251   3.539   8.205  1.2000 -0.1143 -1.4707
 2819SOL    HW2 9899   1.102   3.526   8.179  0.9105 -0.5235  0.2884
 2820SOL     OW 9900   3.195   6.747   1.918  0.0050  0.1699 -0.2144
 2820SOL    HW1 9901   3.219   6.656   1.936  0.6763  0.0993 -1.3660
 2820SOL    HW2 9902   3.173   6.784   2.004  0.7164 -0.7929  0.4013
 2821SOL     OW 9903   7.000   3.219   5.585  0.0873  0.0940  0.2475
 2821SOL    HW1 9904   6.987   3.299   5.637  1.6684  1.1219 -0.8385
 2821SOL    HW2 9905   6.985   3.148   5.647  0.4545  1.2621  1.7479
 2822SOL     OW 9906   7.041   3.243   6.419 -0.3352 -0.1889 -0.4618
 2822SOL    HW1 9907   6.975   3.278   6.359  0.6594  3.7072  0.4451
 2822SOL    HW2 9908   7.012   3.271   6.506  1.0341 -0.9105  0.2573
 2823SOL     OW 9909   7.069   4.928   8.489  0.0436 -0.4890  0.1552
 2823SOL    HW1 9910   7.100   4.884   8.567 -0.3677  0.3215  0.7964
 2823SOL    HW2 9911   6.992   4.878   8.462  0.9976 -1.6118 -0.5747
 2824SOL     OW 9912   3.596   1.678   9.448  0.8037  0.2531  0.3713
 2824SOL    HW1 9913   3.583   1.771   9.428 -1.5623  0.3557  1.9657
 2824SOL    HW2 9914   3.537   1.661   9.521  1.3923 -2.4663  0.3102
 2825SOL     OW 9915   2.275   0.352  10.081  0.1567 -0.1357  0.6590
 2825SOL    HW1 9916   2.204   0.293  10.110  0.7552 -0.7955  0.8132
 2825SOL    HW2 9917   2.339   0.348  10.152  0.8382 -0.3968  0.0384
 2826SOL     OW 9918   5.763   7.415   5.507 -0.1528 -0.3440 -0.4748
 2826SOL    HW1 9919   5.805   7.484   5.457 -0.2562  1.4850  1.7646
 2826SOL    HW2 9920   5.717   7.362   5.442 -0.1343  1.7517 -2.3112
 2827SOL     OW 9921   2.009   5.793   2.813 -0.4002 -0.1000 -0.2769
 2827SOL    HW1 9922   1.970   5.719   2.860 -1.2164 -0.1382 -1.0032
 2827SOL    HW2 9923   1.953   5.868   2.835  1.1077  0.6194  1.4432
 2828SOL     OW 9924   5.887   6.490   8.509  0.1286  0.6836 -0.0799
 2828SOL    HW1 9925   5.932   6.421   8.460 -0.6113  0.2547 -0.1726
 2828SOL    HW2 9926   5.951   6.560   8.517  0.1049  1.0053 -2.1896
 2829SOL     OW 9927   3.405   7.262   9.249  0.3549  0.2880  0.0983
 2829SOL    HW1 9928   3.438   7.195   9.189 -0.9605  0.0301 -0.3537
 2829SOL    HW2 9929   3.310   7.256   9.243  0.1518 -0.1073  2.6330
 2830SOL     OW 9930   6.528   5.986   9.977 -0.2910 -0.3778 -0.2708
 2830SOL    HW1 9931   6.511   5.895  10.001 -0.6268 -0.0865  0.6321
 2830SOL    HW2 9932   6.549   6.030  10.059  3.4126 -0.3561 -1.0677
 2831SOL     OW 9933   3.766   2.082   6.179  0.1127 -0.7717 -0.5553
 2831SOL    HW1 9934   3.698   2.131   6.224 -0.7416 -2.2369 -0.1677
 2831SOL    HW2 9935   3.732   2.068   6.091 -0.3335 -1.9011 -0.2265
 2832SOL     OW 9936   6.349   1.242   5.969 -0.5618 -0.0454  0.4512
 2832SOL    HW1 9937   6.422   1.281   5.920 -1.0458  1.0648  0.6049
 2832SOL    HW2 9938   6.316   1.173   5.911 -0.7671  0.8787 -0.5604
 2833SOL     OW 9939   6.356   7.811   1.347 -0.0219  0.1311 -0.1376
 2833SOL    HW1 9940   6.445   7.783   1.322  0.3168  0.6167  0.5057
 2833SOL    HW2 9941   6.366   7.846   1.435 -0.8889  0.0600 -0.0042
 2834SOL     OW 9942   0.223   5.609   4.299  0.4484  0.3266 -0.4009
 2834SOL    HW1 9943   0.170   5.531   4.310  1.0960 -0.2004 -0.9331
 2834SOL    HW2 9944   0.312   5.582   4.321  0.5875  1.0623 -0.0213
 2835SOL     OW 9945   1.142   7.361  11.471 -0.7803 -0.0736 -0.6967
 2835SOL    HW1 9946   1.121   7.453  11.485  0.7719  0.3156 -0.7493
 2835SOL    HW2 9947   1.095   7.315  11.542  0.1652  0.9869  0.6717
 2836SOL     OW 9948   4.087   2.930   1.294  0.2789 -0.0104 -0.5028
 2836SOL    HW1 9949   4.003   2.970   1.317 -0.3292 -1.6332  0.2891
 2836SOL    HW2 9950   4.088   2.929   1.198 -0.1000  1.0186 -0.5262
 2837SOL     OW 9951   0.801   5.927   4.172  0.3125  0.3542 -0.3346
 2837SOL    HW1 9952   0.778   5.905   4.263  0.2239  0.3881 -0.3497
 2837SOL    HW2 9953   0.749   6.004   4.152  0.0529  0.1258 -0.5425
 2838SOL     OW 9954   7.441   5.116   5.261 -0.4404 -0.0255 -0.0634
 2838SOL    HW1 9955   7.432   5.053   5.333 -0.5353 -0.5507 -0.5292
 2838SOL    HW2 9956   7.358   5.109   5.213 -0.7256  0.9512  0.2696
 2839SOL     OW 9957   0.339   7.535  10.342  0.0541  0.3887 -0.1153
 2839SOL    HW1 9958   0.401   7.504  10.407 -0.6030 -0.0711  0.3118
 2839SOL    HW2 9959   0.297   7.455  10.310 -1.4800  0.7829  0.7987
 2840SOL     OW 9960   6.186   3.678   4.191  0.3107 -0.7607  0.0884
 2840SOL    HW1 9961   6.106   3.645   4.230  1.0641 -0.1973  2.2863
 2840SOL    HW2 9962   6.160   3.759   4.148 -0.4005 -0.8596  0.3198
 2841SOL     OW 9963   2.832   7.538   3.868 -0.0505  0.7178  0.0309
 2841SOL    HW1 9964   2.783   7.576   3.941  0.6781  0.9447  0.4012
 2841SOL    HW2 9965   2.766   7.488   3.819 -0.5301  0.5224  0.8646
 2842SOL     OW 9966   7.072   6.031   8.298 -0.2171 -0.3845 -0.2019
 2842SOL    HW1 9967   7.035   5.959   8.247 -0.5043 -0.2208 -0.2240
 2842SOL    HW2 9968   7.112   6.089   8.233  1.5115 -1.3582 -0.0798
 2843SOL     OW 9969   7.768   7.816   5.745  0.0180  0.4332 -0.2530
 2843SOL    HW1 9970   7.708   7.849   5.811 -0.9861 -0.5406 -0.6363
 2843SOL    HW2 9971   7.713   7.764   5.686  1.0923  0.2390 -1.1313
 2844SOL     OW 9972   6.506   6.683   2.796 -0.0713  0.2835  0.7937
 2844SOL    HW1 9973   6.591   6.693   2.839  1.4150  1.0005 -2.0422
 2844SOL    HW2 9974   6.455   6.758   2.826  1.6407  1.9200 -0.1470
 2845SOL     OW 9975   5.706   5.123  12.271 -0.0023 -0.2663 -0.2833
 2845SOL    HW1 9976   5.730   5.147  12.361  1.0412 -0.7421 -0.4222
 2845SOL    HW2 9977   5.650   5.046  12.281  0.1101 -0.3175 -0.0381
 2846SOL     OW 9978   7.888   3.761   9.147 -0.6122 -0.0832 -0.1762
 2846SOL    HW1 9979   7.798   3.766   9.117 -0.6741 -0.8795 -0.1409
 2846SOL    HW2 9980   7.940   3.762   9.066 -0.4620  3.1723 -0.1588
 2847SOL     OW 9981   5.464   4.263   8.141  0.3909 -0.1042 -0.3704
 2847SOL    HW1 9982   5.378   4.261   8.098  0.0505  0.0162  0.2951
 2847SOL    HW2 9983   5.444   4.279   8.233  0.9734 -2.2562  0.1986
 2848SOL     OW 9984   2.769   5.440  11.131 -0.1564 -0.0751  0.2096
 2848SOL    HW1 9985   2.747   5.520  11.083  3.0919  0.5715 -0.4505
 2848SOL    HW2 9986   2.787   5.375  11.062 -2.0608 -1.2426  0.7335
 2849SOL     OW 9987   0.311   1.018  11.215  0.2080  0.1897  0.2013
 2849SOL    HW1 9988   0.278   1.056  11.296 -0.9142  0.9959 -0.6238
 2849SOL    HW2 9989   0.239   1.025  11.153  1.4872  0.8119 -1.2762
 2850SOL     OW 9990   4.548   1.679  10.361  0.1213 -0.0190 -0.3976
 2850SOL    HW1 9991   4.503   1.719  10.435  0.6423 -2.4892  1.3781
 2850SOL    HW2 9992   4.638   1.711  10.367 -0.4130  1.9429 -1.7079
 2851SOL     OW 9993   3.409   6.788   3.141  0.1616  0.0235  0.3795
 2851SOL    HW1 9994   3.325   6.824   3.111 -0.8931 -1.7290  1.0493
 2851SOL    HW2 9995   3.426   6.714   3.084  1.0026  0.0486  0.5803
 2852SOL     OW 9996   3.086   5.380   5.783 -0.2853 -0.1693  0.0101
 2852SOL    HW1 9997   3.161   5.439   5.774 -1.1104  1.4439  2.6457
 2852SOL    HW2 9998   3.116   5.312   5.844 -1.6127  2.0239  3.3934
 2853SOL     OW 9999   7.732   6.608   0.162  0.2465 -0.1397 -0.0226
 2853SOL    HW110000   7.699   6.522   0.189 -0.8548 -0.2314 -1.5638
 2853SOL    HW210001   7.824   6.607   0.189 -0.1669 -1.1208  1.4910
 2854SOL     OW10002   1.187   4.584   4.536 -0.2879  0.5731  0.7071
 2854SOL    HW110003   1.139   4.620   4.461 -2.2350 -1.7697  0.7015
 2854SOL    HW210004   1.260   4.536   4.498 -0.8465  0.0059  0.3366
 2855SOL     OW10005   4.544   1.553  11.719  0.5085  0.0708 -0.8286
 2855SOL    HW110006   4.462   1.601  11.735 -0.5544 -2.0668  0.6627
 2855SOL    HW210007   4.561   1.566  11.626 -2.7789 -1.1340 -1.7598
 2856SOL     OW10008   3.392   5.095   9.909  0.1157  0.1302  0.7288
 2856SOL    HW110009   3.431   5.139   9.834 -1.9770  0.4003 -0.2625
 2856SOL    HW210010   3.462   5.092   9.974  1.3234  1.9283 -0.3946
 2857SOL     OW10011   2.182   2.960   0.689  0.0172  0.2171  0.4469
 2857SOL    HW110012   2.214   2.874   0.665 -2.8103 -0.6113 -0.7954
 2857SOL    HW210013   2.192   2.964   0.784  0.5581 -1.3224  0.4745
 2858SOL     OW10014   1.280   2.066   8.538 -0.0273  0.3428 -0.1270
 2858SOL    HW110015   1.190   2.047   8.564 -0.2964  0.3227 -1.0170
 2858SOL    HW210016   1.318   1.981   8.516 -0.2190  0.4745 -1.0212
 2859SOL     OW10017   2.800   6.455   6.520  0.0788 -0.2492 -0.1175
 2859SOL    HW110018   2.730   6.485   6.579  0.4701  1.4393 -0.4821
 2859SOL    HW210019   2.880   6.467   6.570  0.3627  0.6482 -0.7771
 2860SOL     OW10020   1.378   3.012   2.472 -0.1570 -0.3511 -0.0415
 2860SOL    HW110021   1.287   3.011   2.501 -0.1480 -0.3621 -0.0135
 2860SOL    HW210022   1.429   2.997   2.552 -0.1841 -1.9327 -0.2896
 2861SOL     OW10023   5.963   6.596  10.989 -0.3917  0.1716 -0.3081
 2861SOL    HW110024   5.994   6.548  11.066 -0.0558  2.5674  1.1495
 2861SOL    HW210025   6.028   6.576  10.921  0.5915 -0.1988  0.7121
 2862SOL     OW10026   6.252   1.071   5.753  1.1030 -0.2483 -0.2378
 2862SOL    HW110027   6.260   1.082   5.658  2.4645  0.6937 -0.0491
 2862SOL    HW210028   6.159   1.083   5.771  1.1390  2.0859 -1.2121
 2863SOL     OW10029   6.146   3.751   4.508  0.4030  0.4278  0.2046
 2863SOL    HW110030   6.211   3.822   4.501 -0.1522  0.8106 -1.5342
 2863SOL    HW210031   6.069   3.794   4.545 -0.0513  0.8693 -1.1713
 2864SOL     OW10032   0.237   3.161   8.442  0.1343  0.3387  0.3916
 2864SOL    HW110033   0.247   3.067   8.459  1.0350  0.5486  1.1443
 2864SOL    HW210034   0.303   3.179   8.374  1.6428  0.8307  1.9080
 2865SOL     OW10035   5.484   2.636   7.256 -0.7319 -0.1338 -0.2291
 2865SOL    HW110036   5.413   2.624   7.319 -1.4038 -0.4494 -1.0383
 2865SOL    HW210037   5.442   2.629   7.171  0.1212  0.5887 -0.7192
 2866SOL     OW10038   3.951   4.976   0.883  0.2733  0.1299 -0.1059
 2866SOL    HW110039   3.948   5.071   0.872  1.4148  0.0732 -1.0471
 2866SOL    HW210040   3.963   4.964   0.977 -2.7671  0.8064  0.4794
 2867SOL     OW10041   6.262   3.041  10.727  0.1077 -0.1660  0.4921
 2867SOL    HW110042   6.335   3.092  10.692  0.0670 -1.0223 -0.9458
 2867SOL    HW210043   6.297   2.952  10.736 -1.1325 -0.9738 -1.7836
 2868SOL     OW10044   2.511   3.921   1.385  0.2667 -0.0571 -0.4495
 2868SOL    HW110045   2.443   3.854   1.380 -0.4955  0.5872  0.8231
 2868SOL    HW210046   2.561   3.899   1.464 -0.1509  0.9866  0.1311
 2869SOL     OW10047   2.417   3.817   3.303  0.7721 -0.1527 -0.0214
 2869SOL    HW110048   2.416   3.747   3.237 -1.1175  0.1666 -0.3945
 2869SOL    HW210049   2.328   3.854   3.300  1.2546  1.2145  1.2891
 2870SOL     OW10050   3.596   2.367   3.423  0.4855  0.5235 -0.3829
 2870SOL    HW110051   3.593   2.440   3.484  0.0573 -0.2165  0.5030
 2870SOL    HW210052   3.504   2.346   3.406  0.5999  0.0110 -0.3987
 2871SOL     OW10053   2.405   1.870   1.678 -0.4505  0.1938 -0.2513
 2871SOL    HW110054   2.374   1.952   1.641  1.8332  0.9634 -0.5875
 2871SOL    HW210055   2.462   1.832   1.611  0.1226 -0.6591  0.6819
 2872SOL     OW10056   3.779   3.220   6.129 -0.2078 -0.4952 -0.5623
 2872SOL    HW110057   3.721   3.296   6.134 -1.2304 -1.3443  1.0997
 2872SOL    HW210058   3.790   3.205   6.035 -0.2861  1.4499 -0.9272
 2873SOL     OW10059   4.947   0.860   6.919  0.0656 -0.2564  0.1337
 2873SOL    HW110060   4.860   0.880   6.885  0.5993  0.6940 -0.7202
 2873SOL    HW210061   4.992   0.944   6.923  1.6670 -0.9605 -1.5126
 2874SOL     OW10062   7.473   5.448   5.734  0.1179  0.2599 -0.5207
 2874SOL    HW110063   7.386   5.425   5.767 -1.1841  0.2102 -3.6192
 2874SOL    HW210064   7.532   5.431   5.808 -2.5665  1.3243  2.0564
 2875SOL     OW10065   5.909   4.498   9.456 -0.1393 -0.1450  0.4965
 2875SOL    HW110066   5.848   4.515   9.384 -0.6106 -0.5188  0.7989
 2875SOL    HW210067   5.862   4.436   9.513  0.4132 -0.2196  0.8783
 2876SOL     OW10068   0.854   2.867   4.507 -0.2808  0.1822  0.0933
 2876SOL    HW110069   0.816   2.787   4.472  0.5802 -0.1709 -0.0644
 2876SOL    HW210070   0.781   2.913   4.548 -1.4611  0.9203 -2.6437
 2877SOL     OW10071   4.850   3.423   4.116  0.2548  0.1894 -0.1014
 2877SOL    HW110072   4.766   3.404   4.075 -1.2328  0.8320  2.4158
 2877SOL    HW210073   4.873   3.343   4.164  1.6289 -0.3267 -1.5263
 2878SOL     OW10074   4.721   4.782   1.523  0.2624  0.0696 -0.2721
 2878SOL    HW110075   4.709   4.840   1.599  1.8307 -0.2478  0.2513
 2878SOL    HW210076   4.812   4.797   1.497 -0.6580  1.3378 -3.0853
 2879SOL     OW10077   3.208   4.641   6.117 -0.1097  0.3271  0.4221
 2879SOL    HW110078   3.262   4.653   6.195  0.3897 -0.3356  0.1900
 2879SOL    HW210079   3.153   4.719   6.114 -0.1204  0.3780  1.4201
 2880SOL     OW10080   6.366   1.429   7.120 -0.0496 -0.2596 -0.2288
 2880SOL    HW110081   6.456   1.398   7.115 -0.2728 -1.4553  1.9487
 2880SOL    HW210082   6.373   1.518   7.153  0.3640  0.0351 -1.0872
 2881SOL     OW10083   5.421   0.383   2.527  0.2343 -0.0264  0.3049
 2881SOL    HW110084   5.357   0.421   2.588  0.2606  0.9447 -0.2619
 2881SOL    HW210085   5.450   0.456   2.473  2.2117 -0.3473  0.8552
 2882SOL     OW10086   5.090   5.146   6.109 -0.1331  0.5227  0.4636
 2882SOL    HW110087   5.143   5.206   6.056 -1.2356  0.7273 -0.4528
 2882SOL    HW210088   5.140   5.064   6.110  1.1055  1.2590  1.2384
 2883SOL     OW10089   4.909   5.429   0.297  0.6251 -0.2887  0.5453
 2883SOL    HW110090   4.829   5.454   0.251  0.4264 -2.6314 -0.5641
 2883SOL    HW210091   4.891   5.446   0.389 -1.1570 -0.7683  0.3144
 2884SOL     OW10092   1.702   0.338   9.470  0.3596 -0.2855  0.5508
 2884SOL    HW110093   1.721   0.417   9.521  3.4935  0.6801 -1.7610
 2884SOL    HW210094   1.767   0.274   9.502 -1.6940 -1.8152  1.9149
 2885SOL     OW10095   3.141   0.403   3.190 -0.4167 -0.1427 -0.0628
 2885SOL    HW110096   3.211   0.365   3.137  0.5236 -0.9284  1.6424
 2885SOL    HW210097   3.069   0.340   3.184 -0.9822  0.6020 -1.7132
 2886SOL     OW10098   5.141   4.908  12.068  0.0672  0.0431 -0.2224
 2886SOL    HW110099   5.180   4.941  11.987 -1.9493  1.3358 -0.7481
 2886SOL    HW210100   5.121   4.987  12.118  0.5662 -0.7142  1.2044
 2887SOL     OW10101   7.692   2.454   4.111 -0.1743  0.3399  0.3661
 2887SOL    HW110102   7.769   2.508   4.090  0.1490  0.4330  1.6868
 2887SOL    HW210103   7.723   2.395   4.179 -0.3377 -1.9975 -1.4707
 2888SOL     OW10104   1.556   2.171   6.695  0.2324 -0.5462  0.5241
 2888SOL    HW110105   1.500   2.098   6.670  0.4171 -0.8019  0.8565
 2888SOL    HW210106   1.583   2.210   6.612 -0.4469 -0.4079  0.3625
 2889SOL     OW10107   7.101   0.472   6.539  0.4910 -0.0726 -0.4834
 2889SOL    HW110108   7.078   0.379   6.545 -0.9716  0.2492 -0.7254
 2889SOL    HW210109   7.135   0.494   6.625  2.4815 -1.2149 -0.9083
 2890SOL     OW10110   5.107   5.768   2.984  0.3675 -0.2971  0.4521
 2890SOL    HW110111   5.118   5.821   2.905  2.0643  0.0461  0.8855
 2890SOL    HW210112   5.012   5.759   2.994  0.1031  0.7914 -0.8653
 2891SOL     OW10113   7.921   4.082  11.820 -0.0689  0.0107 -0.3876
 2891SOL    HW110114   7.838   4.098  11.867 -0.5758 -0.5693 -1.0693
 2891SOL    HW210115   7.902   4.008  11.763  1.2465 -0.8331  0.2333
 2892SOL     OW10116   6.596   7.224   4.902 -0.2269 -1.0715 -0.0715
 2892SOL    HW110117   6.664   7.213   4.836  0.6619 -1.5998  0.8953
 2892SOL    HW210118   6.608   7.314   4.934 -1.8344 -0.1554 -1.8505
 2893SOL     OW10119   4.158   3.605   8.894  0.8299 -0.6290 -0.4084
 2893SOL    HW110120   4.078   3.619   8.944  1.5868 -0.4425  0.8165
 2893SOL    HW210121   4.197   3.692   8.885  0.6049 -0.6328 -1.5238
 2894SOL     OW10122   5.210   0.335   4.323  0.0346 -0.0039  0.1304
 2894SOL    HW110123   5.166   0.407   4.367 -1.7802 -0.6625 -0.5342
 2894SOL    HW210124   5.158   0.318   4.245  0.5282 -1.8687  0.1486
 2895SOL     OW10125   0.688   3.045   3.057 -0.1249  0.2974 -0.2325
 2895SOL    HW110126   0.716   3.081   2.974 -0.2403  0.4008 -0.2281
 2895SOL    HW210127   0.633   2.970   3.034  0.9109 -0.4912 -0.2285
 2896SOL     OW10128   4.218   1.632   7.323  0.4240 -0.3533  0.2513
 2896SOL    HW110129   4.240   1.725   7.311  1.9349 -0.6106  0.7310
 2896SOL    HW210130   4.125   1.626   7.301  0.3787  1.2079 -0.1236
 2897SOL     OW10131   7.332   0.315  10.414 -0.3731 -0.1401 -0.0096
 2897SOL    HW110132   7.368   0.322  10.503  1.7216 -1.0253 -0.7208
 2897SOL    HW210133   7.386   0.373  10.361  1.0311 -2.5238 -1.3714
 2898SOL     OW10134   2.539   7.905   9.325 -0.4702  0.4276 -0.4505
 2898SOL    HW110135   2.580   7.832   9.370 -1.3529  1.2974  1.9726
 2898SOL    HW210136   2.584   7.982   9.359 -1.1076  1.1259 -1.1596
 2899SOL     OW10137   5.710   0.073   3.685 -0.7015 -0.2986 -0.1642
 2899SOL    HW110138   5.728   0.070   3.591 -0.5157  2.5170 -0.3183
 2899SOL    HW210139   5.735  -0.014   3.718  0.8891 -0.7901 -2.4379
 2900SOL     OW10140   1.739   6.623   6.223  0.1028  0.0194 -0.1108
 2900SOL    HW110141   1.750   6.587   6.135 -0.2795 -0.1030 -0.1072
 2900SOL    HW210142   1.741   6.718   6.211 -1.2102  0.0203 -0.4136
 2901SOL     OW10143   6.248   1.260   9.452 -0.0718 -0.0648  0.0254
 2901SOL    HW110144   6.307   1.230   9.383 -1.9178 -2.0159 -0.7974
 2901SOL    HW210145   6.208   1.340   9.417  0.0164 -0.2774 -0.5585
 2902SOL     OW10146   2.858   6.303   2.580  0.9448 -0.0836  0.2310
 2902SOL    HW110147   2.940   6.317   2.534 -0.2307  1.6644 -1.5207
 2902SOL    HW210148   2.817   6.390   2.581  0.3515 -0.2663  3.6246
 2903SOL     OW10149   1.339   1.062   8.468  0.3035  0.0832  0.1882
 2903SOL    HW110150   1.318   0.971   8.446  1.4943 -0.0117 -0.6844
 2903SOL    HW210151   1.301   1.113   8.396  1.3670  0.0811 -0.3849
 2904SOL     OW10152   2.057   4.841   9.623 -0.0714 -0.1177 -0.0149
 2904SOL    HW110153   2.065   4.755   9.582  0.3817 -1.1259  2.0467
 2904SOL    HW210154   2.042   4.822   9.716  1.9014  1.9824  0.8446
 2905SOL     OW10155   4.085   5.680   7.329  0.3535  0.0770  0.1939
 2905SOL    HW110156   4.133   5.626   7.266 -1.2167 -2.0041  0.6588
 2905SOL    HW210157   4.139   5.680   7.408  0.2283 -1.1630  0.2970
 2906SOL     OW10158   1.036   6.230   1.949  0.0832  0.1713 -0.4083
 2906SOL    HW110159   1.026   6.281   1.868  3.3617 -0.1302 -1.1429
 2906SOL    HW210160   1.010   6.141   1.924 -1.6532  0.6191 -0.2852
 2907SOL     OW10161   0.012   1.766   2.677  0.2752  0.3033 -0.4811
 2907SOL    HW110162  -0.029   1.833   2.622  0.0709  0.1454 -0.5214
 2907SOL    HW210163   0.106   1.782   2.667  0.3142 -0.8300 -2.2727
 2908SOL     OW10164   6.802   4.573   8.441  0.2197  0.0107 -0.2857
 2908SOL    HW110165   6.782   4.491   8.396 -0.1610  1.3141 -2.6141
 2908SOL    HW210166   6.875   4.610   8.392  0.2927  1.1501  0.6403
 2909SOL     OW10167   1.264   5.776   9.314 -0.1594  0.2926  0.4149
 2909SOL    HW110168   1.262   5.842   9.245 -2.4636 -0.7998 -0.6482
 2909SOL    HW210169   1.199   5.807   9.378 -1.6849 -1.1691 -0.3730
 2910SOL     OW10170   4.465   6.861  10.147 -0.5807 -0.0861 -0.1172
 2910SOL    HW110171   4.437   6.945  10.108 -1.6369 -0.2584  0.2230
 2910SOL    HW210172   4.536   6.831  10.090 -0.4363  0.8607 -0.4634
 2911SOL     OW10173   2.504   6.377  11.232  0.3777  0.5225 -0.1685
 2911SOL    HW110174   2.563   6.452  11.234 -0.3188  1.0749  0.9878
 2911SOL    HW210175   2.465   6.375  11.319  1.6713 -2.2589  0.4540
 2912SOL     OW10176   1.650   0.597   4.310  0.1133 -0.0988 -0.3219
 2912SOL    HW110177   1.560   0.622   4.286 -0.0411 -1.4442 -1.2706
 2912SOL    HW210178   1.703   0.673   4.286 -0.4544 -0.2382 -2.1845
 2913SOL     OW10179   5.143   2.885   5.844 -0.5749  0.3999  1.1463
 2913SOL    HW110180   5.205   2.930   5.901 -0.3446  0.2729  0.9975
 2913SOL    HW210181   5.112   2.953   5.784 -0.0530  0.3181  0.7720
 2914SOL     OW10182   6.536   1.181   2.853 -0.3074  0.3361 -0.0133
 2914SOL    HW110183   6.514   1.126   2.778  0.8163 -0.4131  0.1947
 2914SOL    HW210184   6.629   1.199   2.844  0.3085 -1.3949  2.2278
 2915SOL     OW10185   4.961   7.106   7.996  1.3006 -0.0776  0.8188
 2915SOL    HW110186   5.020   7.047   7.950 -1.1666 -1.0503 -1.3256
 2915SOL    HW210187   4.901   7.048   8.042 -0.5067  0.7091 -0.4410
 2916SOL     OW10188   2.326   4.205   6.104  0.1552 -0.1255  0.2402
 2916SOL    HW110189   2.243   4.190   6.150  0.8826  0.3325  1.7585
 2916SOL    HW210190   2.316   4.292   6.065 -0.1348 -0.1334  0.2926
 2917SOL     OW10191   6.624   5.125   5.988  0.4216  0.4364  0.2164
 2917SOL    HW110192   6.714   5.152   6.006  0.4224 -0.4982  1.7623
 2917SOL    HW210193   6.578   5.207   5.973  1.6605  0.8987 -1.5262
 2918SOL     OW10194   0.339   6.793   0.943  0.5017  0.3256 -0.2894
 2918SOL    HW110195   0.261   6.829   0.985  0.8074  1.6476 -0.8046
 2918SOL    HW210196   0.316   6.790   0.850  1.1714  1.0628 -0.4893
 2919SOL     OW10197   5.261   4.501   4.867  1.1125 -0.3307 -0.5829
 2919SOL    HW110198   5.184   4.538   4.823  2.6324  0.2374 -2.9848
 2919SOL    HW210199   5.234   4.414   4.895 -0.7741  0.3440 -0.2081
 2920SOL     OW10200   5.127   7.838   6.033 -0.0094  0.2670  0.0855
 2920SOL    HW110201   5.086   7.921   6.012 -3.0372 -1.4259 -1.3929
 2920SOL    HW210202   5.099   7.818   6.122  3.2150  2.0580  1.6729
 2921SOL     OW10203   1.056   0.158   5.947  0.0693 -0.3423 -0.4204
 2921SOL    HW110204   0.974   0.162   5.897  0.0048 -0.3224 -0.3139
 2921SOL    HW210205   1.033   0.194   6.032  0.2380 -0.1559 -0.4530
 2922SOL     OW10206   1.232   0.720   1.562 -0.0718 -0.4536 -0.0932
 2922SOL    HW110207   1.248   0.814   1.549 -2.0526 -0.1127 -0.5556
 2922SOL    HW210208   1.319   0.680   1.563  0.8740  1.4661  0.9119
 2923SOL     OW10209   0.222   1.352  10.950 -0.4713 -0.3846  0.0025
 2923SOL    HW110210   0.191   1.433  10.990  0.2379  0.0416 -0.2930
 2923SOL    HW210211   0.308   1.374  10.915  0.0810 -1.4747  0.6137
 2924SOL     OW10212   0.157   6.518   9.726  0.4309  0.2303  0.1706
 2924SOL    HW110213   0.081   6.576   9.715  1.1148  1.0310 -0.4327
 2924SOL    HW210214   0.165   6.508   9.821  0.5967  1.5567  0.3240
 2925SOL     OW10215   6.704   0.248  10.797 -0.6380  0.0193  0.5083
 2925SOL    HW110216   6.623   0.289  10.766 -0.2120 -0.0808 -0.7825
 2925SOL    HW210217   6.685   0.155  10.798 -0.8342  0.0613  1.1253
 2926SOL     OW10218   5.028   3.744   8.341  0.2451 -0.4944 -0.4889
 2926SOL    HW110219   5.122   3.757   8.352  0.4323 -1.5256 -0.7049
 2926SOL    HW210220   4.989   3.781   8.420  0.7455  0.7780 -0.8217
 2927SOL     OW10221   5.388   2.466   6.029  0.0170 -0.1061  0.4195
 2927SOL    HW110222   5.438   2.497   5.954  1.1825 -0.6052  0.9754
 2927SOL    HW210223   5.308   2.519   6.028  0.2042  0.1877 -0.9135
 2928SOL     OW10224   6.860   5.940   2.010 -0.5339 -0.6563 -0.1563
 2928SOL    HW110225   6.826   5.996   2.081 -0.5875 -0.1311 -0.5916
 2928SOL    HW210226   6.836   5.986   1.930  0.6932 -0.5693 -0.4969
 2929SOL     OW10227   6.131   7.552  10.523  0.1489  0.2579  0.1617
 2929SOL    HW110228   6.208   7.503  10.550  1.1410  1.2197 -0.8362
 2929SOL    HW210229   6.118   7.617  10.591 -0.5667 -0.6928  0.9716
 2930SOL     OW10230   0.145   7.555   6.963 -0.0269 -0.4713  0.2984
 2930SOL    HW110231   0.053   7.532   6.946 -0.4847  1.1165  0.4977
 2930SOL    HW210232   0.170   7.497   7.035 -0.7063 -1.2748 -0.0837
 2931SOL     OW10233   1.117   6.475  10.085 -1.0156  0.1502  0.0255
 2931SOL    HW110234   1.154   6.462  10.172 -0.0906 -1.2568 -0.5407
 2931SOL    HW210235   1.080   6.390  10.061  1.1379 -0.3398 -1.9814
 2932SOL     OW10236   2.337   1.925  11.703 -0.3074  0.3013 -0.1271
 2932SOL    HW110237   2.373   1.838  11.716 -2.5236 -0.9270 -1.6807
 2932SOL    HW210238   2.405   1.972  11.655 -0.2295 -1.5668 -1.9829
 2933SOL     OW10239   7.411   3.300  11.215  0.4894  0.3106  0.0187
 2933SOL    HW110240   7.436   3.264  11.130  0.9253 -1.4822  0.8440
 2933SOL    HW210241   7.447   3.389  11.216  3.3705 -0.7432 -0.4374
 2934SOL     OW10242   0.497   7.494   7.019  0.1900  0.2554  0.8458
 2934SOL    HW110243   0.469   7.556   7.086  0.1192 -0.0557  1.1063
 2934SOL    HW210244   0.481   7.408   7.058 -1.7430  0.0257 -0.3093
 2935SOL     OW10245   6.041   1.649  11.684 -0.3014  0.5730  0.2925
 2935SOL    HW110246   6.050   1.686  11.771  1.8476  0.9415 -0.0362
 2935SOL    HW210247   6.006   1.561  11.698 -0.9616  1.0004  1.4161
 2936SOL     OW10248   3.772   3.588   2.667  0.3114 -0.3498 -0.2792
 2936SOL    HW110249   3.835   3.584   2.596  0.5231 -1.3177 -0.0489
 2936SOL    HW210250   3.715   3.513   2.653 -0.5253  0.2538 -0.2274
 2937SOL     OW10251   5.147   1.678   7.308 -0.7614  0.1011 -0.1114
 2937SOL    HW110252   5.190   1.641   7.385 -1.6969  0.1251  0.4455
 2937SOL    HW210253   5.129   1.603   7.252 -2.4981 -0.3383  0.9393
 2938SOL     OW10254   7.124   4.574  10.870  0.2488 -0.0250  0.7855
 2938SOL    HW110255   7.037   4.556  10.905  0.6379 -0.7256  1.4096
 2938SOL    HW210256   7.119   4.548  10.778 -0.6168  1.2960  0.4336
 2939SOL     OW10257   7.777   1.990  10.734 -0.0868 -0.3934 -0.3770
 2939SOL    HW110258   7.793   2.015  10.644 -1.1548  0.5610 -0.3238
 2939SOL    HW210259   7.763   2.072  10.780  0.1815 -0.8810  0.6065
 2940SOL     OW10260   0.597   6.133   3.703  0.5312  0.2134  0.5266
 2940SOL    HW110261   0.691   6.132   3.721  0.8191 -0.9733 -0.8017
 2940SOL    HW210262   0.590   6.169   3.614 -0.3592  1.1120  0.9429
 2941SOL     OW10263   0.658   4.578   1.689  0.2546  0.2302 -0.3822
 2941SOL    HW110264   0.611   4.509   1.736  1.0167  0.9467  1.5404
 2941SOL    HW210265   0.665   4.546   1.599 -0.7937 -1.4598  0.0985
 2942SOL     OW10266   4.005   2.836   1.060  0.1165  0.1094  0.0678
 2942SOL    HW110267   3.998   2.747   1.093  0.9251  0.3591  0.9736
 2942SOL    HW210268   3.917   2.859   1.032 -0.3346 -0.5695  0.8902
 2943SOL     OW10269   5.501   3.065   7.801  0.0040 -0.9345 -0.2618
 2943SOL    HW110270   5.419   3.085   7.756  0.7998  0.5463 -1.1450
 2943SOL    HW210271   5.505   3.128   7.872  1.0270  0.0112 -1.1096
 2944SOL     OW10272   1.712   3.142   3.031 -0.4326  0.7361 -0.1377
 2944SOL    HW110273   1.624   3.141   2.994 -0.2216  3.4484 -0.9417
 2944SOL    HW210274   1.699   3.138   3.125 -1.2958 -0.5101 -0.2851
 2945SOL     OW10275   6.032   4.170  11.907  0.3585  0.0598 -0.2226
 2945SOL    HW110276   5.939   4.160  11.888  0.4671 -1.5279 -0.1253
 2945SOL    HW210277   6.076   4.162  11.823  0.4716 -0.6905 -0.1055
 2946SOL     OW10278   6.104   7.390   1.575 -0.5089  0.2385  0.0786
 2946SOL    HW110279   6.173   7.325   1.591 -1.3112 -0.4775  0.7734
 2946SOL    HW210280   6.095   7.437   1.658 -0.9166  0.2584  0.0271
 2947SOL     OW10281   1.456   6.019   9.058 -0.4529 -0.0721 -0.1562
 2947SOL    HW110282   1.405   6.051   9.133 -0.9884 -1.1774 -0.0340
 2947SOL    HW210283   1.533   5.978   9.098  0.7052  1.7706 -0.3446
 2948SOL     OW10284   6.939   7.497   5.044 -0.0272  0.2397  0.7526
 2948SOL    HW110285   6.862   7.535   5.002  1.4414 -0.4148 -2.9321
 2948SOL    HW210286   6.907   7.462   5.127 -2.9568  2.7767  0.8657
 2949SOL     OW10287   6.383   0.378  11.027 -0.5103  0.1590 -0.3893
 2949SOL    HW110288   6.330   0.368  10.947  0.9728 -0.9872 -1.2812
 2949SOL    HW210289   6.339   0.323  11.092  0.1936 -1.7635 -1.4638
 2950SOL     OW10290   4.438   5.192  10.861 -0.0887  0.5501 -0.0405
 2950SOL    HW110291   4.389   5.126  10.811 -0.3398  0.3822  0.4186
 2950SOL    HW210292   4.405   5.276  10.829 -0.4893  0.4388  0.0734
 2951SOL     OW10293   6.590   6.666   4.835 -0.3482 -0.0600  0.0471
 2951SOL    HW110294   6.614   6.596   4.896 -0.7302  0.8097  1.2287
 2951SOL    HW210295   6.494   6.660   4.830 -0.4160  0.6200  0.4639
 2952SOL     OW10296   4.364   6.446   9.718 -0.3334  0.5782 -0.0220
 2952SOL    HW110297   4.274   6.470   9.739 -1.2621 -1.6298 -1.1381
 2952SOL    HW210298   4.358   6.402   9.633  1.5555 -0.9869  0.5782
 2953SOL     OW10299   2.905   0.394   6.989  0.5382  0.0597 -0.4159
 2953SOL    HW110300   2.960   0.391   7.068  0.6536 -0.2290 -0.5084
 2953SOL    HW210301   2.945   0.331   6.929 -0.4725 -0.9149 -0.1074
 2954SOL     OW10302   2.721   0.858   3.269  0.2023 -0.1369  0.4087
 2954SOL    HW110303   2.789   0.920   3.239  1.1448 -0.7774  1.1515
 2954SOL    HW210304   2.726   0.786   3.206 -0.4826  0.2562 -0.1071
 2955SOL     OW10305   1.289   0.706   5.435  0.2548 -0.0412  0.1791
 2955SOL    HW110306   1.367   0.682   5.385 -1.5429 -1.4566 -2.1803
 2955SOL    HW210307   1.323   0.747   5.514  3.3346  0.7788 -1.4071
 2956SOL     OW10308   3.833   0.118   1.142  0.4305  0.0316  0.3527
 2956SOL    HW110309   3.824   0.026   1.115 -0.1840 -0.2105  1.3327
 2956SOL    HW210310   3.913   0.120   1.194 -0.1627 -0.2065  1.3039
 2957SOL     OW10311   0.514   5.974   8.176 -0.4041  0.0543  0.1071
 2957SOL    HW110312   0.526   5.889   8.133 -0.1870 -0.2596  0.7766
 2957SOL    HW210313   0.603   6.006   8.189 -0.4150 -0.4194  1.4266
 2958SOL     OW10314   5.237   0.643   7.115 -0.0897 -0.2641 -0.1415
 2958SOL    HW110315   5.249   0.559   7.160  0.7772 -1.1588 -1.9204
 2958SOL    HW210316   5.208   0.619   7.027  1.0660  1.2248 -0.9843
 2959SOL     OW10317   2.272   0.990   3.801 -0.1291 -0.0734 -0.6393
 2959SOL    HW110318   2.286   1.084   3.815 -1.7598  0.1794 -0.5495
 2959SOL    HW210319   2.274   0.980   3.706  1.1012 -0.1427 -0.6201
 2960SOL     OW10320   1.239   6.206   6.536 -0.3822  0.0382 -0.0739
 2960SOL    HW110321   1.266   6.184   6.625  0.1190  1.9061  0.2895
 2960SOL    HW210322   1.176   6.138   6.512  2.5831 -3.0130  0.0574
 2961SOL     OW10323   0.861   0.844   5.833 -0.0806  0.1045 -0.5252
 2961SOL    HW110324   0.828   0.871   5.919 -0.6441  0.0521 -0.7180
 2961SOL    HW210325   0.828   0.912   5.774  1.1490  0.6954 -0.5634
 2962SOL     OW10326   6.557   1.722   3.302  0.0464  0.4927  0.0847
 2962SOL    HW110327   6.554   1.815   3.325 -1.6097  0.4009  0.3571
 2962SOL    HW210328   6.480   1.685   3.344 -0.1510 -0.7110 -1.2904
 2963SOL     OW10329   6.069   0.055   0.177 -0.5900  0.3666 -0.1349
 2963SOL    HW110330   6.047   0.025   0.265 -2.1112  2.4976  0.2941
 2963SOL    HW210331   6.140   0.117   0.190  0.7308 -0.9666 -0.7144
 2964SOL     OW10332   1.410   2.548   8.333  0.1016  0.6434  0.0544
 2964SOL    HW110333   1.372   2.534   8.419  2.0454  0.8320  1.0001
 2964SOL    HW210334   1.402   2.464   8.289  1.7555 -0.3987  1.5822
 2965SOL     OW10335   2.354   0.536   1.728  0.0319  0.6138 -0.3681
 2965SOL    HW110336   2.292   0.537   1.655  0.5247  0.2391 -0.7987
 2965SOL    HW210337   2.421   0.473   1.702  0.2410  0.5165  0.3889
 2966SOL     OW10338   6.121   2.392   5.270 -0.3208  0.2371 -0.3078
 2966SOL    HW110339   6.077   2.336   5.334 -0.3196  0.0005 -0.5132
 2966SOL    HW210340   6.147   2.333   5.200  0.5279  0.3428 -0.0852
 2967SOL     OW10341   5.950   7.236   0.381  0.4510  0.2965  0.2490
 2967SOL    HW110342   5.995   7.217   0.298  0.9355 -0.7763  0.7456
 2967SOL    HW210343   5.901   7.156   0.400 -3.2089  1.9989 -1.1894
 2968SOL     OW10344   7.120   0.383   1.671 -0.1525  0.6762 -0.1783
 2968SOL    HW110345   7.026   0.379   1.653 -0.0223 -0.6749 -0.6207
 2968SOL    HW210346   7.161   0.373   1.585  0.4040  0.6937  0.0806
 2969SOL     OW10347   1.930   4.090  10.417  0.4254 -0.0654  0.4503
 2969SOL    HW110348   1.969   4.008  10.386  2.3902  1.5474 -1.6987
 2969SOL    HW210349   1.968   4.103  10.504 -1.2234 -2.1714  1.5863
 2970SOL     OW10350   7.706   5.383  10.507  0.3474 -0.0291 -0.0519
 2970SOL    HW110351   7.624   5.334  10.509  1.1187 -1.3670  0.3711
 2970SOL    HW210352   7.771   5.320  10.474  1.1276  1.1224 -0.7777
 2971SOL     OW10353   4.597   7.692   4.792 -0.1820 -0.3094  0.3587
 2971SOL    HW110354   4.685   7.656   4.802 -0.1192 -0.1535  0.3628
 2971SOL    HW210355   4.608   7.786   4.801 -0.1614 -0.1734 -0.8992
 2972SOL     OW10356   5.259   4.886   0.424 -0.4667  0.1389 -0.3394
 2972SOL    HW110357   5.253   4.805   0.373  1.0518 -1.2106  1.4840
 2972SOL    HW210358   5.172   4.896   0.464 -0.0892 -1.8622  1.1342
 2973SOL     OW10359   3.157   7.156   0.817 -0.4945 -0.2458  0.4591
 2973SOL    HW110360   3.180   7.185   0.904 -0.5652  3.4876 -0.6202
 2973SOL    HW210361   3.158   7.060   0.823  1.0420 -0.1587  4.0705
 2974SOL     OW10362   2.125   1.238   6.213 -0.2294 -0.0733  0.0209
 2974SOL    HW110363   2.148   1.313   6.158 -1.6147  0.5946  0.3249
 2974SOL    HW210364   2.106   1.276   6.299 -2.6868 -0.4938 -0.2570
 2975SOL     OW10365   5.000   5.669  11.453  0.0064  0.2460 -0.4078
 2975SOL    HW110366   5.061   5.677  11.379  1.0572 -0.0094  0.3947
 2975SOL    HW210367   5.012   5.750  11.502  2.5745 -1.2665  1.7964
 2976SOL     OW10368   2.951   6.166   9.087 -0.1363  0.4183  0.0727
 2976SOL    HW110369   2.893   6.209   9.024 -2.1279  0.0372  1.5342
 2976SOL    HW210370   3.017   6.233   9.108 -1.0383  1.4888 -0.3895
 2977SOL     OW10371   6.241   4.449   1.610 -0.3107 -0.1750 -0.1208
 2977SOL    HW110372   6.219   4.391   1.536  0.6700 -0.2788 -0.3351
 2977SOL    HW210373   6.261   4.533   1.569  1.8390 -0.6461 -0.1635
 2978SOL     OW10374   5.547   1.555   7.663  0.9136  0.2414 -0.1155
 2978SOL    HW110375   5.536   1.503   7.742 -0.5878  0.8714  0.1231
 2978SOL    HW210376   5.630   1.601   7.676  1.0193 -0.1842  0.7860
 2979SOL     OW10377   4.778   0.979   0.644 -0.2589  0.0425 -0.1831
 2979SOL    HW110378   4.748   1.046   0.706 -0.6720 -1.6437  1.5243
 2979SOL    HW210379   4.873   0.988   0.643 -0.2279 -0.0624  0.8969
 2980SOL     OW10380   2.936   0.208   5.251  0.5603 -0.3097 -0.5306
 2980SOL    HW110381   2.842   0.215   5.262  0.7571  0.6241  0.9265
 2980SOL    HW210382   2.962   0.289   5.208  0.8262 -0.0008  0.1971
 2981SOL     OW10383   1.519   2.711  11.218 -0.4705 -0.4017 -0.3675
 2981SOL    HW110384   1.434   2.745  11.190 -1.8825 -2.4266  1.1486
 2981SOL    HW210385   1.509   2.616  11.218  0.6582 -0.6768  2.9396
 2982SOL     OW10386   3.854   6.549  10.052  0.1944  0.2745  0.3417
 2982SOL    HW110387   3.782   6.585  10.103 -0.2516  0.5912 -0.4883
 2982SOL    HW210388   3.908   6.624  10.029 -0.7898  0.5001 -1.4732
 2983SOL     OW10389   6.571   7.699   3.007 -0.1932  0.7872  0.5238
 2983SOL    HW110390   6.523   7.688   3.089 -0.7417  1.0476  0.2384
 2983SOL    HW210391   6.545   7.785   2.975 -0.5164  0.4024 -0.2786
 2984SOL     OW10392   6.870   2.438   9.189 -0.5530 -0.2380  0.2798
 2984SOL    HW110393   6.926   2.476   9.120  0.3848 -0.3340  0.9632
 2984SOL    HW210394   6.848   2.512   9.245 -0.7326 -0.2822  0.2674
 2985SOL     OW10395   1.782   2.212   6.968  0.4055 -0.0089 -0.0145
 2985SOL    HW110396   1.841   2.190   6.895  0.6341  1.1380 -0.2010
 2985SOL    HW210397   1.771   2.306   6.961 -0.3638 -0.0279  0.8603
 2986SOL     OW10398   0.517   4.843  10.916  0.3494 -0.2814  0.4500
 2986SOL    HW110399   0.468   4.763  10.895  0.5263 -0.7729  1.7674
 2986SOL    HW210400   0.464   4.886  10.983  2.1015 -1.3552  2.6974
 2987SOL     OW10401   2.807   2.919   4.171  0.6223 -0.1498  0.0692
 2987SOL    HW110402   2.882   2.925   4.112 -0.1157  0.6365 -0.8305
 2987SOL    HW210403   2.815   2.993   4.230 -0.1986  0.8141 -0.9799
 2988SOL     OW10404   2.971   7.738   3.010  0.0756 -0.4285  0.0157
 2988SOL    HW110405   2.892   7.717   3.060 -1.7144  0.9984 -2.0280
 2988SOL    HW210406   2.963   7.687   2.930  1.7962 -1.0467  0.1970
 2989SOL     OW10407   6.576   6.022   7.618  0.0861  0.1007 -0.3421
 2989SOL    HW110408   6.573   5.964   7.694  0.0150 -0.4044 -0.7226
 2989SOL    HW210409   6.569   5.963   7.542  1.4931  0.4481 -0.7832
 2990SOL     OW10410   3.415   2.253   5.210 -0.1889  0.5063  0.1607
 2990SOL    HW110411   3.447   2.292   5.292  0.0478 -1.3808  1.0286
 2990SOL    HW210412   3.468   2.174   5.200 -0.0529  0.8273 -1.9723
 2991SOL     OW10413   5.536   0.216   8.322  0.3824  0.4752  0.5442
 2991SOL    HW110414   5.552   0.126   8.349 -2.4166 -0.1524  0.4469
 2991SOL    HW210415   5.456   0.211   8.269  0.4637  2.9539  0.0625
 2992SOL     OW10416   7.111   3.300   3.832  0.2934  0.2186  0.7409
 2992SOL    HW110417   7.047   3.235   3.803  2.7875 -1.7141 -0.8189
 2992SOL    HW210418   7.082   3.382   3.792 -0.7095 -0.7889 -0.6882
 2993SOL     OW10419   2.155   1.139   1.828  0.3978  0.1365 -0.0472
 2993SOL    HW110420   2.078   1.125   1.773  0.5892 -1.8092  0.0817
 2993SOL    HW210421   2.127   1.111   1.915  1.2284 -0.6555 -0.0145
 2994SOL     OW10422   6.238   4.039   2.412  0.1775 -0.3093 -0.5314
 2994SOL    HW110423   6.214   4.055   2.321  0.0175 -0.0665 -0.4483
 2994SOL    HW210424   6.154   4.031   2.458  0.2189  1.7484 -0.0243
 2995SOL     OW10425   3.553   7.817   9.526 -0.5535  0.2232  0.3523
 2995SOL    HW110426   3.458   7.809   9.533 -0.5552  0.8679  1.2235
 2995SOL    HW210427   3.583   7.729   9.505 -1.3296 -0.0129  0.1926
 2996SOL     OW10428   7.555   5.406  11.326 -0.3140  0.1688  0.1528
 2996SOL    HW110429   7.609   5.480  11.299 -0.8209  1.2814  2.0308
 2996SOL    HW210430   7.613   5.350  11.377 -0.7033  1.0082  1.5716
 2997SOL     OW10431   0.330   2.651  11.969 -0.3107 -0.2241  0.5779
 2997SOL    HW110432   0.396   2.590  11.938 -2.0495 -2.0226  0.2448
 2997SOL    HW210433   0.285   2.680  11.890  0.3581  1.4207  0.7485
 2998SOL     OW10434   6.874   5.041   3.739 -0.1702  0.4457  0.6505
 2998SOL    HW110435   6.833   5.074   3.659  0.5194  1.4856  0.6984
 2998SOL    HW210436   6.812   5.061   3.809 -0.3529  0.4120  0.4978
 2999SOL     OW10437   0.515   4.942   5.149  0.1637  0.2297  0.1883
 2999SOL    HW110438   0.424   4.945   5.181 -0.1179  0.6758 -0.6263
 2999SOL    HW210439   0.530   5.030   5.114  0.5463 -0.1725 -0.6705
 3000SOL     OW10440   4.883   2.647   2.549 -0.0785 -0.1490  0.0423
 3000SOL    HW110441   4.910   2.572   2.603  1.2491 -1.3875 -2.1763
 3000SOL    HW210442   4.933   2.637   2.468 -0.6967  2.5723 -0.7632
 3001SOL     OW10443   4.365   5.818   6.244  0.3408 -0.4284  0.1511
 3001SOL    HW110444   4.280   5.793   6.280  0.3289  1.3040  1.4433
 3001SOL    HW210445   4.356   5.911   6.222  1.2748 -0.7098 -1.6861
 3002SOL     OW10446   4.919   7.506   7.639 -0.0357 -0.6405  0.1789
 3002SOL    HW110447   4.898   7.598   7.657 -0.8169 -0.9658  0.9991
 3002SOL    HW210448   4.971   7.478   7.714  1.7093 -0.4061 -0.8897
 3003SOL     OW10449   3.807   2.972   3.644 -0.2558 -0.8791  0.5586
 3003SOL    HW110450   3.871   3.041   3.662  1.7650 -2.1959 -1.0841
 3003SOL    HW210451   3.838   2.897   3.695  0.7669 -2.1389 -1.7771
 3004SOL     OW10452   2.654   7.341   0.905  0.1857 -0.0877 -0.5072
 3004SOL    HW110453   2.748   7.335   0.920  0.0773 -1.4288 -0.1743
 3004SOL    HW210454   2.615   7.311   0.987 -0.5536  1.3531 -0.3091
 3005SOL     OW10455   7.741   6.964  11.278  0.5238  0.2162 -0.2446
 3005SOL    HW110456   7.691   6.991  11.356 -0.6786 -0.5638 -0.7226
 3005SOL    HW210457   7.831   6.988  11.299 -0.0171  1.6326  0.6736
 3006SOL     OW10458   2.664   2.035   4.871  0.1353  0.7946  0.3245
 3006SOL    HW110459   2.645   1.959   4.926 -1.6238  1.4766  0.7166
 3006SOL    HW210460   2.755   2.057   4.892  0.0404  0.0247  1.6990
 3007SOL     OW10461   4.037   6.186   1.073 -0.2495 -0.5126  0.4058
 3007SOL    HW110462   3.998   6.195   0.986  1.7796 -0.0278 -0.5095
 3007SOL    HW210463   3.965   6.203   1.133 -1.1152  2.1719 -1.1960
 3008SOL     OW10464   7.500   7.203   2.082  0.1303 -0.1790  0.2958
 3008SOL    HW110465   7.517   7.189   1.989  1.3213  1.3784  0.2468
 3008SOL    HW210466   7.439   7.277   2.085 -0.6492 -0.8155  0.7496
 3009SOL     OW10467   4.619   0.446   7.873  0.5777  0.2447 -0.0193
 3009SOL    HW110468   4.604   0.442   7.778  0.5430 -1.7396  0.0317
 3009SOL    HW210469   4.567   0.520   7.902 -0.3317  0.1970 -1.4064
 3010SOL     OW10470   7.286   0.659   0.296 -0.1574 -0.1868 -0.2301
 3010SOL    HW110471   7.347   0.710   0.242 -0.9340 -1.4364 -2.4581
 3010SOL    HW210472   7.209   0.715   0.307 -0.5773 -0.4261 -1.7393
 3011SOL     OW10473   5.943   0.982   9.072  0.2857 -0.7077  0.1967
 3011SOL    HW110474   5.859   0.938   9.066  0.0465 -0.1899 -0.3332
 3011SOL    HW210475   6.006   0.920   9.036 -0.0927 -0.5080 -0.8293
 3012SOL     OW10476   4.694   2.629   2.225 -0.5481  0.0328 -0.6211
 3012SOL    HW110477   4.784   2.652   2.202 -0.1367 -0.6877  0.2258
 3012SOL    HW210478   4.641   2.698   2.186  0.6667  2.9262  2.4487
 3013SOL     OW10479   1.466   0.444   3.777  0.1980  0.3626  0.1459
 3013SOL    HW110480   1.482   0.491   3.859 -1.5082  1.0674  0.1129
 3013SOL    HW210481   1.376   0.467   3.754  1.0743  1.3567 -2.6752
 3014SOL     OW10482   6.538   0.746   7.457  0.3827  0.5291 -0.3359
 3014SOL    HW110483   6.603   0.799   7.410  1.2285 -0.9737 -0.9521
 3014SOL    HW210484   6.501   0.689   7.390 -0.0828 -0.0618  0.4114
 3015SOL     OW10485   1.799   3.393   1.017 -0.1530 -0.2706 -0.3898
 3015SOL    HW110486   1.726   3.404   0.956 -0.6301 -3.2229 -0.5032
 3015SOL    HW210487   1.839   3.310   0.992  0.4199 -0.9811  2.5202
 3016SOL     OW10488   3.381   4.145  10.166  0.7088  0.3542  0.8028
 3016SOL    HW110489   3.354   4.054  10.180  2.8091 -0.2773  1.1918
 3016SOL    HW210490   3.299   4.194  10.160 -0.5220 -1.7313 -0.7347
 3017SOL     OW10491   5.353   5.344   6.014 -0.3949 -0.1384  0.0820
 3017SOL    HW110492   5.401   5.405   6.069 -1.1255 -0.9476  1.6834
 3017SOL    HW210493   5.301   5.399   5.955  0.7101  0.7412 -0.0990
 3018SOL     OW10494   6.545   4.827   1.836  0.1564  0.2390 -0.4171
 3018SOL    HW110495   6.598   4.754   1.804 -0.1034 -0.2177  0.1765
 3018SOL    HW210496   6.541   4.888   1.762  0.1922 -0.4442 -0.9948
 3019SOL     OW10497   2.558   4.937   2.808  0.6208  0.1204  0.1301
 3019SOL    HW110498   2.633   4.981   2.768 -0.1959  2.0834  0.6774
 3019SOL    HW210499   2.544   4.983   2.891 -2.0845  0.8151 -0.6155
 3020SOL     OW10500   2.659   4.680   2.785 -0.5443  0.7821 -0.2781
 3020SOL    HW110501   2.624   4.643   2.704 -1.3213  1.0357 -0.0754
 3020SOL    HW210502   2.620   4.768   2.789  0.5188  1.2714 -0.2814
 3021SOL     OW10503   3.421   0.166   6.482  0.0738  0.5824  0.7242
 3021SOL    HW110504   3.503   0.202   6.449  0.1222 -0.3380 -0.1999
 3021SOL    HW210505   3.432   0.164   6.577  0.1946  2.6638  0.8076
 3022SOL     OW10506   0.579   4.814   2.970  0.0653  0.6670 -0.2633
 3022SOL    HW110507   0.650   4.759   2.937 -0.9611  0.5962 -2.4664
 3022SOL    HW210508   0.609   4.903   2.953 -0.0550  0.6668 -0.4657
 3023SOL     OW10509   3.754   6.984   5.441  0.8647 -0.2082  0.6890
 3023SOL    HW110510   3.770   6.989   5.347  0.3903 -0.6986  0.5772
 3023SOL    HW210511   3.842   6.980   5.480  1.0573 -0.4138  0.2423
 3024SOL     OW10512   1.756   7.367   6.210 -0.2279 -0.2214  0.5372
 3024SOL    HW110513   1.774   7.449   6.256 -0.3528 -0.2249  0.5904
 3024SOL    HW210514   1.706   7.394   6.133 -0.9900 -0.3378  0.9870
 3025SOL     OW10515   5.827   2.841   4.171  0.6340  0.2119 -0.7973
 3025SOL    HW110516   5.887   2.892   4.226  0.9020  1.4447 -2.1672
 3025SOL    HW210517   5.762   2.806   4.232 -0.4636  3.4876  0.1243
 3026SOL     OW10518   5.630   7.434   2.561  0.1657  0.2420  0.3596
 3026SOL    HW110519   5.572   7.445   2.636  0.7077 -0.2725  0.8687
 3026SOL    HW210520   5.640   7.522   2.525 -0.8326  0.3530  0.3283
 3027SOL     OW10521   0.608   7.129   5.993  0.0168 -0.3128 -0.4115
 3027SOL    HW110522   0.566   7.145   6.077  1.0504  1.3951 -0.1682
 3027SOL    HW210523   0.555   7.179   5.930  2.0008  2.5996  0.0231
 3028SOL     OW10524   6.313   4.165   4.752  0.0556 -0.1565 -0.2953
 3028SOL    HW110525   6.378   4.233   4.736 -0.5589  0.6862  0.6675
 3028SOL    HW210526   6.335   4.131   4.839 -1.6310  1.1695  0.7094
 3029SOL     OW10527   0.368   3.422   9.339  0.0742 -0.5330 -0.3072
 3029SOL    HW110528   0.367   3.411   9.434 -0.8998 -1.4456 -0.4113
 3029SOL    HW210529   0.277   3.416   9.312  0.2273  0.6364 -1.2245
 3030SOL     OW10530   5.981   5.558   6.821 -0.0673  0.6096 -0.3375
 3030SOL    HW110531   5.997   5.494   6.890 -0.2247  1.1856  0.2501
 3030SOL    HW210532   5.899   5.601   6.847 -0.1817  0.7671 -0.9374
 3031SOL     OW10533   7.462   3.775   4.806 -0.2158 -0.3683  0.0094
 3031SOL    HW110534   7.443   3.798   4.897  0.3421  0.5751 -0.0941
 3031SOL    HW210535   7.417   3.842   4.754  0.6584 -0.0367 -0.3422
 3032SOL     OW10536   4.927   5.810   2.383  0.2038 -0.1022  0.0455
 3032SOL    HW110537   4.928   5.719   2.413  0.9012 -0.5447 -1.2325
 3032SOL    HW210538   4.840   5.842   2.405 -0.2693 -1.2799 -0.0525
 3033SOL     OW10539   1.171   6.850   1.638  0.1263 -0.4509 -0.1447
 3033SOL    HW110540   1.243   6.794   1.611  0.8175  1.1660 -1.9033
 3033SOL    HW210541   1.135   6.884   1.556  0.6790  2.7778  0.8008
 3034SOL     OW10542   2.491   3.364   2.792  0.2068  0.1819 -0.4774
 3034SOL    HW110543   2.409   3.333   2.831  1.6547 -1.0053  1.8572
 3034SOL    HW210544   2.520   3.292   2.736  0.2976  0.0575 -0.2707
 3035SOL     OW10545   2.492   6.359   3.940  0.2245 -0.0004  0.0550
 3035SOL    HW110546   2.488   6.330   4.032 -0.8664  1.2552  0.4332
 3035SOL    HW210547   2.578   6.400   3.932  0.7237 -0.9727  0.2319
 3036SOL     OW10548   1.498   2.091   1.054 -0.3301 -0.7499 -0.0125
 3036SOL    HW110549   1.403   2.086   1.044 -0.3801  2.8123 -4.2277
 3036SOL    HW210550   1.533   2.025   0.994 -0.2215 -0.1334 -0.6389
 3037SOL     OW10551   1.921   1.046   4.096  0.0653  0.5408 -0.4763
 3037SOL    HW110552   1.887   1.102   4.026 -1.9142 -0.4204 -0.3316
 3037SOL    HW210553   1.920   1.102   4.174  1.7850  1.4521 -1.0494
 3038SOL     OW10554   2.495   5.241   8.520 -0.2003  0.0775  0.3966
 3038SOL    HW110555   2.489   5.266   8.428 -0.3234  0.1433  0.4235
 3038SOL    HW210556   2.451   5.311   8.567  2.1463  1.4399  0.7194
 3039SOL     OW10557   7.029   3.904   3.988 -0.8449  0.3887  0.2297
 3039SOL    HW110558   7.099   3.865   3.937  0.4872  2.5545  0.2602
 3039SOL    HW210559   6.991   3.970   3.930 -1.9558  0.1954  0.7094
 3040SOL     OW10560   7.610   0.820   1.964 -0.7250 -0.2575 -0.6782
 3040SOL    HW110561   7.666   0.782   1.896 -0.5706 -1.9129  0.3118
 3040SOL    HW210562   7.555   0.747   1.994 -0.6926  0.3783  1.0679
 3041SOL     OW10563   1.921   7.553   8.582 -0.5698 -0.1571 -0.3267
 3041SOL    HW110564   1.853   7.567   8.648  0.2933  1.1013  0.3251
 3041SOL    HW210565   1.960   7.639   8.568  1.5633 -0.9936  0.0696
 3042SOL     OW10566   2.905   7.786   4.281 -0.3534  0.4004  0.0416
 3042SOL    HW110567   2.987   7.743   4.305 -1.0394 -1.0946 -0.1808
 3042SOL    HW210568   2.929   7.879   4.271  0.7745  0.4470  2.4917
 3043SOL     OW10569   3.904   3.579   8.521 -0.3367  0.0159  0.7731
 3043SOL    HW110570   3.861   3.528   8.453  3.0166  1.0338 -2.4160
 3043SOL    HW210571   3.989   3.536   8.533  0.6723  2.0884  1.5049
 3044SOL     OW10572   6.100   5.145  10.012  0.2629  0.1425  0.2460
 3044SOL    HW110573   6.103   5.193  10.095 -0.1032  0.7688 -0.0954
 3044SOL    HW210574   6.182   5.166   9.969 -0.2392  1.1496 -0.2657
 3045SOL     OW10575   7.086   5.819   3.296  0.0455  0.2356  0.0176
 3045SOL    HW110576   7.044   5.833   3.211 -0.8917 -1.4944  0.1524
 3045SOL    HW210577   7.156   5.756   3.278 -0.4864 -0.5395  0.5970
 3046SOL     OW10578   2.647   7.459   8.419  0.0219  0.2992 -0.2939
 3046SOL    HW110579   2.579   7.509   8.465 -1.4204  0.4370 -2.4267
 3046SOL    HW210580   2.721   7.460   8.478 -1.0797  2.1195  1.1733
 3047SOL     OW10581   3.772   4.363  11.209 -0.3254 -0.3063  0.6618
 3047SOL    HW110582   3.791   4.269  11.200  0.6130 -0.0392 -0.2176
 3047SOL    HW210583   3.840   4.396  11.267  1.1156  0.3631 -1.3204
 3048SOL     OW10584   5.862   4.675  11.698  0.4387  0.5918  0.1130
 3048SOL    HW110585   5.848   4.606  11.633  1.6524  0.0622  0.3959
 3048SOL    HW210586   5.870   4.629  11.782 -0.5971  1.2288  0.5870
 3049SOL     OW10587   1.933   4.474   0.071  0.0425  0.2638 -0.0230
 3049SOL    HW110588   1.890   4.459  -0.013 -1.2648  0.5521  0.5635
 3049SOL    HW210589   1.976   4.559   0.060  0.6405 -0.1132 -0.6820
 3050SOL     OW10590   0.150   4.321   2.291 -0.9544 -0.1660 -0.1902
 3050SOL    HW110591   0.163   4.398   2.235  0.0438 -0.3221 -0.1864
 3050SOL    HW210592   0.058   4.327   2.318 -0.8497  1.1268 -0.0390
 3051SOL     OW10593   0.842   2.617   6.344  0.7472 -0.5987  0.0813
 3051SOL    HW110594   0.904   2.573   6.286 -2.2730 -4.0718 -0.8715
 3051SOL    HW210595   0.830   2.704   6.305  3.7472 -0.3184 -0.4807
 3052SOL     OW10596   3.314   6.395  10.290 -0.1525 -0.2831  0.1282
 3052SOL    HW110597   3.358   6.462  10.342  0.7652 -1.0133  0.3266
 3052SOL    HW210598   3.273   6.443  10.218 -0.5082  0.6125  0.9148
 3053SOL     OW10599   3.358   1.044   1.712 -0.5127 -0.0731 -0.4247
 3053SOL    HW110600   3.400   1.011   1.792 -0.7530  0.0241 -0.2566
 3053SOL    HW210601   3.420   1.022   1.642  0.3071  0.9762 -0.0618
 3054SOL     OW10602   1.824   3.623   2.746  0.1578  0.1595  0.0795
 3054SOL    HW110603   1.731   3.620   2.766 -0.2473  2.8772 -0.9530
 3054SOL    HW210604   1.837   3.553   2.681 -1.6821  1.1013 -1.4247
 3055SOL     OW10605   3.194   1.140   6.626 -0.0336 -0.2312 -0.7805
 3055SOL    HW110606   3.190   1.070   6.561 -0.5352 -0.6570 -0.3018
 3055SOL    HW210607   3.168   1.098   6.708 -3.9362  1.2241 -1.0763
 3056SOL     OW10608   5.417   1.925   7.632  0.2840  0.0147 -0.3698
 3056SOL    HW110609   5.493   1.867   7.624  1.1065  1.2556 -1.9612
 3056SOL    HW210610   5.416   1.976   7.551 -0.3863  2.2710  0.9766
 3057SOL     OW10611   2.376   3.448   8.525  0.6238 -0.4264  0.6682
 3057SOL    HW110612   2.435   3.518   8.495 -1.2067  0.6821 -0.5247
 3057SOL    HW210613   2.293   3.467   8.482 -1.0178 -1.1592  3.3322
 3058SOL     OW10614   3.068   7.383   1.773  0.4922  0.1631 -0.1306
 3058SOL    HW110615   3.072   7.360   1.681 -0.3904  2.0076 -0.6953
 3058SOL    HW210616   2.988   7.435   1.781  0.1378 -0.5851  1.8380
 3059SOL     OW10617   3.585   0.951  11.929 -0.2975 -0.3050 -0.7897
 3059SOL    HW110618   3.573   0.920  12.019 -3.6431 -0.3227 -1.1188
 3059SOL    HW210619   3.532   1.030  11.924  0.8778  0.4241 -2.4267
 3060SOL     OW10620   0.912   0.343   6.732 -0.0901 -0.2612  0.2628
 3060SOL    HW110621   0.827   0.380   6.710  0.8100  0.9237 -1.5212
 3060SOL    HW210622   0.914   0.341   6.827 -3.2755 -3.2451  0.4686
 3061SOL     OW10623   2.962   6.588   5.559  0.2248 -0.1777  0.0643
 3061SOL    HW110624   2.901   6.594   5.632  1.3726 -1.4857  1.1620
 3061SOL    HW210625   2.919   6.528   5.497  0.3056 -0.9554  0.7511
 3062SOL     OW10626   4.587   0.792  10.471 -0.3302 -0.0672  0.3092
 3062SOL    HW110627   4.539   0.759  10.546 -2.4746  1.5930 -0.2073
 3062SOL    HW210628   4.531   0.862  10.436  2.2708  1.6767 -0.6725
 3063SOL     OW10629   6.964   2.738  11.064  0.2706  0.0250  0.3126
 3063SOL    HW110630   6.910   2.681  11.119  1.7804 -1.0291  0.7747
 3063SOL    HW210631   6.910   2.816  11.051 -1.0469 -0.6502  1.3707
 3064SOL     OW10632   3.083   0.030   1.415  0.2116 -0.5926  0.6524
 3064SOL    HW110633   3.023   0.041   1.489 -0.5643  0.0450 -0.0495
 3064SOL    HW210634   3.129   0.113   1.409  0.1219 -0.5664  0.2963
 3065SOL     OW10635   2.067   0.360  12.261  0.1534  0.2498 -0.4788
 3065SOL    HW110636   2.052   0.366  12.167  0.1335 -0.0525 -0.4961
 3065SOL    HW210637   2.150   0.311  12.268 -1.0598 -1.9179 -0.2885
 3066SOL     OW10638   7.056   6.412   7.637  0.4113 -0.1342 -0.3262
 3066SOL    HW110639   7.092   6.479   7.695 -0.8827 -0.2956  0.7011
 3066SOL    HW210640   7.094   6.330   7.669  0.2710 -0.1442 -0.1884
 3067SOL     OW10641   0.256   3.456   1.513  0.0096 -0.2925  0.6528
 3067SOL    HW110642   0.315   3.499   1.450 -1.4843 -0.8554 -1.2353
 3067SOL    HW210643   0.175   3.506   1.508 -1.4645 -2.6240 -0.9247
 3068SOL     OW10644   7.793   1.806  11.500  0.1430  0.4188  0.1953
 3068SOL    HW110645   7.722   1.761  11.545  0.4167 -1.4367 -1.0765
 3068SOL    HW210646   7.762   1.816  11.410  1.4475 -0.4609 -0.3929
 3069SOL     OW10647   5.354   3.572   5.458 -0.2163 -0.1869 -0.4378
 3069SOL    HW110648   5.406   3.510   5.408 -1.1591 -0.5418 -1.0155
 3069SOL    HW210649   5.325   3.522   5.534 -0.3808 -0.2369 -0.5333
 3070SOL     OW10650   4.293   0.678   1.202  0.0004 -0.4477 -0.2896
 3070SOL    HW110651   4.246   0.597   1.222  0.6536 -1.2894 -1.9560
 3070SOL    HW210652   4.224   0.741   1.182 -0.4907 -1.1778 -0.9654
 3071SOL     OW10653   6.180   0.456   5.605 -0.1020  0.1256  0.0030
 3071SOL    HW110654   6.264   0.491   5.637 -0.1694  0.6618 -0.3916
 3071SOL    HW210655   6.182   0.473   5.511  0.8139 -2.9033 -0.6260
 3072SOL     OW10656   2.331   0.332   3.852 -0.3244 -0.5344  0.5266
 3072SOL    HW110657   2.255   0.289   3.812  0.5082  0.2710 -2.1750
 3072SOL    HW210658   2.404   0.311   3.793  0.9915  0.8544  1.5848
 3073SOL     OW10659   1.969   7.245   3.663  0.6268  0.1079 -0.0418
 3073SOL    HW110660   1.934   7.159   3.688 -1.3549  0.8774  0.0473
 3073SOL    HW210661   2.032   7.266   3.732 -0.7795 -0.1722  1.3843
 3074SOL     OW10662   4.520   6.264  10.988  0.0164  0.2488 -0.5963
 3074SOL    HW110663   4.448   6.313  11.027  1.2250  0.7305  1.1540
 3074SOL    HW210664   4.487   6.174  10.983 -0.5879  0.3806  0.5438
 3075SOL     OW10665   6.615   2.136   3.637  0.1268 -0.2395 -0.2040
 3075SOL    HW110666   6.709   2.148   3.624  0.3277 -1.6017 -0.1586
 3075SOL    HW210667   6.596   2.183   3.718  0.8169 -0.1755 -0.0686
 3076SOL     OW10668   2.168   2.050   2.303  0.2473 -0.3968 -0.2606
 3076SOL    HW110669   2.218   2.131   2.314 -0.0036 -0.1646 -0.7759
 3076SOL    HW210670   2.148   2.021   2.392  2.5899 -1.3208  0.0572
 3077SOL     OW10671   2.192   0.987   8.875 -0.2019 -0.0731  0.2857
 3077SOL    HW110672   2.130   0.997   8.803  1.3781  0.0269 -1.1190
 3077SOL    HW210673   2.251   1.062   8.867  0.0536 -0.0985  1.6603
 3078SOL     OW10674   3.436   4.988   0.984  0.7069 -0.0422 -0.0924
 3078SOL    HW110675   3.500   4.961   1.049 -1.2823  1.4382  2.7227
 3078SOL    HW210676   3.445   5.084   0.980 -0.4890  0.0697 -0.5608
 3079SOL     OW10677   6.002   0.129   5.366 -0.2831  0.0796 -0.3865
 3079SOL    HW110678   5.976   0.158   5.454 -1.8980 -1.9064 -0.1327
 3079SOL    HW210679   6.004   0.210   5.314 -0.2805  1.1657  1.2302
 3080SOL     OW10680   6.696   4.700  11.971 -0.4099 -0.0963 -0.1086
 3080SOL    HW110681   6.709   4.610  12.001 -0.4148  0.3658  1.3061
 3080SOL    HW210682   6.667   4.748  12.048 -3.6098  0.4804 -1.5190
 3081SOL     OW10683   0.220   4.577   7.315  0.0365  0.2682 -0.1535
 3081SOL    HW110684   0.253   4.515   7.380 -0.4458 -0.8529 -0.9393
 3081SOL    HW210685   0.125   4.560   7.312  0.0188  0.4741 -0.9582
 3082SOL     OW10686   6.336   3.159   9.329  0.2437 -0.6948 -0.6645
 3082SOL    HW110687   6.395   3.085   9.347 -0.7528 -2.0780 -2.7048
 3082SOL    HW210688   6.276   3.126   9.262 -0.5199  1.8464 -1.3447
 3083SOL     OW10689   7.780   5.355  11.009  0.2807 -0.3325 -0.2177
 3083SOL    HW110690   7.705   5.299  11.028  0.6721 -0.1091  2.2520
 3083SOL    HW210691   7.749   5.412  10.938 -1.7653 -0.4952  0.4873
 3084SOL     OW10692   3.213   4.797   9.528 -0.3511  0.4930 -0.3835
 3084SOL    HW110693   3.229   4.833   9.440 -0.9053 -0.6424 -0.9767
 3084SOL    HW210694   3.196   4.874   9.583  0.4716  1.2537 -1.1623
 3085SOL     OW10695   6.668   3.042   2.205 -0.0431 -0.4121 -0.0840
 3085SOL    HW110696   6.643   3.127   2.240  0.9563 -0.4232  0.7140
 3085SOL    HW210697   6.617   2.979   2.256 -1.2840 -0.2886 -1.1252
 3086SOL     OW10698   3.214   1.323   3.857 -0.0869 -0.1136 -0.1839
 3086SOL    HW110699   3.125   1.358   3.856 -0.8877 -1.9603 -2.0256
 3086SOL    HW210700   3.234   1.308   3.949 -1.0541  1.7731  0.3692
 3087SOL     OW10701   5.817   1.804   6.480  0.0366 -0.1367  0.6671
 3087SOL    HW110702   5.752   1.844   6.538 -1.2397 -0.7878 -0.2515
 3087SOL    HW210703   5.807   1.709   6.494  1.5657 -0.2276  1.2998
 3088SOL     OW10704   6.887   0.895   2.390 -0.4921 -0.3552  0.0845
 3088SOL    HW110705   6.812   0.928   2.440  1.1869  0.4799  2.1736
 3088SOL    HW210706   6.919   0.820   2.441  0.4633 -0.3238 -0.4416
 3089SOL     OW10707   3.373   0.227   8.055 -0.1373  0.3026 -0.1669
 3089SOL    HW110708   3.468   0.230   8.042 -0.2342  0.4116 -0.8390
 3089SOL    HW210709   3.351   0.313   8.092 -0.0869  0.5751 -0.7633
 3090SOL     OW10710   0.661   4.000   6.285  0.3209 -0.3819  0.1644
 3090SOL    HW110711   0.715   3.982   6.208  1.0992 -2.7820  1.1843
 3090SOL    HW210712   0.575   3.964   6.264  0.7229 -1.6688  0.6224
 3091SOL     OW10713   6.506   1.883   7.676  0.1632 -0.2289 -0.2838
 3091SOL    HW110714   6.502   1.901   7.582 -1.9610  0.0597 -0.1902
 3091SOL    HW210715   6.450   1.950   7.715 -0.0845 -1.1718  1.0410
 3092SOL     OW10716   0.063   0.321   2.694  0.3988  0.3273  0.0284
 3092SOL    HW110717   0.133   0.377   2.661 -0.8228  1.2169 -1.1614
 3092SOL    HW210718   0.010   0.379   2.749 -0.6785  0.2939 -0.9279
 3093SOL     OW10719   3.327   3.648  11.604  0.0660 -0.6286  0.5276
 3093SOL    HW110720   3.301   3.560  11.633  2.1535 -1.4686  0.0081
 3093SOL    HW210721   3.328   3.642  11.508  1.5147 -0.4757  0.5101
 3094SOL     OW10722   2.551   0.117   8.051 -0.2097 -0.1387 -0.0212
 3094SOL    HW110723   2.471   0.171   8.048  0.4614  0.8715 -0.0527
 3094SOL    HW210724   2.601   0.153   8.125  0.2295 -0.7572 -0.0125
 3095SOL     OW10725   3.423   7.008   7.113 -0.0073  0.1539  0.1278
 3095SOL    HW110726   3.478   6.937   7.079  0.0300 -0.0207  0.5516
 3095SOL    HW210727   3.443   7.083   7.057 -1.4858 -0.6674 -1.5885
 3096SOL     OW10728   6.682   5.318  10.586 -0.1062 -0.0993  0.1042
 3096SOL    HW110729   6.766   5.281  10.612  0.1566  1.5222  1.7536
 3096SOL    HW210730   6.700   5.361  10.502  0.3590 -0.8837 -0.2140
 3097SOL     OW10731   4.299   4.191  10.793  0.3306 -0.9608  0.6527
 3097SOL    HW110732   4.356   4.263  10.822  0.8948 -0.6304 -1.1483
 3097SOL    HW210733   4.293   4.133  10.869  1.9822 -0.3248  1.3208
 3098SOL     OW10734   0.544   0.363   9.557  0.2124  0.2589 -0.0333
 3098SOL    HW110735   0.605   0.299   9.594  1.6182  2.8062  2.4935
 3098SOL    HW210736   0.473   0.369   9.621  0.1803  1.2793 -0.1448
 3099SOL     OW10737   5.469   7.078   4.586 -0.1872 -0.6712 -0.3216
 3099SOL    HW110738   5.406   7.079   4.657 -1.1991  0.0683 -1.1900
 3099SOL    HW210739   5.553   7.099   4.627 -1.0734  1.7825  0.3778
 3100SOL     OW10740   2.121   4.231   4.507 -0.5705  0.1799  0.0414
 3100SOL    HW110741   2.094   4.302   4.565 -0.2081  0.7799 -0.5065
 3100SOL    HW210742   2.041   4.207   4.460 -0.6130  0.4948 -0.0499
 3101SOL     OW10743   0.638   1.933   5.500  0.0312 -0.8632  0.0717
 3101SOL    HW110744   0.649   2.020   5.538  0.7119 -0.2929 -1.3355
 3101SOL    HW210745   0.566   1.944   5.437  0.1303 -1.3050 -0.1249
 3102SOL     OW10746   2.135   7.914   5.977 -0.1130  0.1487  0.1899
 3102SOL    HW110747   2.085   7.849   5.928  0.3735 -0.8906  1.0379
 3102SOL    HW210748   2.113   7.897   6.069  0.9571  0.3809  0.5009
 3103SOL     OW10749   1.633   1.981   0.842  0.1446 -0.1103  0.0753
 3103SOL    HW110750   1.652   1.903   0.789 -2.2462 -1.4686  1.0772
 3103SOL    HW210751   1.610   2.048   0.777  1.0628 -0.5441 -0.7410
 3104SOL     OW10752   7.526   0.199  10.040 -0.4731  0.0768  0.5383
 3104SOL    HW110753   7.506   0.287  10.009 -2.8827 -0.3889  0.5853
 3104SOL    HW210754   7.620   0.202  10.059 -0.6060  2.8484  1.2769
 3105SOL     OW10755   4.154   7.604   7.829 -0.1362 -0.4952 -0.2378
 3105SOL    HW110756   4.243   7.577   7.852 -0.2213 -0.0437  0.6913
 3105SOL    HW210757   4.138   7.566   7.743  0.4015 -1.8438  0.2341
 3106SOL     OW10758   6.469   5.013  11.758 -0.5597 -0.4328  0.4393
 3106SOL    HW110759   6.506   5.073  11.823 -0.7742  0.0176  0.1522
 3106SOL    HW210760   6.541   4.994  11.698 -0.4929 -0.4565  0.5272
 3107SOL     OW10761   6.613   5.759   4.432  0.2414 -0.4972 -0.1918
 3107SOL    HW110762   6.518   5.746   4.437  0.0818  0.1960 -1.0581
 3107SOL    HW210763   6.625   5.851   4.452  0.4668  0.0079 -2.3553
 3108SOL     OW10764   2.157   0.675   2.760 -0.6212  0.4199 -0.3879
 3108SOL    HW110765   2.066   0.697   2.779  0.1376  1.3138  2.8931
 3108SOL    HW210766   2.169   0.588   2.797  0.0584  0.6950  0.0680
 3109SOL     OW10767   4.466   2.001   1.053 -0.0823 -0.4652 -0.3334
 3109SOL    HW110768   4.446   2.094   1.046 -3.4335 -0.9817  0.5419
 3109SOL    HW210769   4.444   1.965   0.967  0.1356 -0.6151 -0.3268
 3110SOL     OW10770   2.789   5.482  11.696  0.0838  0.3321  0.1780
 3110SOL    HW110771   2.790   5.555  11.634 -0.3723 -0.1292 -0.3856
 3110SOL    HW210772   2.745   5.517  11.773  1.4322  1.1807  0.6039
 3111SOL     OW10773   5.238   5.515   1.194 -0.4657  0.6020 -0.0644
 3111SOL    HW110774   5.179   5.581   1.158 -2.3109 -1.1597 -0.4407
 3111SOL    HW210775   5.183   5.438   1.206  0.7181  0.1497  3.7683
 3112SOL     OW10776   1.604   4.172   1.255  0.7250 -0.1429 -1.3960
 3112SOL    HW110777   1.524   4.136   1.216 -1.2250  1.7762  0.5446
 3112SOL    HW210778   1.614   4.124   1.337  1.4153 -0.1709 -1.4915
 3113SOL     OW10779   0.247   4.497   9.370  0.4904 -0.4643  0.4776
 3113SOL    HW110780   0.270   4.577   9.418 -0.0692  1.8716 -2.7721
 3113SOL    HW210781   0.328   4.474   9.324 -0.2850  0.5937 -1.5379
 3114SOL     OW10782   5.048   4.021  10.485  0.3310 -0.6581 -0.3393
 3114SOL    HW110783   5.094   3.941  10.458 -0.4867 -0.6104 -1.9569
 3114SOL    HW210784   4.956   4.005  10.461 -0.4594 -0.5168  2.2762
 3115SOL     OW10785   4.873   1.244   1.903 -0.5039 -0.3424  0.5395
 3115SOL    HW110786   4.878   1.152   1.876  0.2550  0.2645 -1.6242
 3115SOL    HW210787   4.949   1.285   1.862 -1.2084  1.3818  0.8734
 3116SOL     OW10788   0.977   2.913   1.474 -0.2115  0.1222  0.3808
 3116SOL    HW110789   1.017   3.000   1.481 -0.4658  0.5746 -2.3961
 3116SOL    HW210790   1.050   2.856   1.449 -0.4997  0.0877 -0.4026
 3117SOL     OW10791   0.918   5.333   8.675  0.1973  0.1636  0.0818
 3117SOL    HW110792   0.857   5.329   8.748 -0.8971  0.4750 -0.7907
 3117SOL    HW210793   0.952   5.422   8.677 -0.5945  0.4833 -0.3816
 3118SOL     OW10794   1.530   4.321   8.632  0.2631  0.3169  0.1731
 3118SOL    HW110795   1.580   4.355   8.557 -0.0513  0.9547  0.2420
 3118SOL    HW210796   1.540   4.226   8.627  1.7430  0.4487  0.3722
 3119SOL     OW10797   1.916   1.673  11.829 -0.2680  0.5085 -0.1704
 3119SOL    HW110798   1.981   1.666  11.899  1.0562  2.2016 -1.1765
 3119SOL    HW210799   1.964   1.653  11.749 -1.2186  0.8837 -0.8549
 3120SOL     OW10800   4.753   1.937   5.940 -0.2228  0.1740  0.4158
 3120SOL    HW110801   4.719   2.011   5.991 -0.5072 -0.8848  1.8387
 3120SOL    HW210802   4.711   1.860   5.979  1.2503 -0.8729  0.0094
 3121SOL     OW10803   4.049   2.949   2.181  0.0234  0.2279 -0.0261
 3121SOL    HW110804   4.056   2.921   2.272  0.2420 -1.6068 -0.5630
 3121SOL    HW210805   3.967   2.998   2.177  0.4702  1.1368  1.3323
 3122SOL     OW10806   7.557   6.880   8.777 -0.4701  0.0292  0.2544
 3122SOL    HW110807   7.648   6.900   8.756 -0.1838 -0.6639  0.7950
 3122SOL    HW210808   7.556   6.869   8.872 -1.2777  0.8202  0.3472
 3123SOL     OW10809   3.850   4.681   0.182  0.6489 -0.3195 -0.2367
 3123SOL    HW110810   3.834   4.770   0.152  0.4571  0.0926  1.0196
 3123SOL    HW210811   3.924   4.689   0.243 -0.1146 -0.8041  0.7967
 3124SOL     OW10812   6.878   3.479   8.361 -0.7077  0.2305  0.1228
 3124SOL    HW110813   6.939   3.528   8.417 -0.3365 -0.5564  0.4228
 3124SOL    HW210814   6.797   3.475   8.412 -0.5341 -0.0346  0.3775
 3125SOL     OW10815   0.432   0.488   3.556 -0.1271  0.1506  0.2629
 3125SOL    HW110816   0.483   0.483   3.475 -0.1261 -1.0197  0.3259
 3125SOL    HW210817   0.481   0.549   3.610  0.2361  0.4273 -0.3626
 3126SOL     OW10818   1.645   4.469  11.661  0.6045  0.3858 -0.0483
 3126SOL    HW110819   1.716   4.525  11.629 -0.3772  0.9849 -1.2337
 3126SOL    HW210820   1.643   4.486  11.755  1.3834  1.1206 -0.1440
 3127SOL     OW10821   3.702   2.545   6.076  0.1501 -0.8482 -0.4935
 3127SOL    HW110822   3.666   2.631   6.053 -0.3313 -1.0615 -0.5641
 3127SOL    HW210823   3.671   2.530   6.165  0.2775 -0.9273 -0.4631
 3128SOL     OW10824   4.045   2.403   2.531 -0.1566  0.3670  1.5063
 3128SOL    HW110825   4.059   2.456   2.609  1.5724 -0.2504  1.6468
 3128SOL    HW210826   4.112   2.432   2.469  0.2930 -1.0822  1.2898
 3129SOL     OW10827   2.152   3.218  10.796 -0.4537  0.1094 -0.0039
 3129SOL    HW110828   2.199   3.253  10.871 -0.3416  0.5114 -0.2582
 3129SOL    HW210829   2.081   3.280  10.780 -1.7775 -1.0539  1.0550
 3130SOL     OW10830   3.630   4.016   2.935  0.6786 -0.5144  0.1399
 3130SOL    HW110831   3.656   4.033   3.026 -0.4207  0.7465  0.2639
 3130SOL    HW210832   3.534   4.012   2.939  0.4253  2.0479 -1.2876
 3131SOL     OW10833   1.525   2.146   4.324  0.3384  0.0441 -0.0103
 3131SOL    HW110834   1.495   2.231   4.291  2.1839  0.6448 -0.2421
 3131SOL    HW210835   1.598   2.166   4.382 -0.2771 -1.2995  1.3147
 3132SOL     OW10836   4.164   7.771  11.627  0.0247 -0.0461 -0.1028
 3132SOL    HW110837   4.085   7.776  11.681 -0.2874  0.2940 -0.5828
 3132SOL    HW210838   4.235   7.753  11.689 -0.0400  2.1291  0.6909
 3133SOL     OW10839   2.796   4.767   0.021 -0.2017  0.2574  0.3668
 3133SOL    HW110840   2.710   4.781   0.062  0.0853 -0.0650  1.1121
 3133SOL    HW210841   2.776   4.734  -0.067 -0.8399  0.6889  0.3469
 3134SOL     OW10842   5.872   4.777   6.752  0.6877  0.5297  0.4972
 3134SOL    HW110843   5.788   4.802   6.714  0.6902 -0.3927 -0.1465
 3134SOL    HW210844   5.913   4.860   6.778  1.4487  1.4659 -3.0874
 3135SOL     OW10845   0.255   0.372   7.032  0.4389  0.5450 -0.6513
 3135SOL    HW110846   0.284   0.463   7.030 -0.0621  0.6934 -2.3051
 3135SOL    HW210847   0.173   0.375   7.082  1.2964  0.7042  0.7953
 3136SOL     OW10848   2.328   3.163   6.210  0.3935  0.3632  0.2171
 3136SOL    HW110849   2.292   3.112   6.283  0.6742  0.2152  0.2528
 3136SOL    HW210850   2.422   3.145   6.212  0.4446  0.6024  0.0093
 3137SOL     OW10851   5.794   2.546  11.097 -0.0188  0.1586 -0.4678
 3137SOL    HW110852   5.816   2.499  11.017 -2.1194 -0.5488 -0.6822
 3137SOL    HW210853   5.851   2.508  11.164  0.3698 -0.6199 -1.2290
 3138SOL     OW10854   3.242   7.890   6.875 -0.6947  0.2957  0.4733
 3138SOL    HW110855   3.331   7.872   6.845 -2.0738 -3.1486 -2.1921
 3138SOL    HW210856   3.195   7.917   6.797 -2.1883  1.5037  1.7228
 3139SOL     OW10857   6.607   3.602   8.734  0.2819 -0.2818  0.8334
 3139SOL    HW110858   6.674   3.567   8.675  0.3513 -0.5935  1.0920
 3139SOL    HW210859   6.597   3.534   8.801  1.1070  0.6056  1.8920
 3140SOL     OW10860   0.091   6.711  10.386  0.0776 -0.1306 -0.0719
 3140SOL    HW110861   0.107   6.677  10.299 -0.6769 -1.1704  0.1692
 3140SOL    HW210862   0.058   6.800  10.372 -0.7646 -0.5573 -0.8923
 3141SOL     OW10863   3.333   5.867  11.855 -0.3101  0.1189  0.8578
 3141SOL    HW110864   3.307   5.775  11.853 -0.7514  0.2562 -0.4118
 3141SOL    HW210865   3.275   5.911  11.793 -0.7311  1.4436  2.1147
 3142SOL     OW10866   1.007   7.348   7.079  0.0471 -0.0305  0.1402
 3142SOL    HW110867   0.943   7.346   7.150 -0.6143 -1.4813 -0.4684
 3142SOL    HW210868   0.977   7.419   7.021 -0.0843  0.3570  0.6784
 3143SOL     OW10869   1.886   0.405   7.921  0.3906 -0.3863  0.1652
 3143SOL    HW110870   1.966   0.355   7.907 -0.6618 -1.8334 -1.1088
 3143SOL    HW210871   1.898   0.485   7.871  0.7509 -0.9374 -0.6527
 3144SOL     OW10872   0.211   5.731   3.681  0.0656 -0.6870 -0.0613
 3144SOL    HW110873   0.137   5.779   3.645  0.2536 -0.9683 -0.8334
 3144SOL    HW210874   0.268   5.799   3.718  1.0529 -0.1127 -2.4482
 3145SOL     OW10875   2.087   7.535   0.346  0.2788 -0.2172  0.0850
 3145SOL    HW110876   2.097   7.630   0.333 -0.7930  0.1177  1.5141
 3145SOL    HW210877   2.177   7.502   0.345  0.7914  1.0502  1.0951
 3146SOL     OW10878   1.270   5.288   5.970 -0.5768 -0.0726 -0.1840
 3146SOL    HW110879   1.355   5.256   5.940 -0.5190 -0.5183  0.4187
 3146SOL    HW210880   1.206   5.228   5.930 -0.4893 -0.7674  0.6893
 3147SOL     OW10881   7.204   3.257  10.092  0.0074  0.5001  0.6054
 3147SOL    HW110882   7.214   3.339  10.141 -0.6963  0.0833  1.4737
 3147SOL    HW210883   7.224   3.188  10.155 -0.0040 -0.0248  0.0476
 3148SOL     OW10884   6.603   2.353   2.988 -0.0388 -0.2369  0.1752
 3148SOL    HW110885   6.619   2.316   3.075  1.7252  0.0722  0.0115
 3148SOL    HW210886   6.613   2.448   3.000 -1.0818 -0.0688 -0.1264
 3149SOL     OW10887   6.225   2.349   6.296  0.4442  0.4397  0.0628
 3149SOL    HW110888   6.280   2.272   6.310 -0.3246 -0.2564 -0.6488
 3149SOL    HW210889   6.270   2.398   6.228  1.1548  0.8461  0.8118
 3150SOL     OW10890   0.937   1.492   9.516 -0.6604 -0.0652 -0.0203
 3150SOL    HW110891   0.989   1.538   9.450 -1.4623 -1.0132 -1.3809
 3150SOL    HW210892   0.882   1.560   9.555 -1.8408  0.2126 -2.0081
 3151SOL     OW10893   2.536   4.694   8.180  0.5381 -0.1707 -0.1599
 3151SOL    HW110894   2.611   4.687   8.121  2.6601 -0.7531  2.3979
 3151SOL    HW210895   2.509   4.604   8.196  0.4925 -0.0749  0.3313
 3152SOL     OW10896   4.105   0.110  11.183  0.5873  0.3251 -0.2623
 3152SOL    HW110897   4.101   0.033  11.125  2.6792  0.7980 -1.1182
 3152SOL    HW210898   4.137   0.075  11.266 -0.8228 -0.0836  0.1416
 3153SOL     OW10899   5.706   5.681   6.774  0.5300 -0.7337  0.2626
 3153SOL    HW110900   5.693   5.606   6.717  0.5348 -1.7037  1.4857
 3153SOL    HW210901   5.701   5.645   6.863  3.9854  0.0625  0.9178
 3154SOL     OW10902   1.954   4.578  10.470  0.5332 -0.2259  0.6809
 3154SOL    HW110903   1.975   4.583  10.563  0.4693  0.7365  0.6590
 3154SOL    HW210904   2.028   4.621  10.427  0.7358 -0.9938  0.2546
 3155SOL     OW10905   4.073   0.245   7.272  0.3983  0.0831  0.3405
 3155SOL    HW110906   4.128   0.175   7.237  0.6274  0.1359  0.5940
 3155SOL    HW210907   4.134   0.309   7.308  0.2278  0.8914 -0.7581
 3156SOL     OW10908   5.169   6.190   3.773 -0.3788  0.5736 -0.5392
 3156SOL    HW110909   5.264   6.188   3.775 -0.3511  1.2312 -0.9480
 3156SOL    HW210910   5.143   6.101   3.749  0.1603  0.6296 -1.3712
 3157SOL     OW10911   2.976   7.612   1.071  0.4656 -0.0758 -0.4658
 3157SOL    HW110912   2.970   7.648   1.159  1.7093 -0.6718 -0.1053
 3157SOL    HW210913   3.029   7.674   1.022 -0.2888  0.2941 -0.8299
 3158SOL     OW10914   2.350   1.900   9.789 -0.1529  0.1511  0.7085
 3158SOL    HW110915   2.388   1.812   9.782 -1.5801 -0.5022  0.7491
 3158SOL    HW210916   2.382   1.934   9.872  2.7503  0.8684 -0.5885
 3159SOL     OW10917   6.756   1.690   2.616 -0.0590  0.1802  0.3218
 3159SOL    HW110918   6.750   1.781   2.584  1.0512  0.6426  1.3531
 3159SOL    HW210919   6.703   1.640   2.555 -1.8669  1.7318  0.5423
 3160SOL     OW10920   5.936   5.818  11.629 -0.6660 -0.2418 -0.2407
 3160SOL    HW110921   5.986   5.788  11.706 -1.0008 -0.0612  0.0514
 3160SOL    HW210922   5.929   5.912  11.640 -0.2127 -0.1404 -0.7999
 3161SOL     OW10923   1.590   6.319   0.861  0.6206 -0.1143 -0.1531
 3161SOL    HW110924   1.548   6.261   0.925  0.5510  0.2243  0.1141
 3161SOL    HW210925   1.575   6.277   0.777 -1.2681  0.5677 -0.2147
 3162SOL     OW10926   1.462   7.354   6.620  0.3506 -0.6882  0.1720
 3162SOL    HW110927   1.461   7.273   6.568  0.5190 -0.6817  0.1580
 3162SOL    HW210928   1.456   7.424   6.555 -1.0719 -0.7154  0.2563
 3163SOL     OW10929   4.807   7.517   4.134  0.2330 -0.3739 -0.3432
 3163SOL    HW110930   4.808   7.464   4.214  1.3650 -0.0885 -0.1575
 3163SOL    HW210931   4.897   7.546   4.123  0.3033 -1.1946 -2.2651
 3164SOL     OW10932   3.582   5.759   5.683 -0.1074 -0.0332  0.0432
 3164SOL    HW110933   3.653   5.757   5.748  0.2646 -0.2265 -0.3575
 3164SOL    HW210934   3.574   5.668   5.654 -0.0130  0.1131 -0.4513
 3165SOL     OW10935   4.000   0.756   8.256  0.6905  0.3468 -0.3868
 3165SOL    HW110936   4.007   0.742   8.351 -2.0032 -1.1773 -0.3233
 3165SOL    HW210937   4.085   0.728   8.222  1.3200 -0.1474  1.4839
 3166SOL     OW10938   7.591   3.605   4.617 -0.4449 -0.5091  0.1521
 3166SOL    HW110939   7.573   3.668   4.687 -1.1221 -0.5998  0.0652
 3166SOL    HW210940   7.647   3.652   4.556  0.8800 -0.6957  1.1625
 3167SOL     OW10941   5.232   3.019  11.577 -0.6687  0.0411 -0.2075
 3167SOL    HW110942   5.142   3.051  11.584 -1.2068 -1.3445 -0.2964
 3167SOL    HW210943   5.276   3.081  11.519 -1.0244  1.8092  1.3483
 3168SOL     OW10944   7.079   7.741   5.011 -0.9590  0.1008  0.6283
 3168SOL    HW110945   6.994   7.782   4.990 -0.5664  0.8582  0.4720
 3168SOL    HW210946   7.062   7.647   5.008 -1.3206  0.1959 -1.4841
 3169SOL     OW10947   5.194   2.074   2.738  0.7133  0.0383 -0.3144
 3169SOL    HW110948   5.246   1.995   2.745  1.5304  0.6059  0.2623
 3169SOL    HW210949   5.234   2.135   2.800 -0.6014  0.5197  0.1006
 3170SOL     OW10950   2.179   1.695   4.691  0.2275  0.1256  0.3613
 3170SOL    HW110951   2.231   1.616   4.706 -1.4794 -1.8420 -2.7694
 3170SOL    HW210952   2.092   1.673   4.724 -0.6758 -0.0571 -1.9407
 3171SOL     OW10953   2.521   0.894   3.424 -0.1268  0.1694 -0.0376
 3171SOL    HW110954   2.586   0.876   3.356  1.1485 -0.9235  1.4033
 3171SOL    HW210955   2.547   0.837   3.497 -2.5286 -0.0610  0.7041
 3172SOL     OW10956   0.702   5.696   5.348  0.4663 -0.4640  0.2167
 3172SOL    HW110957   0.738   5.623   5.399 -0.0515 -0.3264  0.7954
 3172SOL    HW210958   0.779   5.743   5.316  0.8612 -2.1190 -1.4712
 3173SOL     OW10959   1.815   2.566   8.730  0.3639  0.0062 -0.2518
 3173SOL    HW110960   1.825   2.552   8.636 -1.6012 -2.5340 -0.2181
 3173SOL    HW210961   1.861   2.492   8.770  0.7412  0.7759  0.7539
 3174SOL     OW10962   0.887   3.143   7.356 -0.2723  0.5273  0.3768
 3174SOL    HW110963   0.858   3.082   7.288 -1.4512 -0.2302  1.5023
 3174SOL    HW210964   0.858   3.229   7.325  2.1157  0.7077 -1.6210
 3175SOL     OW10965   1.392   6.489   4.196  0.1085 -0.1397  0.6191
 3175SOL    HW110966   1.307   6.523   4.225  1.3645  2.1864  1.8099
 3175SOL    HW210967   1.416   6.545   4.121 -0.1134 -1.8718 -0.8140
 3176SOL     OW10968   6.537   7.079  11.572 -0.0208  0.0092  0.1467
 3176SOL    HW110969   6.534   7.055  11.480  0.4709 -0.9172  0.3626
 3176SOL    HW210970   6.446   7.075  11.601  0.0301 -1.5214  0.1455
 3177SOL     OW10971   3.698   0.440  12.320 -0.1454  0.6918  0.3420
 3177SOL    HW110972   3.671   0.450  12.229 -0.5749 -0.3450  0.3367
 3177SOL    HW210973   3.663   0.517  12.364  0.5017  1.4628 -0.4532
 3178SOL     OW10974   0.821   7.378   0.627 -0.3797  0.0056 -0.0428
 3178SOL    HW110975   0.831   7.338   0.713 -0.3653  1.3232  0.5993
 3178SOL    HW210976   0.758   7.449   0.640 -2.3689 -1.3328 -1.6927
 3179SOL     OW10977   1.844   7.152   3.048 -0.4359  0.0536 -0.5320
 3179SOL    HW110978   1.924   7.178   3.094 -0.6881 -2.4290  1.5322
 3179SOL    HW210979   1.811   7.234   3.011  0.9790  1.8957  1.8879
 3180SOL     OW10980   2.993   0.809   2.248  0.2170 -0.2270  0.1893
 3180SOL    HW110981   2.930   0.785   2.179  1.6605 -1.0199 -0.9206
 3180SOL    HW210982   2.943   0.805   2.329 -0.9933 -1.5439 -0.5758
 3181SOL     OW10983   5.782   4.083  12.145  0.1521  0.5032 -0.2566
 3181SOL    HW110984   5.691   4.056  12.135  0.9426 -3.2173  0.9933
 3181SOL    HW210985   5.786   4.125  12.231 -0.1134 -1.1287  0.5939
 3182SOL     OW10986   4.134   5.860   0.572 -0.6795  0.1103 -0.1208
 3182SOL    HW110987   4.076   5.936   0.572 -0.3597  0.4977 -3.5635
 3182SOL    HW210988   4.208   5.886   0.626 -2.0767  0.9089  1.5012
 3183SOL     OW10989   1.394   0.872  11.181  0.2003 -0.1848 -0.0275
 3183SOL    HW110990   1.399   0.931  11.256 -2.2326 -1.1096  0.9370
 3183SOL    HW210991   1.350   0.923  11.113  0.0454 -0.1949  0.0655
 3184SOL     OW10992   3.663   1.549   9.805 -0.4752 -0.2609 -0.0121
 3184SOL    HW110993   3.736   1.598   9.766 -0.3540 -0.5087 -0.1015
 3184SOL    HW210994   3.589   1.565   9.746 -0.5184  0.0686  0.1304
 3185SOL     OW10995   3.122   7.623  11.925  0.5044 -0.7372  0.1548
 3185SOL    HW110996   3.127   7.568  12.003  0.7354 -0.8377  0.0719
 3185SOL    HW210997   3.109   7.711  11.959 -0.9402 -0.9692  0.2521
 3186SOL     OW10998   3.601   5.723   7.307 -0.1269  0.0057  0.3088
 3186SOL    HW110999   3.583   5.770   7.389 -2.6778 -0.3750  0.0450
 3186SOL    HW211000   3.682   5.763   7.274  0.3457  0.9530  2.4088
 3187SOL     OW11001   3.471   5.959   2.449  0.2512  0.1996  0.5235
 3187SOL    HW111002   3.519   5.974   2.531  0.1502  1.2005  0.4121
 3187SOL    HW211003   3.429   5.874   2.461  0.7117  0.0748  1.2836
 3188SOL     OW11004   0.749   1.686   4.676 -0.0850 -0.3104  0.0911
 3188SOL    HW111005   0.670   1.639   4.702  1.5938 -3.1297  0.5295
 3188SOL    HW211006   0.765   1.747   4.748 -1.0168 -0.8108  0.7453
 3189SOL     OW11007   0.647   0.130  11.900  0.0207  0.3929  0.2612
 3189SOL    HW111008   0.638   0.160  11.990  0.9913  1.5517 -0.0074
 3189SOL    HW211009   0.627   0.036  11.904 -1.1730  0.6667  1.4482
 3190SOL     OW11010   4.310   7.302   7.462  0.4421 -0.0549 -0.0367
 3190SOL    HW111011   4.326   7.379   7.408  0.0016  0.5499  0.6774
 3190SOL    HW211012   4.394   7.256   7.464  0.9414  0.8485  0.2215
 3191SOL     OW11013   5.438   5.469   0.077  0.1128  0.4344  0.4871
 3191SOL    HW111014   5.390   5.447  -0.003 -0.0550  2.0222  0.1271
 3191SOL    HW211015   5.382   5.439   0.148  0.0494 -0.5676  0.0380
 3192SOL     OW11016   3.522   6.525   9.892 -0.1123  0.0208 -0.1531
 3192SOL    HW111017   3.590   6.556   9.832 -0.6870  1.4988 -0.0826
 3192SOL    HW211018   3.558   6.541   9.979  0.1799 -0.8898 -0.1010
 3193SOL     OW11019   1.818   6.839   0.392 -0.0706  0.0964  0.2494
 3193SOL    HW111020   1.810   6.914   0.451 -1.4197 -0.7413  1.1900
 3193SOL    HW211021   1.906   6.804   0.409 -0.4221 -0.0955  1.7201
 3194SOL     OW11022   1.676   5.861  10.140 -0.2801  0.3736  0.4057
 3194SOL    HW111023   1.613   5.824  10.079 -0.0717 -0.1047  0.4780
 3194SOL    HW211024   1.622   5.898  10.210 -0.5584  1.7040 -0.4836
 3195SOL     OW11025   7.491   1.457   9.888 -0.6104  0.0758 -0.2569
 3195SOL    HW111026   7.443   1.418   9.960 -3.5210  1.9281 -0.9907
 3195SOL    HW211027   7.560   1.509   9.930  0.0918 -1.7184  0.9148
 3196SOL     OW11028   7.436   7.323   6.478  0.0231  0.1484  0.1176
 3196SOL    HW111029   7.432   7.291   6.388 -0.2440  1.7951 -0.4855
 3196SOL    HW211030   7.429   7.418   6.470  0.6344  0.3698  1.8408
 3197SOL     OW11031   4.871   0.509   1.146  0.2095 -0.3910 -0.1675
 3197SOL    HW111032   4.939   0.492   1.081  0.0067 -1.7859 -0.0567
 3197SOL    HW211033   4.856   0.424   1.187  0.1322  0.3969  1.5215
 3198SOL     OW11034   4.142   1.619   4.840  0.3696  0.0199  0.5459
 3198SOL    HW111035   4.098   1.634   4.923  0.4573 -0.8338  0.7517
 3198SOL    HW211036   4.156   1.707   4.804 -0.6966  0.3389  0.8872
 3199SOL     OW11037   1.287   4.217  11.170 -0.2469  0.2466 -0.1225
 3199SOL    HW111038   1.351   4.218  11.241  1.4965 -1.9442 -1.5566
 3199SOL    HW211039   1.212   4.170  11.206  0.6664 -0.9513  0.2717
 3200SOL     OW11040   6.000   7.809   3.016  0.0743  0.0407  0.1280
 3200SOL    HW111041   6.035   7.813   3.105 -0.6252  0.5846  0.3757
 3200SOL    HW211042   6.056   7.744   2.973  0.7670  0.1677  0.7998
 3201SOL     OW11043   3.873   0.111   7.385 -0.0149  0.8630  0.0187
 3201SOL    HW111044   3.870   0.034   7.327 -1.4808 -0.0279  1.1810
 3201SOL    HW211045   3.946   0.163   7.352  1.6525 -1.4618 -0.2825
 3202SOL     OW11046   3.569   1.832   8.589  0.0728  0.5310  0.0332
 3202SOL    HW111047   3.629   1.774   8.635 -0.9961 -0.1986  0.5522
 3202SOL    HW211048   3.532   1.779   8.518 -1.2850  0.3790  0.8093
 3203SOL     OW11049   2.477   3.381   1.290 -0.0693 -0.2230  0.0546
 3203SOL    HW111050   2.539   3.309   1.281  1.2526  0.7512  0.9265
 3203SOL    HW211051   2.399   3.341   1.327  0.6077 -1.2199  0.4490
 3204SOL     OW11052   7.131   1.354   9.930  0.4134 -0.0053 -0.7770
 3204SOL    HW111053   7.044   1.349   9.970  1.3712  0.4279  1.5178
 3204SOL    HW211054   7.155   1.446   9.935  1.8126 -0.4080  0.5387
 3205SOL     OW11055   5.155   0.167   6.404 -0.0115 -0.0783 -0.8522
 3205SOL    HW111056   5.208   0.090   6.427  1.7357  1.2531 -0.2225
 3205SOL    HW211057   5.115   0.194   6.487  0.8056  0.7152 -0.7074
 3206SOL     OW11058   2.808   1.839   7.394 -0.1027 -0.2163  0.0468
 3206SOL    HW111059   2.853   1.923   7.398  1.2200 -0.9219  1.2076
 3206SOL    HW211060   2.828   1.797   7.478 -1.6250 -1.2481 -0.0702
 3207SOL     OW11061   6.534   2.453   4.799 -0.5037 -0.0793  0.6456
 3207SOL    HW111062   6.469   2.512   4.762  0.6649  0.3668 -0.7897
 3207SOL    HW211063   6.511   2.446   4.891 -2.3061  0.4029  0.2577
 3208SOL     OW11064   6.710   3.334   8.038  0.7304  0.3550  0.2806
 3208SOL    HW111065   6.690   3.258   7.983  0.0805 -0.9134  2.1472
 3208SOL    HW211066   6.805   3.331   8.050  0.5554 -1.4495  1.9292
 3209SOL     OW11067   4.114   6.644   8.916  0.0627 -0.1156  0.4172
 3209SOL    HW111068   4.206   6.619   8.912 -0.3025 -1.4057 -0.9959
 3209SOL    HW211069   4.092   6.668   8.825 -0.7023  1.3404  0.9506
 3210SOL     OW11070   7.325   0.753   2.492 -0.3794  0.0834 -0.1692
 3210SOL    HW111071   7.410   0.729   2.455  0.4606  0.2557  1.5944
 3210SOL    HW211072   7.283   0.669   2.511 -0.4591  0.0023 -0.6801
 3211SOL     OW11073   2.939   3.249  12.006 -0.1396  0.4826  0.3636
 3211SOL    HW111074   2.948   3.196  11.926  3.1448  0.5403  0.5629
 3211SOL    HW211075   2.924   3.185  12.076  0.6294  0.1007  0.1833
 3212SOL     OW11076   1.008   1.785   7.000 -0.3200  0.0482  0.5374
 3212SOL    HW111077   0.941   1.718   6.983 -0.4108  0.4584 -0.8313
 3212SOL    HW211078   0.966   1.867   6.975  1.6220  0.0431 -3.4508
 3213SOL     OW11079   6.619   7.248   7.342 -0.4777  0.0759  0.3654
 3213SOL    HW111080   6.561   7.324   7.347  0.8865  1.1190  1.1191
 3213SOL    HW211081   6.704   7.281   7.370  0.9877 -0.9236 -2.5012
 3214SOL     OW11082   0.943   1.342   7.203 -0.1442  0.6354 -0.2903
 3214SOL    HW111083   0.892   1.407   7.251 -0.4628 -0.2017  0.5489
 3214SOL    HW211084   0.891   1.261   7.211  1.0729 -0.1230  0.1678
 3215SOL     OW11085   1.057   7.305   7.640 -0.1186 -0.1876 -0.3589
 3215SOL    HW111086   0.979   7.260   7.610 -0.5316 -1.0958  1.8787
 3215SOL    HW211087   1.117   7.235   7.666 -0.0841  0.4951  1.5379
 3216SOL     OW11088   7.179   0.920   3.134  0.1013  0.3028  0.0243
 3216SOL    HW111089   7.121   0.852   3.101 -3.3117  1.9961  2.0349
 3216SOL    HW211090   7.164   0.995   3.076  0.5019  0.6755  0.3902
 3217SOL     OW11091   6.788   6.794  11.568 -0.0672  0.8763 -0.4513
 3217SOL    HW111092   6.835   6.735  11.626  0.1988  0.7429 -0.7976
 3217SOL    HW211093   6.767   6.739  11.491  1.0434  1.4787 -1.2155
 3218SOL     OW11094   2.249   3.987   3.916 -0.1856 -0.2049  0.8347
 3218SOL    HW111095   2.164   4.023   3.890  0.2584  1.4801  1.5563
 3218SOL    HW211096   2.234   3.953   4.004  0.0171  0.6607  1.2127
 3219SOL     OW11097   7.554   4.207   2.803 -0.3867  0.4328  0.6333
 3219SOL    HW111098   7.534   4.244   2.717  1.3385 -0.0910 -0.0377
 3219SOL    HW211099   7.474   4.161   2.828 -0.9907  0.7644 -0.6077
 3220SOL     OW11100   7.729   4.123   4.139  0.1885 -0.6559 -0.1502
 3220SOL    HW111101   7.805   4.115   4.197  0.8799  0.3376 -0.8817
 3220SOL    HW211102   7.656   4.091   4.190  1.0561 -1.3640  0.6813
 3221SOL     OW11103   4.041   7.081   0.886 -0.3066  0.6023  0.0236
 3221SOL    HW111104   4.051   7.005   0.944  0.6920  0.2350 -0.6102
 3221SOL    HW211105   3.976   7.053   0.821 -0.8159  0.7193  0.4811
 3222SOL     OW11106   4.316   7.860   2.727 -0.0395  0.5481 -0.2173
 3222SOL    HW111107   4.221   7.851   2.719 -0.0518  1.2166 -0.9446
 3222SOL    HW211108   4.351   7.811   2.653  0.2830 -1.1476  0.9925
 3223SOL     OW11109   0.417   6.936   2.380  0.3542  0.4948 -0.3701
 3223SOL    HW111110   0.474   6.956   2.305  0.5980  2.1402  0.2182
 3223SOL    HW211111   0.476   6.936   2.456 -0.3389  1.8047  0.1916
 3224SOL     OW11112   6.714   6.762   9.696  0.0909  0.5348 -0.0765
 3224SOL    HW111113   6.705   6.828   9.765 -0.8290  0.3706 -0.0334
 3224SOL    HW211114   6.625   6.734   9.677  0.2566  0.9733 -1.7197
 3225SOL     OW11115   7.305   7.160   0.571 -0.2613 -0.4211 -0.4644
 3225SOL    HW111116   7.225   7.107   0.571 -0.0578 -0.7555 -1.6453
 3225SOL    HW211117   7.333   7.161   0.662 -1.6002 -0.3212 -0.0335
 3226SOL     OW11118   4.421   0.934  11.327  0.3030 -0.3022 -0.2017
 3226SOL    HW111119   4.358   0.877  11.371 -0.9912  2.0918  1.2687
 3226SOL    HW211120   4.375   0.964  11.249  0.6253 -0.5168 -0.4778
 3227SOL     OW11121   0.340   4.132   9.445 -0.1246  0.0170 -0.3145
 3227SOL    HW111122   0.345   4.208   9.387 -1.7992  0.8893  0.5919
 3227SOL    HW211123   0.427   4.123   9.482  0.2452  1.1751 -0.8586
 3228SOL     OW11124   1.425   2.501   7.281 -0.1505  0.2311  0.2849
 3228SOL    HW111125   1.440   2.560   7.206  1.0938 -0.2933  0.1085
 3228SOL    HW211126   1.461   2.548   7.356 -1.0516  0.5851  0.5182
 3229SOL     OW11127   3.232   4.357   7.076 -0.5549  0.2276 -0.2432
 3229SOL    HW111128   3.309   4.391   7.121  1.4189 -3.8118 -0.1165
 3229SOL    HW211129   3.166   4.346   7.145  0.0743  0.3161  0.3817
 3230SOL     OW11130   6.557   0.433   0.759 -0.3957 -0.1545  0.2884
 3230SOL    HW111131   6.604   0.350   0.753  0.7920  0.4678  0.5645
 3230SOL    HW211132   6.564   0.457   0.852 -0.2254  0.5211  0.1074
 3231SOL     OW11133   2.862   5.269   1.234 -0.1911 -0.0243 -0.6684
 3231SOL    HW111134   2.818   5.353   1.216 -0.9186 -0.1949  0.2235
 3231SOL    HW211135   2.792   5.211   1.262  0.6515 -0.1034  1.5036
 3232SOL     OW11136   6.177   4.389   5.047  0.9411  0.6107 -0.0082
 3232SOL    HW111137   6.164   4.449   4.974  0.3317  0.0765 -0.3479
 3232SOL    HW211138   6.099   4.400   5.101  1.6015  1.3414  0.8135
 3233SOL     OW11139   5.962   7.783   2.149 -0.2205  0.6344  0.3038
 3233SOL    HW111140   6.056   7.795   2.156 -0.2313  0.0225  2.6724
 3233SOL    HW211141   5.951   7.688   2.138 -0.5543  0.8604 -1.6081
 3234SOL     OW11142   2.620   1.671   1.097 -0.4480  0.6858  0.0293
 3234SOL    HW111143   2.657   1.619   1.026 -0.2770  1.7282 -0.6653
 3234SOL    HW211144   2.619   1.612   1.173 -0.5491 -0.4086 -0.8061
 3235SOL     OW11145   1.722   7.811  10.200  0.1592  0.3342 -0.4206
 3235SOL    HW111146   1.644   7.815  10.145  0.2231  2.6227 -0.4527
 3235SOL    HW211147   1.787   7.765  10.146 -0.5202  0.3545 -1.2711
 3236SOL     OW11148   0.908   5.903   6.300 -0.2125 -0.2774  0.3164
 3236SOL    HW111149   0.916   5.843   6.226  2.7795  1.4618 -0.9275
 3236SOL    HW211150   0.864   5.980   6.264  0.8557  0.4042  0.4428
 3237SOL     OW11151   3.926   6.716   2.942  0.3208  0.0611 -0.7341
 3237SOL    HW111152   3.869   6.649   2.904 -0.4534 -0.3810  1.1023
 3237SOL    HW211153   3.948   6.682   3.029 -0.2996  2.2979  0.3461
 3238SOL     OW11154   2.169   5.247   3.195  0.2456  0.3695  0.3137
 3238SOL    HW111155   2.082   5.209   3.180 -0.4246  2.2760 -1.1858
 3238SOL    HW211156   2.159   5.299   3.274  0.7742 -1.3671  1.5711
 3239SOL     OW11157   2.156   2.145  10.146 -0.1584  0.6641  0.3366
 3239SOL    HW111158   2.091   2.079  10.170 -1.9802  1.7890 -1.2714
 3239SOL    HW211159   2.125   2.226  10.186 -0.1635  1.3633 -1.0149
 3240SOL     OW11160   7.849   0.634   2.029  0.0560  0.6499  0.1910
 3240SOL    HW111161   7.848   0.645   1.934  1.0282  2.4069  0.3438
 3240SOL    HW211162   7.760   0.605   2.050 -1.0959  2.9920 -1.0148
 3241SOL     OW11163   3.342   6.463   3.436  0.1167 -0.3503  0.2783
 3241SOL    HW111164   3.287   6.450   3.513  0.0282  0.2868  0.3280
 3241SOL    HW211165   3.303   6.537   3.390  0.9548  0.1487  0.3440
 3242SOL     OW11166   3.076   6.914   4.449 -0.0674 -0.3073 -0.5060
 3242SOL    HW111167   3.122   6.833   4.427  0.0978  0.1188 -1.8283
 3242SOL    HW211168   3.140   6.983   4.432 -0.6318  0.1789 -0.6709
 3243SOL     OW11169   6.375   4.221   6.589 -0.5631  0.2836  0.1026
 3243SOL    HW111170   6.438   4.291   6.571 -0.6194 -0.0564 -1.5791
 3243SOL    HW211171   6.318   4.220   6.513 -0.8562 -1.2977  0.3033
 3244SOL     OW11172   0.494   1.093   0.234 -0.2806 -0.0339  0.0690
 3244SOL    HW111173   0.529   1.040   0.306  3.5153  0.9587 -0.7763
 3244SOL    HW211174   0.453   1.030   0.175 -0.9529 -1.2107  1.7280
 3245SOL     OW11175   5.132   6.994   7.178  0.8033  0.7588  0.6547
 3245SOL    HW111176   5.074   6.999   7.102  1.4946  0.4623  0.0956
 3245SOL    HW211177   5.097   7.059   7.239 -1.6632 -1.1465  1.4374
 3246SOL     OW11178   7.622   0.381  10.700 -0.9225  0.0058  0.2811
 3246SOL    HW111179   7.570   0.354  10.776  0.8416 -0.0174  1.5452
 3246SOL    HW211180   7.647   0.298  10.659 -3.9503  0.0350 -1.9050
 3247SOL     OW11181   3.066   2.611   6.896 -0.4493 -0.2253  0.1361
 3247SOL    HW111182   3.083   2.535   6.840 -1.3842  0.2785 -0.8838
 3247SOL    HW211183   3.093   2.686   6.843 -2.6101  0.3654 -0.2370
 3248SOL     OW11184   4.954   1.488  11.566  0.6272  0.4254 -0.1422
 3248SOL    HW111185   4.916   1.562  11.614 -1.5823 -0.1042 -0.9554
 3248SOL    HW211186   4.906   1.412  11.598  1.3312 -0.3478 -0.8984
 3249SOL     OW11187   1.540   6.799   5.655 -0.2677 -0.3819 -0.4152
 3249SOL    HW111188   1.593   6.726   5.686  0.1682 -0.4501 -1.2954
 3249SOL    HW211189   1.591   6.837   5.584  1.3361  3.1310  2.3381
 3250SOL     OW11190   5.695   5.429   2.862  0.0063  0.0519  0.0520
 3250SOL    HW111191   5.719   5.476   2.942  0.2704 -0.9226  0.5688
 3250SOL    HW211192   5.752   5.466   2.794 -0.2547  0.9192  0.2991
 3251SOL     OW11193   5.410   1.848   2.721  0.2768 -0.2375  0.5604
 3251SOL    HW111194   5.491   1.898   2.726  0.2344  0.0082 -0.8350
 3251SOL    HW211195   5.437   1.760   2.694  0.0327  0.0000 -0.4748
 3252SOL     OW11196   7.317   5.889   8.149 -0.0167 -0.1270  0.2027
 3252SOL    HW111197   7.296   5.797   8.137 -1.7381  0.0703  1.3633
 3252SOL    HW211198   7.320   5.900   8.244 -3.4933  1.7176  0.2236
 3253SOL     OW11199   7.368   2.247   9.099  0.5287 -0.1134  0.2703
 3253SOL    HW111200   7.304   2.287   9.040  0.5612 -0.7737 -0.2312
 3253SOL    HW211201   7.319   2.178   9.145  0.9791 -0.9427 -0.4627
 3254SOL     OW11202   3.153   3.385  12.166  0.2932  0.3264  0.0642
 3254SOL    HW111203   3.129   3.476  12.150  1.8347  1.2145  2.2330
 3254SOL    HW211204   3.097   3.334  12.108 -0.2749  2.6715 -1.5649
 3255SOL     OW11205   6.276   3.599   8.013  0.0044 -0.0478 -0.2437
 3255SOL    HW111206   6.212   3.668   8.029 -0.1864 -0.1433 -0.6152
 3255SOL    HW211207   6.234   3.539   7.952 -0.8913 -1.9402  2.0662
 3256SOL     OW11208   1.463   7.753   6.927  0.2582 -0.3108  0.1406
 3256SOL    HW111209   1.553   7.752   6.959  1.5214  3.2900 -2.5870
 3256SOL    HW211210   1.459   7.682   6.863  0.3958 -1.8194  1.7117
 3257SOL     OW11211   5.592   3.228   9.143  0.0583 -0.1951  0.4080
 3257SOL    HW111212   5.557   3.297   9.200  0.2517  0.4671 -0.2642
 3257SOL    HW211213   5.685   3.249   9.135 -0.2210  0.5716 -1.2978
 3258SOL     OW11214   1.420   7.802   2.020 -0.5337 -0.3681 -0.2004
 3258SOL    HW111215   1.405   7.810   1.926  0.8938  1.8024 -0.3261
 3258SOL    HW211216   1.501   7.752   2.027 -0.2513  0.0888 -0.1693
 3259SOL     OW11217   2.710   0.640   4.137  0.3230 -0.3251  0.1089
 3259SOL    HW111218   2.742   0.708   4.197  0.0005 -0.8540  0.8827
 3259SOL    HW211219   2.768   0.566   4.152 -0.2226 -0.7116  0.2935
 3260SOL     OW11220   2.830   2.755   4.601 -0.3087 -0.0752 -0.3126
 3260SOL    HW111221   2.763   2.823   4.592 -0.4681 -0.1087  0.5019
 3260SOL    HW211222   2.852   2.731   4.512  0.1529  1.4442 -0.6430
 3261SOL     OW11223   1.658   1.231  11.230 -0.3573 -0.2057 -0.2362
 3261SOL    HW111224   1.587   1.194  11.178  0.6713  0.2118 -1.9998
 3261SOL    HW211225   1.737   1.186  11.199  0.2579 -0.2377  1.2651
 3262SOL     OW11226   3.320   6.001   5.343 -0.0151  0.5275  0.5887
 3262SOL    HW111227   3.250   6.063   5.363  1.1843  1.8967  0.6529
 3262SOL    HW211228   3.362   5.983   5.428 -1.0510 -1.3197  0.7803
 3263SOL     OW11229   3.119   1.425   4.739  0.1338  0.1985 -0.2727
 3263SOL    HW111230   3.186   1.362   4.711  0.3623  0.2779  0.0902
 3263SOL    HW211231   3.042   1.401   4.688  0.8028  0.9372 -1.6775
 3264SOL     OW11232   5.035   6.018   2.262 -0.6555 -0.6101  0.6530
 3264SOL    HW111233   5.085   5.986   2.187  0.2872 -0.4753  1.2198
 3264SOL    HW211234   5.003   5.939   2.306  1.5352 -0.8399  1.9607
 3265SOL     OW11235   5.339   7.628   5.859  0.3079  0.6391  0.7363
 3265SOL    HW111236   5.354   7.587   5.774  1.6364 -4.4078  3.0208
 3265SOL    HW211237   5.399   7.703   5.860 -1.0042  2.0131 -3.2189
 3266SOL     OW11238   4.691   6.165  12.207  0.8058  0.5925 -0.2101
 3266SOL    HW111239   4.757   6.153  12.274  0.6891  2.0546  0.1887
 3266SOL    HW211240   4.608   6.166  12.254  0.6123  0.3222 -0.5341
 3267SOL     OW11241   2.996   5.849   8.225  0.4344  0.0114  0.3431
 3267SOL    HW111242   3.075   5.825   8.177  0.3751 -0.6848  0.5788
 3267SOL    HW211243   3.026   5.866   8.314  0.4857  0.9014  0.1565
 3268SOL     OW11244   5.569   2.259  10.088  0.3238 -0.1394  0.0795
 3268SOL    HW111245   5.521   2.209  10.022 -0.2918  0.8939 -0.2873
 3268SOL    HW211246   5.502   2.286  10.151  0.6979 -0.0331  0.4338
 3269SOL     OW11247   0.338   2.126   2.292  0.0431  0.5163  0.1466
 3269SOL    HW111248   0.360   2.087   2.377 -2.6715 -1.7217 -0.0121
 3269SOL    HW211249   0.254   2.170   2.308 -1.0791 -0.9030 -1.5618
 3270SOL     OW11250   0.563   4.224   2.429 -0.5078  0.3649  0.1139
 3270SOL    HW111251   0.514   4.164   2.373 -1.8843  1.1072  0.4817
 3270SOL    HW211252   0.641   4.175   2.455 -1.0282 -0.8307 -0.5236
 3271SOL     OW11253   1.795   0.772   8.646  0.2840  0.0500  0.1156
 3271SOL    HW111254   1.785   0.800   8.737  0.1211  0.0787  0.0888
 3271SOL    HW211255   1.865   0.707   8.649  0.8275  0.6241  0.1462
 3272SOL     OW11256   4.287   0.733   8.270 -0.3224  0.1639 -0.5840
 3272SOL    HW111257   4.271   0.819   8.309  1.5698 -0.3458  1.5847
 3272SOL    HW211258   4.277   0.672   8.344  3.2436 -0.8961 -0.7874
 3273SOL     OW11259   4.803   1.135  11.966 -0.4540 -0.8974 -0.3157
 3273SOL    HW111260   4.774   1.226  11.975 -0.3395 -0.8859 -0.0621
 3273SOL    HW211261   4.892   1.134  11.999 -1.2140 -1.5443  1.8582
 3274SOL     OW11262   1.047   7.640   6.572 -0.3326 -0.3879 -0.0699
 3274SOL    HW111263   1.110   7.572   6.548  0.4947 -0.1957  1.4481
 3274SOL    HW211264   1.027   7.684   6.489 -0.3951 -2.0430 -0.9768
 3275SOL     OW11265   5.239   5.814   3.380 -0.3866  0.0785  0.3600
 3275SOL    HW111266   5.330   5.807   3.408 -0.4022 -2.1163  0.0441
 3275SOL    HW211267   5.244   5.845   3.289 -0.1006  2.1524  1.0426
 3276SOL     OW11268   5.063   6.402   7.260  0.1955 -0.5108 -0.5356
 3276SOL    HW111269   5.117   6.414   7.182  0.3552  0.2324 -0.3176
 3276SOL    HW211270   4.976   6.436   7.235 -0.0120 -1.1387 -0.6873
 3277SOL     OW11271   7.407   7.034   5.287  0.0557 -0.1696  0.2737
 3277SOL    HW111272   7.359   7.015   5.206  0.9733  0.7241 -0.5054
 3277SOL    HW211273   7.371   7.117   5.318 -0.5497 -0.6936  0.9928
 3278SOL     OW11274   1.311   5.212   3.753 -0.2745  0.2047 -0.1219
 3278SOL    HW111275   1.365   5.156   3.697 -0.2557  1.4031 -1.3459
 3278SOL    HW211276   1.375   5.261   3.805 -0.1825  1.0224 -0.9803
 3279SOL     OW11277   3.624   0.352   1.686 -0.1682  0.1168  0.0673
 3279SOL    HW111278   3.561   0.295   1.643 -1.4337  1.2166  0.4064
 3279SOL    HW211279   3.691   0.368   1.619 -1.4329  0.7621 -1.1059
 3280SOL     OW11280   2.147   7.880   9.859  0.3922 -0.1021  0.2058
 3280SOL    HW111281   2.113   7.956   9.906 -0.2201 -0.5950  0.5623
 3280SOL    HW211282   2.157   7.813   9.926 -1.1058 -1.0254 -0.4513
 3281SOL     OW11283   4.375   2.051  11.001  0.2092  0.6536 -0.1884
 3281SOL    HW111284   4.461   2.024  11.033  0.3449 -0.0855 -1.1402
 3281SOL    HW211285   4.323   1.970  10.999 -0.3233  0.9878 -0.2027
 3282SOL     OW11286   3.747   4.999   7.702  0.0658  0.4243  0.0179
 3282SOL    HW111287   3.820   5.060   7.686 -0.6893  1.3641  0.0472
 3282SOL    HW211288   3.768   4.923   7.648  0.1726  1.4256 -1.4438
 3283SOL     OW11289   7.574   2.242   5.015 -0.0324 -0.1251 -0.0193
 3283SOL    HW111290   7.481   2.248   4.991  0.1027  0.7825 -0.3254
 3283SOL    HW211291   7.584   2.152   5.045 -1.2149  0.0230  0.8772
 3284SOL     OW11292   3.994   2.690   6.750 -0.4899  0.3248 -0.3018
 3284SOL    HW111293   3.900   2.677   6.749 -0.7155  0.8613  2.9594
 3284SOL    HW211294   4.030   2.605   6.777 -0.0966  0.3296 -0.7927
 3285SOL     OW11295   1.794   7.663   6.873  0.1433 -0.5425 -0.2589
 3285SOL    HW111296   1.840   7.746   6.892  0.4520  0.0607 -3.2451
 3285SOL    HW211297   1.838   7.599   6.928  2.4985  0.6098 -0.6795
 3286SOL     OW11298   6.468   5.207   4.789  0.3157  0.1828  0.0875
 3286SOL    HW111299   6.464   5.130   4.846  0.2954  0.6425  0.7218
 3286SOL    HW211300   6.445   5.281   4.846 -0.9813  0.5201 -0.8162
 3287SOL     OW11301   4.274   1.761  10.490 -0.2181 -0.3623  0.5997
 3287SOL    HW111302   4.249   1.852  10.477 -0.6497 -0.6611 -0.7670
 3287SOL    HW211303   4.315   1.760  10.577  1.5892  1.4826 -0.1499
 3288SOL     OW11304   4.770   1.525   8.847  0.1331  0.6779 -0.1006
 3288SOL    HW111305   4.741   1.580   8.774 -1.3618 -1.7017 -1.4753
 3288SOL    HW211306   4.788   1.440   8.807  2.7489  0.1881  1.8310
 3289SOL     OW11307   0.995   6.753   2.010  0.3220 -0.3546 -0.4291
 3289SOL    HW111308   0.953   6.790   2.088  0.9221  1.0025 -0.7187
 3289SOL    HW211309   0.994   6.825   1.946 -0.2523 -1.4760 -1.7214
 3290SOL     OW11310   0.601   4.688   6.417 -0.1192  0.0739 -0.2600
 3290SOL    HW111311   0.695   4.674   6.424 -0.0080 -0.6480 -2.3703
 3290SOL    HW211312   0.591   4.783   6.416  0.3050  0.2161  2.2745
 3291SOL     OW11313   6.469   0.032   7.941 -0.4347  0.3740  0.6360
 3291SOL    HW111314   6.451   0.119   7.978 -2.3209  0.1034  0.4831
 3291SOL    HW211315   6.382  -0.004   7.923  0.3577 -0.5694 -1.5921
 3292SOL     OW11316   3.400   2.149   3.091 -0.3521  0.5103 -0.0758
 3292SOL    HW111317   3.326   2.203   3.062  0.6603  1.7893 -0.3278
 3292SOL    HW211318   3.472   2.174   3.033  0.8245  0.7223  1.4298
 3293SOL     OW11319   0.340   7.128   1.700  0.1726 -0.2617  0.4764
 3293SOL    HW111320   0.280   7.063   1.665  2.3214 -3.4675  2.1939
 3293SOL    HW211321   0.419   7.120   1.647  0.7242  0.4494  1.1476
 3294SOL     OW11322   5.497   2.159   5.060 -0.1074 -0.0190 -0.5293
 3294SOL    HW111323   5.426   2.103   5.094 -0.8148  0.6322 -0.9046
 3294SOL    HW211324   5.457   2.206   4.987  0.5578  0.7731 -0.3921
 3295SOL     OW11325   0.856   7.596   5.982  0.1896  0.7953  0.1059
 3295SOL    HW111326   0.810   7.594   6.066  0.3671  1.9298  0.2538
 3295SOL    HW211327   0.914   7.672   5.989  2.7671 -1.0334  0.2892
 3296SOL     OW11328   7.069   0.203   6.584 -0.3678  0.8067  0.1844
 3296SOL    HW111329   7.007   0.160   6.643  0.2718 -0.8527 -0.3160
 3296SOL    HW211330   7.031   0.192   6.497  0.8287 -0.6527 -0.1820
 3297SOL     OW11331   5.317   7.078   3.046 -0.0324  0.0194  0.0345
 3297SOL    HW111332   5.239   7.121   3.014  0.4071  0.5800 -0.2973
 3297SOL    HW211333   5.389   7.116   2.995  0.5325  0.0035  0.7943
 3298SOL     OW11334   2.486   7.203   5.053  0.1107 -0.0469 -0.3360
 3298SOL    HW111335   2.544   7.252   4.996  1.2102 -1.1623 -0.2212
 3298SOL    HW211336   2.406   7.255   5.057  1.1850  1.6773 -0.2798
 3299SOL     OW11337   1.367   0.321   7.400  0.3216  0.2563  0.2770
 3299SOL    HW111338   1.374   0.365   7.315 -1.3256 -1.4245 -0.8146
 3299SOL    HW211339   1.445   0.348   7.448  1.5973  0.8396 -1.9890
 3300SOL     OW11340   1.234   7.915   9.386  0.5057 -0.5087  0.5895
 3300SOL    HW111341   1.195   7.940   9.302  2.6214  1.3217  0.0518
 3300SOL    HW211342   1.238   7.819   9.383  1.5837 -0.4592 -1.9299
 3301SOL     OW11343   3.220   3.246   7.256 -0.4407 -0.1545 -0.2074
 3301SOL    HW111344   3.146   3.296   7.221 -1.3887 -0.5378  1.1434
 3301SOL    HW211345   3.294   3.306   7.250 -0.9838  0.4629 -1.0301
 3302SOL     OW11346   6.527   7.345   5.415 -0.2273  0.1198 -0.3922
 3302SOL    HW111347   6.568   7.409   5.472  0.6338 -0.3086 -0.5105
 3302SOL    HW211348   6.443   7.327   5.455 -1.5135  2.9683 -1.5263
 3303SOL     OW11349   1.119   3.983   4.429 -0.3156  0.3566  0.1703
 3303SOL    HW111350   1.167   3.948   4.354  0.0983 -2.1023  1.4705
 3303SOL    HW211351   1.029   3.955   4.416 -0.8786  2.4367 -0.7912
 3304SOL     OW11352   4.755   0.690   8.803  0.1295 -0.3644 -0.3954
 3304SOL    HW111353   4.762   0.733   8.889  1.8711  1.6163 -1.4348
 3304SOL    HW211354   4.826   0.626   8.803  0.0933 -0.4048 -0.3546
 3305SOL     OW11355   6.099   1.884   8.640 -0.7490  0.3321  0.0337
 3305SOL    HW111356   6.005   1.891   8.650 -0.9617  1.4058 -2.1829
 3305SOL    HW211357   6.123   1.805   8.688 -2.8668 -0.3647  0.0069
 3306SOL     OW11358   5.107   7.056   1.263 -0.1913 -0.4567 -0.0280
 3306SOL    HW111359   5.048   7.099   1.201  0.5927  0.6815 -0.0113
 3306SOL    HW211360   5.067   7.073   1.349  0.1698  0.3701 -0.0113
 3307SOL     OW11361   4.365   5.149   8.416  0.8712 -0.0527  0.0973
 3307SOL    HW111362   4.359   5.089   8.341  0.9421  0.9804 -0.7664
 3307SOL    HW211363   4.373   5.236   8.376 -0.8979  0.7130  1.2880
 3308SOL     OW11364   5.041   5.008   3.740  0.2419 -0.2312  0.8420
 3308SOL    HW111365   5.079   5.022   3.827 -0.8169 -0.2776  1.3327
 3308SOL    HW211366   4.994   4.925   3.748  3.1223 -2.2095 -0.8535
 3309SOL     OW11367   1.765   7.366   8.996 -0.5671  0.2709  0.2802
 3309SOL    HW111368   1.790   7.452   9.028 -0.2526 -0.0367  0.8813
 3309SOL    HW211369   1.846   7.314   9.002 -0.9758 -0.3172  0.7932
 3310SOL     OW11370   2.410   3.938   5.377 -0.8056  0.3288  0.2549
 3310SOL    HW111371   2.488   3.901   5.419 -0.1656 -0.2746 -1.3777
 3310SOL    HW211372   2.364   3.862   5.342 -0.3613  0.9102 -1.6731
 3311SOL     OW11373   1.970   6.494   8.139  0.4404  0.2604 -0.0407
 3311SOL    HW111374   1.942   6.546   8.064 -0.2298 -0.5094 -0.3357
 3311SOL    HW211375   2.049   6.449   8.109  0.3603  0.2079 -0.1709
 3312SOL     OW11376   4.120   1.779   0.555  0.1423  0.2568 -0.0306
 3312SOL    HW111377   4.116   1.705   0.495  1.6186 -0.5808  0.8650
 3312SOL    HW211378   4.040   1.828   0.537 -0.1588 -0.7548 -1.6498
 3313SOL     OW11379   5.357   2.331   7.031 -0.3984 -0.2013  0.0837
 3313SOL    HW111380   5.315   2.367   6.953  0.5564  1.4974  0.3231
 3313SOL    HW211381   5.304   2.364   7.104 -0.0037  0.0194  0.2686
 3314SOL     OW11382   7.705   7.829   4.517  0.1807 -0.0217 -0.3703
 3314SOL    HW111383   7.694   7.890   4.589  1.6583  0.4070 -0.4796
 3314SOL    HW211384   7.717   7.744   4.559  0.7891  0.1871 -0.1175
 3315SOL     OW11385   1.250   7.743   8.661 -0.1041  0.0578 -0.1825
 3315SOL    HW111386   1.266   7.763   8.753 -0.5585  0.5930 -0.2123
 3315SOL    HW211387   1.333   7.707   8.630  0.1699  0.2142  0.3451
 3316SOL     OW11388   5.591   1.555   2.567  0.3097  0.6078  0.3006
 3316SOL    HW111389   5.668   1.608   2.587  1.2354 -0.6070  0.1380
 3316SOL    HW211390   5.553   1.595   2.488  1.9888  0.0644 -0.8430
 3317SOL     OW11391   7.010   5.859  10.820  0.1279 -0.1252 -0.6354
 3317SOL    HW111392   7.038   5.930  10.763  2.0644 -0.4667 -0.1828
 3317SOL    HW211393   6.936   5.819  10.774 -2.3447  3.3019 -0.0019
 3318SOL     OW11394   4.866   1.159  12.344  0.0948  0.0498  0.1391
 3318SOL    HW111395   4.784   1.116  12.320 -1.4377  0.8457  3.3608
 3318SOL    HW211396   4.922   1.088  12.375 -1.3970 -0.0698  2.8250
 3319SOL     OW11397   5.920   5.253   5.197  0.0208 -0.0246  0.3690
 3319SOL    HW111398   5.847   5.213   5.151 -1.4518  3.1635 -0.3676
 3319SOL    HW211399   5.994   5.247   5.137 -1.1998  1.7503 -1.4206
 3320SOL     OW11400   0.215   6.438   0.923  0.2798 -0.5370  0.1627
 3320SOL    HW111401   0.192   6.511   0.865 -4.0026 -1.0151  0.9243
 3320SOL    HW211402   0.191   6.469   1.011  1.4657 -1.7618  0.9561
 3321SOL     OW11403   4.476   7.742  10.188 -0.2682 -0.1103 -0.4305
 3321SOL    HW111404   4.524   7.811  10.233  0.9545 -1.9935  1.3215
 3321SOL    HW211405   4.387   7.777  10.178  0.9355  2.8022 -2.2589
 3322SOL     OW11406   1.606   7.144   8.759  0.4895 -0.4677  0.4476
 3322SOL    HW111407   1.535   7.101   8.711 -1.2950  0.2784  2.2772
 3322SOL    HW211408   1.674   7.159   8.693 -0.6379 -2.0755 -1.1723
 3323SOL     OW11409   5.335   7.322   1.628  0.0651  0.5016  0.1512
 3323SOL    HW111410   5.288   7.283   1.555  2.2163  0.6705 -1.4259
 3323SOL    HW211411   5.307   7.414   1.630  1.9382  1.2400 -2.3342
 3324SOL     OW11412   6.170   2.828   8.259 -0.5836 -0.1601  0.0571
 3324SOL    HW111413   6.146   2.861   8.173 -1.3232  0.8409  0.6133
 3324SOL    HW211414   6.251   2.780   8.245 -1.3784 -1.1546 -1.4059
 3325SOL     OW11415   3.036   2.134   2.524 -0.3139  0.1487  0.1358
 3325SOL    HW111416   2.961   2.129   2.584  0.4313 -0.4279  1.0437
 3325SOL    HW211417   3.109   2.099   2.574  0.3094 -0.4594 -1.1594
 3326SOL     OW11418   3.303   0.975   5.259  0.1125 -0.1218  0.4958
 3326SOL    HW111419   3.371   0.936   5.314 -0.5409 -0.8375  0.8055
 3326SOL    HW211420   3.229   0.989   5.319 -0.8805 -1.6094 -0.3463
 3327SOL     OW11421   4.628   5.794  11.825 -0.4554  0.1296 -0.5781
 3327SOL    HW111422   4.647   5.863  11.889 -0.8852 -1.3586  1.2791
 3327SOL    HW211423   4.581   5.838  11.755 -4.8294  1.2271  2.5724
 3328SOL     OW11424   3.745   5.168   4.497 -0.0734 -0.4470 -0.7991
 3328SOL    HW111425   3.693   5.155   4.577 -0.8203 -1.8911 -1.4976
 3328SOL    HW211426   3.803   5.241   4.519 -2.0305  0.9041  0.1911
 3329SOL     OW11427   3.205   3.103   6.429  0.2421 -0.6094 -0.0813
 3329SOL    HW111428   3.299   3.082   6.431  0.5632  0.4221 -1.9056
 3329SOL    HW211429   3.198   3.184   6.480  0.3499 -0.6618  0.0183
 3330SOL     OW11430   0.274   2.262  11.102 -0.1452 -0.3677 -0.1817
 3330SOL    HW111431   0.237   2.186  11.147  0.7498 -0.7969 -0.1554
 3330SOL    HW211432   0.198   2.304  11.060 -0.8350 -0.5189  0.8853
 3331SOL     OW11433   2.314   4.160  11.807  0.0290  0.2582 -0.3916
 3331SOL    HW111434   2.248   4.094  11.828  0.6651 -0.1077  0.4892
 3331SOL    HW211435   2.326   4.210  11.887  0.7153  0.4124 -0.5774
 3332SOL     OW11436   3.583   6.952   7.626  0.3714  0.2344  0.7158
 3332SOL    HW111437   3.502   6.908   7.653  0.1944 -0.0350 -0.2296
 3332SOL    HW211438   3.595   7.022   7.691  0.0312 -0.4716  1.5565
 3333SOL     OW11439   2.066   6.850   1.772 -0.2526  0.4347  0.3457
 3333SOL    HW111440   2.015   6.792   1.715  0.5637 -1.1150  1.1053
 3333SOL    HW211441   2.088   6.925   1.717  0.0219 -0.7365 -1.2325
 3334SOL     OW11442   3.442   5.777   8.126 -0.6660  0.3448  0.0744
 3334SOL    HW111443   3.450   5.686   8.097  0.4870  0.5677 -0.3670
 3334SOL    HW211444   3.348   5.795   8.122 -1.0960 -1.3056  1.7140
 3335SOL     OW11445   4.441   4.970   3.169 -0.4389 -0.1448 -1.0429
 3335SOL    HW111446   4.516   5.015   3.208 -1.3628 -0.0769  0.7683
 3335SOL    HW211447   4.449   4.880   3.199 -0.7449 -0.2815 -1.3659
 3336SOL     OW11448   7.123   2.483   4.041  0.1595 -0.2426 -0.0168
 3336SOL    HW111449   7.114   2.390   4.066 -0.0193  0.0754  1.1896
 3336SOL    HW211450   7.216   2.493   4.021 -0.0503 -0.9717 -1.4470
 3337SOL     OW11451   5.964   2.968   2.727  0.0135 -0.5736  0.1428
 3337SOL    HW111452   5.869   2.983   2.726 -0.0097 -0.6880 -1.2306
 3337SOL    HW211453   5.992   3.000   2.812 -1.0160  1.0761 -0.0945
 3338SOL     OW11454   1.281   3.130   0.028 -0.2403  0.0817 -0.1674
 3338SOL    HW111455   1.289   3.224   0.009 -1.9331  0.7827  2.1447
 3338SOL    HW211456   1.372   3.099   0.030  0.3095  1.3637 -2.1604
 3339SOL     OW11457   1.352   7.551  11.334  0.0209 -0.0200  0.3538
 3339SOL    HW111458   1.334   7.618  11.400  1.7411  1.2830 -0.4075
 3339SOL    HW211459   1.342   7.597  11.250  1.0603 -0.7430 -0.1894
 3340SOL     OW11460   5.967   3.622   9.273  0.3310  0.2056 -0.1561
 3340SOL    HW111461   5.967   3.527   9.261  3.0092 -0.0538  1.1815
 3340SOL    HW211462   5.954   3.657   9.185  0.7247 -1.4133 -0.8938
 3341SOL     OW11463   3.987   4.582   0.984  0.2520  0.6627 -0.1639
 3341SOL    HW111464   4.025   4.536   1.060  0.4919  1.8641  0.4738
 3341SOL    HW211465   4.063   4.621   0.940  0.1177 -0.0614 -1.0710
 3342SOL     OW11466   0.506   2.891   2.519  0.3789 -0.0984 -0.1333
 3342SOL    HW111467   0.559   2.857   2.447  1.1517 -0.0163  0.3827
 3342SOL    HW211468   0.416   2.886   2.487  0.7314  0.2417 -1.2317
 3343SOL     OW11469   5.351   1.766   0.975  0.2476 -0.3656 -0.3842
 3343SOL    HW111470   5.422   1.831   0.973 -1.3773  1.5116 -0.4030
 3343SOL    HW211471   5.271   1.818   0.971 -1.1749 -2.3762  0.2653
 3344SOL     OW11472   0.301   1.812   4.180 -0.3713 -0.1810 -0.3891
 3344SOL    HW111473   0.217   1.809   4.135 -1.1306 -0.3655  0.9776
 3344SOL    HW211474   0.287   1.874   4.252  0.2772 -1.1115  0.5640
 3345SOL     OW11475   1.789   4.309   4.624 -0.2253 -0.2644 -0.5697
 3345SOL    HW111476   1.792   4.231   4.679 -1.6229  0.4609  0.6006
 3345SOL    HW211477   1.731   4.370   4.671  0.5141  1.3392 -1.6252
 3346SOL     OW11478   7.472   0.896   5.212 -0.5820  0.1794  0.5084
 3346SOL    HW111479   7.526   0.908   5.290 -0.5149  0.5770  0.4057
 3346SOL    HW211480   7.384   0.881   5.246 -0.1255 -2.3479  0.7354
 3347SOL     OW11481   2.600   3.162  12.347 -0.3410 -0.2098 -0.4421
 3347SOL    HW111482   2.688   3.194  12.366 -0.3286 -2.0397  3.3549
 3347SOL    HW211483   2.612   3.068  12.331 -1.3302  0.0337 -3.1868
 3348SOL     OW11484   6.840   4.095   2.318  0.6253  0.5200 -0.8642
 3348SOL    HW111485   6.793   4.013   2.331 -0.8090  1.5462  0.7721
 3348SOL    HW211486   6.775   4.163   2.332  2.1147  1.9851 -0.7114
 3349SOL     OW11487   7.253   4.297   9.449 -0.0478  0.0857  0.4886
 3349SOL    HW111488   7.299   4.316   9.367  0.2590 -1.2031  0.3406
 3349SOL    HW211489   7.195   4.372   9.462  1.2776  1.2177  0.1015
 3350SOL     OW11490   2.003   1.515   1.205  0.1185  0.3352  0.2331
 3350SOL    HW111491   1.956   1.593   1.174 -0.2144  0.1007  0.1378
 3350SOL    HW211492   2.017   1.463   1.126 -0.7111 -0.2549  0.4565
 3351SOL     OW11493   0.757   7.254   2.349  0.3475  0.2731  0.0209
 3351SOL    HW111494   0.677   7.276   2.300  0.6198 -1.4113 -1.2946
 3351SOL    HW211495   0.728   7.188   2.412  0.8689 -1.1718 -1.2166
 3352SOL     OW11496   0.076   0.806   3.403  0.2394  0.3498 -0.6358
 3352SOL    HW111497   0.128   0.761   3.470  0.2460  1.8858  0.4388
 3352SOL    HW211498   0.139   0.831   3.336  0.2993 -0.8464 -1.0468
 3353SOL     OW11499   3.416   1.674   9.656 -0.8162  0.4420 -0.6048
 3353SOL    HW111500   3.416   1.746   9.718 -0.7797  1.5518 -1.8547
 3353SOL    HW211501   3.328   1.673   9.619 -0.3015  1.0252 -1.8967
 3354SOL     OW11502   3.696   1.531   9.132 -0.0415  0.4677  0.0317
 3354SOL    HW111503   3.681   1.580   9.051 -0.1662 -0.3683 -0.4608
 3354SOL    HW211504   3.612   1.491   9.152  0.5772 -1.3503 -0.7981
 3355SOL     OW11505   7.380   3.980   4.661  0.1809  0.5437 -0.2881
 3355SOL    HW111506   7.385   4.063   4.709 -0.5773  0.9892 -0.9485
 3355SOL    HW211507   7.407   4.001   4.572  0.9190 -0.1350 -0.2362
 3356SOL     OW11508   0.403   3.829   2.761  0.0119  0.1117  0.0008
 3356SOL    HW111509   0.476   3.822   2.700 -0.6017 -0.9099 -0.6477
 3356SOL    HW211510   0.367   3.916   2.745  1.0769  0.6213  0.3304
 3357SOL     OW11511   4.243   7.370   2.127 -0.0282 -0.1749  0.3701
 3357SOL    HW111512   4.312   7.433   2.149  0.4220 -0.9688  1.3000
 3357SOL    HW211513   4.176   7.382   2.194 -1.3651  1.3564 -1.1483
 3358SOL     OW11514   7.617   1.906   6.988 -0.0165 -0.1064 -0.5670
 3358SOL    HW111515   7.606   1.813   6.971 -1.8239 -0.0823  0.2001
 3358SOL    HW211516   7.710   1.918   7.004 -0.1520 -2.4848  3.1033
 3359SOL     OW11517   4.807   6.504   7.162 -0.5874 -0.3237  0.3877
 3359SOL    HW111518   4.791   6.559   7.086 -0.3015  0.2314  0.7213
 3359SOL    HW211519   4.721   6.490   7.200 -0.4261  2.2886  1.9317
 3360SOL     OW11520   0.751   3.667  11.680 -0.4793  0.5977  0.2911
 3360SOL    HW111521   0.783   3.598  11.622 -0.9710  0.0638  0.6296
 3360SOL    HW211522   0.678   3.707  11.633  2.7643  4.2904 -2.1014
 3361SOL     OW11523   4.341   1.475   6.660  0.1046 -0.6075 -0.8525
 3361SOL    HW111524   4.386   1.391   6.657  0.9320 -0.1896 -0.4043
 3361SOL    HW211525   4.248   1.453   6.671  0.5381 -1.4396  1.7717
 3362SOL     OW11526   4.570   6.860  11.336 -0.1821  0.1570  0.1899
 3362SOL    HW111527   4.524   6.823  11.260  0.9223  0.6439 -0.7502
 3362SOL    HW211528   4.540   6.807  11.410 -1.9366  0.2095 -0.4263
 3363SOL     OW11529   3.030   3.241   1.615  0.2414  0.0440  0.2402
 3363SOL    HW111530   2.993   3.299   1.682  1.1411 -0.2637  1.0223
 3363SOL    HW211531   3.117   3.219   1.648  0.1595 -1.2500 -0.3527
 3364SOL     OW11532   5.215   3.575   4.751 -0.3340  0.1645 -0.0580
 3364SOL    HW111533   5.140   3.621   4.712  1.0009  1.4944 -1.1611
 3364SOL    HW211534   5.248   3.520   4.680 -0.6959 -1.0233  0.6617
 3365SOL     OW11535   0.926   2.769   9.522  0.0779 -0.5974  0.4416
 3365SOL    HW111536   0.863   2.755   9.592  1.5194 -2.8403  1.3745
 3365SOL    HW211537   0.977   2.845   9.550  0.3703 -1.2194  1.6574
 3366SOL     OW11538   3.753   7.580  11.993  0.1855 -0.4584 -0.0518
 3366SOL    HW111539   3.738   7.492  12.027  1.1804 -0.6535 -0.0718
 3366SOL    HW211540   3.667   7.610  11.963 -0.3715 -0.9861  0.9660
 3367SOL     OW11541   5.656   6.801   0.373  0.1018 -0.2321  0.0947
 3367SOL    HW111542   5.741   6.838   0.347 -0.7324  2.5543  0.9789
 3367SOL    HW211543   5.600   6.812   0.296 -0.0609  0.0582  0.2527
 3368SOL     OW11544   6.416   5.937   9.108 -0.0007  0.0809 -0.1246
 3368SOL    HW111545   6.442   5.901   9.023  1.0416 -1.7028  0.9098
 3368SOL    HW211546   6.320   5.930   9.109 -0.0286  0.1317 -1.1264
 3369SOL     OW11547   5.041   7.350   7.844 -0.2116  0.1791 -0.4491
 3369SOL    HW111548   5.020   7.257   7.837  1.0268 -0.2257  0.7264
 3369SOL    HW211549   5.123   7.352   7.895  1.9587  1.6729 -3.6824
 3370SOL     OW11550   2.591   0.312   5.996 -0.2045 -0.1791 -0.0479
 3370SOL    HW111551   2.685   0.326   6.004 -0.3235  0.9161 -0.5084
 3370SOL    HW211552   2.551   0.389   6.035 -0.9516 -1.2445  1.3746
 3371SOL     OW11553   2.885   6.032  11.339 -0.2895 -0.3275 -0.9333
 3371SOL    HW111554   2.951   5.968  11.365 -1.0640 -1.6218 -1.9927
 3371SOL    HW211555   2.856   6.072  11.421  0.5664 -0.9698 -0.2939
 3372SOL     OW11556   2.176   5.814  10.290  0.1745 -0.5668  0.3615
 3372SOL    HW111557   2.143   5.728  10.265  0.5846 -1.1358  1.6868
 3372SOL    HW211558   2.264   5.818  10.254  0.5962 -1.1969  1.2965
 3373SOL     OW11559   3.761   5.002   3.175 -0.2228 -0.3323  0.2257
 3373SOL    HW111560   3.767   4.908   3.158  1.2744 -0.5105  1.5771
 3373SOL    HW211561   3.785   5.042   3.091 -1.0868 -1.1252 -0.4280
 3374SOL     OW11562   2.016   2.102   7.397 -0.3403  0.1887  0.8784
 3374SOL    HW111563   2.028   2.112   7.303 -1.9393  0.3445  0.6536
 3374SOL    HW211564   1.921   2.101   7.409 -0.1923 -1.0534  2.3587
 3375SOL     OW11565   2.698   6.974   6.740  0.3185 -0.1913 -0.7487
 3375SOL    HW111566   2.774   6.954   6.794 -1.2275 -2.2331  0.7970
 3375SOL    HW211567   2.705   6.914   6.666 -1.1095 -2.4034  0.7861
 3376SOL     OW11568   7.119   6.008  11.602 -0.3078 -0.4325  0.1597
 3376SOL    HW111569   7.155   5.936  11.654  1.8849  0.6945  0.3098
 3376SOL    HW211570   7.059   6.052  11.662  1.1760  0.0543  1.3427
 3377SOL     OW11571   5.299   6.382   6.529  0.0676 -0.5364 -0.1737
 3377SOL    HW111572   5.232   6.399   6.463  0.2046  2.4186  0.3028
 3377SOL    HW211573   5.296   6.459   6.586  2.9114 -0.9472  0.6828
 3378SOL     OW11574   3.768   0.334   5.059 -0.5707  0.5634  0.2149
 3378SOL    HW111575   3.828   0.402   5.031 -1.9985  1.4482 -0.8459
 3378SOL    HW211576   3.788   0.321   5.152  1.7578  0.2285 -0.2828
 3379SOL     OW11577   6.884   1.445   9.994  0.6531 -0.3773  0.4960
 3379SOL    HW111578   6.895   1.537   9.969  1.3618  0.0872  2.3678
 3379SOL    HW211579   6.812   1.445  10.057 -0.7420 -1.4409 -1.0164
 3380SOL     OW11580   7.501   4.796   0.694  0.1329 -0.2075 -0.0772
 3380SOL    HW111581   7.438   4.859   0.730  1.8102  1.0516  0.8398
 3380SOL    HW211582   7.453   4.713   0.691 -1.0855  0.3211  2.1515
 3381SOL     OW11583   0.350   0.062  10.898 -0.1226  0.2264 -0.3357
 3381SOL    HW111584   0.435   0.093  10.868  0.0983  0.2726  0.3151
 3381SOL    HW211585   0.367  -0.025  10.933 -0.2923  0.3315  0.0134
 3382SOL     OW11586   4.611   4.711   8.040  0.5290 -0.0280  0.0352
 3382SOL    HW111587   4.535   4.697   7.984  0.7967 -0.5575 -0.1969
 3382SOL    HW211588   4.624   4.806   8.038 -0.1305  0.0729  0.0906
 3383SOL     OW11589   4.592   1.666   0.770  0.2421 -0.0216  0.2670
 3383SOL    HW111590   4.529   1.594   0.767 -0.3345  0.4882 -0.3354
 3383SOL    HW211591   4.661   1.639   0.710  0.5928 -0.5693  0.9036
 3384SOL     OW11592   3.301   6.401   7.828  0.0084  0.1553 -0.1392
 3384SOL    HW111593   3.277   6.359   7.745  0.6239 -1.6113  0.5331
 3384SOL    HW211594   3.218   6.427   7.867 -0.3392  0.2604 -0.9195
 3385SOL     OW11595   3.093   5.739   9.586  0.1005 -0.1649  0.7230
 3385SOL    HW111596   3.066   5.829   9.565 -0.0080  0.0182  1.5882
 3385SOL    HW211597   3.188   5.744   9.594  0.2739 -0.4945 -0.8663
 3386SOL     OW11598   2.810   4.171   0.734  0.4278  0.1760 -0.9636
 3386SOL    HW111599   2.793   4.082   0.705  1.5481  0.3926 -2.4269
 3386SOL    HW211600   2.725   4.214   0.731 -0.0447 -0.7221 -0.6858
 3387SOL     OW11601   1.054   3.683   3.270 -0.4118 -0.2444 -0.3762
 3387SOL    HW111602   0.999   3.643   3.203 -1.8045  0.3956  0.3326
 3387SOL    HW211603   1.013   3.659   3.353  1.0222 -0.6515  0.2557
 3388SOL     OW11604   1.254   3.917   7.866  0.1465  0.4639 -0.2276
 3388SOL    HW111605   1.340   3.874   7.866 -0.4514 -0.8585  1.7553
 3388SOL    HW211606   1.222   3.906   7.776  1.3703 -0.4424 -0.5840
 3389SOL     OW11607   3.975   2.166   0.074  0.3430  0.6595 -0.2090
 3389SOL    HW111608   3.882   2.175   0.096 -0.1043 -0.6063 -1.4344
 3389SOL    HW211609   4.021   2.196   0.153 -1.0973  1.1310  0.4957
 3390SOL     OW11610   1.704   0.317   4.332 -0.2740  0.1139 -0.0787
 3390SOL    HW111611   1.674   0.408   4.328  0.7320  0.4900  0.5691
 3390SOL    HW211612   1.640   0.274   4.389  0.6466  1.0494  1.7889
 3391SOL     OW11613   4.605   7.537   2.805 -0.3819 -0.3089 -0.2988
 3391SOL    HW111614   4.534   7.481   2.774 -0.1786 -0.7529  0.0154
 3391SOL    HW211615   4.572   7.626   2.794 -0.5262 -0.4685 -1.2464
 3392SOL     OW11616   1.296   4.393   1.267  0.1755  0.1391 -0.1434
 3392SOL    HW111617   1.336   4.440   1.339  1.2401 -0.2452 -0.4562
 3392SOL    HW211618   1.232   4.453   1.231  1.6636  1.4692 -0.6896
 3393SOL     OW11619   0.974   0.784  10.240  0.1336 -0.2479 -0.2768
 3393SOL    HW111620   1.028   0.715  10.201  3.0482  2.1408 -0.9131
 3393SOL    HW211621   0.998   0.783  10.333 -0.4568 -0.5879 -0.1223
 3394SOL     OW11622   5.713   3.506  10.784  0.3060 -0.7347  0.0764
 3394SOL    HW111623   5.758   3.460  10.712  0.2023 -1.3887  0.4259
 3394SOL    HW211624   5.622   3.511  10.756  0.7190  1.5280 -1.1198
 3395SOL     OW11625   4.739   5.943  12.052 -0.0788  0.1564  0.4703
 3395SOL    HW111626   4.699   6.024  12.082 -1.2905 -0.0470 -0.5097
 3395SOL    HW211627   4.827   5.944  12.090 -0.7762  0.9307  2.1623
 3396SOL     OW11628   5.450   5.558   3.025  1.2880 -0.0724 -0.4735
 3396SOL    HW111629   5.433   5.475   2.982  0.1870  0.2957 -0.8037
 3396SOL    HW211630   5.479   5.534   3.113 -3.0555 -0.9101  0.9830
 3397SOL     OW11631   3.898   6.616   5.053 -0.4820  0.0368 -0.1060
 3397SOL    HW111632   3.907   6.684   4.986 -2.3112  1.9296  1.3995
 3397SOL    HW211633   3.860   6.541   5.006  1.5136 -0.0112 -1.7974
 3398SOL     OW11634   0.858   5.880   4.447  0.5616  0.2055 -0.2486
 3398SOL    HW111635   0.944   5.845   4.426 -0.0311 -0.5966 -1.4775
 3398SOL    HW211636   0.804   5.802   4.463  0.2173  0.7132  1.1904
 3399SOL     OW11637   6.093   7.448   8.094  0.1090 -0.0525 -0.3596
 3399SOL    HW111638   6.147   7.411   8.025  0.1188  0.2619 -0.5216
 3399SOL    HW211639   6.058   7.372   8.142 -0.0977 -0.2743 -0.8591
 3400SOL     OW11640   6.690   2.730  11.268 -0.2601  0.0171  0.2388
 3400SOL    HW111641   6.775   2.757  11.303 -1.0905  0.8529  1.6678
 3400SOL    HW211642   6.694   2.634  11.266  0.3947  0.0203  1.1043
 3401SOL     OW11643   5.649   6.471   0.662 -0.2618 -0.1261  0.4762
 3401SOL    HW111644   5.579   6.530   0.638 -0.4771 -0.0716  1.2211
 3401SOL    HW211645   5.729   6.523   0.652 -0.1154 -0.6803 -2.0558
 3402SOL     OW11646   3.028   6.224   9.518  0.1226 -0.5925 -0.3573
 3402SOL    HW111647   2.951   6.263   9.475 -0.4279 -1.4927 -0.2197
 3402SOL    HW211648   3.100   6.243   9.458 -0.3889 -0.6089 -0.9989
 3403SOL     OW11649   2.236   1.905   7.389  0.3123 -0.2312 -0.4622
 3403SOL    HW111650   2.167   1.970   7.403  1.9244  0.9615  3.4694
 3403SOL    HW211651   2.315   1.957   7.374  1.1035 -1.3826 -0.4042
 3404SOL     OW11652   4.532   1.466   1.506 -0.4869  0.3425 -0.1063
 3404SOL    HW111653   4.440   1.493   1.503 -0.5984  0.1134  0.9602
 3404SOL    HW211654   4.529   1.373   1.527 -0.0001  0.6324  1.3832
 3405SOL     OW11655   7.431   2.948   2.417 -0.5671 -0.1517 -0.3420
 3405SOL    HW111656   7.350   2.905   2.443 -0.9671 -1.2310 -3.0407
 3405SOL    HW211657   7.402   3.026   2.369  0.0888  0.9805  1.0433
 3406SOL     OW11658   5.116   0.882   5.637  0.2701  0.4695  0.5699
 3406SOL    HW111659   5.134   0.853   5.548 -0.0248 -0.7624  0.8929
 3406SOL    HW211660   5.127   0.804   5.691  0.5166  1.2069  1.6322
 3407SOL     OW11661   1.190   6.411   2.885 -0.4804  0.2238 -0.4879
 3407SOL    HW111662   1.207   6.382   2.974  0.5689 -1.1150 -1.0895
 3407SOL    HW211663   1.236   6.348   2.830 -1.7346  0.5600 -2.0093
 3408SOL     OW11664   3.856   6.048   5.794 -0.0343 -0.2627 -0.1461
 3408SOL    HW111665   3.889   5.995   5.867 -1.5194 -0.5717  0.3274
 3408SOL    HW211666   3.860   5.990   5.718  3.1870  0.5975 -0.7672
 3409SOL     OW11667   6.763   4.679   2.432  0.2776 -0.3764 -0.4835
 3409SOL    HW111668   6.804   4.627   2.362 -0.9783 -2.1553  0.0197
 3409SOL    HW211669   6.669   4.667   2.417 -0.0119 -0.1224  1.0228
 3410SOL     OW11670   3.314   0.661  11.149 -0.2476  0.5984  0.0024
 3410SOL    HW111671   3.299   0.647  11.242  0.0079  0.7982  0.0748
 3410SOL    HW211672   3.268   0.590  11.106  0.1098  0.1787  0.3086
 3411SOL     OW11673   3.251   6.785   0.578 -0.0232 -0.2363  0.2888
 3411SOL    HW111674   3.330   6.789   0.525  0.4300 -1.8958  0.8023
 3411SOL    HW211675   3.221   6.694   0.572 -0.9063 -0.0634  1.4971
 3412SOL     OW11676   2.639   7.253   7.152  0.2845 -0.3069  0.7100
 3412SOL    HW111677   2.612   7.243   7.061 -0.0890 -0.2577  0.8165
 3412SOL    HW211678   2.690   7.173   7.170  1.5433  0.3104  0.0506
 3413SOL     OW11679   0.043   7.658   9.953 -0.3465 -0.2293 -0.0559
 3413SOL    HW111680   0.076   7.579   9.911  0.4915 -0.3477  0.7909
 3413SOL    HW211681   0.062   7.728   9.891  0.3190 -0.4821 -0.1434
 3414SOL     OW11682   1.709   6.975   1.250 -0.7186 -0.5266  0.3806
 3414SOL    HW111683   1.732   7.051   1.303 -1.6557 -0.6788  1.0451
 3414SOL    HW211684   1.780   6.966   1.187 -1.1552  1.5977 -0.4859
 3415SOL     OW11685   6.846   7.512   7.156 -0.7938  0.3103 -0.0926
 3415SOL    HW111686   6.817   7.472   7.238 -1.9039 -0.3466 -0.7765
 3415SOL    HW211687   6.913   7.574   7.182  0.0254 -1.0300  1.1579
 3416SOL     OW11688   4.119   6.061   1.738 -0.1636  0.0292 -0.6278
 3416SOL    HW111689   4.180   6.135   1.741  0.7206 -0.6225 -1.8153
 3416SOL    HW211690   4.069   6.068   1.819  1.3044  0.7520  0.2528
 3417SOL     OW11691   6.215   4.722   7.996  0.2308 -0.1821  0.2530
 3417SOL    HW111692   6.286   4.668   7.960  0.5960  0.5847 -0.2109
 3417SOL    HW211693   6.211   4.697   8.088  0.5213 -0.8630  0.0879
 3418SOL     OW11694   4.083   3.870  11.108  0.1864 -0.2080  1.0640
 3418SOL    HW111695   4.164   3.906  11.073 -0.0370 -0.0876  0.6642
 3418SOL    HW211696   4.015   3.901  11.048 -0.4272  1.3442  2.4779
 3419SOL     OW11697   1.136   3.126   1.458  0.6950  0.0409  0.1700
 3419SOL    HW111698   1.214   3.181   1.445 -0.5445  1.8530 -0.0332
 3419SOL    HW211699   1.063   3.184   1.437 -0.7196 -1.6339  0.2855
 3420SOL     OW11700   5.376   6.717   2.681 -0.3314 -0.0271  0.7214
 3420SOL    HW111701   5.309   6.739   2.746  0.9940 -0.7160  2.3781
 3420SOL    HW211702   5.438   6.661   2.728  1.5646  0.7986 -0.6777
 3421SOL     OW11703   6.859   3.064   9.338  0.1251 -0.0850  0.1196
 3421SOL    HW111704   6.832   3.152   9.365 -1.1542  0.7159 -3.3285
 3421SOL    HW211705   6.818   3.006   9.402  0.1085  1.7263  1.8482
 3422SOL     OW11706   7.391   3.332   1.393  0.3981  0.0228  0.0228
 3422SOL    HW111707   7.382   3.264   1.459 -2.0664  0.0730 -0.1421
 3422SOL    HW211708   7.304   3.338   1.353  1.1893  1.5852 -1.6443
 3423SOL     OW11709   7.310   2.239  11.708  0.1924 -0.1118  0.1602
 3423SOL    HW111710   7.252   2.312  11.690  0.6809  0.2741  0.1264
 3423SOL    HW211711   7.370   2.236  11.633 -1.7094 -2.4867 -1.4071
 3424SOL     OW11712   0.688   0.446   6.669 -0.0926  0.7822 -0.1558
 3424SOL    HW111713   0.645   0.391   6.604  3.9472 -1.1720 -1.5478
 3424SOL    HW211714   0.723   0.520   6.619  1.8837 -0.0358 -0.1109
 3425SOL     OW11715   2.264   3.384  12.178  0.0293  0.1975  0.1053
 3425SOL    HW111716   2.272   3.360  12.271 -1.9340  0.9961  0.5267
 3425SOL    HW211717   2.354   3.395  12.149  0.6796  1.0563  2.2384
 3426SOL     OW11718   2.866   5.858  10.173 -0.3622 -0.8726 -0.2429
 3426SOL    HW111719   2.842   5.839  10.083 -1.5636  0.5947 -0.2515
 3426SOL    HW211720   2.796   5.913  10.207  0.7615 -0.2118  1.1558
 3427SOL     OW11721   5.697   2.127  12.356  0.2435  0.3544 -0.1967
 3427SOL    HW111722   5.765   2.161  12.299 -0.7562  0.2299 -1.5145
 3427SOL    HW211723   5.712   2.033  12.360  0.6517  0.4349  0.2194
 3428SOL     OW11724   2.387   2.801  10.289 -0.1533  0.3174 -0.7709
 3428SOL    HW111725   2.443   2.801  10.367 -0.3735 -1.6704 -0.5532
 3428SOL    HW211726   2.416   2.877  10.239 -1.4579  3.0685  2.2120
 3429SOL     OW11727   6.009   3.539   8.610 -0.3889  0.4296 -0.7635
 3429SOL    HW111728   5.983   3.457   8.566 -0.6171  0.7196 -1.1751
 3429SOL    HW211729   6.100   3.524   8.635  0.2154  0.7520 -2.5689
 3430SOL     OW11730   0.598   7.756   3.765 -0.3106 -0.1288 -0.1646
 3430SOL    HW111731   0.604   7.840   3.811 -2.5082  0.1781 -0.3377
 3430SOL    HW211732   0.600   7.690   3.835 -1.9024  0.2533  0.2772
 3431SOL     OW11733   4.273   1.823   3.955 -0.1614 -0.0211  0.0500
 3431SOL    HW111734   4.267   1.736   3.996  0.2374  0.5701  1.3981
 3431SOL    HW211735   4.183   1.844   3.932 -0.3749 -0.4280  0.4928
 3432SOL     OW11736   1.815   3.918  11.222  0.4745 -0.8733 -0.3550
 3432SOL    HW111737   1.816   3.959  11.136  0.9584  0.9339  0.4798
 3432SOL    HW211738   1.811   3.990  11.284  0.8399 -2.1088  1.1825
 3433SOL     OW11739   0.122   7.608  11.053  0.1107 -0.2118 -0.3209
 3433SOL    HW111740   0.150   7.584  11.141 -0.6938 -0.1972 -0.0554
 3433SOL    HW211741   0.078   7.692  11.064  0.7689  0.2256 -0.8773
 3434SOL     OW11742   2.843   7.229   8.025 -0.0093  0.1858 -0.4276
 3434SOL    HW111743   2.851   7.136   8.003 -0.9252  0.3031 -1.3349
 3434SOL    HW211744   2.758   7.235   8.070  0.0069  0.5976 -0.4517
 3435SOL     OW11745   5.261   5.194   3.006 -0.2429  0.4402  0.0561
 3435SOL    HW111746   5.343   5.146   3.016 -0.6844 -0.5831 -0.9988
 3435SOL    HW211747   5.262   5.258   3.076  1.6469  0.7211 -0.1737
 3436SOL     OW11748   0.956   2.002   1.125  0.8415 -0.1636 -0.2616
 3436SOL    HW111749   1.012   1.992   1.202  0.1795  1.4151  0.4735
 3436SOL    HW211750   0.907   1.919   1.121  1.2225 -0.4572  0.7380
 3437SOL     OW11751   2.334   1.152   4.147  0.1015 -0.1080  0.3189
 3437SOL    HW111752   2.331   1.198   4.064 -1.6684 -0.9406 -0.1137
 3437SOL    HW211753   2.422   1.115   4.150  0.7205  1.1997 -0.4394
 3438SOL     OW11754   4.500   7.876   3.560  0.4269 -0.2298  0.2348
 3438SOL    HW111755   4.432   7.929   3.599 -2.0863 -2.0258 -1.3874
 3438SOL    HW211756   4.550   7.841   3.634 -0.7552  0.6909  1.5050
 3439SOL     OW11757   0.693   5.013   7.175  0.1152  0.4078  0.1525
 3439SOL    HW111758   0.658   5.070   7.106  0.2461  1.1022  0.6397
 3439SOL    HW211759   0.767   5.062   7.210  2.2892 -1.4801 -1.5424
 3440SOL     OW11760   4.821   0.720  10.135  0.6067  0.4106  0.1209
 3440SOL    HW111761   4.791   0.685  10.219  1.5939 -0.6294  0.0722
 3440SOL    HW211762   4.765   0.677  10.070 -0.2406  1.3117  0.2484
 3441SOL     OW11763   2.794   0.522   8.736 -0.2500  0.2064 -0.3167
 3441SOL    HW111764   2.786   0.600   8.791 -2.1649  0.1705 -0.4730
 3441SOL    HW211765   2.711   0.518   8.688 -0.4499 -2.1974  0.0973
 3442SOL     OW11766   0.966   4.396   2.462 -0.1880 -0.4027 -0.6702
 3442SOL    HW111767   0.912   4.364   2.534 -1.9326 -1.1042 -2.1955
 3442SOL    HW211768   1.048   4.348   2.470  0.1470  0.4577  1.5349
 3443SOL     OW11769   7.085   3.463   1.432  0.0151 -0.0980  0.2946
 3443SOL    HW111770   7.063   3.456   1.339 -1.7474  1.5963  0.5274
 3443SOL    HW211771   7.038   3.390   1.473 -1.4179  0.7089  0.1590
 3444SOL     OW11772   5.607   4.526   6.462  1.0310  0.3725  0.1116
 3444SOL    HW111773   5.562   4.610   6.461 -0.6114 -0.2914  3.7571
 3444SOL    HW211774   5.547   4.467   6.414  0.5298  0.6019  0.4441
 3445SOL     OW11775   0.417   3.263   1.237 -0.5301 -0.7030 -0.4308
 3445SOL    HW111776   0.444   3.175   1.264  0.2484 -1.0703 -2.2167
 3445SOL    HW211777   0.498   3.307   1.213 -0.3611  2.0084  4.0938
 3446SOL     OW11778   3.809   4.966  11.345  0.0169  0.4004  0.0397
 3446SOL    HW111779   3.730   4.929  11.385  0.2372  0.5121  0.5907
 3446SOL    HW211780   3.881   4.924  11.392  0.3078 -0.4576 -1.1336
 3447SOL     OW11781   4.701   4.862   2.086  0.1162  0.5761 -0.2091
 3447SOL    HW111782   4.661   4.859   2.173 -0.0625  0.3127 -0.2996
 3447SOL    HW211783   4.764   4.934   2.091 -0.6207  1.2428 -0.1652
 3448SOL     OW11784   3.385   2.404   7.905  0.1976 -0.1302 -0.3057
 3448SOL    HW111785   3.421   2.477   7.854  0.2308 -1.1122 -1.7581
 3448SOL    HW211786   3.455   2.380   7.965  0.9135 -0.1836 -1.1381
 3449SOL     OW11787   4.034   7.276   0.037  0.2096  0.1357  0.0814
 3449SOL    HW111788   4.046   7.351  -0.020  1.9090  0.1191  0.3405
 3449SOL    HW211789   4.009   7.205  -0.022  3.5584 -0.3184 -1.0559
 3450SOL     OW11790   3.664   0.762   2.884 -0.4729 -0.6517 -0.4537
 3450SOL    HW111791   3.696   0.708   2.811 -0.1609 -1.9530  0.6102
 3450SOL    HW211792   3.629   0.699   2.947 -0.8928  0.4601  0.4547
 3451SOL     OW11793   0.555   3.219   9.240  0.2718 -0.0079  0.0622
 3451SOL    HW111794   0.521   3.305   9.264  1.6133  0.8091 -0.8255
 3451SOL    HW211795   0.590   3.184   9.321 -1.7098 -0.4544  0.7833
 3452SOL     OW11796   0.855   6.767   8.328 -0.1508 -0.6412  0.0571
 3452SOL    HW111797   0.913   6.829   8.372  1.7388 -2.4102  0.2417
 3452SOL    HW211798   0.799   6.733   8.398 -0.3107 -0.0769  0.2051
 3453SOL     OW11799   1.304   5.215   8.592  0.2825 -0.0037 -0.8535
 3453SOL    HW111800   1.227   5.175   8.632  0.0025 -0.0121 -1.3834
 3453SOL    HW211801   1.316   5.167   8.510 -0.8746  1.8181 -2.1829
 3454SOL     OW11802   3.050   5.040   1.287  0.2249  0.2782 -0.7568
 3454SOL    HW111803   3.023   5.120   1.240  1.1436  0.4622 -0.9989
 3454SOL    HW211804   3.047   5.065   1.379 -0.8502  0.1496 -0.7367
 3455SOL     OW11805   3.553   3.402   2.648 -0.2958  0.0850  0.0013
 3455SOL    HW111806   3.558   3.308   2.666  0.7749  0.1758  0.2405
 3455SOL    HW211807   3.492   3.409   2.575  1.1055 -0.9831 -1.3352
 3456SOL     OW11808   0.953   6.537   2.836  0.4098 -0.1698 -0.3887
 3456SOL    HW111809   0.954   6.562   2.743  1.2235  0.6708 -0.1735
 3456SOL    HW211810   1.045   6.522   2.857  0.1929 -0.6801  0.2065
 3457SOL     OW11811   1.073   6.434   9.080 -0.0830 -0.6029 -0.5134
 3457SOL    HW111812   1.066   6.413   8.987  0.5764 -1.3134 -0.4091
 3457SOL    HW211813   0.987   6.414   9.116 -0.1912 -0.8062 -0.8783
 3458SOL     OW11814   7.266   7.703   6.195 -0.1147  0.0044 -0.3945
 3458SOL    HW111815   7.306   7.681   6.111  0.9858 -1.4025  0.4614
 3458SOL    HW211816   7.334   7.686   6.260 -1.5337 -0.7877  0.9526
 3459SOL     OW11817   0.604   4.961   5.914 -0.0197  0.4335 -0.6373
 3459SOL    HW111818   0.585   5.002   5.830 -0.5857  0.4417 -0.5082
 3459SOL    HW211819   0.636   5.032   5.969 -0.2742  0.5513 -0.6436
 3460SOL     OW11820   0.253   5.935   8.107 -0.2889  0.1678  0.2924
 3460SOL    HW111821   0.237   5.987   8.028  1.5600  1.2601  0.5860
 3460SOL    HW211822   0.328   5.977   8.149 -0.3060 -1.2728  1.8744
 3461SOL     OW11823   3.964   2.785   1.995 -0.4970  0.6765  0.1575
 3461SOL    HW111824   4.029   2.840   2.038  0.0550  1.0449 -1.0834
 3461SOL    HW211825   3.927   2.731   2.065  1.5867  0.0064  0.7987
 3462SOL     OW11826   3.418   4.063   6.787  0.0853 -0.4540 -0.6983
 3462SOL    HW111827   3.371   4.082   6.868  0.2122 -1.4869 -0.3681
 3462SOL    HW211828   3.398   4.137   6.730 -0.1503  0.2003  0.2102
 3463SOL     OW11829   5.156   7.542   6.622  0.6461  0.3218 -0.0083
 3463SOL    HW111830   5.177   7.463   6.671  0.1188  1.1558  1.6307
 3463SOL    HW211831   5.182   7.614   6.679 -1.1599  1.3435 -0.3754
 3464SOL     OW11832   2.847   2.208   8.488  0.1431 -0.1719 -0.1220
 3464SOL    HW111833   2.841   2.117   8.516  1.7096  0.5108  2.7145
 3464SOL    HW211834   2.897   2.252   8.557 -2.6202  3.3694 -0.0846
 3465SOL     OW11835   5.269   0.058   4.327 -0.6289  0.5458 -0.8099
 3465SOL    HW111836   5.209   0.007   4.274 -2.4742  0.2697  1.3725
 3465SOL    HW211837   5.219   0.136   4.352  0.7515  1.4831 -0.8383
 3466SOL     OW11838   3.009   2.236   9.137 -0.1557  0.0725 -0.3026
 3466SOL    HW111839   2.972   2.313   9.093  0.0127  0.8075  0.8069
 3466SOL    HW211840   3.057   2.272   9.211  0.3221 -1.0833 -0.0372
 3467SOL     OW11841   6.238   3.384   2.701  0.1697 -0.0792 -0.2587
 3467SOL    HW111842   6.319   3.375   2.751  0.9777 -0.1753 -1.5463
 3467SOL    HW211843   6.174   3.330   2.748  1.1247 -0.8481  0.1829
 3468SOL     OW11844   2.678   0.668   5.982 -0.3764 -0.4073 -0.1354
 3468SOL    HW111845   2.645   0.725   5.912  0.8786  1.1222  0.4478
 3468SOL    HW211846   2.757   0.629   5.946  0.5970  0.8305  0.5632
 3469SOL     OW11847   0.795   3.448  11.059  0.1082  0.7076 -0.2857
 3469SOL    HW111848   0.831   3.385  11.120  0.9806  1.3673 -0.0911
 3469SOL    HW211849   0.862   3.457  10.991 -0.0788  1.2897 -0.4021
 3470SOL     OW11850   0.327   2.003   7.703  0.2026 -0.5223 -0.3543
 3470SOL    HW111851   0.378   2.023   7.781 -0.2611  0.3485 -0.2653
 3470SOL    HW211852   0.317   2.087   7.659  0.1616 -0.9453 -1.1793
 3471SOL     OW11853   1.781   2.085   8.110  0.0210  0.4714  0.1214
 3471SOL    HW111854   1.713   2.133   8.062 -1.0634 -1.1088 -0.0076
 3471SOL    HW211855   1.860   2.139   8.102 -0.4627  0.9139 -2.3225
 3472SOL     OW11856   7.609   2.015   4.671  0.5544  0.0704  0.0697
 3472SOL    HW111857   7.597   1.928   4.633  1.1032 -0.6170  1.4060
 3472SOL    HW211858   7.531   2.028   4.725  1.2936 -0.4152  1.3225
 3473SOL     OW11859   0.008   7.316   1.189  0.4752  0.6088 -0.1255
 3473SOL    HW111860  -0.081   7.335   1.218  0.2123 -1.1697  0.3978
 3473SOL    HW211861   0.061   7.318   1.269  0.0335 -2.7261  0.4250
 3474SOL     OW11862   1.214   5.862   3.753  0.6268 -0.3630 -0.5098
 3474SOL    HW111863   1.144   5.889   3.813 -1.0384  1.5619 -3.0627
 3474SOL    HW211864   1.293   5.860   3.806 -0.9157  0.0947  1.9476
 3475SOL     OW11865   4.580   2.253   9.307 -0.0611 -0.4131  0.5021
 3475SOL    HW111866   4.672   2.241   9.331  0.2080  1.1371  0.3602
 3475SOL    HW211867   4.575   2.227   9.215  1.2729  3.4773 -0.8889
 3476SOL     OW11868   1.934   5.032  10.706  0.1280  0.4842 -0.0442
 3476SOL    HW111869   1.935   5.075  10.792 -0.4967 -2.3265  1.5157
 3476SOL    HW211870   1.872   5.083  10.654 -1.1584  1.0255  1.9207
 3477SOL     OW11871   6.730   1.124   4.893  0.1180 -0.1509  0.3167
 3477SOL    HW111872   6.699   1.110   4.983 -1.4871  0.2698 -0.1349
 3477SOL    HW211873   6.818   1.162   4.904 -0.3648  0.6567  1.7345
 3478SOL     OW11874   3.059   5.849   0.548  0.1360 -0.5899  0.2265
 3478SOL    HW111875   3.085   5.842   0.456  1.3586 -1.4023  0.6141
 3478SOL    HW211876   2.996   5.922   0.549  0.4460 -0.2642 -1.1730
 3479SOL     OW11877   3.667   2.114   3.627  0.0865  0.1082  0.3272
 3479SOL    HW111878   3.642   2.188   3.572  0.9026  0.1046 -0.0576
 3479SOL    HW211879   3.741   2.074   3.582  0.6526 -0.0105  1.3344
 3480SOL     OW11880   4.644   2.923  10.934 -0.4797 -0.9449  0.2634
 3480SOL    HW111881   4.706   2.853  10.909 -0.7436 -0.6783 -1.2181
 3480SOL    HW211882   4.698   3.002  10.939 -0.5474 -0.8592 -0.2545
 3481SOL     OW11883   5.374   1.695  11.319 -0.7944  0.4426 -0.0957
 3481SOL    HW111884   5.315   1.628  11.285  0.7764 -2.2865  2.1014
 3481SOL    HW211885   5.443   1.701  11.253 -2.2058  1.8769 -1.5182
 3482SOL     OW11886   4.303   0.232   6.963 -0.2403  0.2776 -0.2208
 3482SOL    HW111887   4.384   0.200   6.922 -0.7396 -0.6580 -0.5072
 3482SOL    HW211888   4.333   0.295   7.030  0.6925  0.2647 -0.6130
 3483SOL     OW11889   3.877   7.813   2.063  0.2623 -0.5188  0.6741
 3483SOL    HW111890   3.949   7.756   2.090 -1.1013 -2.0372  1.2350
 3483SOL    HW211891   3.798   7.770   2.096 -1.1699 -0.3505 -2.2411
 3484SOL     OW11892   4.995   2.480  10.046 -0.6603 -0.1916 -0.6788
 3484SOL    HW111893   5.075   2.440  10.014  0.6239  1.8211 -0.1368
 3484SOL    HW211894   4.930   2.461   9.978  0.0340 -2.4453 -0.8076
 3485SOL     OW11895   2.952   2.998   3.593 -0.0240  0.0640 -0.4443
 3485SOL    HW111896   2.901   2.920   3.572 -0.7138  0.1259  0.8876
 3485SOL    HW211897   2.981   3.032   3.508 -0.3116 -1.2325 -1.0800
 3486SOL     OW11898   2.079   3.650   6.130 -0.0677  0.4252 -0.1540
 3486SOL    HW111899   2.028   3.658   6.049 -0.6622 -2.8448 -0.2539
 3486SOL    HW211900   2.128   3.568   6.119  0.2357  0.1464  2.5754
 3487SOL     OW11901   5.380   5.393   5.511  1.1298 -0.0188  0.1133
 3487SOL    HW111902   5.458   5.447   5.523  0.1704  1.3095  0.6319
 3487SOL    HW211903   5.341   5.424   5.430  0.8707 -0.3455  0.1094
 3488SOL     OW11904   5.759   2.117  11.717  0.0836  0.2593  0.6893
 3488SOL    HW111905   5.813   2.040  11.697 -0.6768 -0.4229  1.1952
 3488SOL    HW211906   5.677   2.081  11.751 -1.3690  1.2075 -1.5758
 3489SOL     OW11907   3.751   2.015   2.616  0.4118  0.5374 -0.3026
 3489SOL    HW111908   3.682   2.052   2.561  0.3784  0.5193 -0.2730
 3489SOL    HW211909   3.764   1.927   2.582  1.3878  1.0079 -1.2017
 3490SOL     OW11910   7.277   3.367  11.823  0.0210 -0.1004  0.0350
 3490SOL    HW111911   7.352   3.314  11.797  0.3361 -0.9923  2.5623
 3490SOL    HW211912   7.294   3.454  11.785  1.2556 -0.8329 -1.1580
 3491SOL     OW11913   6.013   2.371   2.382  0.1950 -0.0419 -0.3364
 3491SOL    HW111914   6.052   2.433   2.320  1.5367 -1.6538 -1.1846
 3491SOL    HW211915   5.960   2.426   2.440  1.5305  1.9332 -0.8529
 3492SOL     OW11916   1.627   0.249  10.128  0.3801 -0.3731  0.0380
 3492SOL    HW111917   1.602   0.311  10.059 -1.6215  1.3835  2.1504
 3492SOL    HW211918   1.558   0.182  10.125  0.5117 -0.5078  0.0530
 3493SOL     OW11919   4.924   6.129  11.307  0.0613 -0.3005  0.4377
 3493SOL    HW111920   4.832   6.157  11.312  0.4442  1.2488 -0.3256
 3493SOL    HW211921   4.943   6.125  11.213  1.5428  2.4010  0.4967
 3494SOL     OW11922   7.858   3.357   9.832  0.2120  0.0394 -0.6022
 3494SOL    HW111923   7.834   3.265   9.845 -0.4817  0.2966  0.0418
 3494SOL    HW211924   7.953   3.358   9.835  0.2192 -0.6387 -0.4528
 3495SOL     OW11925   3.966   0.555   2.397  0.2361  1.2741 -0.0673
 3495SOL    HW111926   3.929   0.568   2.485  1.3741 -2.3133  1.1128
 3495SOL    HW211927   4.058   0.579   2.406 -0.2344  3.7364 -1.1785
 3496SOL     OW11928   2.355   0.341   6.252  0.1055 -0.0203 -0.5609
 3496SOL    HW111929   2.447   0.315   6.265  0.3000  0.6599 -0.5435
 3496SOL    HW211930   2.358   0.436   6.246 -0.7246  0.1005  0.5349
 3497SOL     OW11931   1.225   7.038  10.666  0.1978 -0.6059 -0.4185
 3497SOL    HW111932   1.194   6.958  10.623  1.1129 -1.0033 -0.3624
 3497SOL    HW211933   1.259   7.009  10.750 -0.2190 -0.0363 -0.0458
 3498SOL     OW11934   2.555   2.519   8.990 -0.0451 -0.2267  0.6040
 3498SOL    HW111935   2.631   2.494   8.938 -0.1886  1.3905 -0.4642
 3498SOL    HW211936   2.588   2.584   9.052 -0.5778  0.7571 -0.1073
 3499SOL     OW11937   5.221   2.794  10.111 -0.2579 -0.1512 -0.3220
 3499SOL    HW111938   5.196   2.882  10.137 -0.9640 -0.6717  0.8204
 3499SOL    HW211939   5.188   2.785  10.021 -1.2156  0.3420 -0.0302
 3500SOL     OW11940   6.442   3.183   7.201  0.4393 -0.0390 -0.8797
 3500SOL    HW111941   6.408   3.141   7.122 -1.2768  1.5685 -1.0560
 3500SOL    HW211942   6.365   3.214   7.247  1.5392  1.2897  0.1517
 3501SOL     OW11943   0.315   2.207   7.528  0.0281  0.0062  0.9983
 3501SOL    HW111944   0.320   2.300   7.506  0.2826 -0.4794 -1.2283
 3501SOL    HW211945   0.359   2.163   7.456 -1.1564 -1.9361  1.3841
 3502SOL     OW11946   4.225   5.012   9.078  1.1405  0.3695  0.5000
 3502SOL    HW111947   4.277   5.084   9.042 -0.8559  0.6495 -2.1567
 3502SOL    HW211948   4.173   5.053   9.147  1.3592  1.0576  0.2729
 3503SOL     OW11949   1.632   1.511   0.297 -0.1363 -0.0985  0.1012
 3503SOL    HW111950   1.607   1.494   0.388 -0.8382 -0.9663 -0.2410
 3503SOL    HW211951   1.726   1.492   0.294  1.0915  4.3540  1.7009
 3504SOL     OW11952   2.044   7.783   7.600 -0.1579  0.1471 -0.6362
 3504SOL    HW111953   1.988   7.752   7.671 -0.8430  0.3383 -1.0850
 3504SOL    HW211954   2.003   7.863   7.570  1.0032  0.9251 -0.2152
 3505SOL     OW11955   2.313   5.894   1.632 -0.4792  0.0747  0.5583
 3505SOL    HW111956   2.315   5.977   1.680 -2.3736 -0.4772  1.6847
 3505SOL    HW211957   2.220   5.870   1.630 -0.0784 -1.5355 -0.6109
 3506SOL     OW11958   2.734   3.655   8.698 -0.7934  0.5291 -0.1511
 3506SOL    HW111959   2.792   3.608   8.638 -1.3436  0.2030 -0.4338
 3506SOL    HW211960   2.697   3.587   8.753 -0.6452  0.7784  0.2616
 3507SOL     OW11961   0.197   1.479   6.253  0.1332 -0.4754 -0.4294
 3507SOL    HW111962   0.167   1.551   6.308 -1.9404 -1.9902  0.5246
 3507SOL    HW211963   0.226   1.521   6.172 -0.6947  1.4415  0.2296
 3508SOL     OW11964   3.321   0.359   4.673  0.5145  0.5358 -0.1735
 3508SOL    HW111965   3.409   0.380   4.642  1.4089 -1.9710  0.4157
 3508SOL    HW211966   3.276   0.324   4.596  1.3168 -1.6279  0.2616
 3509SOL     OW11967   3.563   6.721   0.905  0.4193  0.2377 -0.5249
 3509SOL    HW111968   3.591   6.728   0.997  1.6804  0.5598 -0.9077
 3509SOL    HW211969   3.506   6.645   0.903 -2.2553  2.0372  1.1392
 3510SOL     OW11970   5.619   5.086   0.660  0.1721  0.0560  0.1395
 3510SOL    HW111971   5.683   5.157   0.659  2.0138 -1.4554  1.5801
 3510SOL    HW211972   5.597   5.075   0.753 -1.3452 -0.2101 -0.2317
 3511SOL     OW11973   0.817   1.776  12.091 -0.3872  0.8638 -0.3509
 3511SOL    HW111974   0.725   1.774  12.115 -1.1785  2.7721 -2.7243
 3511SOL    HW211975   0.819   1.745  12.001  1.0434  2.1627 -0.8205
 3512SOL     OW11976   7.670   7.539   4.141 -0.5118 -0.1862 -0.3881
 3512SOL    HW111977   7.763   7.560   4.153 -0.0096 -1.6857 -1.3308
 3512SOL    HW211978   7.663   7.448   4.170 -2.0767  0.4249  1.3185
 3513SOL     OW11979   0.992   1.008   7.601 -0.3961  0.1845  0.0430
 3513SOL    HW111980   0.924   1.038   7.540  0.3336  0.4746 -0.6439
 3513SOL    HW211981   0.981   0.913   7.605 -1.4010  0.3106  0.6290
 3514SOL     OW11982   7.795   5.177   4.647  0.1704  0.2187 -0.9021
 3514SOL    HW111983   7.820   5.113   4.714  0.8073 -0.7411 -2.0104
 3514SOL    HW211984   7.705   5.200   4.668  0.2218 -0.3752  0.0418
 3515SOL     OW11985   3.382   2.705   9.547  0.5788  0.1799  0.4472
 3515SOL    HW111986   3.464   2.748   9.570  0.7537 -0.4587  1.0505
 3515SOL    HW211987   3.368   2.727   9.455  0.0993  2.4301  0.9914
 3516SOL     OW11988   1.547   2.684   7.491 -0.6602 -0.4706 -0.1856
 3516SOL    HW111989   1.463   2.719   7.522 -0.3136 -0.1742  0.4357
 3516SOL    HW211990   1.587   2.756   7.444 -0.1054 -0.1192  0.7887
 3517SOL     OW11991   4.606   4.764   0.109  0.4368  0.0148 -0.5436
 3517SOL    HW111992   4.602   4.855   0.079 -0.4071  0.2173  0.1085
 3517SOL    HW211993   4.536   4.720   0.060 -0.5622  0.2190  0.6316
 3518SOL     OW11994   0.881   0.658  11.577  0.2771 -0.1462  0.2799
 3518SOL    HW111995   0.916   0.714  11.647 -0.2516 -1.2342  1.4508
 3518SOL    HW211996   0.947   0.662  11.508  1.7852 -0.6265  1.6524
 3519SOL     OW11997   4.671   5.931   4.858  0.0485 -0.0010 -0.4022
 3519SOL    HW111998   4.604   5.943   4.791  0.8556 -2.5698 -1.7931
 3519SOL    HW211999   4.753   5.928   4.810  1.0157  1.1568  1.0791
 3520SOL     OW12000   5.258   6.943   8.928 -0.3781 -0.0172 -0.4288
 3520SOL    HW112001   5.206   6.889   8.988  1.6100  1.1476  2.5986
 3520SOL    HW212002   5.333   6.887   8.905 -0.5874 -0.0868 -0.9385
 3521SOL     OW12003   4.976   3.047   7.774  0.0531 -0.3609 -1.7131
 3521SOL    HW112004   4.948   3.064   7.684 -4.1507 -1.9699 -0.9211
 3521SOL    HW212005   5.015   2.960   7.772  2.1512  0.5331 -2.2615
 3522SOL     OW12006   5.196   4.369   5.769  0.6177 -0.0449  0.2382
 3522SOL    HW112007   5.169   4.299   5.710 -1.0506  0.5535  0.2374
 3522SOL    HW212008   5.120   4.381   5.827  2.6724 -1.6726  3.5928
 3523SOL     OW12009   5.331   4.040  11.274  0.4370 -0.1516 -0.2182
 3523SOL    HW112010   5.369   3.992  11.348  0.3441  1.1618  0.7055
 3523SOL    HW212011   5.241   4.058  11.301  0.5139  0.6654 -0.4851
 3524SOL     OW12012   3.146   3.922   5.412  0.4776 -0.6786 -0.1630
 3524SOL    HW112013   3.108   3.949   5.328  1.5918  0.8416 -0.2377
 3524SOL    HW212014   3.125   3.830   5.420 -0.4100 -0.6410 -1.7103
 3525SOL     OW12015   3.145   5.198   4.028 -0.1399  0.2308 -0.6778
 3525SOL    HW112016   3.162   5.183   3.935  0.8961 -1.2254 -0.2902
 3525SOL    HW212017   3.227   5.174   4.071 -0.4927  1.2144  0.5902
 3526SOL     OW12018   5.037   7.508  10.216  0.2774 -0.5157  0.0466
 3526SOL    HW112019   5.068   7.595  10.242  0.1922 -0.3237 -0.4823
 3526SOL    HW212020   4.992   7.523  10.133 -1.6169 -0.7007  0.9683
 3527SOL     OW12021   5.237   3.185   2.471 -0.3666  0.4806  0.7403
 3527SOL    HW112022   5.271   3.109   2.518 -1.7694 -0.2827  0.5826
 3527SOL    HW212023   5.266   3.171   2.380 -1.6603 -0.5737  0.4473
 3528SOL     OW12024   0.749   7.212   0.947 -0.3577 -0.8745 -0.2161
 3528SOL    HW112025   0.814   7.212   1.017 -0.7023 -0.3283  0.1063
 3528SOL    HW212026   0.690   7.284   0.969 -0.1840 -0.3814 -1.3349
 3529SOL     OW12027   3.553   1.533   0.913  0.0617 -0.1261  0.1117
 3529SOL    HW112028   3.547   1.476   0.990 -1.5848 -0.2307 -0.0512
 3529SOL    HW212029   3.503   1.611   0.938  0.5851  0.3786 -0.4013
 3530SOL     OW12030   4.791   7.505   6.695 -0.3356 -0.1764 -0.2206
 3530SOL    HW112031   4.809   7.482   6.603 -1.5987  0.6721 -0.7108
 3530SOL    HW212032   4.821   7.429   6.745 -1.6084 -1.5950 -1.5294
 3531SOL     OW12033   6.190   6.712   5.368  0.5224  0.4023  0.2647
 3531SOL    HW112034   6.230   6.675   5.447  2.0225  0.5258 -0.3983
 3531SOL    HW212035   6.117   6.654   5.349  1.7015 -1.1696  0.2988
 3532SOL     OW12036   6.587   2.731   0.042 -0.5780  0.0393  0.9690
 3532SOL    HW112037   6.601   2.823   0.016 -1.3126  0.3754  1.7034
 3532SOL    HW212038   6.559   2.736   0.133 -0.9222 -0.8937  0.9239
 3533SOL     OW12039   3.075   5.888   4.207 -0.3422 -0.0125  0.1910
 3533SOL    HW112040   3.154   5.834   4.209  0.1801  0.5039 -2.3547
 3533SOL    HW212041   3.101   5.971   4.247 -0.2921 -0.5841  1.3976
 3534SOL     OW12042   4.407   1.420   4.675 -0.6696 -0.5883 -0.0928
 3534SOL    HW112043   4.318   1.388   4.693 -0.1274 -1.3761  1.4342
 3534SOL    HW212044   4.440   1.362   4.607 -0.9587 -0.9813  0.0978
 3535SOL     OW12045   7.869   2.450   7.769 -0.1075 -0.0841 -0.3251
 3535SOL    HW112046   7.776   2.427   7.779 -0.2151  0.1862 -0.7040
 3535SOL    HW212047   7.914   2.366   7.766 -0.4143 -0.2298 -0.8883
 3536SOL     OW12048   2.976   1.322   7.973  0.0569 -0.7807 -0.1788
 3536SOL    HW112049   3.021   1.403   7.997  0.2586 -0.7940 -0.5057
 3536SOL    HW212050   2.890   1.352   7.943 -1.0440 -0.9192  2.5736
 3537SOL     OW12051   5.401   6.639   5.822  0.2331  0.0049  0.5601
 3537SOL    HW112052   5.445   6.629   5.737 -0.0690 -2.2482  0.5982
 3537SOL    HW212053   5.437   6.720   5.858  1.5183  0.2098 -1.0459
 3538SOL     OW12054   2.551   6.620   6.499  0.0043  0.2629 -0.1852
 3538SOL    HW112055   2.489   6.623   6.426 -0.5329 -2.6368  0.0279
 3538SOL    HW212056   2.496   6.609   6.577  0.6791 -1.0693  0.1378
 3539SOL     OW12057   0.720   2.839   6.730 -0.4897 -0.3438 -0.1835
 3539SOL    HW112058   0.766   2.922   6.717 -2.1219  0.8543  1.2140
 3539SOL    HW212059   0.789   2.778   6.757  0.8296  0.3722 -1.7476
 3540SOL     OW12060   4.453   1.211   4.487  0.0527 -0.0091  0.2715
 3540SOL    HW112061   4.406   1.167   4.416 -0.6068  1.9281 -0.5620
 3540SOL    HW212062   4.446   1.151   4.561 -1.0406 -1.1628 -0.7156
 3541SOL     OW12063   7.105   0.319   3.093 -0.3755 -0.2321 -0.1256
 3541SOL    HW112064   7.161   0.370   3.035  1.5349 -1.5538  0.4530
 3541SOL    HW212065   7.138   0.339   3.181 -2.0171  0.3275  0.4014
 3542SOL     OW12066   7.820   6.143   0.452 -0.5350  0.7592 -1.3174
 3542SOL    HW112067   7.754   6.076   0.466 -0.5578  0.6478 -1.9473
 3542SOL    HW212068   7.788   6.219   0.500 -0.6333  0.4000 -0.8120
 3543SOL     OW12069   4.245   0.100  10.599 -0.5777  0.3966  0.2928
 3543SOL    HW112070   4.251   0.054  10.515  0.8256  3.0895 -1.2165
 3543SOL    HW212071   4.153   0.092  10.624 -0.8787 -1.1033 -1.1097
 3544SOL     OW12072   7.257   4.574   9.805  0.4222 -0.5291  0.3243
 3544SOL    HW112073   7.192   4.640   9.781  1.1206 -0.2029 -0.7137
 3544SOL    HW212074   7.324   4.580   9.737  0.9864 -1.6329  0.7608
 3545SOL     OW12075   6.558   2.544   2.610  0.2131 -0.2367 -0.3602
 3545SOL    HW112076   6.528   2.467   2.658  2.3928 -1.0359 -0.1395
 3545SOL    HW212077   6.586   2.606   2.677  0.7551 -0.2605 -0.5586
 3546SOL     OW12078   2.806   2.805   9.716  0.2234  0.0501 -0.3097
 3546SOL    HW112079   2.867   2.757   9.772 -0.7812 -0.9731 -0.0617
 3546SOL    HW212080   2.749   2.852   9.777  0.1770  0.2627 -0.5153
 3547SOL     OW12081   3.947   3.345   4.741 -0.0661  0.4732  0.1802
 3547SOL    HW112082   3.920   3.332   4.832 -0.9051  1.7089  0.1336
 3547SOL    HW212083   3.944   3.440   4.728 -0.4313  0.2962 -1.2663
 3548SOL     OW12084   6.867   7.333   8.580 -0.8480  0.5237 -0.6607
 3548SOL    HW112085   6.932   7.402   8.598 -0.2372  0.2926 -1.8610
 3548SOL    HW212086   6.825   7.316   8.665  0.1090  1.2425 -0.0256
 3549SOL     OW12087   4.710   1.592   9.147 -0.0547 -0.1864 -0.1249
 3549SOL    HW112088   4.719   1.542   9.228  2.3856  1.0082  0.4451
 3549SOL    HW212089   4.763   1.543   9.084  1.1818  0.8516  0.0655
 3550SOL     OW12090   2.148   7.370  10.263 -0.2437 -0.3877 -0.2133
 3550SOL    HW112091   2.060   7.397  10.289  0.5272  0.3778  1.7378
 3550SOL    HW212092   2.178   7.440  10.205 -0.5591 -0.1827 -0.1313
 3551SOL     OW12093   5.986   5.394   3.373  0.2710 -0.3733 -0.0732
 3551SOL    HW112094   5.979   5.299   3.365  2.4294 -0.7371  1.3978
 3551SOL    HW212095   6.045   5.407   3.448 -1.0800  2.1483  0.6644
 3552SOL     OW12096   3.374   1.081   2.539  0.5955 -0.0274  0.7500
 3552SOL    HW112097   3.288   1.117   2.561  0.2229 -0.5851  0.2623
 3552SOL    HW212098   3.366   1.057   2.446  1.5700  0.7471  0.4577
 3553SOL     OW12099   5.416   2.570   1.944 -0.0363  0.2099  0.4681
 3553SOL    HW112100   5.410   2.638   2.011  0.2470  1.2546 -0.5293
 3553SOL    HW212101   5.388   2.614   1.864 -0.8293 -1.1412 -0.0273
 3554SOL     OW12102   2.360   2.517  11.626  0.2686 -0.2335  0.2054
 3554SOL    HW112103   2.400   2.604  11.624  2.2119 -1.0612 -0.2014
 3554SOL    HW212104   2.419   2.465  11.681  0.0333 -1.6510 -0.8100
 3555SOL     OW12105   7.682   7.067   3.329 -0.7671 -0.5478 -0.0920
 3555SOL    HW112106   7.640   7.066   3.415 -3.0775 -0.3262 -1.1329
 3555SOL    HW212107   7.641   6.994   3.282 -0.9482  0.4817 -1.5866
 3556SOL     OW12108   5.219   2.160   7.890 -0.3210 -0.3888  0.5198
 3556SOL    HW112109   5.127   2.132   7.884 -0.4051  0.0356 -0.6495
 3556SOL    HW212110   5.224   2.233   7.827  0.9900 -0.8899  0.0256
 3557SOL     OW12111   7.723   2.694   5.964 -0.2036 -0.2998  0.1314
 3557SOL    HW112112   7.770   2.727   6.040 -0.6718  0.3900  0.1284
 3557SOL    HW212113   7.770   2.729   5.889 -0.3309 -0.1622  0.1169
 3558SOL     OW12114   5.702   5.508   8.016  0.2778 -0.3522 -0.2194
 3558SOL    HW112115   5.609   5.512   7.996  0.2814 -0.2912 -0.2225
 3558SOL    HW212116   5.706   5.503   8.112  0.2894  0.2147 -0.1855
 3559SOL     OW12117   2.733   2.570  12.136 -0.9075 -0.1598 -0.4759
 3559SOL    HW112118   2.793   2.611  12.198 -0.1299 -0.2288 -1.1554
 3559SOL    HW212119   2.761   2.605  12.050 -2.4018  0.4896 -0.7290
 3560SOL     OW12120   2.723   0.642   8.146  0.0904 -0.2389  0.8684
 3560SOL    HW112121   2.727   0.556   8.104 -0.0391 -0.4772  1.3397
 3560SOL    HW212122   2.814   0.671   8.149  0.0447  0.0490 -0.1160
 3561SOL     OW12123   4.547   3.369   2.430 -0.1623  0.6423 -0.0161
 3561SOL    HW112124   4.583   3.294   2.383  1.5863  0.4877  1.4764
 3561SOL    HW212125   4.465   3.336   2.467  0.0245 -0.1789 -0.3116
 3562SOL     OW12126   5.469   6.706   6.242 -0.3530  0.4142 -0.2010
 3562SOL    HW112127   5.467   6.611   6.233  0.5636  0.3021  0.6474
 3562SOL    HW212128   5.380   6.731   6.265 -0.9231 -0.0822 -1.7078
 3563SOL     OW12129   5.339   0.749   0.434 -0.0982 -0.1007 -0.1619
 3563SOL    HW112130   5.380   0.834   0.422  1.7938 -1.0270 -0.6728
 3563SOL    HW212131   5.350   0.730   0.527 -2.0187  0.8908  0.3137
 3564SOL     OW12132   6.295   2.851   7.820  0.5253 -0.0699  0.0281
 3564SOL    HW112133   6.291   2.777   7.758  0.6609 -1.2761  1.4145
 3564SOL    HW212134   6.388   2.864   7.835  0.4856  0.0635  0.1528
 3565SOL     OW12135   5.821   4.222   6.582 -0.1191  0.0925 -0.3376
 3565SOL    HW112136   5.889   4.156   6.594 -0.7765 -0.5052  0.0848
 3565SOL    HW212137   5.870   4.300   6.553  0.4371 -1.2625 -3.5800
 3566SOL     OW12138   0.877   7.239  11.036  0.1943 -0.5000 -0.2902
 3566SOL    HW112139   0.809   7.253  10.970  0.7678 -2.2169 -1.2861
 3566SOL    HW212140   0.829   7.219  11.116 -0.4937  0.9846 -0.2881
 3567SOL     OW12141   1.138   1.898   3.333  0.1965 -0.0588 -0.2229
 3567SOL    HW112142   1.046   1.889   3.308  0.6701  0.7336 -2.3916
 3567SOL    HW212143   1.172   1.808   3.332 -0.6064 -0.4056  0.9876
 3568SOL     OW12144   7.087   3.148   9.625 -0.2415 -0.3898  0.1749
 3568SOL    HW112145   7.007   3.096   9.635  0.5767 -1.6160  0.5946
 3568SOL    HW212146   7.092   3.201   9.704 -0.6981 -0.2051  0.0829
 3569SOL     OW12147   2.139   2.827   9.222 -0.4938 -0.3550 -0.2928
 3569SOL    HW112148   2.132   2.799   9.314  2.6179  1.4829  0.6304
 3569SOL    HW212149   2.194   2.760   9.181 -2.2293 -1.4098 -1.0439
 3570SOL     OW12150   3.925   2.212  10.973 -0.6675 -0.5219  1.1481
 3570SOL    HW112151   4.013   2.234  10.941 -2.0747  1.1042 -2.0631
 3570SOL    HW212152   3.902   2.282  11.033 -0.6526  0.4402  0.0669
 3571SOL     OW12153   4.729   4.975   9.638 -0.5097 -0.0731 -0.0366
 3571SOL    HW112154   4.682   5.029   9.701 -0.9228  0.5629 -0.8581
 3571SOL    HW212155   4.819   5.007   9.641 -0.1820 -1.0847  1.3194
 3572SOL     OW12156   1.404   3.260  10.710  0.2271 -0.4338 -0.1913
 3572SOL    HW112157   1.377   3.232  10.797  0.5526 -1.0376 -0.2773
 3572SOL    HW212158   1.361   3.200  10.650 -1.0452  0.7749 -0.5446
 3573SOL     OW12159   3.855   5.403  11.637 -0.4303  0.0500  0.0742
 3573SOL    HW112160   3.792   5.332  11.649 -0.7384  0.4154  0.6792
 3573SOL    HW212161   3.935   5.371  11.677  0.0167 -0.7113 -1.3363
 3574SOL     OW12162   1.213   2.119  11.658 -0.2482  0.0916  0.0292
 3574SOL    HW112163   1.127   2.136  11.619 -0.8989 -1.4468  0.7337
 3574SOL    HW212164   1.207   2.155  11.747 -0.3674 -0.5285  0.2738
 3575SOL     OW12165   0.342   1.222   3.566  0.4524  0.3274  0.0075
 3575SOL    HW112166   0.317   1.197   3.655 -1.8651 -2.3108 -1.2349
 3575SOL    HW212167   0.402   1.154   3.537  1.0977  1.0976 -0.5167
 3576SOL     OW12168   2.798   7.571  11.958  0.4001  0.3654  0.1014
 3576SOL    HW112169   2.845   7.652  11.978 -0.8813  1.3669 -0.8334
 3576SOL    HW212170   2.741   7.557  12.034  1.0427 -0.0029  0.5275
 3577SOL     OW12171   7.763   4.805   5.458  0.0538 -0.0799  0.4460
 3577SOL    HW112172   7.717   4.783   5.377  1.8118 -0.5152 -0.4842
 3577SOL    HW212173   7.751   4.899   5.468  0.6092  0.1443 -0.8564
 3578SOL     OW12174   0.771   5.197   5.543  0.1478  0.0972  0.3539
 3578SOL    HW112175   0.749   5.246   5.464 -1.1931  0.0076  0.6363
 3578SOL    HW212176   0.861   5.169   5.530  0.0681  0.3921 -0.9826
 3579SOL     OW12177   6.798   5.307   5.478 -0.2968  0.4505  0.1922
 3579SOL    HW112178   6.837   5.394   5.471  0.4973 -0.0286 -2.7201
 3579SOL    HW212179   6.714   5.315   5.434  0.4071 -0.5088 -1.4455
 3580SOL     OW12180   5.249   4.632   1.086 -0.3882 -0.3229  0.3502
 3580SOL    HW112181   5.201   4.712   1.065 -0.0999 -0.6019 -1.5485
 3580SOL    HW212182   5.259   4.587   1.002 -1.1110 -2.6865  1.4266
 3581SOL     OW12183   1.357   2.486   6.518  1.1161  0.1086  0.6156
 3581SOL    HW112184   1.418   2.413   6.532 -1.4138 -2.5863 -1.1453
 3581SOL    HW212185   1.357   2.500   6.423 -1.4048 -0.5088  0.4390
 3582SOL     OW12186   4.951   2.196   4.498  0.2098  0.9515  0.2191
 3582SOL    HW112187   4.941   2.224   4.408 -0.8095 -0.1431 -0.0460
 3582SOL    HW212188   4.872   2.144   4.516  0.8495  0.3376  1.4216
 3583SOL     OW12189   4.990   2.837  11.944  0.3494  0.1531 -0.0685
 3583SOL    HW112190   5.020   2.924  11.919  1.2469  0.3543  1.6208
 3583SOL    HW212191   4.901   2.832  11.908  0.0303  2.0069  0.3365
 3584SOL     OW12192   1.513   2.253   7.214  0.3214 -0.0792  0.1898
 3584SOL    HW112193   1.550   2.287   7.132 -0.6715  0.0635 -0.2106
 3584SOL    HW212194   1.479   2.330   7.258  0.6805 -0.1835  0.6630
 3585SOL     OW12195   5.736   2.144  11.113  0.1313  0.1109  0.0743
 3585SOL    HW112196   5.784   2.086  11.054 -0.8956 -2.3240  1.4824
 3585SOL    HW212197   5.783   2.140  11.196 -0.6753  0.2361  0.5563
 3586SOL     OW12198   2.345   5.006   9.726  0.4871  0.4820  0.1858
 3586SOL    HW112199   2.311   5.053   9.651  1.0255  1.8425  0.7616
 3586SOL    HW212200   2.374   4.922   9.691 -0.8041  0.4221 -0.8023
 3587SOL     OW12201   1.527   7.715   4.313 -0.5712  0.1021  0.2665
 3587SOL    HW112202   1.483   7.669   4.241  0.0972 -0.0158 -0.0701
 3587SOL    HW212203   1.605   7.752   4.273  0.1703 -0.5469  1.0947
 3588SOL     OW12204   7.585   7.200   2.623  0.1893  0.0867 -0.0388
 3588SOL    HW112205   7.495   7.210   2.653 -0.1099 -0.6318 -0.6683
 3588SOL    HW212206   7.626   7.285   2.639 -0.5799  0.3924  0.3163
 3589SOL     OW12207   3.764   6.309   6.030 -0.2534  0.0963  0.0192
 3589SOL    HW112208   3.713   6.387   6.054  1.0587  0.5057  1.6812
 3589SOL    HW212209   3.812   6.287   6.110 -0.3772 -2.2840 -0.4890
 3590SOL     OW12210   5.724   5.128   3.550 -0.1251  0.6872 -0.1597
 3590SOL    HW112211   5.697   5.043   3.515 -2.3046  0.5303  1.6778
 3590SOL    HW212212   5.705   5.190   3.479 -1.9342  0.0607 -0.2661
 3591SOL     OW12213   5.970   0.637   9.721 -0.1620 -0.5000 -0.2933
 3591SOL    HW112214   6.062   0.609   9.725  0.2822  0.9588  0.8433
 3591SOL    HW212215   5.975   0.732   9.711 -1.5415 -0.3690  0.1123
 3592SOL     OW12216   5.777   7.248  10.693  0.0445  0.4198 -0.6306
 3592SOL    HW112217   5.712   7.237  10.623 -1.8545 -0.8214  1.1767
 3592SOL    HW212218   5.818   7.162  10.702  1.2100  0.9150 -1.0365
 3593SOL     OW12219   5.311   2.763  12.342 -0.3198  0.6937  0.1328
 3593SOL    HW112220   5.274   2.680  12.313  0.9996  0.3519 -0.6406
 3593SOL    HW212221   5.271   2.779  12.428 -0.0920 -1.0508  0.5918
 3594SOL     OW12222   4.121   4.760   5.217 -0.2031  0.1791 -0.2031
 3594SOL    HW112223   4.203   4.804   5.196  0.4548 -0.6041  0.6451
 3594SOL    HW212224   4.055   4.804   5.163  0.6225  1.3977 -0.2401
 3595SOL     OW12225   6.473   7.265   4.603 -0.4167 -0.4318 -0.2855
 3595SOL    HW112226   6.378   7.259   4.612 -0.3573  0.9259  2.0204
 3595SOL    HW212227   6.507   7.185   4.643 -0.5774 -1.9033 -2.9192
 3596SOL     OW12228   6.659   7.129  11.997  0.5161  0.0508 -0.3741
 3596SOL    HW112229   6.679   7.100  11.908  0.4581 -0.8077 -0.1160
 3596SOL    HW212230   6.742   7.121  12.044  0.9829  2.1190 -0.7424
 3597SOL     OW12231   1.245   6.359   9.277 -0.1951  0.2674 -0.0270
 3597SOL    HW112232   1.190   6.360   9.198  0.5442 -1.2810 -0.6011
 3597SOL    HW212233   1.244   6.450   9.308 -0.1845  1.0223 -2.0591
 3598SOL     OW12234   5.986   4.613   1.606  0.5952  0.1070  0.3732
 3598SOL    HW112235   6.046   4.639   1.536 -0.6777 -1.5611 -1.4532
 3598SOL    HW212236   6.025   4.534   1.643  0.4484  0.0718  0.4556
 3599SOL     OW12237   4.526   1.187   1.558 -0.1342 -0.8750  0.2103
 3599SOL    HW112238   4.504   1.119   1.622  1.7393 -1.3793  0.3627
 3599SOL    HW212239   4.621   1.183   1.550 -0.0442  1.2294 -0.3487
 3600SOL     OW12240   0.443   6.170   1.908  0.3301 -0.1550 -0.7113
 3600SOL    HW112241   0.417   6.248   1.858  2.1182 -0.6152 -2.5148
 3600SOL    HW212242   0.536   6.183   1.925  0.5947 -1.7686 -0.8331
 3601SOL     OW12243   0.946   5.990   7.469 -0.1617 -0.2728 -0.1692
 3601SOL    HW112244   1.009   6.033   7.411  1.8116 -0.8759  1.3940
 3601SOL    HW212245   0.956   5.897   7.451 -1.3831 -0.3363 -0.6069
 3602SOL     OW12246   0.777   5.101   2.578 -0.2495  0.4162 -0.0769
 3602SOL    HW112247   0.755   5.043   2.651 -1.0659  0.2201 -0.4609
 3602SOL    HW212248   0.771   5.045   2.500  1.3849  0.4284 -0.2331
 3603SOL     OW12249   4.535   3.855   3.720  0.2103 -0.4063  0.2842
 3603SOL    HW112250   4.561   3.787   3.658  1.5932 -0.0963  0.4941
 3603SOL    HW212251   4.553   3.818   3.806 -1.6568 -0.8149  0.5527
 3604SOL     OW12252   7.406   5.346   7.326 -0.0695  0.2759  0.0347
 3604SOL    HW112253   7.431   5.410   7.393  2.3236 -0.0643 -0.4325
 3604SOL    HW212254   7.448   5.265   7.354 -0.2338 -0.2248 -1.1226
 3605SOL     OW12255   1.890   4.891  11.328 -0.8427  0.1543  0.0162
 3605SOL    HW112256   1.883   4.856  11.239  0.0000 -2.9909  1.0767
 3605SOL    HW212257   1.834   4.969  11.327 -1.8404 -0.4598 -2.9003
 3606SOL     OW12258   7.628   5.190   0.994  0.6158 -0.2271 -0.2769
 3606SOL    HW112259   7.556   5.227   1.045  1.4936  0.1499  0.7366
 3606SOL    HW212260   7.598   5.103   0.968 -0.2463 -0.0260  0.0195
 3607SOL     OW12261   5.315   7.818   0.903  0.1297 -0.3889 -0.3798
 3607SOL    HW112262   5.252   7.789   0.970 -2.1137 -1.4030 -2.7693
 3607SOL    HW212263   5.400   7.810   0.946 -1.2575  1.0638  3.0541
 3608SOL     OW12264   3.668   4.577   1.974 -0.3126  0.1968  0.0253
 3608SOL    HW112265   3.703   4.666   1.966  0.4695 -0.0021  0.9369
 3608SOL    HW212266   3.744   4.521   1.959 -0.8386 -0.3206 -0.7008
 3609SOL     OW12267   5.294   5.576   1.839  0.5899  0.1350  1.0456
 3609SOL    HW112268   5.304   5.597   1.932  0.4773  0.4420  0.9925
 3609SOL    HW212269   5.269   5.484   1.837 -0.9612  0.5113  1.4111
 3610SOL     OW12270   1.264   6.306   5.324 -0.3628  0.0124 -0.0844
 3610SOL    HW112271   1.309   6.317   5.240 -1.9142 -1.2223 -1.1216
 3610SOL    HW212272   1.302   6.226   5.360  0.9737  1.0404  0.8792
 3611SOL     OW12273   4.320   3.669   3.626  0.0775  0.2727  0.4134
 3611SOL    HW112274   4.337   3.594   3.683 -2.4866 -1.1699 -0.5513
 3611SOL    HW212275   4.389   3.667   3.561  0.4802 -0.7806  0.8560
 3612SOL     OW12276   1.547   3.287   5.299 -0.5704  0.3064 -0.2600
 3612SOL    HW112277   1.576   3.337   5.375 -2.1519  0.2466  0.4208
 3612SOL    HW212278   1.614   3.219   5.288  0.8226  1.6332 -0.2978
 3613SOL     OW12279   4.171   1.318  11.060  0.1609 -0.0168 -0.4265
 3613SOL    HW112280   4.115   1.287  10.989  0.7241 -1.2078 -0.3775
 3613SOL    HW212281   4.132   1.401  11.087 -0.6336 -0.0315 -1.4604
 3614SOL     OW12282   3.104   7.404   5.410  0.1519 -0.2880 -0.0634
 3614SOL    HW112283   3.040   7.468   5.441 -0.4863 -1.5314  1.3059
 3614SOL    HW212284   3.152   7.450   5.342 -1.4363  1.0705 -0.3432
 3615SOL     OW12285   5.744   1.752   5.906 -0.6585 -0.1700 -0.1929
 3615SOL    HW112286   5.693   1.672   5.905 -0.6624 -0.2174 -2.6391
 3615SOL    HW212287   5.728   1.791   5.992 -3.4107 -1.0457 -0.2460
 3616SOL     OW12288   1.500   3.879   7.611 -0.0175 -0.2823  0.3951
 3616SOL    HW112289   1.563   3.914   7.674  0.0379  2.6159 -1.1080
 3616SOL    HW212290   1.554   3.828   7.550  0.0873 -2.0733  1.9083
 3617SOL     OW12291   5.598   1.693  12.247 -0.1349 -0.5952  0.3679
 3617SOL    HW112292   5.523   1.634  12.239 -0.7170  0.0675  0.9283
 3617SOL    HW212293   5.674   1.634  12.244 -0.6738 -1.2950  0.0672
 3618SOL     OW12294   7.189   0.163   3.435  0.1912 -0.4696  0.0873
 3618SOL    HW112295   7.172   0.249   3.396  1.1042 -0.3364 -0.0321
 3618SOL    HW212296   7.105   0.137   3.473 -0.2848  0.1366 -0.5283
 3619SOL     OW12297   6.401   1.089   4.408 -0.4743 -0.1724 -0.3174
 3619SOL    HW112298   6.459   1.072   4.335  0.9374 -0.4537  0.8239
 3619SOL    HW212299   6.348   1.010   4.416  1.5227 -1.4791  0.8568
 3620SOL     OW12300   2.713   5.568   1.156 -0.0980  0.2187 -0.6429
 3620SOL    HW112301   2.712   5.545   1.249 -0.3061  0.1028 -0.6754
 3620SOL    HW212302   2.734   5.661   1.155 -1.0120  0.4291 -0.4437
 3621SOL     OW12303   4.621   1.664   5.991 -0.2859  0.2706  0.6596
 3621SOL    HW112304   4.660   1.592   5.942 -1.4958  0.0262  0.0074
 3621SOL    HW212305   4.586   1.623   6.070  2.9288  0.8839  2.5581
 3622SOL     OW12306   5.009   1.481   6.597  0.3003  0.1008 -0.0136
 3622SOL    HW112307   4.916   1.460   6.609  0.3793 -0.5262 -0.5050
 3622SOL    HW212308   5.010   1.544   6.525  0.1226  1.3623  1.0483
 3623SOL     OW12309   1.287   1.529   5.346  0.1009  0.0438 -0.6482
 3623SOL    HW112310   1.223   1.596   5.370 -1.1211 -1.5881  0.9361
 3623SOL    HW212311   1.246   1.482   5.274  0.4322  0.2595 -0.9785
 3624SOL     OW12312   0.487   6.610   2.513  0.2123  0.1781  0.2595
 3624SOL    HW112313   0.525   6.596   2.600  0.4372 -1.0727 -0.0136
 3624SOL    HW212314   0.547   6.670   2.469  0.8103 -0.2075  0.5293
 3625SOL     OW12315   6.325   5.183  10.798 -0.1179  0.1066 -0.5589
 3625SOL    HW112316   6.320   5.274  10.769 -1.5646 -0.0335 -0.7835
 3625SOL    HW212317   6.261   5.177  10.869  2.1783  0.0324  1.6780
 3626SOL     OW12318   4.985   2.439   7.521  0.5279  0.1400  0.2493
 3626SOL    HW112319   4.998   2.350   7.554  0.2391 -0.3382 -0.8789
 3626SOL    HW212320   4.890   2.448   7.515  0.5488  0.6217  0.5875
 3627SOL     OW12321   4.305   6.853   7.297 -0.7550 -0.3907 -0.1224
 3627SOL    HW112322   4.217   6.838   7.261 -0.0899 -1.2978 -1.4311
 3627SOL    HW212323   4.334   6.767   7.327 -0.1345 -0.1724 -0.0751
 3628SOL     OW12324   5.882   4.880   9.036  0.4123  0.5678  0.0743
 3628SOL    HW112325   5.905   4.877   9.129  1.8397 -1.3703 -0.2861
 3628SOL    HW212326   5.856   4.791   9.015 -0.2502  1.0636 -1.3355
 3629SOL     OW12327   2.827   6.852   8.634  0.1749 -0.4194 -0.7282
 3629SOL    HW112328   2.812   6.781   8.696 -1.9789  1.5402  1.1450
 3629SOL    HW212329   2.910   6.892   8.662 -0.6484  0.2815  0.7712
 3630SOL     OW12330   0.599   2.598   8.353  0.0310  0.2763 -0.0441
 3630SOL    HW112331   0.538   2.584   8.425 -0.0046 -0.1125 -0.1452
 3630SOL    HW212332   0.684   2.571   8.388 -0.4931 -3.7032 -1.2388
 3631SOL     OW12333   0.349   1.078   9.693 -0.7054 -0.3268  0.9076
 3631SOL    HW112334   0.302   1.017   9.636 -2.0563  0.5120  1.0834
 3631SOL    HW212335   0.357   1.158   9.642 -0.1371 -0.2111  1.1699
 3632SOL     OW12336   3.496   1.803   1.001  0.4404  0.3117 -0.1294
 3632SOL    HW112337   3.518   1.792   1.093 -1.8642 -1.9094  0.2738
 3632SOL    HW212338   3.456   1.890   0.996 -1.2803 -0.3314  1.4544
 3633SOL     OW12339   0.540   6.594   3.017 -0.2721 -0.0299  0.3379
 3633SOL    HW112340   0.501   6.680   3.028 -0.2662 -0.1687  1.6049
 3633SOL    HW212341   0.477   6.534   3.058 -0.4428 -0.6804 -0.8220
 3634SOL     OW12342   2.131   6.143   2.615 -0.1660 -0.1364  0.8770
 3634SOL    HW112343   2.152   6.193   2.694  1.1216  1.0641 -0.1778
 3634SOL    HW212344   2.039   6.165   2.597 -0.0267  0.7971  1.2138
 3635SOL     OW12345   2.328   4.662   9.219  0.2680  0.3489  0.4356
 3635SOL    HW112346   2.261   4.648   9.285  0.7529 -1.9149  0.5397
 3635SOL    HW212347   2.394   4.717   9.263 -0.5735  0.9467  0.9747
 3636SOL     OW12348   6.683   2.225   7.469 -0.9111 -0.3306  0.7452
 3636SOL    HW112349   6.646   2.141   7.443 -0.3071 -0.9112  1.7106
 3636SOL    HW212350   6.705   2.269   7.386 -1.4085 -1.0310  0.2325
 3637SOL     OW12351   4.348   2.140   5.242 -0.1028  0.5822  0.0999
 3637SOL    HW112352   4.398   2.058   5.246  1.8076  1.6348 -0.6020
 3637SOL    HW212353   4.256   2.112   5.237  0.3979 -1.4637  1.1389
 3638SOL     OW12354   3.328   5.800   4.007 -0.4256 -0.1142  0.0938
 3638SOL    HW112355   3.324   5.729   3.943  0.0898 -0.0084 -0.0619
 3638SOL    HW212356   3.337   5.879   3.954  0.3231 -0.0527  0.3038
 3639SOL     OW12357   4.606   0.444   1.715 -0.5457 -0.7893  0.3065
 3639SOL    HW112358   4.536   0.379   1.706 -0.2551 -1.0925  0.2385
 3639SOL    HW212359   4.590   0.506   1.643  0.3869 -1.9199 -0.9291
 3640SOL     OW12360   4.425   5.015   7.401  0.5486  0.2822  0.1686
 3640SOL    HW112361   4.413   4.930   7.443  1.8464  0.3931  0.8253
 3640SOL    HW212362   4.479   5.065   7.463 -0.9937  1.9440  0.2485
 3641SOL     OW12363   0.556   7.704   9.469 -0.1160 -0.3863  0.3334
 3641SOL    HW112364   0.597   7.639   9.526  1.4298 -0.6081 -0.9825
 3641SOL    HW212365   0.625   7.769   9.453 -1.2347  0.9038  0.5654
 3642SOL     OW12366   1.190   4.564   5.288  0.3975  0.0168  0.5745
 3642SOL    HW112367   1.284   4.552   5.295  0.6107 -0.2766 -1.7870
 3642SOL    HW212368   1.177   4.658   5.303  1.6914  0.9409 -3.0345
 3643SOL     OW12369   6.537   5.418  11.271  0.4806 -0.1586  0.5760
 3643SOL    HW112370   6.576   5.427  11.184  1.6613  0.9046  1.1839
 3643SOL    HW212371   6.591   5.474  11.327 -2.7526  2.6857  1.2300
 3644SOL     OW12372   2.685   4.074   2.248 -0.0725 -0.2272  0.3126
 3644SOL    HW112373   2.711   4.163   2.222 -0.5505  0.2187  1.2936
 3644SOL    HW212374   2.768   4.031   2.269  0.2104 -0.2075 -0.7267
 3645SOL     OW12375   7.065   0.307   5.244  0.4046  0.4995  0.0606
 3645SOL    HW112376   7.036   0.340   5.158  0.1211  0.4529  0.1377
 3645SOL    HW212377   7.066   0.212   5.234 -0.4930  0.4490  0.3787
 3646SOL     OW12378   5.521   7.822   5.933 -0.3273 -0.0729 -0.5862
 3646SOL    HW112379   5.495   7.882   6.003 -0.0207 -0.2616 -0.3124
 3646SOL    HW212380   5.615   7.808   5.947 -0.4879 -0.9690 -0.3867
 3647SOL     OW12381   2.524   0.326   8.547  0.0882  0.0259  0.4385
 3647SOL    HW112382   2.496   0.413   8.574 -1.2908 -0.5618  0.9823
 3647SOL    HW212383   2.561   0.286   8.626 -1.6331 -0.7722  0.9049
 3648SOL     OW12384   6.679   3.777   9.108 -0.3049  0.3170 -0.0520
 3648SOL    HW112385   6.657   3.685   9.092  1.2682 -0.4314  1.6517
 3648SOL    HW212386   6.653   3.793   9.198  2.8344  0.3349  0.9607
 3649SOL     OW12387   2.825   3.691  10.145 -0.2432  0.1059  0.2703
 3649SOL    HW112388   2.898   3.675  10.086 -0.9856  0.3192 -0.7250
 3649SOL    HW212389   2.807   3.605  10.184 -0.5020 -0.3065 -0.7112
 3650SOL     OW12390   1.447   5.755  10.013 -0.4317  0.7496  0.8558
 3650SOL    HW112391   1.372   5.769  10.071 -0.5930 -1.5279  1.3103
 3650SOL    HW212392   1.441   5.662   9.989  2.5818  0.3441  1.3712
 3651SOL     OW12393   4.720   1.306   9.734 -0.2031 -0.6068 -0.1712
 3651SOL    HW112394   4.803   1.336   9.696  0.2097  0.8480  1.6671
 3651SOL    HW212395   4.699   1.226   9.687  0.3947  0.8323 -3.1156
 3652SOL     OW12396   0.732   1.351  10.234 -0.5682  0.1867 -0.1882
 3652SOL    HW112397   0.665   1.292  10.200 -0.4633  0.8302 -1.5617
 3652SOL    HW212398   0.740   1.326  10.326  0.5075 -2.9801 -0.9910
 3653SOL     OW12399   4.462   1.498  11.057 -0.9489  0.1543 -0.3960
 3653SOL    HW112400   4.418   1.442  11.120  0.3906  0.6440  1.0580
 3653SOL    HW212401   4.415   1.581  11.062 -1.7816 -0.2545 -1.1866
 3654SOL     OW12402   4.627   0.323   0.546 -0.1423 -0.3687 -0.0621
 3654SOL    HW112403   4.694   0.255   0.537  1.0424  0.9078 -1.3182
 3654SOL    HW212404   4.668   0.402   0.511 -2.1570  0.5678 -0.4346
 3655SOL     OW12405   1.068   4.477   9.210  0.6553  0.5576 -0.6504
 3655SOL    HW112406   1.095   4.385   9.206 -1.4058 -0.0880 -0.7082
 3655SOL    HW212407   1.059   4.496   9.303 -0.5479  0.1516 -0.6621
 3656SOL     OW12408   1.573   4.250  10.371 -0.4341 -0.1555  0.3175
 3656SOL    HW112409   1.495   4.294  10.337  0.2618  0.4911 -0.4595
 3656SOL    HW212410   1.645   4.311  10.354  0.5485 -1.5501 -0.7314
 3657SOL     OW12411   2.699   6.420   6.284  0.0778  0.0232 -0.3944
 3657SOL    HW112412   2.733   6.442   6.371 -1.1169  0.8040 -0.0931
 3657SOL    HW212413   2.759   6.354   6.251  0.7677 -0.0272  0.8765
 3658SOL     OW12414   1.300   7.305   3.187 -0.5996  0.2260 -0.3134
 3658SOL    HW112415   1.250   7.348   3.256 -0.5932  2.1340 -1.4343
 3658SOL    HW212416   1.234   7.279   3.122 -0.4943 -0.5895 -0.1038
 3659SOL     OW12417   2.422   2.124   6.176  0.3708  0.0436 -0.3805
 3659SOL    HW112418   2.365   2.198   6.193  1.5120  0.7970  0.3157
 3659SOL    HW212419   2.381   2.050   6.222  0.0639  0.6084  0.2679
 3660SOL     OW12420   6.050   5.014   3.670 -0.2842  0.7607  0.4313
 3660SOL    HW112421   6.136   5.056   3.665 -0.7916  1.7523 -0.4068
 3660SOL    HW212422   5.994   5.070   3.616 -0.7701 -1.5925 -1.6693
 3661SOL     OW12423   2.656   6.480   7.573  0.3938  0.2141 -0.6997
 3661SOL    HW112424   2.579   6.522   7.534 -0.2352 -0.4207 -0.1833
 3661SOL    HW212425   2.620   6.424   7.642  1.3484  0.1236 -0.2566
 3662SOL     OW12426   2.943   5.907   1.759  0.2465  0.3401  0.1783
 3662SOL    HW112427   2.935   5.975   1.826 -0.0493  0.1463  0.3395
 3662SOL    HW212428   2.865   5.919   1.704  0.1938  0.1257  0.2088
 3663SOL     OW12429   5.334   5.406   3.790  0.1669 -0.4096  0.0831
 3663SOL    HW112430   5.378   5.387   3.707 -1.4419 -1.1610 -0.6379
 3663SOL    HW212431   5.344   5.326   3.841 -1.2891 -1.0221 -0.5356
 3664SOL     OW12432   5.918   0.002   8.819  0.3670 -0.7496 -0.5081
 3664SOL    HW112433   5.934   0.092   8.847  0.6521 -0.7625 -0.6184
 3664SOL    HW212434   5.870  -0.038   8.891 -0.2348 -0.3573 -0.6903
 3665SOL     OW12435   3.166   0.889   2.816 -0.1270 -0.3426  0.0141
 3665SOL    HW112436   3.255   0.893   2.783 -0.7979 -0.4578 -1.9128
 3665SOL    HW212437   3.165   0.814   2.876  1.7176  1.3304  2.3378
 3666SOL     OW12438   7.083   1.894   4.742 -0.1471  0.2152 -0.5110
 3666SOL    HW112439   7.041   1.911   4.826 -0.4968  2.6534 -1.0884
 3666SOL    HW212440   7.092   1.799   4.737 -0.6383 -0.0088  2.0020
 3667SOL     OW12441   7.415   2.904  10.479  0.1533 -0.1026  0.4109
 3667SOL    HW112442   7.412   2.931  10.387  1.6586  0.1438  0.4092
 3667SOL    HW212443   7.443   2.813  10.477 -0.8348 -0.4169  0.5914
 3668SOL     OW12444   0.761   3.887   1.670  0.1841  0.0062 -0.0776
 3668SOL    HW112445   0.700   3.819   1.644  0.0181 -0.4623  1.4447
 3668SOL    HW212446   0.767   3.879   1.766 -0.1372  2.3470  0.2136
 3669SOL     OW12447   5.847   5.898   2.166  1.3061 -0.0232 -0.4798
 3669SOL    HW112448   5.785   5.827   2.146 -0.3372  1.1884  0.0577
 3669SOL    HW212449   5.896   5.867   2.242  0.1043 -0.3469  0.2014
 3670SOL     OW12450   4.375   6.063  11.444  0.2045 -0.0916 -0.0176
 3670SOL    HW112451   4.281   6.044  11.455  0.2446  0.6254  2.1688
 3670SOL    HW212452   4.377   6.153  11.412  0.1638 -0.5363 -1.3371
 3671SOL     OW12453   0.037   4.355   5.671  0.2718  0.0113  0.3992
 3671SOL    HW112454  -0.018   4.292   5.625 -0.0004  0.5844 -0.0795
 3671SOL    HW212455   0.102   4.302   5.716 -1.1472 -0.7334  1.6378
 3672SOL     OW12456   4.105   0.736   1.965 -0.1488 -0.9909  0.4695
 3672SOL    HW112457   4.189   0.739   1.920 -1.3954 -3.2904 -2.4518
 3672SOL    HW212458   4.117   0.672   2.035  0.6319 -1.0402  0.2935
 3673SOL     OW12459   3.699   5.011   7.345  0.1246  0.1973  0.0362
 3673SOL    HW112460   3.605   4.997   7.357  0.2033  0.5052  1.1565
 3673SOL    HW212461   3.706   5.056   7.261 -0.8095  0.9322  0.3357
 3674SOL     OW12462   6.781   5.901  11.276 -0.0162  0.2944  0.4251
 3674SOL    HW112463   6.797   5.878  11.184  0.2376  0.8894  0.3160
 3674SOL    HW212464   6.710   5.842  11.303  1.0153 -1.0338  0.3451
 3675SOL     OW12465   0.366   6.769   2.730 -0.5751  0.6177  0.5315
 3675SOL    HW112466   0.457   6.796   2.714 -0.8548  2.0753  1.2789
 3675SOL    HW212467   0.349   6.702   2.663  1.4158 -0.5578  1.1147
 3676SOL     OW12468   7.589   3.943  11.537  0.1574 -0.1478 -0.1415
 3676SOL    HW112469   7.616   3.911  11.623  1.8425 -0.8097 -0.8821
 3676SOL    HW212470   7.526   4.012  11.556 -2.2330 -2.5981  1.5659
 3677SOL     OW12471   6.474   0.288   3.550  0.2542  0.2567 -0.2403
 3677SOL    HW112472   6.438   0.337   3.624 -1.0761 -0.2081 -0.5451
 3677SOL    HW212473   6.530   0.350   3.504 -0.2760  1.0678  0.1904
 3678SOL     OW12474   7.097   3.933   0.358 -0.2469  0.3716 -0.6115
 3678SOL    HW112475   7.124   3.881   0.434  0.3808  0.8732 -0.4887
 3678SOL    HW212476   7.007   3.905   0.341 -0.4614  0.3887  0.4314
 3679SOL     OW12477   5.617   1.559   3.560  0.6104  0.2180 -0.2604
 3679SOL    HW112478   5.702   1.573   3.518  1.1115  1.7075  1.1212
 3679SOL    HW212479   5.633   1.492   3.625  0.2624 -0.8083 -1.2068
 3680SOL     OW12480   6.140   6.697   5.826  0.5177  0.7021 -0.0464
 3680SOL    HW112481   6.161   6.720   5.916 -0.9109  0.0904  0.4643
 3680SOL    HW212482   6.058   6.743   5.808  0.1223 -0.1934 -0.5941
 3681SOL     OW12483   1.749   4.436   3.059 -0.3856  0.0451  0.1009
 3681SOL    HW112484   1.669   4.396   3.093 -0.3024 -0.4616 -0.2978
 3681SOL    HW212485   1.717   4.509   3.005 -0.6982 -1.2625 -1.5821
 3682SOL     OW12486   0.079   0.778  10.664 -0.2501 -0.2032 -0.3777
 3682SOL    HW112487   0.167   0.751  10.688 -1.5708 -2.7909  2.1286
 3682SOL    HW212488   0.055   0.721  10.591 -0.3356 -0.4155 -0.1818
 3683SOL     OW12489   0.178   2.230   3.187 -0.1648  0.0882  0.1741
 3683SOL    HW112490   0.173   2.139   3.156 -0.9919  0.5079 -0.9749
 3683SOL    HW212491   0.088   2.252   3.210 -0.0297  0.7406  0.0910
 3684SOL     OW12492   6.475   1.703   3.839 -0.5882  0.3704 -0.4660
 3684SOL    HW112493   6.456   1.675   3.749 -0.0101 -0.1902 -0.4223
 3684SOL    HW212494   6.437   1.634   3.894 -0.5494  0.4797 -0.3003
 3685SOL     OW12495   3.079   7.493   4.149 -0.0048  0.4705 -0.0466
 3685SOL    HW112496   3.073   7.549   4.072  2.2551  1.1802  0.2081
 3685SOL    HW212497   3.118   7.549   4.216  2.8292 -1.4495  0.0840
 3686SOL     OW12498   2.045   0.717   7.563 -0.4013 -0.4574 -0.1718
 3686SOL    HW112499   2.044   0.696   7.470 -1.8731  0.0484 -0.3015
 3686SOL    HW212500   1.980   0.787   7.573  1.2786  1.0440  0.8967
 3687SOL     OW12501   4.516   6.021   5.532 -0.0471 -0.8779  0.0926
 3687SOL    HW112502   4.589   6.043   5.474 -1.5230  1.2673 -1.1128
 3687SOL    HW212503   4.550   5.952   5.589  2.6579 -0.4495 -0.8637
 3688SOL     OW12504   5.823   1.876   8.621 -0.8514  0.4741  0.0984
 3688SOL    HW112505   5.798   1.784   8.610  2.6196 -0.9121  2.3750
 3688SOL    HW212506   5.741   1.919   8.646 -2.6614 -1.8668 -1.3116
 3689SOL     OW12507   3.247   5.397  12.381  0.2976 -0.2589 -0.8998
 3689SOL    HW112508   3.224   5.306  12.360  1.5575 -0.7784 -0.1653
 3689SOL    HW212509   3.253   5.440  12.296  2.8635 -1.6942 -1.5646
 3690SOL     OW12510   5.019   0.909   4.153 -1.0579  0.0920  0.4005
 3690SOL    HW112511   5.066   0.947   4.079 -1.6832  1.3142  0.6154
 3690SOL    HW212512   5.018   0.815   4.135 -0.1549  0.2501 -0.5303
 3691SOL     OW12513   3.470   0.107   9.082 -0.7096  0.5800  0.6311
 3691SOL    HW112514   3.439   0.195   9.104  0.4544  1.2310 -0.2279
 3691SOL    HW212515   3.525   0.082   9.156 -1.9510  0.0560  1.4268
 3692SOL     OW12516   5.314   5.765   1.418  0.3973 -0.0573  0.0486
 3692SOL    HW112517   5.220   5.758   1.400  0.3015  0.4605  0.3134
 3692SOL    HW212518   5.356   5.727   1.341 -0.0323 -0.7662  0.1549
 3693SOL     OW12519   7.246   1.899  11.595  0.0494 -0.1421  0.2175
 3693SOL    HW112520   7.243   1.879  11.688  0.0473 -1.0907  0.0323
 3693SOL    HW212521   7.154   1.909  11.569  0.0820  0.8163  0.4464
 3694SOL     OW12522   4.964   6.729   4.381 -0.1849  0.3628 -0.0286
 3694SOL    HW112523   4.996   6.668   4.315 -2.5012 -0.4152 -0.5059
 3694SOL    HW212524   5.023   6.805   4.374 -0.1045  0.1484 -2.7219
 3695SOL     OW12525   0.722   1.913   7.546  0.1958 -0.5516 -0.5924
 3695SOL    HW112526   0.696   1.972   7.616  2.3281 -1.5282  1.1552
 3695SOL    HW212527   0.679   1.830   7.567  1.0622 -0.9244 -0.2649
 3696SOL     OW12528   0.628   5.241  10.730 -0.0518  0.8003 -0.0853
 3696SOL    HW112529   0.566   5.313  10.742  0.9883  1.5596  0.9175
 3696SOL    HW212530   0.704   5.266  10.782  1.4425  0.2792 -1.9146
 3697SOL     OW12531   4.244   6.173   2.047 -0.1199 -1.0247 -0.0804
 3697SOL    HW112532   4.152   6.167   2.022  0.0505 -1.7993 -0.5484
 3697SOL    HW212533   4.275   6.082   2.046  0.9871 -0.6666 -1.2354
 3698SOL     OW12534   1.307   1.467   4.182 -0.6350  0.3446  0.3466
 3698SOL    HW112535   1.261   1.522   4.118  1.6557 -0.1452 -1.9078
 3698SOL    HW212536   1.398   1.494   4.175  0.0715 -1.5203  1.5763
 3699SOL     OW12537   0.115   5.291   7.616 -0.3251  0.7347  0.2531
 3699SOL    HW112538   0.043   5.230   7.633  0.1013 -0.6410 -2.3844
 3699SOL    HW212539   0.194   5.239   7.628  0.3506  2.1932  2.9722
 3700SOL     OW12540   3.612   7.143   6.899  0.5647  0.5794 -0.3369
 3700SOL    HW112541   3.637   7.055   6.869  0.0814  0.6452 -0.9580
 3700SOL    HW212542   3.691   7.195   6.888  1.4792 -0.1971  1.9088
 3701SOL     OW12543   2.236   0.002   5.172 -0.2335 -0.2442 -0.1066
 3701SOL    HW112544   2.222   0.042   5.085  0.4397 -1.1750 -0.6536
 3701SOL    HW212545   2.149  -0.027   5.199 -0.2408 -1.2287 -1.1202
 3702SOL     OW12546   3.001   0.464  10.501  0.4207  0.6112  0.4713
 3702SOL    HW112547   2.969   0.438  10.587  0.3670 -2.7154 -0.4043
 3702SOL    HW212548   3.088   0.424  10.495 -0.0106 -0.1766 -1.3710
 3703SOL     OW12549   7.099   1.122   2.017  0.2520  0.0715 -0.2358
 3703SOL    HW112550   7.133   1.047   1.967 -0.9757  0.1570 -1.2674
 3703SOL    HW212551   7.127   1.106   2.107  1.6372 -0.6379 -0.7603
 3704SOL     OW12552   4.011   5.523   3.549 -0.1989 -0.3129  0.0523
 3704SOL    HW112553   4.035   5.455   3.612  0.8261  1.4041  1.6170
 3704SOL    HW212554   3.918   5.538   3.565  0.1316  0.3691  1.4789
 3705SOL     OW12555   2.096   4.000   1.384  0.0709  0.2520 -0.4531
 3705SOL    HW112556   2.068   4.004   1.475  2.0545 -0.9206  0.2608
 3705SOL    HW212557   2.091   4.091   1.354 -0.7760  0.6300  0.7693
 3706SOL     OW12558   3.673   5.377   2.723 -1.1143  0.2185 -0.2466
 3706SOL    HW112559   3.747   5.434   2.700 -1.4330  0.5278 -0.5120
 3706SOL    HW212560   3.714   5.302   2.766 -0.4508 -0.5319 -2.0793
 3707SOL     OW12561   3.421   0.631   2.962 -0.3720  0.4343 -0.1283
 3707SOL    HW112562   3.327   0.612   2.957 -0.7441  2.3012 -1.5716
 3707SOL    HW212563   3.427   0.705   3.024  0.4995 -1.2399  1.9215
 3708SOL     OW12564   4.481   0.588   1.516  1.0487 -0.0998  0.5193
 3708SOL    HW112565   4.502   0.538   1.437  2.1654  0.7481  0.2587
 3708SOL    HW212566   4.387   0.575   1.528  1.5412 -3.9553  1.6614
 3709SOL     OW12567   7.175   5.693   6.622  0.3577  0.2330 -0.0949
 3709SOL    HW112568   7.250   5.665   6.570 -1.0884 -0.5629 -1.8401
 3709SOL    HW212569   7.191   5.655   6.709 -1.2498 -6.3016 -2.0706
 3710SOL     OW12570   5.040   4.255   1.558  0.1579 -0.8128 -0.0461
 3710SOL    HW112571   5.009   4.229   1.471  1.2468 -0.0402 -0.6726
 3710SOL    HW212572   5.100   4.185   1.584  1.1206 -0.2254 -0.6440
 3711SOL     OW12573   3.280   2.955   3.546 -0.2272  0.7620 -0.4480
 3711SOL    HW112574   3.234   3.032   3.512 -0.8278  0.0879 -1.2188
 3711SOL    HW212575   3.367   2.988   3.568 -1.0764  2.0951  1.1760
 3712SOL     OW12576   3.566   3.792   7.275  0.6490  0.2119 -0.5988
 3712SOL    HW112577   3.635   3.733   7.245 -0.7846 -0.8551 -1.9688
 3712SOL    HW212578   3.576   3.793   7.370  0.2496 -2.9371 -0.4133
 3713SOL     OW12579   7.028   6.684   1.602  0.0824 -0.2019  0.0994
 3713SOL    HW112580   6.937   6.712   1.598  0.1098 -0.0652  0.4502
 3713SOL    HW212581   7.063   6.725   1.681  0.5676  0.1100 -0.2669
 3714SOL     OW12582   0.318   5.958   3.022 -0.8971 -0.0257  0.0222
 3714SOL    HW112583   0.407   5.933   3.049 -1.1221 -0.2471  0.5640
 3714SOL    HW212584   0.264   5.883   3.046 -1.7674  1.3292  2.6366
 3715SOL     OW12585   1.865   3.333   9.767 -0.0693 -0.4685 -0.1780
 3715SOL    HW112586   1.943   3.388   9.769  0.1971 -0.6525 -2.6338
 3715SOL    HW212587   1.894   3.249   9.805 -0.3209  0.7360  3.0162
 3716SOL     OW12588   4.813   2.988   6.493 -0.4190 -0.2058  0.0648
 3716SOL    HW112589   4.899   3.012   6.458 -0.4614  0.3454  0.3274
 3716SOL    HW212590   4.768   2.946   6.420 -0.5292  0.9842 -0.5785
 3717SOL     OW12591   4.927   0.989   5.812  0.2688  0.8102 -0.3701
 3717SOL    HW112592   5.002   1.027   5.857  1.4112  0.7131 -2.0939
 3717SOL    HW212593   4.956   0.980   5.721 -0.8655 -1.7316 -0.5636
 3718SOL     OW12594   3.503   6.089   9.354 -0.5515 -0.3936  0.4060
 3718SOL    HW112595   3.416   6.049   9.355 -1.1676  0.4109 -3.5649
 3718SOL    HW212596   3.488   6.177   9.319  1.5819  0.9325  2.5215
 3719SOL     OW12597   6.701   1.044   8.399  0.3270  0.1809  0.6200
 3719SOL    HW112598   6.780   1.074   8.355  0.0073  0.2662  0.0851
 3719SOL    HW212599   6.731   0.978   8.462  0.6665 -0.9900 -0.7094
 3720SOL     OW12600   0.149   0.965   5.305  0.0695 -0.1275  0.0518
 3720SOL    HW112601   0.054   0.974   5.312 -0.1072 -1.4418 -0.3827
 3720SOL    HW212602   0.181   0.991   5.391 -0.9855 -2.8524  1.4082
 3721SOL     OW12603   3.189   0.779   7.397 -0.5072 -0.6737  0.6279
 3721SOL    HW112604   3.195   0.685   7.381 -1.1934 -0.7082  0.5330
 3721SOL    HW212605   3.113   0.789   7.456 -0.9277 -0.1175  0.0153
 3722SOL     OW12606   1.375   4.664   7.648  0.4846  0.1038 -0.8459
 3722SOL    HW112607   1.325   4.614   7.583 -0.0460 -0.8643  0.2655
 3722SOL    HW212608   1.448   4.606   7.670 -0.4113 -0.4281  0.8317
 3723SOL     OW12609   5.579   0.050  10.462  0.5642  0.9642  0.0615
 3723SOL    HW112610   5.633   0.049  10.384  2.8820  1.7531  1.5611
 3723SOL    HW212611   5.497   0.092  10.434  0.9000  0.2506 -2.1439
 3724SOL     OW12612   6.166   2.111   4.723  0.3333 -0.4373  0.1923
 3724SOL    HW112613   6.244   2.126   4.670  0.8080  0.0740  0.9960
 3724SOL    HW212614   6.094   2.149   4.673  0.6592 -0.6186 -0.4110
 3725SOL     OW12615   0.141   0.015   7.083  0.0786  0.3285 -0.5203
 3725SOL    HW112616   0.158   0.009   7.177 -0.5908  3.3132 -0.1138
 3725SOL    HW212617   0.046   0.003   7.075  0.1198  0.1964 -0.8286
 3726SOL     OW12618   4.901   1.985  10.800 -0.3432 -0.1892 -0.1507
 3726SOL    HW112619   4.980   1.955  10.755  0.6087 -0.5668  1.6756
 3726SOL    HW212620   4.904   2.080  10.791  0.9913 -0.0905  0.8304
 3727SOL     OW12621   2.615   0.383  10.538  0.3987 -0.7788 -0.0130
 3727SOL    HW112622   2.657   0.415  10.458  1.0259  0.0715  0.6338
 3727SOL    HW212623   2.687   0.350  10.591  0.1874  0.0118  0.8023
 3728SOL     OW12624   0.350   7.109   1.315 -0.0632  0.1235 -1.0688
 3728SOL    HW112625   0.356   7.116   1.219  0.3999 -1.3981 -1.1795
 3728SOL    HW212626   0.281   7.045   1.329 -0.3634  0.5959 -0.3554
 3729SOL     OW12627   0.396   3.547   7.763  0.3608  0.2666 -0.0129
 3729SOL    HW112628   0.363   3.461   7.735  0.9238  0.2084 -0.5331
 3729SOL    HW212629   0.395   3.543   7.859 -1.6805  0.4960  0.0240
 3730SOL     OW12630   6.551   3.845  10.831 -0.1617  0.0001 -0.2706
 3730SOL    HW112631   6.614   3.829  10.761  0.0741 -0.9322  0.1435
 3730SOL    HW212632   6.477   3.888  10.788 -0.5632 -1.6748 -1.3322
 3731SOL     OW12633   2.796   7.699   0.831 -0.3472 -0.2106  0.4021
 3731SOL    HW112634   2.878   7.672   0.872  0.0353  0.0162 -0.2083
 3731SOL    HW212635   2.769   7.776   0.880  0.1502  0.1078  0.1734
 3732SOL     OW12636   7.709   2.766   7.600 -0.0441  0.1195 -0.3112
 3732SOL    HW112637   7.736   2.769   7.692 -0.0044  1.1896 -0.3413
 3732SOL    HW212638   7.692   2.674   7.583 -0.8480  0.0023  1.0027
 3733SOL     OW12639   7.409   2.974   3.120  0.2172  0.3015 -0.6240
 3733SOL    HW112640   7.402   2.971   3.216  1.4294 -0.1844 -0.5240
 3733SOL    HW212641   7.340   2.915   3.089 -0.5671  0.9226 -0.0770
 3734SOL     OW12642   2.174   5.674   0.691  0.4461  0.2901 -0.2620
 3734SOL    HW112643   2.121   5.748   0.663 -0.4670 -0.0651  0.4673
 3734SOL    HW212644   2.162   5.609   0.621 -3.1816 -1.2500  1.5141
 3735SOL     OW12645   4.966   0.179   7.372  0.2128  0.0258  0.1339
 3735SOL    HW112646   4.875   0.167   7.398 -0.2626  2.6735 -0.0082
 3735SOL    HW212647   4.962   0.232   7.293  1.8809 -1.1222 -0.7952
 3736SOL     OW12648   5.146   6.351   4.290  0.2029  0.4800  0.1051
 3736SOL    HW112649   5.236   6.329   4.316  0.0230 -0.3651  0.0343
 3736SOL    HW212650   5.133   6.304   4.208 -0.1828  0.8950 -0.0702
 3737SOL     OW12651   2.055   7.702   1.469 -0.5144 -0.0936  1.1805
 3737SOL    HW112652   2.057   7.612   1.436 -0.1695  0.8633 -1.7305
 3737SOL    HW212653   2.143   7.735   1.454 -0.8501  0.9668  1.4313
 3738SOL     OW12654   2.082   5.492  11.215  0.6249  0.5085 -0.3154
 3738SOL    HW112655   1.989   5.514  11.208  0.4023  0.3255  1.6785
 3738SOL    HW212656   2.124   5.571  11.248  1.2357  0.6514 -1.3838
 3739SOL     OW12657   2.865   5.602   4.938 -0.1083  0.2465 -0.6094
 3739SOL    HW112658   2.779   5.644   4.929  0.7408  2.5048  1.0384
 3739SOL    HW212659   2.849   5.529   4.997 -0.5957  1.9792  1.5477
 3740SOL     OW12660   4.480   0.889   5.490 -0.2270  0.0514 -0.3378
 3740SOL    HW112661   4.386   0.892   5.472 -0.3538 -0.7505  0.1638
 3740SOL    HW212662   4.502   0.796   5.489  0.8353  0.2776 -1.7937
 3741SOL     OW12663   7.594   0.517  12.157  0.1176  0.1186  0.3242
 3741SOL    HW112664   7.553   0.518  12.244  0.4219 -0.5905  0.4817
 3741SOL    HW212665   7.682   0.551  12.172  0.0117  0.4494  0.2056
 3742SOL     OW12666   2.006   4.945   9.251  0.0294  0.1084  0.0883
 3742SOL    HW112667   1.979   4.867   9.299 -0.0670 -0.2903 -0.6026
 3742SOL    HW212668   2.043   4.912   9.169  2.2993  0.6561  0.8378
 3743SOL     OW12669   4.026   6.377   2.463  0.3469 -0.2798 -0.1384
 3743SOL    HW112670   3.983   6.430   2.396  1.8843  1.4910  0.2089
 3743SOL    HW212671   4.027   6.289   2.426  0.2326  0.4449 -1.9861
 3744SOL     OW12672   3.261   5.699   5.196 -1.2689 -0.6095 -0.0621
 3744SOL    HW112673   3.217   5.705   5.281 -2.2767 -0.6220 -0.5714
 3744SOL    HW212674   3.316   5.777   5.191  0.2141 -1.4898  1.3540
 3745SOL     OW12675   4.415   6.891  10.539  0.1646  0.1455  0.2266
 3745SOL    HW112676   4.410   6.883  10.634  1.6200  0.1951  0.3291
 3745SOL    HW212677   4.410   6.801  10.506  0.5478  0.0558  0.4101
 3746SOL     OW12678   1.539   0.176   4.487  0.5717 -0.1177 -1.0212
 3746SOL    HW112679   1.547   0.098   4.432 -1.0683 -1.6392  0.7105
 3746SOL    HW212680   1.472   0.229   4.444 -0.1936 -0.9502 -0.8891
 3747SOL     OW12681   1.645   2.703  10.358 -0.4961  0.0891  0.1846
 3747SOL    HW112682   1.602   2.618  10.352  0.9761 -0.8868  2.1395
 3747SOL    HW212683   1.617   2.739  10.442 -0.1951  1.0052 -0.0952
 3748SOL     OW12684   7.057   2.051   3.051  0.0797  0.7259  0.8876
 3748SOL    HW112685   7.001   2.116   3.093 -0.2334  0.2732  1.1910
 3748SOL    HW212686   7.133   2.044   3.108  0.6450  1.6306  0.2663
 3749SOL     OW12687   2.088   1.532   6.199  0.0673  0.0429  0.1627
 3749SOL    HW112688   2.032   1.464   6.161  0.3787 -0.0354 -0.1590
 3749SOL    HW212689   2.098   1.597   6.130  1.2626 -0.4713 -0.1672
 3750SOL     OW12690   2.073   3.886   6.261 -0.1907  0.2062 -0.1213
 3750SOL    HW112691   2.079   3.804   6.213 -0.0768 -0.0345  0.3076
 3750SOL    HW212692   2.006   3.871   6.327 -0.0556  0.4050  0.0643
 3751SOL     OW12693   0.982   2.177  11.234  0.3951  0.0715 -0.6825
 3751SOL    HW112694   1.017   2.192  11.322  1.3637  1.0212 -1.2025
 3751SOL    HW212695   0.905   2.122  11.248 -0.3270  1.3783  0.8942
 3752SOL     OW12696   1.796   2.480   5.007  0.4013  0.9001  0.0069
 3752SOL    HW112697   1.748   2.552   5.047 -0.1736  0.7995 -0.4874
 3752SOL    HW212698   1.781   2.490   4.913 -0.2723 -0.2556 -0.0334
 3753SOL     OW12699   7.315   5.769   4.283 -0.2303  0.0508  0.5793
 3753SOL    HW112700   7.220   5.771   4.292 -0.4066  1.6455 -1.0644
 3753SOL    HW212701   7.337   5.849   4.235  1.7832 -1.0356 -0.4833
 3754SOL     OW12702   4.473   1.028   4.675  0.2905 -0.2999 -0.2751
 3754SOL    HW112703   4.416   1.002   4.748  1.3632 -0.2123  0.6194
 3754SOL    HW212704   4.549   1.069   4.717  0.4347  0.7473 -1.4897
 3755SOL     OW12705   6.965   1.738   1.151  0.0437 -0.5821 -0.7795
 3755SOL    HW112706   6.964   1.822   1.197 -3.3045 -0.0890 -1.4949
 3755SOL    HW212707   7.006   1.677   1.213 -2.0855  0.5433  1.9429
 3756SOL     OW12708   1.539   7.666   0.344 -0.1371  0.0870 -0.1173
 3756SOL    HW112709   1.489   7.641   0.267 -0.0071 -0.6855  0.0442
 3756SOL    HW212710   1.516   7.601   0.411 -1.8268  1.8870  1.1714
 3757SOL     OW12711   4.737   1.844   1.452  0.0796  0.0187 -0.0178
 3757SOL    HW112712   4.827   1.840   1.482  0.5037 -0.8290 -1.3229
 3757SOL    HW212713   4.742   1.882   1.364 -0.5835 -1.7426 -0.8810
 3758SOL     OW12714   7.443   1.100  10.425  0.1761  0.1400  0.6714
 3758SOL    HW112715   7.446   1.149  10.343  0.4355  0.7398  1.0353
 3758SOL    HW212716   7.354   1.113  10.458 -0.3941 -1.2738 -0.2090
 3759SOL     OW12717   7.135   7.689   1.215 -0.5275  0.2204 -0.0906
 3759SOL    HW112718   7.165   7.777   1.235  0.2511 -0.3735  1.5072
 3759SOL    HW212719   7.054   7.679   1.264 -0.4127 -0.0820  0.0384
 3760SOL     OW12720   1.825   4.505   2.749 -0.3192 -0.1727  0.5039
 3760SOL    HW112721   1.761   4.554   2.801  0.1796  1.9267 -0.7250
 3760SOL    HW212722   1.910   4.541   2.777  0.0090  0.3143 -1.0220
 3761SOL     OW12723   6.095   7.747   6.702  0.3294 -0.1523 -0.3566
 3761SOL    HW112724   6.021   7.701   6.663  0.2563  0.9199 -1.5395
 3761SOL    HW212725   6.098   7.716   6.792 -2.0998  0.3909 -0.0226
 3762SOL     OW12726   7.845   6.048   9.014 -0.0271  0.1559  0.3703
 3762SOL    HW112727   7.864   6.015   8.927  0.7842 -1.1545  1.0237
 3762SOL    HW212728   7.750   6.038   9.024 -0.2620  1.1439 -0.6660
 3763SOL     OW12729   1.923   5.738   4.816  0.1983  0.2794 -0.5154
 3763SOL    HW112730   1.930   5.694   4.731 -0.3453  0.5274 -0.6941
 3763SOL    HW212731   1.878   5.821   4.797  0.2827  0.4442 -0.0233
 3764SOL     OW12732   3.486   4.193   9.832 -0.6277 -0.3417  0.3266
 3764SOL    HW112733   3.476   4.128   9.901  1.0207 -0.8222  0.1513
 3764SOL    HW212734   3.452   4.150   9.753 -0.6293 -0.5449  0.4383
 3765SOL     OW12735   0.574   4.492   2.378 -0.2846 -0.2315  0.6276
 3765SOL    HW112736   0.517   4.540   2.438  1.9940  0.8516  2.0847
 3765SOL    HW212737   0.569   4.401   2.409  0.7905  0.2898  2.5843
 3766SOL     OW12738   0.285   3.428   9.625  0.2326 -0.4539 -0.1540
 3766SOL    HW112739   0.292   3.523   9.625  0.6736 -0.4813 -0.1450
 3766SOL    HW212740   0.348   3.400   9.692  0.5485 -0.7791 -0.5813
 3767SOL     OW12741   7.046   5.031   1.842 -0.6657 -1.1191 -0.2225
 3767SOL    HW112742   7.005   4.944   1.842  0.9308 -1.8946 -0.4763
 3767SOL    HW212743   7.118   5.024   1.905  0.5498 -0.5157 -1.5057
 3768SOL     OW12744   6.341   4.202  11.268  0.2244  0.0753 -0.3787
 3768SOL    HW112745   6.300   4.242  11.345  0.8351  0.5601 -0.2950
 3768SOL    HW212746   6.316   4.110  11.272 -0.7766  0.3462 -0.2880
 3769SOL     OW12747   0.918   3.657   6.142  0.0808 -0.0722  0.0092
 3769SOL    HW112748   0.997   3.604   6.132  0.2326  0.3162 -1.0036
 3769SOL    HW212749   0.949   3.748   6.137 -0.3898  0.0844 -0.1555
 3770SOL     OW12750   6.074   1.492   4.367 -1.0940  0.2322  0.1529
 3770SOL    HW112751   6.156   1.460   4.405 -2.2972 -1.0821  1.8399
 3770SOL    HW212752   6.012   1.490   4.440 -2.8099  0.4883 -1.2302
 3771SOL     OW12753   5.892   1.151   3.573 -0.3642 -0.4298 -0.1110
 3771SOL    HW112754   5.975   1.183   3.608 -0.3173 -2.1652  1.5262
 3771SOL    HW212755   5.868   1.215   3.506  1.9459  0.4607 -0.1748
 3772SOL     OW12756   3.522   2.828   1.623  0.2618 -0.0918 -0.1140
 3772SOL    HW112757   3.458   2.880   1.575 -0.2077 -1.0764 -0.5910
 3772SOL    HW212758   3.589   2.807   1.559  0.4441 -0.0912  0.0734
 3773SOL     OW12759   5.667   6.216  12.350  0.0875  0.0026  0.0984
 3773SOL    HW112760   5.626   6.147  12.297 -0.6009 -0.1849  0.8608
 3773SOL    HW212761   5.616   6.294  12.331 -0.1481 -0.0608  0.4725
 3774SOL     OW12762   6.540   3.447   2.771  0.3782 -0.3145  0.3115
 3774SOL    HW112763   6.562   3.504   2.697 -0.3424  0.5477  0.7396
 3774SOL    HW212764   6.622   3.433   2.816  0.8082 -0.7421 -0.5755
 3775SOL     OW12765   1.280   5.308   9.100  0.0793 -0.1959  0.1054
 3775SOL    HW112766   1.237   5.387   9.132  0.4545 -0.2245  0.6965
 3775SOL    HW212767   1.281   5.249   9.175  1.3950 -0.0884  0.1957
 3776SOL     OW12768   1.622   6.411   6.963  0.0486  0.7010  0.0847
 3776SOL    HW112769   1.653   6.328   6.927  1.8431  0.3357  2.2926
 3776SOL    HW212770   1.555   6.386   7.027  1.2480  0.8225  1.4357
 3777SOL     OW12771   2.937   5.422   1.568 -0.2768 -0.5702  0.5035
 3777SOL    HW112772   2.967   5.353   1.509 -1.9004 -0.6532 -0.2977
 3777SOL    HW212773   2.849   5.394   1.594 -1.7238  1.9654 -1.2277
 3778SOL     OW12774   3.385   5.941  10.110  0.0018  0.6503  0.5020
 3778SOL    HW112775   3.320   5.993  10.157 -0.8278 -0.3598  0.4941
 3778SOL    HW212776   3.437   5.899  10.180  1.0668  1.9168  0.5176
 3779SOL     OW12777   5.221   1.866   8.015 -0.1655  0.2246 -0.2061
 3779SOL    HW112778   5.211   1.785   8.064 -1.7264 -0.5202 -1.6459
 3779SOL    HW212779   5.204   1.842   7.924 -2.4557  2.3989 -0.4811
 3780SOL     OW12780   0.070   7.344   3.065 -0.0063 -0.6201  0.3782
 3780SOL    HW112781   0.068   7.424   3.118  0.8970 -1.7788  2.2964
 3780SOL    HW212782  -0.006   7.294   3.095  0.3206 -1.1509  0.3320
 3781SOL     OW12783   5.973   6.830   3.081  0.3643 -0.0832 -0.5761
 3781SOL    HW112784   5.920   6.816   3.160 -0.0935 -0.3616 -0.9282
 3781SOL    HW212785   5.927   6.781   3.013  2.1241 -2.0049 -0.4692
 3782SOL     OW12786   4.707   3.753   5.432 -0.4039  0.2237 -0.0575
 3782SOL    HW112787   4.761   3.813   5.381 -1.4948  0.7472 -0.6519
 3782SOL    HW212788   4.740   3.666   5.409  1.3263  0.5773  0.9694
 3783SOL     OW12789   1.894   0.020  10.365  0.6761  0.2737  0.1681
 3783SOL    HW112790   1.864  -0.030  10.441  0.6082  0.5567  0.3277
 3783SOL    HW212791   1.837  -0.008  10.294  1.3173 -0.6646  0.0056
 3784SOL     OW12792   3.882   6.226   1.307  0.6010 -0.5276 -0.8734
 3784SOL    HW112793   3.822   6.292   1.343 -1.2559 -2.3699 -0.4363
 3784SOL    HW212794   3.959   6.232   1.363 -0.1471  0.2298  0.1275
 3785SOL     OW12795   2.930   6.607   6.838 -0.0391  0.1052 -0.6273
 3785SOL    HW112796   2.957   6.571   6.923 -1.1262  0.6247 -0.0364
 3785SOL    HW212797   2.842   6.572   6.825  0.7099 -1.2620 -2.3262
 3786SOL     OW12798   4.993   0.577   1.956  0.6040 -0.2377  0.0477
 3786SOL    HW112799   5.025   0.612   2.039  0.1993  0.1150  0.0567
 3786SOL    HW212800   5.029   0.636   1.889  0.4308 -0.1618  0.0195
 3787SOL     OW12801   1.833   7.804  11.352 -0.0158  0.0841  0.6479
 3787SOL    HW112802   1.864   7.722  11.312  2.0634  0.6720  0.9624
 3787SOL    HW212803   1.743   7.784  11.380 -0.9919 -0.8659 -2.7225
 3788SOL     OW12804   5.395   0.856   4.028 -0.3729  0.5692  0.1573
 3788SOL    HW112805   5.455   0.803   3.976 -2.2018 -2.0622  0.5227
 3788SOL    HW212806   5.444   0.877   4.108  0.4745 -0.4189 -0.0907
 3789SOL     OW12807   6.633   5.745  11.461 -0.2789  0.0790 -0.5781
 3789SOL    HW112808   6.712   5.693  11.448 -0.6549 -0.6731  0.1039
 3789SOL    HW212809   6.561   5.682  11.460 -0.8322  0.6973 -0.6896
 3790SOL     OW12810   0.651   5.589  12.069 -0.0293 -0.2204 -0.0916
 3790SOL    HW112811   0.634   5.497  12.088  1.2046 -0.3865  0.3155
 3790SOL    HW212812   0.744   5.601  12.089 -0.4167  1.3879  0.9973
 3791SOL     OW12813   7.501   1.775   5.502 -0.1229  0.0025 -0.2031
 3791SOL    HW112814   7.564   1.760   5.432 -0.0187  0.0403 -0.1169
 3791SOL    HW212815   7.543   1.837   5.560  0.3495 -1.0363  0.5993
 3792SOL     OW12816   7.320   1.071   4.818 -0.3031 -0.0047 -0.5111
 3792SOL    HW112817   7.232   1.035   4.810 -0.5293  0.1017  1.2306
 3792SOL    HW212818   7.311   1.144   4.879  1.4061 -1.5973  1.7965
 3793SOL     OW12819   6.015   5.526  10.043 -0.3295  0.1469 -0.1036
 3793SOL    HW112820   6.053   5.468  10.109  1.7121  1.0091 -0.4560
 3793SOL    HW212821   6.053   5.497   9.960 -1.2702  0.3991 -0.6494
 3794SOL     OW12822   2.365   7.151   7.906 -0.5475  0.5575  0.0165
 3794SOL    HW112823   2.417   7.174   7.829 -0.9297  1.1108 -0.0797
 3794SOL    HW212824   2.280   7.193   7.892 -1.9167 -2.3436 -0.9955
 3795SOL     OW12825   2.149   6.929   3.368 -0.1356 -0.2662 -0.4555
 3795SOL    HW112826   2.201   6.911   3.446  1.8461  2.2923 -1.0490
 3795SOL    HW212827   2.058   6.924   3.397  0.5370 -0.3650  1.7621
 3796SOL     OW12828   0.586   6.574   4.141  0.4761 -0.0546 -0.5002
 3796SOL    HW112829   0.623   6.588   4.228 -0.6879 -0.2211  0.0453
 3796SOL    HW212830   0.561   6.661   4.111  1.9082  0.1517 -1.1737
 3797SOL     OW12831   0.018   3.647   8.432 -0.0222  0.2135 -0.3042
 3797SOL    HW112832   0.068   3.638   8.514  1.2056 -3.1466 -1.2502
 3797SOL    HW212833  -0.062   3.598   8.447  0.7674 -1.5080 -1.4350
 3798SOL     OW12834   5.322   7.819   7.854 -0.1257 -0.0758  0.2066
 3798SOL    HW112835   5.337   7.885   7.922 -0.3847  0.1626  0.0352
 3798SOL    HW212836   5.227   7.813   7.848 -0.1015 -0.4339  0.1894
 3799SOL     OW12837   2.521   0.269   3.693 -0.1539 -0.2986  0.2586
 3799SOL    HW112838   2.500   0.283   3.601 -2.0685 -2.7149  0.2114
 3799SOL    HW212839   2.606   0.225   3.692  1.8192  3.1783 -0.0013
 3800SOL     OW12840   4.300   6.770   1.489 -0.2988 -0.3166 -0.9963
 3800SOL    HW112841   4.344   6.746   1.571 -0.2507  1.5833 -0.4133
 3800SOL    HW212842   4.302   6.690   1.437  0.2574 -1.3989  0.5926
 3801SOL     OW12843   1.939   6.828   2.694 -0.5985 -0.2142 -0.1694
 3801SOL    HW112844   2.027   6.865   2.695 -0.4623 -0.5466  0.3503
 3801SOL    HW212845   1.902   6.857   2.611 -1.2026  2.7123  0.9970
 3802SOL     OW12846   2.359   0.033   1.814  0.0096 -0.3696 -0.1150
 3802SOL    HW112847   2.406   0.037   1.730 -0.3459 -0.1500 -0.3028
 3802SOL    HW212848   2.368  -0.058   1.842 -0.9234 -0.7484 -0.9976
 3803SOL     OW12849   5.818   5.354   9.147 -0.4523 -0.3301 -0.2430
 3803SOL    HW112850   5.783   5.307   9.223 -0.4479  2.0549  1.3480
 3803SOL    HW212851   5.913   5.354   9.160 -0.4738  0.3771 -0.0414
 3804SOL     OW12852   4.735   5.931   3.662  0.3253 -0.0425 -0.1311
 3804SOL    HW112853   4.662   5.909   3.603  0.7270  2.0647 -1.5462
 3804SOL    HW212854   4.702   6.004   3.715  1.4016  1.0731 -0.9255
 3805SOL     OW12855   6.019   0.901   8.073 -0.6212  0.0120 -0.3056
 3805SOL    HW112856   6.050   0.988   8.098 -1.3200  0.1111  0.2360
 3805SOL    HW212857   6.005   0.906   7.978  1.1157 -0.0730 -0.5984
 3806SOL     OW12858   0.259   4.758   7.018 -0.4052 -0.1755  0.0077
 3806SOL    HW112859   0.225   4.795   7.099 -0.9118  1.0998 -0.7551
 3806SOL    HW212860   0.349   4.792   7.012  0.3627 -1.9454  1.0411
 3807SOL     OW12861   0.737   5.564   0.983  0.5895 -0.0571 -0.3669
 3807SOL    HW112862   0.772   5.476   0.996  0.5252  0.1625  1.5046
 3807SOL    HW212863   0.663   5.570   1.044 -1.0595  0.4328 -2.3012
 3808SOL     OW12864   0.765   1.724   7.981  0.8159 -0.1420  0.7826
 3808SOL    HW112865   0.681   1.740   8.025  0.7599  1.2675  0.2331
 3808SOL    HW212866   0.801   1.812   7.966  1.4418 -0.6306 -0.8001
 3809SOL     OW12867   4.529   0.224  11.067  0.0477  0.5237 -0.3083
 3809SOL    HW112868   4.466   0.174  11.015 -1.1600  1.3956  0.2885
 3809SOL    HW212869   4.483   0.304  11.091  1.1036  0.8185  0.8445
 3810SOL     OW12870   0.481   6.167   8.369 -0.2567 -0.5446 -0.1606
 3810SOL    HW112871   0.517   6.100   8.427 -1.6298 -0.4840  0.8277
 3810SOL    HW212872   0.486   6.129   8.281  0.1244 -1.4208  0.2326
 3811SOL     OW12873   3.923   5.772  12.027 -0.4440  0.2014 -0.5935
 3811SOL    HW112874   3.911   5.697  12.084 -0.1692 -0.1497 -0.9842
 3811SOL    HW212875   3.978   5.833  12.077  0.5235 -0.4764 -0.7991
 3812SOL     OW12876   6.448   1.071   0.310  0.4953  0.2419 -0.2698
 3812SOL    HW112877   6.436   1.020   0.230  1.2059 -2.3533  1.1760
 3812SOL    HW212878   6.374   1.046   0.366  1.6461 -0.4040  1.0267
 3813SOL     OW12879   1.535   2.722   8.634 -0.1447  0.2069 -0.1556
 3813SOL    HW112880   1.487   2.770   8.566 -0.8276  2.5443  1.8587
 3813SOL    HW212881   1.517   2.630   8.615 -1.2998  0.8073 -2.3938
 3814SOL     OW12882   6.053   4.866   9.943 -0.0452 -0.5182 -0.2501
 3814SOL    HW112883   5.957   4.860   9.944 -0.0590 -0.3126 -0.2878
 3814SOL    HW212884   6.071   4.955   9.972  0.1527 -0.7415  0.3116
 3815SOL     OW12885   7.096   6.916   2.178 -0.2137 -0.0669  0.3126
 3815SOL    HW112886   7.099   7.012   2.180  0.8716 -0.1044  0.7015
 3815SOL    HW212887   7.070   6.896   2.088  1.6772  0.5753 -0.4405
 3816SOL     OW12888   3.224   2.882   4.442  0.0667  0.0372 -0.5577
 3816SOL    HW112889   3.143   2.831   4.432 -1.1356  1.9480 -1.0636
 3816SOL    HW212890   3.218   2.921   4.529  0.8194 -0.3938 -0.3000
 3817SOL     OW12891   4.627   1.187  10.256 -0.5972 -0.2147 -0.7107
 3817SOL    HW112892   4.663   1.124  10.193 -0.4106 -1.5787  0.6862
 3817SOL    HW212893   4.576   1.133  10.317 -1.0911  1.1042  0.0856
 3818SOL     OW12894   5.635   2.591   9.047 -0.6004  0.5581  0.2653
 3818SOL    HW112895   5.543   2.618   9.055 -0.4042  1.2463  0.2776
 3818SOL    HW212896   5.669   2.642   8.974 -0.4985 -0.4903 -0.4462
 3819SOL     OW12897   4.637   1.492   7.691 -0.8145  0.0400  0.0474
 3819SOL    HW112898   4.613   1.577   7.728 -0.9135 -0.7485  1.9150
 3819SOL    HW212899   4.553   1.449   7.674 -0.8502 -1.0564  2.5678
 3820SOL     OW12900   4.585   5.034  12.107 -0.2049  0.3856  0.1527
 3820SOL    HW112901   4.574   5.010  12.199 -1.1321 -0.0385 -0.0630
 3820SOL    HW212902   4.666   4.989  12.080 -0.7000 -0.6725  0.3726
 3821SOL     OW12903   0.055   4.675   6.846  0.0345 -0.4174  0.2843
 3821SOL    HW112904   0.126   4.713   6.898  1.3000 -1.7576 -0.3850
 3821SOL    HW212905   0.100   4.625   6.778 -1.5725 -0.3955 -0.8451
 3822SOL     OW12906   2.574   4.905   9.887 -0.5689  0.2900 -0.3198
 3822SOL    HW112907   2.655   4.859   9.908 -0.8954 -0.1487  0.0022
 3822SOL    HW212908   2.522   4.841   9.838 -1.5434 -0.1448  1.2077
 3823SOL     OW12909   3.904   2.308   7.954  0.5852 -0.1230 -0.1060
 3823SOL    HW112910   3.880   2.354   7.873 -1.7036 -0.3833  0.3629
 3823SOL    HW212911   3.838   2.335   8.018  0.4203 -2.3819  0.7880
 3824SOL     OW12912   7.586   7.046  11.798  0.1133  0.4961 -0.6878
 3824SOL    HW112913   7.507   7.098  11.810  0.0351 -0.1479  2.5019
 3824SOL    HW212914   7.563   6.959  11.831  1.3949 -0.4807 -2.2174
 3825SOL     OW12915   6.405   7.532   6.856 -0.6655  0.1433 -0.0594
 3825SOL    HW112916   6.348   7.592   6.904 -0.6847  0.0985 -0.0255
 3825SOL    HW212917   6.492   7.545   6.894 -0.7127 -0.0127  0.0990
 3826SOL     OW12918   6.816   1.435   4.524 -0.1326  0.4678 -0.0332
 3826SOL    HW112919   6.860   1.471   4.447 -2.4662 -0.5223 -1.9536
 3826SOL    HW212920   6.744   1.496   4.541 -0.3100  0.0713  0.6647
 3827SOL     OW12921   2.337   4.916   1.076  0.8856 -0.3842 -0.3420
 3827SOL    HW112922   2.347   4.911   0.981 -1.6995 -2.6266 -0.6315
 3827SOL    HW212923   2.243   4.933   1.089  1.1562 -0.2589  1.8078
 3828SOL     OW12924   5.703   7.050   7.778 -0.0395  0.1325  0.3751
 3828SOL    HW112925   5.634   7.014   7.723  0.3650 -2.3559  1.3225
 3828SOL    HW212926   5.784   7.029   7.732  0.2524 -1.1068  1.3912
 3829SOL     OW12927   0.216   2.940   3.985 -0.0613  0.9275 -0.1114
 3829SOL    HW112928   0.180   2.970   3.902  0.7177 -0.1776 -0.8716
 3829SOL    HW212929   0.311   2.934   3.970  0.0740  0.5671  0.8105
 3830SOL     OW12930   7.472   1.962  11.478 -0.3968  0.1072  0.1496
 3830SOL    HW112931   7.486   2.056  11.471 -1.0318  0.0778 -2.7689
 3830SOL    HW212932   7.379   1.953  11.502 -1.2445  0.3333 -2.6450
 3831SOL     OW12933   2.668   1.917   3.194 -0.4876  0.4494 -0.0493
 3831SOL    HW112934   2.755   1.942   3.225 -0.4272 -0.1464  0.2830
 3831SOL    HW212935   2.649   1.979   3.123  0.5440  0.1137 -0.6456
 3832SOL     OW12936   4.595   5.614   8.333 -0.5580  0.0126 -0.1433
 3832SOL    HW112937   4.656   5.663   8.278 -0.4495 -2.1409 -2.1259
 3832SOL    HW212938   4.634   5.616   8.421  1.6407 -0.0926 -1.0529
 3833SOL     OW12939   3.445   1.933   3.457  0.4665 -0.5377  0.0074
 3833SOL    HW112940   3.469   1.862   3.516  0.7653 -1.5557 -1.2870
 3833SOL    HW212941   3.512   1.932   3.388 -0.0088  0.4396 -0.5038
 3834SOL     OW12942   1.454   3.924   5.180  0.6294  0.7761 -0.1535
 3834SOL    HW112943   1.483   3.979   5.107  0.4899  1.9188  0.6301
 3834SOL    HW212944   1.385   3.974   5.222  0.0930 -0.2692  0.2516
 3835SOL     OW12945   1.342   5.683   5.049  0.3843  0.2811 -0.7342
 3835SOL    HW112946   1.281   5.675   5.123  0.7109  0.4025 -0.4485
 3835SOL    HW212947   1.347   5.595   5.013  2.5240 -0.5297  1.2501
 3836SOL     OW12948   3.287   4.365   2.455 -0.6058 -0.2100 -0.3336
 3836SOL    HW112949   3.194   4.367   2.434 -0.5094 -1.5233 -0.9595
 3836SOL    HW212950   3.326   4.434   2.400 -0.6672 -2.1971 -3.0549
 3837SOL     OW12951   5.371   0.640   3.059  0.0743 -0.6202  0.1659
 3837SOL    HW112952   5.388   0.548   3.038  0.7997 -0.3695 -0.3775
 3837SOL    HW212953   5.456   0.683   3.048 -0.1531  0.0339  0.8856
 3838SOL     OW12954   1.369   6.379   4.764 -0.0382 -0.1594  0.8846
 3838SOL    HW112955   1.345   6.288   4.782  0.5976 -0.2419  1.3913
 3838SOL    HW212956   1.290   6.419   4.728 -1.4540 -0.0006  3.8423
 3839SOL     OW12957   2.769   1.896   1.720  0.0327 -0.3592 -0.4819
 3839SOL    HW112958   2.791   1.928   1.633  1.8688 -2.3179 -0.8286
 3839SOL    HW212959   2.754   1.803   1.709  1.2033 -0.8357  1.4081
 3840SOL     OW12960   5.844   2.370   5.090  0.6553 -0.9847  0.4985
 3840SOL    HW112961   5.804   2.284   5.107 -1.8121  0.3686  2.2675
 3840SOL    HW212962   5.871   2.401   5.176  1.1849  0.1551 -0.0622
 3841SOL     OW12963   1.540   6.074   5.599 -0.1895 -0.2453 -0.2445
 3841SOL    HW112964   1.634   6.074   5.586 -0.1695 -0.5469 -0.0954
 3841SOL    HW212965   1.528   6.051   5.691 -0.2651  3.4878  0.8311
 3842SOL     OW12966   4.396   6.046   3.291 -0.4974  0.3173  0.1006
 3842SOL    HW112967   4.407   5.961   3.248 -1.7048  0.0399  0.3086
 3842SOL    HW212968   4.396   6.026   3.384 -2.5714  0.2845  0.1259
 3843SOL     OW12969   4.835   5.465   4.094 -1.1114  0.2507 -0.6300
 3843SOL    HW112970   4.869   5.401   4.156  0.2127  0.9988 -0.5620
 3843SOL    HW212971   4.819   5.544   4.146 -0.7529  0.6347 -1.0912
 3844SOL     OW12972   0.226   0.731  11.225 -0.2946  0.1239 -0.2158
 3844SOL    HW112973   0.290   0.675  11.269  0.0362  1.3527  0.9080
 3844SOL    HW212974   0.276   0.808  11.199 -0.8431  0.1066 -1.3566
 3845SOL     OW12975   6.740   0.363   0.228  0.4228 -0.2974 -0.1608
 3845SOL    HW112976   6.800   0.364   0.303 -0.5335  1.2665  0.6299
 3845SOL    HW212977   6.751   0.448   0.187 -2.5604  0.8939  1.1691
 3846SOL     OW12978   2.431   6.075   5.978  0.3053 -0.4299 -0.1879
 3846SOL    HW112979   2.517   6.117   5.973 -0.1736  0.5048 -0.9345
 3846SOL    HW212980   2.382   6.113   5.906 -1.9840  1.8688  2.3814
 3847SOL     OW12981   5.790   6.681   2.352  0.2525 -0.1197  0.3679
 3847SOL    HW112982   5.760   6.644   2.435 -0.7176 -0.2891 -0.0427
 3847SOL    HW212983   5.710   6.714   2.310  0.8591  0.8540 -0.0573
 3848SOL     OW12984   3.844   7.535   7.213  0.0976  0.0724  0.6614
 3848SOL    HW112985   3.815   7.530   7.304  1.3052  0.5390  1.0969
 3848SOL    HW212986   3.928   7.582   7.218 -1.0398  2.4705 -0.9506
 3849SOL     OW12987   3.492   5.389   6.127  0.0628  0.7200  0.4931
 3849SOL    HW112988   3.436   5.359   6.198 -0.4684  0.1232 -0.1587
 3849SOL    HW212989   3.555   5.318   6.115 -0.0882  0.6435  0.1215
 3850SOL     OW12990   2.165   4.344   6.902  0.0488  0.3028  0.4503
 3850SOL    HW112991   2.100   4.410   6.878 -0.0949  0.9756  2.5021
 3850SOL    HW212992   2.200   4.374   6.986  2.1679 -0.6736 -0.0097
 3851SOL     OW12993   4.005   1.744   8.716 -1.0132  0.3171  0.1225
 3851SOL    HW112994   4.020   1.827   8.669 -0.2200 -0.4859 -1.1085
 3851SOL    HW212995   3.971   1.771   8.801  0.2623  1.9653  0.1703
 3852SOL     OW12996   1.187   7.207   1.904 -0.3822  0.3223 -0.1485
 3852SOL    HW112997   1.100   7.242   1.884  0.2352  0.9770 -1.8567
 3852SOL    HW212998   1.240   7.230   1.828  1.6090  0.9836  1.3573
 3853SOL     OW12999   6.115   2.864   9.536 -0.4494 -0.1536 -0.3870
 3853SOL    HW113000   6.083   2.932   9.477 -1.2903 -0.0175  0.2055
 3853SOL    HW213001   6.047   2.796   9.532  0.5863 -1.1946 -1.3247
 3854SOL     OW13002   3.228   7.136   7.548 -0.2583 -0.2271  0.0060
 3854SOL    HW113003   3.236   7.064   7.485 -2.7408  0.2276 -0.9171
 3854SOL    HW213004   3.250   7.096   7.632  0.5630 -1.4978 -0.7753
 3855SOL     OW13005   2.174   2.486   4.718  0.1444 -0.1775  0.3552
 3855SOL    HW113006   2.153   2.409   4.770  0.8429 -0.6107  0.0180
 3855SOL    HW213007   2.142   2.560   4.770  0.0942 -0.6524  1.0125
 3856SOL     OW13008   7.526   0.223   4.037  0.2113  0.7920 -0.2842
 3856SOL    HW113009   7.564   0.253   4.120  1.8630  1.9724 -1.4042
 3856SOL    HW213010   7.480   0.299   4.002  0.9419  0.8265 -1.2092
 3857SOL     OW13011   1.321   5.169   4.497  0.0349  0.1128 -0.1982
 3857SOL    HW113012   1.284   5.195   4.582  1.9941  0.7304  0.5240
 3857SOL    HW213013   1.307   5.074   4.494 -0.3219  0.1205  0.6715
 3858SOL     OW13014   4.691   6.097   1.222  0.1755 -0.2178 -0.5614
 3858SOL    HW113015   4.655   6.064   1.140  0.5615  0.6371 -1.0917
 3858SOL    HW213016   4.749   6.169   1.195  2.4512 -1.6419  0.2067
 3859SOL     OW13017   7.599   1.238  11.719  0.3122  0.5423  0.5350
 3859SOL    HW113018   7.617   1.148  11.746 -0.0664 -0.1462 -1.3053
 3859SOL    HW213019   7.627   1.292  11.792  0.3088 -1.0896  1.7880
 3860SOL     OW13020   0.033   4.327   1.157 -0.0791 -0.2361 -0.2388
 3860SOL    HW113021   0.069   4.410   1.128  3.1362 -1.5880 -0.6000
 3860SOL    HW213022   0.068   4.315   1.245  0.6908 -1.7577 -0.7065
 3861SOL     OW13023   0.357   1.467   0.600  0.0332 -0.0515  0.7326
 3861SOL    HW113024   0.343   1.395   0.539  1.4084 -0.5918  1.0167
 3861SOL    HW213025   0.440   1.447   0.643  0.3327  1.5674  1.0042
 3862SOL     OW13026   4.007   0.314   8.320  0.8560 -0.6256 -0.2380
 3862SOL    HW113027   4.010   0.326   8.225 -0.0109  0.9739 -0.0918
 3862SOL    HW213028   3.930   0.258   8.334  0.6814 -0.4334 -0.4313
 3863SOL     OW13029   3.651   0.435   3.921  0.0709 -0.0779 -0.1519
 3863SOL    HW113030   3.647   0.469   4.010  0.1970 -0.6491  0.0786
 3863SOL    HW213031   3.562   0.442   3.887 -0.3940 -1.5712  0.6765
 3864SOL     OW13032   5.200   1.770   5.621 -0.4038 -0.3050 -0.0400
 3864SOL    HW113033   5.177   1.813   5.539 -0.6010 -0.1195  0.1113
 3864SOL    HW213034   5.122   1.720   5.645 -0.4725 -0.0733  0.2185
 3865SOL     OW13035   5.445   7.034   1.136 -0.0816  0.4891 -0.2376
 3865SOL    HW113036   5.364   7.080   1.116 -0.2491 -0.1581 -1.0883
 3865SOL    HW213037   5.509   7.103   1.152 -0.2686  1.0308 -1.7511
 3866SOL     OW13038   0.726   7.248   9.661  0.8667  0.0725  0.3714
 3866SOL    HW113039   0.716   7.180   9.728 -0.4518 -0.5557 -0.4331
 3866SOL    HW213040   0.772   7.205   9.589 -0.5614 -0.1921 -0.4124
 3867SOL     OW13041   0.300   0.802   6.567 -0.0463  0.2049 -0.3742
 3867SOL    HW113042   0.343   0.815   6.482 -0.8923  0.9320 -0.7024
 3867SOL    HW213043   0.368   0.822   6.631  0.0519  1.5985 -0.8783
 3868SOL     OW13044   3.398   4.316   1.765 -0.1605 -0.5702  0.1656
 3868SOL    HW113045   3.367   4.239   1.716 -0.0861  0.3381 -1.3779
 3868SOL    HW213046   3.490   4.298   1.782  0.0708 -0.4712 -0.9319
 3869SOL     OW13047   4.313   2.366   9.851  0.2811  0.2056  0.5541
 3869SOL    HW113048   4.241   2.400   9.904 -0.5180  0.0481 -0.3920
 3869SOL    HW213049   4.288   2.387   9.761  0.2644 -1.8916  0.0069
 3870SOL     OW13050   7.922   2.275   8.041 -0.1850 -0.2930 -0.1501
 3870SOL    HW113051   7.987   2.346   8.033 -0.3223 -0.3404 -2.5146
 3870SOL    HW213052   7.975   2.195   8.048  0.1011 -0.3415 -2.1632
 3871SOL     OW13053   4.133   0.121   7.876  0.2523  0.2816 -0.1711
 3871SOL    HW113054   4.071   0.194   7.886 -1.6301 -0.9078 -2.2373
 3871SOL    HW213055   4.217   0.157   7.903 -0.8511  2.7910  0.2111
 3872SOL     OW13056   4.791   2.801   3.898 -0.1392 -0.0608  0.4799
 3872SOL    HW113057   4.808   2.711   3.925  1.8281  0.7291  2.1834
 3872SOL    HW213058   4.769   2.847   3.980 -0.6931  1.0934 -0.2904
 3873SOL     OW13059   6.063   3.632  10.263 -0.3337  0.3095 -0.0416
 3873SOL    HW113060   6.060   3.554  10.208 -0.4957  0.3696 -0.1172
 3873SOL    HW213061   6.151   3.668  10.250 -0.2633  0.1465 -0.0164
 3874SOL     OW13062   0.592   4.667   1.065  0.1053  0.0458  0.1273
 3874SOL    HW113063   0.579   4.715   0.982 -0.2645 -0.2652  0.0048
 3874SOL    HW213064   0.676   4.700   1.097 -0.2349  0.9361  0.1511
 3875SOL     OW13065   4.319   1.169   5.061 -0.6682  0.1669  0.1963
 3875SOL    HW113066   4.248   1.159   5.124 -2.2111  0.0867 -1.4746
 3875SOL    HW213067   4.284   1.132   4.979  0.9516  0.9958 -0.9261
 3876SOL     OW13068   7.756   0.467   9.539  0.3792 -0.0341  0.4839
 3876SOL    HW113069   7.849   0.478   9.562  0.1596 -0.8711  1.9161
 3876SOL    HW213070   7.709   0.506   9.613 -0.4007 -0.5353  0.2562
 3877SOL     OW13071   0.236   6.139   2.578 -0.4033 -0.2092 -0.2956
 3877SOL    HW113072   0.192   6.056   2.598 -0.0552  0.1881  2.4428
 3877SOL    HW213073   0.312   6.114   2.526 -0.3968 -1.5937  0.3368
 3878SOL     OW13074   4.823   0.098   8.418  0.0284  0.1065 -0.2189
 3878SOL    HW113075   4.817   0.035   8.346  0.9870 -0.5726  0.2709
 3878SOL    HW213076   4.744   0.082   8.470  1.5775 -2.8373  1.5340
 3879SOL     OW13077   5.527   1.231   5.581 -0.2859 -0.7338  0.4818
 3879SOL    HW113078   5.586   1.199   5.649  1.0387 -2.5783 -1.3765
 3879SOL    HW213079   5.580   1.291   5.529 -1.0738  0.1416  0.6648
 3880SOL     OW13080   1.700   1.303   4.284 -0.1880  0.0549  0.8617
 3880SOL    HW113081   1.671   1.255   4.206 -0.3725  0.3437  0.7518
 3880SOL    HW213082   1.770   1.248   4.321 -0.5035 -0.3730  0.8249
 3881SOL     OW13083   6.674   4.482   2.751  0.3152  0.3367 -0.1509
 3881SOL    HW113084   6.623   4.447   2.678 -0.2197  0.9266 -0.0647
 3881SOL    HW213085   6.765   4.469   2.725  0.1387  0.9705 -1.1352
 3882SOL     OW13086   5.789   1.512  11.697 -0.1936  0.1786 -0.0952
 3882SOL    HW113087   5.738   1.483  11.622 -1.8878 -0.4094  1.2198
 3882SOL    HW213088   5.759   1.602  11.713  0.2607  0.3508 -0.1875
 3883SOL     OW13089   6.481   7.786  11.243  0.1762  0.4400 -0.2282
 3883SOL    HW113090   6.530   7.703  11.242 -1.3645 -0.5045 -0.4121
 3883SOL    HW213091   6.439   7.790  11.158  1.0836  1.9880 -0.6378
 3884SOL     OW13092   0.717   7.521   5.740 -0.1365 -0.3847 -0.3937
 3884SOL    HW113093   0.671   7.600   5.712 -2.1371 -0.8495  1.3123
 3884SOL    HW213094   0.750   7.543   5.828 -0.5383 -1.3655  0.0144
 3885SOL     OW13095   0.874   7.842   9.896 -0.1957 -0.8389  0.6648
 3885SOL    HW113096   0.805   7.799   9.948  0.2440 -0.0853  1.9172
 3885SOL    HW213097   0.859   7.935   9.908  0.2856 -0.6538 -0.1023
 3886SOL     OW13098   5.173   4.019   2.019 -0.0852 -0.0149  0.3534
 3886SOL    HW113099   5.098   3.979   1.975 -0.4076 -0.4651  1.2904
 3886SOL    HW213100   5.140   4.102   2.053 -0.1447 -0.1949  0.7322
 3887SOL     OW13101   4.586   0.236   2.465  0.0157  0.2494 -0.4422
 3887SOL    HW113102   4.674   0.209   2.437  0.0885 -0.1481  0.1500
 3887SOL    HW213103   4.558   0.299   2.398 -0.0416 -1.0527 -1.6790
 3888SOL     OW13104   1.139   6.341   0.982  0.3711  0.3163 -0.0147
 3888SOL    HW113105   1.159   6.353   0.889 -0.7168 -2.1181 -0.6463
 3888SOL    HW213106   1.066   6.401   0.999  1.6281  1.9964 -0.2252
 3889SOL     OW13107   2.621   3.327   6.920 -0.5832  0.1291 -0.2282
 3889SOL    HW113108   2.667   3.314   6.837 -0.6758  0.3850 -0.3216
 3889SOL    HW213109   2.573   3.246   6.935  1.0425 -0.7325  0.6043
 3890SOL     OW13110   0.673   1.003   6.992 -0.0300  0.7288 -0.0363
 3890SOL    HW113111   0.731   1.009   6.916 -1.1466  1.9036 -0.8384
 3890SOL    HW213112   0.588   1.034   6.960 -1.1692 -1.1119  1.0699
 3891SOL     OW13113   2.144   5.455   0.512  0.7663 -0.1806  0.1298
 3891SOL    HW113114   2.054   5.422   0.503  0.6598  0.0535  0.3217
 3891SOL    HW213115   2.198   5.376   0.511  0.7315 -0.2373 -1.9617
 3892SOL     OW13116   4.726   4.843   2.810  0.3541  0.2090 -0.4251
 3892SOL    HW113117   4.711   4.758   2.769  1.1469  0.5151 -1.3936
 3892SOL    HW213118   4.673   4.904   2.759 -1.0457  0.1767  0.9116
 3893SOL     OW13119   7.913   2.919   5.470 -0.3355  0.0692  0.1443
 3893SOL    HW113120   7.853   2.874   5.410 -0.2638  0.7882 -0.4744
 3893SOL    HW213121   7.935   2.852   5.535 -1.9929 -0.1487  0.5300
 3894SOL     OW13122   1.780   3.047   6.175  0.1780 -0.0192 -0.4177
 3894SOL    HW113123   1.756   3.030   6.085 -1.1261  0.0046 -0.0916
 3894SOL    HW213124   1.863   3.001   6.188  1.1918  1.2394 -2.0535
 3895SOL     OW13125   7.059   5.122   2.474  0.3073  0.6318 -0.0448
 3895SOL    HW113126   7.104   5.038   2.480  0.4870  0.8011  1.3579
 3895SOL    HW213127   6.971   5.100   2.444  0.3217 -0.0768  0.4031
 3896SOL     OW13128   7.539   0.708   4.660  0.1949  0.1958  0.6907
 3896SOL    HW113129   7.552   0.796   4.695  1.6952  0.3404 -0.1293
 3896SOL    HW213130   7.489   0.662   4.727  1.1866  1.0777  2.0899
 3897SOL     OW13131   3.077   4.880   4.563  0.0271  0.1733  0.4457
 3897SOL    HW113132   3.057   4.968   4.531 -0.8070  0.2847  1.2135
 3897SOL    HW213133   3.095   4.893   4.656  1.4303 -0.2666  0.2513
 3898SOL     OW13134   0.734   0.416  11.899 -0.3610 -0.2855  0.3537
 3898SOL    HW113135   0.822   0.409  11.862 -0.7709  0.3179 -0.7842
 3898SOL    HW213136   0.710   0.327  11.921  1.1794 -0.2997  2.2675
 3899SOL     OW13137   4.908   1.389   8.447 -0.3174  0.1798  0.7537
 3899SOL    HW113138   4.876   1.437   8.371 -0.9921  0.4314  1.1853
 3899SOL    HW213139   4.829   1.365   8.496  0.1115  0.3247  1.5495
 3900SOL     OW13140   3.525   4.771   5.261  0.3259 -0.8506 -0.2622
 3900SOL    HW113141   3.559   4.681   5.263  1.4412 -0.4782 -1.1628
 3900SOL    HW213142   3.602   4.826   5.275 -0.4915 -0.0389  1.1802
 3901SOL     OW13143   5.878   1.342   2.546  0.0082  0.2554  0.1397
 3901SOL    HW113144   5.970   1.362   2.564  0.9951 -0.4023 -3.3131
 3901SOL    HW213145   5.841   1.425   2.516  0.0652  0.1044 -0.3631
 3902SOL     OW13146   2.352   0.079  10.415  0.3033  0.7171  0.5995
 3902SOL    HW113147   2.346   0.158  10.469  1.5341  0.4688  1.1276
 3902SOL    HW213148   2.403   0.017  10.467 -1.8399 -1.0008  0.8188
 3903SOL     OW13149   0.333   1.275   7.459  0.0139  0.4695 -0.0775
 3903SOL    HW113150   0.338   1.314   7.372  1.1479 -1.8709 -1.1327
 3903SOL    HW213151   0.248   1.231   7.461 -0.1054  0.7066  0.0811
 3904SOL     OW13152   6.856   0.088  11.492 -0.1184 -0.1366 -0.1385
 3904SOL    HW113153   6.950   0.070  11.496 -0.2017 -0.8404 -0.9001
 3904SOL    HW213154   6.830   0.058  11.404 -1.3010 -1.2514  0.5457
 3905SOL     OW13155   4.431   1.142   3.616 -0.2545 -0.0381 -0.6976
 3905SOL    HW113156   4.355   1.084   3.615 -0.2340 -0.1047  0.4354
 3905SOL    HW213157   4.395   1.230   3.604 -0.5499 -0.0494  0.0269
 3906SOL     OW13158   3.631   2.069  11.317 -0.1286 -0.1143 -0.0963
 3906SOL    HW113159   3.559   2.076  11.255  0.8435 -0.3303 -1.2820
 3906SOL    HW213160   3.632   2.153  11.363  0.0701  0.6453 -1.4458
 3907SOL     OW13161   2.378   0.653   9.557 -0.3923 -0.1963 -0.0756
 3907SOL    HW113162   2.445   0.688   9.617 -1.9134 -0.6494  1.9905
 3907SOL    HW213163   2.402   0.689   9.471  0.7943  2.0926  1.1090
 3908SOL     OW13164   6.776   2.687  10.283 -0.1363 -0.5659 -0.6759
 3908SOL    HW113165   6.686   2.718  10.292  0.9061  2.9955 -0.8825
 3908SOL    HW213166   6.797   2.702  10.191  0.7261 -1.1705 -0.5882
 3909SOL     OW13167   2.520   1.912   9.032  0.4709 -0.0856 -0.4180
 3909SOL    HW113168   2.525   1.822   9.064  1.9068  0.1306  0.0125
 3909SOL    HW213169   2.609   1.945   9.039 -0.0329  1.3708 -0.6037
 3910SOL     OW13170   4.997   4.403   5.937 -0.4761 -0.6034 -0.1143
 3910SOL    HW113171   4.945   4.327   5.964 -0.9280 -0.2106  0.1307
 3910SOL    HW213172   5.039   4.433   6.017  1.4957 -1.9194 -0.5831
 3911SOL     OW13173   4.364   7.396   9.757  0.2469 -0.0354 -0.0255
 3911SOL    HW113174   4.343   7.317   9.806 -2.3134  0.7784  0.3630
 3911SOL    HW213175   4.310   7.389   9.677  0.4270  1.0318 -0.2510
 3912SOL     OW13176   6.555   5.578   4.723  0.1126 -0.2150  0.9261
 3912SOL    HW113177   6.464   5.555   4.704  1.0029 -1.6183 -2.4202
 3912SOL    HW213178   6.583   5.512   4.787 -0.4246 -1.7530 -0.3602
 3913SOL     OW13179   7.013   1.311  10.679  0.0183  0.2455  0.4476
 3913SOL    HW113180   6.945   1.253  10.714 -1.1357 -1.0922 -3.4432
 3913SOL    HW213181   6.967   1.368  10.618  1.9304  1.8225  0.3790
 3914SOL     OW13182   7.049   7.500   8.624 -0.0351 -0.3041  0.7273
 3914SOL    HW113183   7.126   7.530   8.577  0.8495 -2.1083  0.9296
 3914SOL    HW213184   7.062   7.530   8.714 -0.7367  1.3935  0.2910
 3915SOL     OW13185   2.016   2.837   1.422  0.1698 -0.0101 -0.3234
 3915SOL    HW113186   1.935   2.821   1.374  0.0870  0.4287 -0.3413
 3915SOL    HW213187   1.997   2.809   1.512 -0.2507  0.7661 -0.1613
 3916SOL     OW13188   2.651   6.076   0.379 -0.6431 -0.3165  0.4829
 3916SOL    HW113189   2.629   5.985   0.362  0.8880 -0.5536 -0.3780
 3916SOL    HW213190   2.702   6.074   0.460  2.2262 -0.7186 -1.1937
 3917SOL     OW13191   3.666   0.144   2.779 -0.7651  0.6966 -0.4406
 3917SOL    HW113192   3.608   0.128   2.854  0.8127  2.1624  1.1793
 3917SOL    HW213193   3.708   0.059   2.764 -2.4242 -0.0981 -0.9341
 3918SOL     OW13194   1.429   6.206  11.831 -0.4348  0.2140 -0.9571
 3918SOL    HW113195   1.414   6.253  11.913  0.7297  0.1783 -0.7067
 3918SOL    HW213196   1.343   6.173  11.806 -0.9541  0.9667 -0.2045
 3919SOL     OW13197   6.341   6.095   4.215  0.0915 -0.1739 -0.6067
 3919SOL    HW113198   6.309   6.182   4.193  0.6429 -0.1469 -1.3063
 3919SOL    HW213199   6.262   6.041   4.218 -0.3672  0.5236  0.7598
 3920SOL     OW13200   2.961   7.112  10.846 -0.2082  0.0177  0.9718
 3920SOL    HW113201   2.867   7.106  10.864 -0.4153 -0.4410 -0.1975
 3920SOL    HW213202   2.986   7.023  10.821  0.0398  0.5765 -0.9272
 3921SOL     OW13203   1.186   3.928  11.628  0.3971  0.4067 -0.2110
 3921SOL    HW113204   1.096   3.960  11.633  1.1115  3.2199 -2.2790
 3921SOL    HW213205   1.215   3.921  11.719 -2.0767 -1.4017  0.5422
 3922SOL     OW13206   4.592   4.091  11.160 -0.0053 -0.4341 -0.7900
 3922SOL    HW113207   4.652   4.144  11.213 -1.2075  0.3965 -0.2300
 3922SOL    HW213208   4.624   4.001  11.170  0.5159 -0.1334  0.3548
 3923SOL     OW13209   0.602   1.114   9.823 -0.3690 -0.1083 -0.2352
 3923SOL    HW113210   0.641   1.188   9.777 -0.2711  0.4851  0.7652
 3923SOL    HW213211   0.514   1.107   9.786  0.0566 -0.3168 -1.2397
 3924SOL     OW13212   6.440   5.580   3.830 -0.4251  0.2722 -0.2048
 3924SOL    HW113213   6.478   5.570   3.917 -0.9703  0.5569  0.0738
 3924SOL    HW213214   6.348   5.604   3.846 -0.5671  0.1978 -0.8562
 3925SOL     OW13215   4.543   0.659   9.234 -0.2805  0.7110 -0.5043
 3925SOL    HW113216   4.504   0.717   9.299 -0.7787  1.0305 -1.0821
 3925SOL    HW213217   4.631   0.694   9.221 -0.0352  0.4101  0.2770
 3926SOL     OW13218   0.980   6.748  12.081 -0.5557  0.2710  0.1913
 3926SOL    HW113219   0.908   6.789  12.128 -0.3468  2.8352 -1.5384
 3926SOL    HW213220   1.032   6.821  12.047  3.1868 -1.4056  1.6955
 3927SOL     OW13221   2.262   4.157  10.044  0.1286 -0.0502 -0.4570
 3927SOL    HW113222   2.326   4.224  10.068  0.9801 -1.3298  1.0770
 3927SOL    HW213223   2.269   4.151   9.949  0.4825  1.5611 -0.5681
 3928SOL     OW13224   5.156   0.386   7.234  0.0840 -0.7944  0.1352
 3928SOL    HW113225   5.072   0.427   7.256  0.8764  2.8720 -2.5837
 3928SOL    HW213226   5.132   0.315   7.174 -1.1696 -0.9900  0.8377
 3929SOL     OW13227   7.734   2.353   0.250 -0.2434  0.2709 -0.0662
 3929SOL    HW113228   7.734   2.417   0.322 -2.0124  0.8344 -0.5127
 3929SOL    HW213229   7.797   2.388   0.188  0.7466  0.1811  0.8628
 3930SOL     OW13230   4.089   7.397   2.351  0.1998  0.0366 -0.3573
 3930SOL    HW113231   4.082   7.329   2.417  1.9273 -0.7996 -0.9870
 3930SOL    HW213232   4.069   7.478   2.399  1.2577 -0.5544  1.1616
 3931SOL     OW13233   4.213   5.268   6.727 -0.4490 -0.0504 -0.2389
 3931SOL    HW113234   4.222   5.356   6.763  1.1662  1.1114 -3.1409
 3931SOL    HW213235   4.119   5.252   6.727 -0.8081  1.8168  0.0298
 3932SOL     OW13236   4.124   0.916   0.656  0.3839  0.4395  0.4781
 3932SOL    HW113237   4.061   0.972   0.611 -0.6051  0.9452  2.3850
 3932SOL    HW213238   4.119   0.832   0.609  1.5495  1.6944 -2.1235
 3933SOL     OW13239   5.923   2.800  11.062 -0.3171  0.1319  0.4586
 3933SOL    HW113240   5.867   2.722  11.072  0.2913 -0.2733  0.7168
 3933SOL    HW213241   6.001   2.768  11.018  1.1713 -0.0002  2.9790
 3934SOL     OW13242   4.336   4.729   6.562 -0.3679 -0.0737 -0.0185
 3934SOL    HW113243   4.384   4.647   6.550  1.1531  0.7237  0.3679
 3934SOL    HW213244   4.399   4.797   6.539 -1.2842  1.0237  0.6160
 3935SOL     OW13245   2.134   5.961   7.237 -0.0598 -0.7404 -0.3345
 3935SOL    HW113246   2.205   5.915   7.281  0.2889 -0.5354 -0.6811
 3935SOL    HW213247   2.062   5.898   7.234 -0.5833 -0.3419  1.7663
 3936SOL     OW13248   3.803   0.565   0.576  0.9975 -0.6032  0.7542
 3936SOL    HW113249   3.823   0.539   0.666  1.4693 -0.4179  0.7106
 3936SOL    HW213250   3.709   0.583   0.576  1.2778  1.0649  1.6458
 3937SOL     OW13251   2.924   0.408   6.200  0.3978  0.6807 -0.0877
 3937SOL    HW113252   2.840   0.424   6.242  0.3309  0.8816 -0.2897
 3937SOL    HW213253   2.969   0.493   6.205  0.4653  0.6546 -0.2451
 3938SOL     OW13254   4.412   2.077   7.075 -0.5861 -0.1314 -0.2778
 3938SOL    HW113255   4.381   2.108   6.990  2.1599  1.9318 -0.6731
 3938SOL    HW213256   4.497   2.037   7.056 -0.3416 -0.4852  1.3860
 3939SOL     OW13257   3.721   7.858   5.457 -0.4165 -0.7224  0.0650
 3939SOL    HW113258   3.732   7.893   5.545  1.4149  2.1328 -1.1224
 3939SOL    HW213259   3.644   7.903   5.423 -0.4099 -0.8822 -0.1656
 3940SOL     OW13260   7.617   0.664   8.896 -0.1457  0.1495  0.1073
 3940SOL    HW113261   7.616   0.569   8.889  0.8421  0.1883 -0.8800
 3940SOL    HW213262   7.601   0.695   8.807 -0.4658  0.9185  0.4190
 3941SOL     OW13263   6.240   3.394   8.196  0.6510 -0.0560 -0.3309
 3941SOL    HW113264   6.149   3.403   8.226  0.7067  0.2156 -0.2413
 3941SOL    HW213265   6.248   3.457   8.125  0.1191 -1.6606 -1.8852
 3942SOL     OW13266   7.823   7.204  11.848 -0.0346 -0.1614 -0.3762
 3942SOL    HW113267   7.753   7.139  11.842 -0.2966  0.2324 -2.1408
 3942SOL    HW213268   7.869   7.197  11.764  2.1484 -0.5059  0.7663
 3943SOL     OW13269   5.938   3.586   0.841 -0.4560 -0.9853  0.2227
 3943SOL    HW113270   5.872   3.650   0.813 -1.7936 -1.5601  1.8716
 3943SOL    HW213271   5.888   3.506   0.859  1.0061 -2.1019 -0.5113
 3944SOL     OW13272   7.058   1.075   2.288 -0.0625  0.2215 -0.1807
 3944SOL    HW113273   7.016   1.161   2.297 -0.1541  0.1333  0.2358
 3944SOL    HW213274   7.000   1.016   2.336  0.1225 -0.0365 -0.2775
 3945SOL     OW13275   7.866   0.400   2.362 -0.3666 -0.0282 -0.3534
 3945SOL    HW113276   7.803   0.329   2.370  1.1071 -1.1911  4.6530
 3945SOL    HW213277   7.938   0.363   2.313 -0.9852 -0.8282 -0.6804
 3946SOL     OW13278   7.821   1.127   6.195  0.4099  0.0644 -0.5377
 3946SOL    HW113279   7.880   1.147   6.267  0.7050  0.1038 -0.7886
 3946SOL    HW213280   7.777   1.045   6.221 -1.2034  1.2762  0.7410
 3947SOL     OW13281   7.400   1.689   4.275  0.3703 -0.2235 -0.3742
 3947SOL    HW113282   7.370   1.723   4.359 -0.6230  0.5081 -1.0126
 3947SOL    HW213283   7.452   1.760   4.238  0.7827 -0.5354 -0.4043
 3948SOL     OW13284   0.354   1.406   6.618 -0.2584  0.3604  0.0404
 3948SOL    HW113285   0.417   1.379   6.685  0.5538  4.1554  1.0495
 3948SOL    HW213286   0.402   1.399   6.535  0.3054 -0.0241  0.3928
 3949SOL     OW13287   2.756   2.753   1.364 -0.2479  0.6685 -0.6840
 3949SOL    HW113288   2.739   2.758   1.270  1.3237 -0.9963 -1.1150
 3949SOL    HW213289   2.787   2.664   1.378 -1.1451  0.6422  1.5647
 3950SOL     OW13290   0.053   3.981   9.318  0.2087 -0.1399  0.2786
 3950SOL    HW113291   0.015   3.904   9.277 -0.6264  0.6060 -0.3748
 3950SOL    HW213292   0.132   3.948   9.362 -1.8667 -1.9770  2.8824
 3951SOL     OW13293   3.813   3.085   2.189 -0.2889 -0.3769  0.1100
 3951SOL    HW113294   3.803   3.170   2.146  0.2948 -0.2944  0.1264
 3951SOL    HW213295   3.771   3.097   2.275  0.2209  0.0532  0.3067
 3952SOL     OW13296   1.661   4.600   4.007  0.0957  0.4630  0.0028
 3952SOL    HW113297   1.586   4.543   4.023 -0.8954  1.4888 -0.8619
 3952SOL    HW213298   1.729   4.542   3.974 -0.9826 -0.2013 -1.1362
 3953SOL     OW13299   2.929   3.028   6.656 -0.0849 -0.5272 -0.2789
 3953SOL    HW113300   2.949   2.936   6.640  0.7749 -0.2115 -1.0984
 3953SOL    HW213301   3.004   3.076   6.621 -0.9349  0.5444 -0.7043
 3954SOL     OW13302   0.833   0.921   5.469  0.5127  0.2412 -0.4401
 3954SOL    HW113303   0.769   0.853   5.451 -1.5679  1.7002  1.0093
 3954SOL    HW213304   0.889   0.923   5.392 -1.7785 -0.4495 -2.2204
 3955SOL     OW13305   7.424   4.079   1.871 -0.0215  0.5637  0.0396
 3955SOL    HW113306   7.426   4.019   1.796 -0.1590  0.3670  0.1933
 3955SOL    HW213307   7.342   4.058   1.917 -0.4008  1.3267 -0.2784
 3956SOL     OW13308   0.458   3.242   7.224 -0.2411 -0.1182 -0.4530
 3956SOL    HW113309   0.525   3.221   7.159 -0.8261 -2.9372 -0.2744
 3956SOL    HW213310   0.383   3.190   7.199 -1.4696  0.9079  0.9059
 3957SOL     OW13311   2.328   3.038   0.335 -0.2825 -0.1250  0.4868
 3957SOL    HW113312   2.377   3.121   0.337 -2.3934  1.1957  0.5327
 3957SOL    HW213313   2.276   3.043   0.255 -0.4299 -1.4364  0.4855
 3958SOL     OW13314   6.615   1.941   1.667  0.0058  0.0292 -0.4224
 3958SOL    HW113315   6.589   1.853   1.696  0.4530 -0.0053 -0.1186
 3958SOL    HW213316   6.537   1.975   1.623 -0.6668  0.0442  0.7404
 3959SOL     OW13317   6.779   0.788   8.188 -0.0900 -0.5052  0.4757
 3959SOL    HW113318   6.832   0.801   8.267 -2.1326 -0.4425  1.9086
 3959SOL    HW213319   6.817   0.712   8.146 -0.7191 -2.4703  3.1670
 3960SOL     OW13320   7.597   1.124   5.826  0.1538  0.1922  0.1362
 3960SOL    HW113321   7.630   1.179   5.896  1.1043  1.1010 -0.9805
 3960SOL    HW213322   7.618   1.035   5.853  2.6929  0.6660 -0.0371
 3961SOL     OW13323   2.236   7.043   4.300 -0.0720 -0.0542  0.3378
 3961SOL    HW113324   2.174   6.975   4.273 -0.2618 -0.4866  1.7591
 3961SOL    HW213325   2.275   7.009   4.381  1.8875  0.3048 -0.4132
 3962SOL     OW13326   6.214   0.774  12.316 -0.1533  0.3116  0.2614
 3962SOL    HW113327   6.218   0.850  12.374  0.5542  0.1816  0.3857
 3962SOL    HW213328   6.294   0.726  12.334  0.3188  0.5175 -1.1705
 3963SOL     OW13329   2.561   3.778   5.096 -0.2430  0.2153 -0.5092
 3963SOL    HW113330   2.630   3.745   5.153  0.2077 -1.0104 -1.7015
 3963SOL    HW213331   2.608   3.820   5.024 -0.7469  0.0187 -0.9591
 3964SOL     OW13332   6.734   4.276   0.846 -0.4026  0.2743  0.2343
 3964SOL    HW113333   6.829   4.275   0.861 -0.3359  0.8169 -0.1181
 3964SOL    HW213334   6.725   4.264   0.751 -0.5951  2.1049 -0.0222
 3965SOL     OW13335   2.188   3.218   1.993  0.5252 -0.3710 -0.1640
 3965SOL    HW113336   2.179   3.302   1.949  1.6731 -0.1048  0.0955
 3965SOL    HW213337   2.143   3.229   2.077 -0.2080 -0.3522 -0.5485
 3966SOL     OW13338   3.586   5.857   8.384  0.2947  0.1954 -0.1590
 3966SOL    HW113339   3.668   5.859   8.432  0.7983  0.5193 -1.0172
 3966SOL    HW213340   3.598   5.919   8.311 -0.4683 -0.2250 -0.6632
 3967SOL     OW13341   3.107   6.583   5.928  0.1070 -0.4927  0.2357
 3967SOL    HW113342   3.176   6.521   5.952 -1.3507 -2.1525  0.3630
 3967SOL    HW213343   3.096   6.638   6.005 -0.9478 -2.4001  1.5264
 3968SOL     OW13344   1.655   3.007   5.627  0.8819  1.0302  0.3472
 3968SOL    HW113345   1.708   2.930   5.607 -0.2132  0.4194 -0.2923
 3968SOL    HW213346   1.718   3.076   5.644  1.9066  0.5530 -1.2843
 3969SOL     OW13347   3.383   3.374   3.435 -0.5483 -0.3630 -0.3691
 3969SOL    HW113348   3.475   3.355   3.417 -1.0528 -3.4289 -0.1373
 3969SOL    HW213349   3.382   3.397   3.528  0.0966  0.8002 -0.6285
 3970SOL     OW13350   4.554   1.475   4.304 -0.2691 -0.0728  0.8353
 3970SOL    HW113351   4.465   1.502   4.324 -0.4857 -0.3948  0.3118
 3970SOL    HW213352   4.559   1.384   4.334 -0.1315 -0.0730  0.8127
 3971SOL     OW13353   6.121   6.106   8.299  0.0355 -0.2956  0.5651
 3971SOL    HW113354   6.056   6.084   8.232 -1.9968  0.2403  2.2283
 3971SOL    HW213355   6.104   6.045   8.370  1.1636  0.0951  1.1929
 3972SOL     OW13356   1.935   4.758   1.851  0.3477  0.2586 -0.1445
 3972SOL    HW113357   1.880   4.684   1.824 -1.4046  0.9664  1.2669
 3972SOL    HW213358   1.966   4.796   1.769 -1.7085  0.1316 -1.0395
 3973SOL     OW13359   7.351   4.264   2.350  0.0446 -0.6947  0.4585
 3973SOL    HW113360   7.276   4.232   2.299  1.1392 -2.0430 -0.3812
 3973SOL    HW213361   7.370   4.194   2.412  0.4638 -0.2595  0.8312
 3974SOL     OW13362   4.566   0.979   0.239  0.4608 -0.4014 -0.3529
 3974SOL    HW113363   4.641   1.038   0.248  0.1424 -0.2623  1.9059
 3974SOL    HW213364   4.594   0.897   0.278  0.2736 -1.1974 -1.8233
 3975SOL     OW13365   5.949   6.228   9.981  0.2948 -0.0201  0.0018
 3975SOL    HW113366   5.909   6.189  10.058 -0.8857  0.5410 -0.3079
 3975SOL    HW213367   5.923   6.321   9.985  0.7265  0.1444 -0.7419
 3976SOL     OW13368   4.417   5.918   4.717 -0.2228 -0.1517  0.0377
 3976SOL    HW113369   4.349   5.869   4.671  0.1216 -0.4644 -0.1394
 3976SOL    HW213370   4.371   5.993   4.756 -0.6843 -0.4147  0.0002
 3977SOL     OW13371   5.029   2.462   2.722 -0.0818  0.2791  0.2334
 3977SOL    HW113372   5.111   2.512   2.723  0.0824  0.0070  0.4878
 3977SOL    HW213373   5.035   2.406   2.799  0.3600 -1.1728 -0.8257
 3978SOL     OW13374   7.285   4.363   6.388  0.1066  0.1144 -0.3098
 3978SOL    HW113375   7.278   4.347   6.482  0.1366 -0.7719 -0.4502
 3978SOL    HW213376   7.267   4.457   6.378 -1.6886 -0.1148  0.3888
 3979SOL     OW13377   0.409   4.131   5.201 -0.4185  0.2550 -1.0152
 3979SOL    HW113378   0.380   4.222   5.205  2.4561  1.2442  1.7182
 3979SOL    HW213379   0.368   4.090   5.277  1.5263  0.4793  0.2218
 3980SOL     OW13380   7.842   6.693  11.730  0.1691 -0.3980 -0.2245
 3980SOL    HW113381   7.923   6.641  11.727  0.2049 -0.3549 -0.0187
 3980SOL    HW213382   7.824   6.704  11.823  0.7534  0.8626 -0.2430
 3981SOL     OW13383   3.142   7.581   2.641  0.1333 -0.4985  0.0468
 3981SOL    HW113384   3.164   7.671   2.617 -1.8586  0.2950  0.9178
 3981SOL    HW213385   3.128   7.537   2.557 -1.4234  0.7542 -0.4109
 3982SOL     OW13386   5.635   7.579   8.876  0.1002  0.2177  0.3112
 3982SOL    HW113387   5.642   7.635   8.953  0.6585  0.6332 -0.0312
 3982SOL    HW213388   5.605   7.638   8.807  1.7598  0.3640 -0.3275
 3983SOL     OW13389   4.067   3.108   5.551 -0.0393  1.0671 -0.5492
 3983SOL    HW113390   4.149   3.064   5.571 -0.4287 -0.0281 -1.2301
 3983SOL    HW213391   4.088   3.164   5.476  0.8136  3.2569  1.2177
 3984SOL     OW13392   0.315   0.432   1.140  0.2839 -0.5307 -0.2136
 3984SOL    HW113393   0.344   0.388   1.060 -0.2288  0.5944 -1.0452
 3984SOL    HW213394   0.360   0.386   1.210  3.1808  0.3735 -1.3405
 3985SOL     OW13395   1.333   2.629   4.449  0.2581 -0.5247 -0.2533
 3985SOL    HW113396   1.262   2.679   4.489 -0.2234 -0.6325 -0.9557
 3985SOL    HW213397   1.332   2.545   4.495  2.4529  0.7717  2.4418
 3986SOL     OW13398   1.512   4.983   6.930  0.2494 -0.4529 -0.1955
 3986SOL    HW113399   1.467   4.930   6.863  0.8522 -0.0173 -0.9656
 3986SOL    HW213400   1.521   5.069   6.889  0.5195 -0.1426  0.5077
 3987SOL     OW13401   4.644   7.074   1.757  0.4271 -0.1056 -0.3253
 3987SOL    HW113402   4.637   7.030   1.673  2.9519  0.4062 -0.9043
 3987SOL    HW213403   4.676   7.007   1.817 -2.2086 -0.7013  0.5268
 3988SOL     OW13404   4.127   3.576   5.659  0.0209 -0.0002 -0.2226
 3988SOL    HW113405   4.054   3.582   5.721 -0.0325 -0.0801 -0.2785
 3988SOL    HW213406   4.100   3.510   5.595 -0.2401  0.6255 -0.7642
 3989SOL     OW13407   6.040   6.716  11.359  1.0902  0.2367 -0.0507
 3989SOL    HW113408   5.955   6.684  11.329  0.9740  0.8166 -0.3659
 3989SOL    HW213409   6.020   6.768  11.438  1.0890  0.7424 -0.3769
 3990SOL     OW13410   7.183   3.544  11.172 -0.0736 -0.0336 -0.1857
 3990SOL    HW113411   7.110   3.559  11.111 -1.1024  0.9296  1.2163
 3990SOL    HW213412   7.151   3.476  11.231 -0.1734  0.9373  0.9070
 3991SOL     OW13413   7.219   4.945   8.274 -0.3817 -0.1334 -0.3031
 3991SOL    HW113414   7.162   4.949   8.350 -1.7662  0.6234 -1.3379
 3991SOL    HW213415   7.283   5.015   8.288 -0.8354  0.2248  0.0186
 3992SOL     OW13416   7.027   0.740   4.839 -0.0894 -0.2538 -0.7427
 3992SOL    HW113417   6.937   0.740   4.870  0.0345  1.3125 -0.3299
 3992SOL    HW213418   7.040   0.827   4.802  1.0172 -0.7293 -1.5324
 3993SOL     OW13419   4.305   5.176   6.136 -0.2081  0.0375 -0.0413
 3993SOL    HW113420   4.249   5.099   6.129 -0.3448 -0.1825  2.5522
 3993SOL    HW213421   4.383   5.145   6.182  0.6155  1.0519 -0.6971
 3994SOL     OW13422   7.588   7.653   4.999 -0.3176  0.1204 -0.3503
 3994SOL    HW113423   7.520   7.668   5.064  0.4182  1.2935  0.1738
 3994SOL    HW213424   7.612   7.560   5.010  0.1679  0.4201  1.4365
 3995SOL     OW13425   6.910   6.973   5.146  0.5897 -0.4306  0.2462
 3995SOL    HW113426   6.947   6.891   5.114 -0.2118 -0.6912 -0.0327
 3995SOL    HW213427   6.817   6.967   5.125  0.3309  0.0847  1.1880
 3996SOL     OW13428   4.022   4.241  11.115 -0.6694  0.0066  0.1457
 3996SOL    HW113429   3.969   4.267  11.040  0.7892  1.4843 -0.4426
 3996SOL    HW213430   4.109   4.279  11.098 -0.4342  0.9215  2.8495
 3997SOL     OW13431   5.212   4.117   8.470 -0.1147 -0.0563 -0.3468
 3997SOL    HW113432   5.163   4.106   8.551 -0.7237  1.6176 -0.4653
 3997SOL    HW213433   5.236   4.028   8.445 -2.9534 -0.9392 -0.2177
 3998SOL     OW13434   6.014   2.774   3.370  0.5313 -0.2667 -0.1752
 3998SOL    HW113435   5.936   2.804   3.323  0.6936  0.7832  0.2043
 3998SOL    HW213436   5.999   2.800   3.461 -0.8425 -4.2755  0.9594
 3999SOL     OW13437   0.597   5.325   2.770 -0.1127  0.0779  0.4265
 3999SOL    HW113438   0.674   5.366   2.808 -0.5062  0.4877  0.8050
 3999SOL    HW213439   0.524   5.356   2.825 -0.3832 -1.4236  0.9789
 4000SOL     OW13440   5.492   5.441  11.024  0.0534 -0.1478  0.0284
 4000SOL    HW113441   5.441   5.362  11.042 -1.0009  0.3049 -0.8653
 4000SOL    HW213442   5.469   5.464  10.934  1.1033  0.6327 -0.0620
 4001SOL     OW13443   1.275   0.589   6.678 -0.3599  0.5893 -0.6226
 4001SOL    HW113444   1.204   0.588   6.614 -0.0831 -1.8335 -0.9871
 4001SOL    HW213445   1.230   0.587   6.763 -0.7341 -0.1477 -0.8317
 4002SOL     OW13446   1.909   4.318   3.397  0.2470  0.7821  0.2269
 4002SOL    HW113447   1.909   4.226   3.373 -0.3696  0.5040  1.2163
 4002SOL    HW213448   1.943   4.364   3.320 -0.8654 -0.1198 -0.8428
 4003SOL     OW13449   3.352   6.228   2.439 -0.1298 -0.3261 -0.0564
 4003SOL    HW113450   3.297   6.228   2.360 -1.9418 -1.4845  1.1248
 4003SOL    HW213451   3.381   6.137   2.448  0.8942  0.0052  0.0833
 4004SOL     OW13452   5.917   3.390   6.302 -0.2650 -0.2897  0.5411
 4004SOL    HW113453   5.822   3.400   6.306 -0.1036  1.6744  0.1930
 4004SOL    HW213454   5.951   3.461   6.356  1.0306  0.4704 -1.1873
 4005SOL     OW13455   4.041   5.977   6.865  0.0440  0.2951 -0.4127
 4005SOL    HW113456   3.959   6.027   6.862  0.7057  1.4156 -0.5423
 4005SOL    HW213457   4.103   6.029   6.814  1.2696  0.3306  1.0209
 4006SOL     OW13458   2.110   2.060   0.023  0.3653 -0.6871  0.5629
 4006SOL    HW113459   2.056   1.984   0.003 -0.6408  0.2827 -0.5327
 4006SOL    HW213460   2.147   2.041   0.110 -3.1565 -0.6602  2.2288
 4007SOL     OW13461   3.014   7.878   0.940  0.1896  0.3289  0.1367
 4007SOL    HW113462   3.049   7.892   1.028  0.3713 -2.7218  0.6593
 4007SOL    HW213463   2.925   7.915   0.944  0.9623  2.2104  0.8575
 4008SOL     OW13464   3.194   5.573   4.954 -0.2563  0.2984 -0.0011
 4008SOL    HW113465   3.218   5.600   5.043 -1.4796  1.6496 -0.0406
 4008SOL    HW213466   3.119   5.515   4.967 -1.0277  1.2243 -0.1549
 4009SOL     OW13467   0.383   3.031   1.636  0.2209  0.3841 -0.3909
 4009SOL    HW113468   0.330   2.964   1.679 -1.1284  1.7299  0.0970
 4009SOL    HW213469   0.405   2.993   1.551 -2.3111  0.1463 -1.0003
 4010SOL     OW13470   7.713   1.802   9.164 -0.1723 -0.3323 -0.9225
 4010SOL    HW113471   7.750   1.847   9.240 -0.3846 -2.0838  0.2779
 4010SOL    HW213472   7.656   1.867   9.123  0.8248  1.0104 -0.2495
 4011SOL     OW13473   4.652   6.878   0.507  0.3053  0.1970  0.5435
 4011SOL    HW113474   4.737   6.854   0.544  0.3159  0.4043  0.6515
 4011SOL    HW213475   4.607   6.794   0.494 -0.7810  0.2077  3.5699
 4012SOL     OW13476   5.235   1.604   6.707 -0.0413  0.2970  0.5017
 4012SOL    HW113477   5.147   1.572   6.686  0.8416 -2.1066  0.1574
 4012SOL    HW213478   5.223   1.658   6.785 -2.0604  1.6326 -0.6252
 4013SOL     OW13479   4.562   7.630   7.623  0.2105  0.2486 -0.2937
 4013SOL    HW113480   4.619   7.674   7.560 -1.8591  1.0163 -1.7810
 4013SOL    HW213481   4.497   7.697   7.646 -0.8242 -0.9359  0.3074
 4014SOL     OW13482   5.737   7.697   2.778 -0.4945  0.3162  0.7709
 4014SOL    HW113483   5.825   7.660   2.776 -0.5849  0.1177  0.2709
 4014SOL    HW213484   5.742   7.769   2.841 -0.2898 -0.4775  1.7010
 4015SOL     OW13485   4.550   0.237   2.026  0.2826  0.1465  0.2131
 4015SOL    HW113486   4.596   0.278   1.954 -0.6637 -1.3995 -1.3503
 4015SOL    HW213487   4.475   0.293   2.042  1.4757  1.5017  1.3140
 4016SOL     OW13488   0.250   3.865   1.604  0.5648 -0.5747 -0.3560
 4016SOL    HW113489   0.271   3.953   1.636  1.2629 -0.7407 -0.3433
 4016SOL    HW213490   0.187   3.831   1.668 -0.0033  0.0508 -0.5704
 4017SOL     OW13491   7.245   4.063  10.506 -0.0378  0.1763  0.4001
 4017SOL    HW113492   7.160   4.026  10.483  0.5944 -1.3447  0.4295
 4017SOL    HW213493   7.246   4.149  10.464 -1.0827 -0.3063 -0.6580
 4018SOL     OW13494   5.405   7.211  11.917  0.2493  0.3183 -0.2411
 4018SOL    HW113495   5.363   7.252  11.993  0.7865 -0.0118  0.2420
 4018SOL    HW213496   5.497   7.203  11.942 -0.0551 -2.4043  0.2326
 4019SOL     OW13497   0.134   5.547  10.152 -0.2560  0.2199 -0.1083
 4019SOL    HW113498   0.171   5.499  10.226 -1.2221 -0.1860  0.1337
 4019SOL    HW213499   0.200   5.612  10.130  0.4826 -0.3234  0.4544
 4020SOL     OW13500   0.822   1.860  10.800  0.0657  0.5439 -0.0843
 4020SOL    HW113501   0.830   1.791  10.866 -2.3069 -0.5200 -0.8005
 4020SOL    HW213502   0.786   1.934  10.848 -2.0843 -0.3699 -0.1635
 4021SOL     OW13503   5.816   3.858   1.068 -0.1632  0.2641  0.1048
 4021SOL    HW113504   5.786   3.767   1.072 -0.3216  0.3583  2.0459
 4021SOL    HW213505   5.743   3.905   1.027 -0.6136 -0.2726  0.2813
 4022SOL     OW13506   7.501   3.259   2.820  0.0674 -0.5569 -0.0586
 4022SOL    HW113507   7.425   3.278   2.876 -0.8610 -0.8825 -1.1617
 4022SOL    HW213508   7.545   3.186   2.863 -1.4090 -1.7128 -0.4249
 4023SOL     OW13509   2.616   6.740   5.732  0.1599  0.1714  0.1382
 4023SOL    HW113510   2.669   6.802   5.782  0.6735 -0.1440 -0.0118
 4023SOL    HW213511   2.644   6.654   5.762  0.5481 -0.0274 -0.7576
 4024SOL     OW13512   5.816   2.597   9.858  0.8338  0.5465 -0.6429
 4024SOL    HW113513   5.875   2.659   9.901  1.8647 -1.0922  0.4092
 4024SOL    HW213514   5.868   2.518   9.847 -0.7943 -0.5411 -0.8493
 4025SOL     OW13515   7.542   2.631  11.051  0.1486  0.4743  0.3292
 4025SOL    HW113516   7.618   2.610  11.106  1.2911  1.1969 -0.9085
 4025SOL    HW213517   7.563   2.717  11.014 -1.2169  0.6155 -0.1616
 4026SOL     OW13518   6.782   4.017   3.810  0.0604  0.4799 -0.2938
 4026SOL    HW113519   6.687   4.028   3.817  0.0873  0.8595 -0.4948
 4026SOL    HW213520   6.818   4.089   3.863  0.2336 -0.1060  0.3926
 4027SOL     OW13521   7.495   0.396   8.894 -0.0231  0.0313 -0.4149
 4027SOL    HW113522   7.467   0.377   8.805 -1.4457 -1.0387  0.2157
 4027SOL    HW213523   7.525   0.312   8.928 -2.6147 -0.3904  1.1284
 4028SOL     OW13524   3.560   3.980   8.561 -0.4280 -0.3652 -0.2901
 4028SOL    HW113525   3.540   3.980   8.467 -0.2742  0.8316 -0.3342
 4028SOL    HW213526   3.553   4.072   8.587  0.5222 -0.5439  0.6615
 4029SOL     OW13527   3.712   0.660   1.799  0.6393 -0.3278 -0.0266
 4029SOL    HW113528   3.632   0.637   1.752  0.1822 -1.2166  1.1066
 4029SOL    HW213529   3.691   0.742   1.844 -0.1324 -1.1921  1.2828
 4030SOL     OW13530   0.715   2.331   9.686 -0.1492  0.2858 -0.2074
 4030SOL    HW113531   0.788   2.274   9.713  0.3387  0.5193 -0.9940
 4030SOL    HW213532   0.655   2.329   9.760  0.0562 -0.9190 -0.0512
 4031SOL     OW13533   3.668   6.968   9.255  0.3783  0.0622 -0.0192
 4031SOL    HW113534   3.691   7.005   9.170  0.1870  0.0861 -0.0607
 4031SOL    HW213535   3.575   6.946   9.247  0.0045  1.3052  0.6354
 4032SOL     OW13536   0.154   2.115   1.906  0.2153  0.4987  0.5395
 4032SOL    HW113537   0.173   2.071   1.824 -1.6547  0.4706  0.0795
 4032SOL    HW213538   0.134   2.205   1.882 -1.4212  0.2435  0.7658
 4033SOL     OW13539   3.091   0.205  10.118 -0.2190 -0.0753 -0.4812
 4033SOL    HW113540   3.013   0.216  10.063 -0.3018  1.1346 -0.1587
 4033SOL    HW213541   3.082   0.273  10.186 -0.0290 -1.4213  0.9349
 4034SOL     OW13542   5.385   0.052   6.131 -0.4485 -0.2405 -0.1586
 4034SOL    HW113543   5.310   0.001   6.104 -0.8836 -0.4093  1.2524
 4034SOL    HW213544   5.348   0.131   6.171  0.1902  0.7135 -1.3867
 4035SOL     OW13545   3.662   0.128   4.217 -0.3139 -0.2816  0.3512
 4035SOL    HW113546   3.677   0.198   4.280 -2.0731  0.4841 -0.0043
 4035SOL    HW213547   3.676   0.047   4.266  0.5720  0.3112  1.0886
 4036SOL     OW13548   2.290   7.789   9.424  0.2983 -0.2276 -0.0347
 4036SOL    HW113549   2.350   7.848   9.377 -1.2309  1.9305  0.5597
 4036SOL    HW213550   2.229   7.759   9.356  2.0300 -2.6137 -0.6894
 4037SOL     OW13551   4.660   0.219   9.905 -0.2831  0.0882  0.0526
 4037SOL    HW113552   4.672   0.299   9.854  0.4602 -1.1711 -1.8494
 4037SOL    HW213553   4.747   0.179   9.907 -0.8271 -1.1147  0.2116
 4038SOL     OW13554   1.767   3.368   5.979  0.3657 -0.5096  0.0805
 4038SOL    HW113555   1.750   3.462   5.979 -2.9350 -0.9642  0.3129
 4038SOL    HW213556   1.774   3.344   5.887  1.0309 -0.0758  0.0141
 4039SOL     OW13557   7.107   0.037   9.456 -0.3638 -0.0956  0.4411
 4039SOL    HW113558   7.178   0.043   9.392  0.0858  0.0442  0.9482
 4039SOL    HW213559   7.110  -0.054   9.487 -0.1493  0.0168  0.7530
 4040SOL     OW13560   6.083   7.693   4.025 -0.4587  0.1813  0.0458
 4040SOL    HW113561   6.160   7.710   3.971 -0.5655  0.6297  0.0275
 4040SOL    HW213562   6.039   7.778   4.033 -1.1546 -0.1385 -0.2477
 4041SOL     OW13563   7.336   6.985  11.620  0.1749 -0.3724  0.0857
 4041SOL    HW113564   7.337   7.045  11.545 -0.4928  1.2232  1.2814
 4041SOL    HW213565   7.250   6.944  11.618  0.3001 -0.6136 -0.2445
 4042SOL     OW13566   1.926   6.000   1.035 -0.3020 -0.2604  0.3902
 4042SOL    HW113567   1.892   6.088   1.048  0.4586  0.0225  0.5199
 4042SOL    HW213568   1.894   5.974   0.949 -1.8313 -0.4804  0.9834
 4043SOL     OW13569   1.595   6.854   9.311  0.1728  0.3894 -0.1984
 4043SOL    HW113570   1.545   6.932   9.335 -2.0603 -1.6600  2.4803
 4043SOL    HW213571   1.632   6.823   9.393  1.3738 -1.1628 -1.2609
 4044SOL     OW13572   1.139   7.890   9.779  0.1799  0.1430 -0.1784
 4044SOL    HW113573   1.107   7.961   9.725  0.7875  2.2660  2.0609
 4044SOL    HW213574   1.061   7.857   9.824  0.1987  1.2173  0.7086
 4045SOL     OW13575   1.774   2.777   3.401 -0.1346 -0.2620  0.0233
 4045SOL    HW113576   1.825   2.792   3.481 -0.9072 -1.2487  0.7364
 4045SOL    HW213577   1.691   2.822   3.418  0.8247  2.3551 -1.6083
 4046SOL     OW13578   1.938   4.996   5.345 -0.2135 -0.0245  0.4481
 4046SOL    HW113579   1.911   4.963   5.259 -1.3850  0.6402  0.5321
 4046SOL    HW213580   2.033   5.004   5.339 -0.3704  1.1849 -1.2448
 4047SOL     OW13581   6.553   0.097   1.163  0.3188 -0.2483 -0.0570
 4047SOL    HW113582   6.600   0.014   1.172 -0.3838 -0.6251  0.2599
 4047SOL    HW213583   6.595   0.156   1.226  1.4524 -0.0530 -0.9616
 4048SOL     OW13584   5.472   6.232   0.523 -0.0971  0.1032  0.1373
 4048SOL    HW113585   5.528   6.154   0.526 -0.7866 -0.3649  1.5767
 4048SOL    HW213586   5.386   6.200   0.499 -0.5760  0.2801  1.5376
 4049SOL     OW13587   5.768   5.608  10.923  0.2189  0.4463 -0.5298
 4049SOL    HW113588   5.696   5.597  10.986  0.1148 -1.1048 -0.8600
 4049SOL    HW213589   5.725   5.608  10.838  0.3333  2.8119 -0.6449
 4050SOL     OW13590   5.977   4.214  10.740 -0.7406  0.2552 -0.1222
 4050SOL    HW113591   5.997   4.227  10.833  0.2184 -1.0497 -0.1169
 4050SOL    HW213592   6.053   4.250  10.694 -1.4118  1.2993 -0.4310
 4051SOL     OW13593   3.918   0.737   5.908 -0.5497  0.0837  0.5311
 4051SOL    HW113594   3.952   0.825   5.893  0.9370 -0.2429  1.7662
 4051SOL    HW213595   3.880   0.740   5.996  1.2451 -0.9682  1.3874
 4052SOL     OW13596   5.349   5.142   9.393 -0.4430 -0.0209  0.1898
 4052SOL    HW113597   5.367   5.064   9.444  1.2043  0.9409  1.1539
 4052SOL    HW213598   5.271   5.180   9.434 -0.2989 -0.3134  0.7367
 4053SOL     OW13599   2.545   1.786   0.595 -0.2820 -0.5421  0.1502
 4053SOL    HW113600   2.540   1.856   0.660  0.9998 -0.5189  0.2548
 4053SOL    HW213601   2.639   1.771   0.584 -0.5260 -3.2714  1.2145
 4054SOL     OW13602   1.039   5.327   7.113 -0.4903  0.2426 -0.0686
 4054SOL    HW113603   1.055   5.373   7.030 -2.6593  0.7524 -0.2668
 4054SOL    HW213604   0.989   5.250   7.089  0.7493 -0.8075  0.5821
 4055SOL     OW13605   3.282   3.630  10.489  0.0324 -0.2530  0.3490
 4055SOL    HW113606   3.237   3.570  10.547  0.2997  1.2692  2.2405
 4055SOL    HW213607   3.375   3.615  10.505  0.1138  1.6117  1.9950
 4056SOL     OW13608   5.391   7.363   3.621 -0.4667 -0.1599 -0.3039
 4056SOL    HW113609   5.429   7.319   3.698 -0.6669  0.7544  0.3345
 4056SOL    HW213610   5.421   7.311   3.547  4.5314  2.0221 -0.1768
 4057SOL     OW13611   4.290   3.694   5.392 -0.6261  0.3010  0.5040
 4057SOL    HW113612   4.318   3.767   5.337 -1.4311  0.6749  0.5758
 4057SOL    HW213613   4.308   3.616   5.340 -2.1113  0.6843 -0.6466
 4058SOL     OW13614   3.722   1.611  10.576 -0.1826  0.2534  0.5118
 4058SOL    HW113615   3.712   1.517  10.595 -0.9382  0.2963  0.3620
 4058SOL    HW213616   3.756   1.614  10.487  0.9012  0.1045  0.9067
 4059SOL     OW13617   2.175   6.902  10.048  0.6975 -0.2923 -0.0832
 4059SOL    HW113618   2.131   6.875  10.129  0.0256  0.3252 -0.2333
 4059SOL    HW213619   2.265   6.920  10.076  1.0289 -2.0796  0.1250
 4060SOL     OW13620   6.589   3.112  10.862  0.0184  0.6199 -0.4246
 4060SOL    HW113621   6.529   3.181  10.833  0.3590  0.3387 -1.8979
 4060SOL    HW213622   6.607   3.133  10.953 -0.4184  2.1030 -0.6404
 4061SOL     OW13623   1.744   7.853   1.353  0.1086 -0.5963  0.4256
 4061SOL    HW113624   1.712   7.922   1.295 -0.2514 -3.0245 -2.5172
 4061SOL    HW213625   1.825   7.822   1.311 -1.0560 -3.5842  0.1498
 4062SOL     OW13626   0.154   4.235   3.837  0.2023 -0.2463  0.0103
 4062SOL    HW113627   0.108   4.300   3.889  0.9593  0.0789  0.2920
 4062SOL    HW213628   0.236   4.277   3.812 -0.4886 -0.0754 -2.2069
 4063SOL     OW13629   2.081   7.384  11.723 -0.2559  0.5957  0.1080
 4063SOL    HW113630   2.107   7.291  11.722 -1.6631  0.1610  1.4228
 4063SOL    HW213631   2.164   7.431  11.722  0.5217 -0.6985  0.4591
 4064SOL     OW13632   3.597   5.720   2.189 -0.2374 -0.2200 -0.1407
 4064SOL    HW113633   3.658   5.703   2.260 -1.0623 -2.2362  0.1451
 4064SOL    HW213634   3.512   5.694   2.224 -0.4118 -3.4167 -2.4672
 4065SOL     OW13635   3.667   7.400   0.714  0.1638  0.3808  0.0656
 4065SOL    HW113636   3.580   7.437   0.727 -0.3833 -0.9042  0.1815
 4065SOL    HW213637   3.669   7.375   0.622 -0.7388 -2.2894  0.6634
 4066SOL     OW13638   0.112   5.517   0.666 -0.7232  0.6461 -0.5400
 4066SOL    HW113639   0.087   5.428   0.692  0.4038  0.9008  1.6587
 4066SOL    HW213640   0.053   5.538   0.594 -3.8180 -0.3637  1.4936
 4067SOL     OW13641   6.765   5.769   5.904 -0.5581  0.1866 -0.7579
 4067SOL    HW113642   6.853   5.798   5.927 -0.7969 -0.7776  1.6497
 4067SOL    HW213643   6.710   5.846   5.920 -0.6145 -0.2532  1.4420
 4068SOL     OW13644   3.803   7.469  11.588  0.1434 -0.5799  0.0586
 4068SOL    HW113645   3.775   7.561  11.594  0.3674 -0.5257  0.2785
 4068SOL    HW213646   3.747   7.423  11.650 -0.3909 -0.6944 -0.5000
 4069SOL     OW13647   1.003   1.456   3.580  0.1443 -1.2413 -0.3119
 4069SOL    HW113648   0.923   1.421   3.539  0.1578 -1.0066 -0.5447
 4069SOL    HW213649   1.072   1.396   3.553  0.2766 -0.6892 -1.2348
 4070SOL     OW13650   2.057   7.163   0.339 -0.2959  0.5468  0.6093
 4070SOL    HW113651   2.125   7.171   0.272 -0.2230  1.0581  0.7428
 4070SOL    HW213652   1.978   7.139   0.289 -0.3354  1.3222  0.2854
 4071SOL     OW13653   5.951   4.551   3.575 -0.2512 -0.0572 -0.3102
 4071SOL    HW113654   5.917   4.628   3.619 -0.4613 -0.1047 -0.3869
 4071SOL    HW213655   6.041   4.543   3.606 -0.0763  0.4901 -0.6608
 4072SOL     OW13656   7.521   3.746   7.098  0.1509 -0.0312 -0.0889
 4072SOL    HW113657   7.477   3.696   7.029 -0.1272 -0.6347  0.5088
 4072SOL    HW213658   7.497   3.837   7.081  0.5064 -0.1170 -1.0779
 4073SOL     OW13659   3.421   7.482   8.740 -0.5561  0.2665 -0.0374
 4073SOL    HW113660   3.424   7.497   8.645  0.7066  1.3620  0.1402
 4073SOL    HW213661   3.465   7.399   8.753 -0.2211  0.3878 -0.3727
 4074SOL     OW13662   0.990   2.317   3.806 -0.4477 -0.9911  0.1834
 4074SOL    HW113663   0.944   2.381   3.861  1.5097  1.4903 -0.8449
 4074SOL    HW213664   0.930   2.301   3.733 -0.5037  0.7243 -0.1878
 4075SOL     OW13665   5.549   7.017   9.324  0.1672 -0.2968 -0.1052
 4075SOL    HW113666   5.547   6.935   9.275 -0.3902 -0.2263 -0.2143
 4075SOL    HW213667   5.622   7.008   9.385  2.7063  0.6467 -2.7537
 4076SOL     OW13668   3.397   6.021   5.998  0.6951  0.3672  0.0263
 4076SOL    HW113669   3.481   6.038   6.041  0.5604  0.7194  0.1583
 4076SOL    HW213670   3.332   6.059   6.057  0.3187 -1.1393  0.6188
 4077SOL     OW13671   3.785   1.334   6.576  0.5903 -0.0073 -0.2128
 4077SOL    HW113672   3.735   1.253   6.574  1.4388 -0.5755  0.6402
 4077SOL    HW213673   3.755   1.378   6.656 -0.3948  0.8900 -1.0446
 4078SOL     OW13674   1.016   4.354  11.612  0.1219 -0.0214 -0.3215
 4078SOL    HW113675   1.103   4.349  11.651 -0.0087 -0.0977 -0.0302
 4078SOL    HW213676   0.959   4.309  11.676  0.0808 -1.1950 -1.1486
 4079SOL     OW13677   0.392   2.813   0.600  0.0892  0.0075 -0.3204
 4079SOL    HW113678   0.410   2.907   0.600  0.4882 -0.0593  0.2933
 4079SOL    HW213679   0.325   2.801   0.533  0.8634  0.5717 -1.2308
 4080SOL     OW13680   2.427   0.385   8.001 -0.1747  0.0171 -0.0666
 4080SOL    HW113681   2.346   0.425   7.970 -0.3275  1.6566  2.1933
 4080SOL    HW213682   2.483   0.379   7.923 -1.1210  2.2856 -1.0161
 4081SOL     OW13683   4.470   5.228   5.895  0.2298 -0.4400  0.0248
 4081SOL    HW113684   4.544   5.284   5.921  0.8401 -0.7683 -0.9648
 4081SOL    HW213685   4.427   5.206   5.978  1.5979 -0.7319  0.6959
 4082SOL     OW13686   7.213   5.528  10.177 -1.1417  0.6965  0.2818
 4082SOL    HW113687   7.201   5.492  10.089 -0.9742  0.6546  0.2761
 4082SOL    HW213688   7.295   5.491  10.208 -1.3719  0.4384  0.5934
 4083SOL     OW13689   3.444   2.425   3.786  0.2713  0.1743  0.6241
 4083SOL    HW113690   3.378   2.434   3.717  1.2718  2.6126 -0.1268
 4083SOL    HW213691   3.416   2.486   3.854  1.5719  1.0329  0.4170
 4084SOL     OW13692   6.124   7.179   5.364 -0.3703 -0.2760 -0.1740
 4084SOL    HW113693   6.187   7.112   5.338 -0.5074 -0.9019  1.0620
 4084SOL    HW213694   6.054   7.172   5.298 -0.2586 -1.1676 -0.2100
 4085SOL     OW13695   4.979   2.680   5.848 -0.4055 -0.0944 -0.1356
 4085SOL    HW113696   5.029   2.757   5.822  0.2940 -0.1876  0.8860
 4085SOL    HW213697   4.894   2.715   5.876 -0.2910  0.2442 -0.2090
 4086SOL     OW13698   1.059   4.050   5.864 -0.5685 -0.6157  0.0615
 4086SOL    HW113699   1.103   3.967   5.884 -0.7740 -1.0602 -1.2411
 4086SOL    HW213700   1.125   4.100   5.816 -1.0618 -0.7902 -0.8130
 4087SOL     OW13701   7.338   6.260   5.051  0.0113  0.6994  0.4628
 4087SOL    HW113702   7.429   6.232   5.049 -0.1888 -0.1035  1.3549
 4087SOL    HW213703   7.296   6.200   5.113 -1.1423  0.9960  0.0049
 4088SOL     OW13704   5.527   7.456   0.219 -0.5695 -0.3310 -0.4493
 4088SOL    HW113705   5.562   7.399   0.287 -0.5932 -0.0028 -0.1601
 4088SOL    HW213706   5.438   7.478   0.248 -0.5471 -0.1135 -0.5382
 4089SOL     OW13707   0.852   4.313  10.984 -0.0697 -0.3167 -0.3898
 4089SOL    HW113708   0.852   4.407  11.002 -1.0818 -0.2404 -0.6765
 4089SOL    HW213709   0.842   4.272  11.071  1.2571 -0.2086 -0.1695
 4090SOL     OW13710   1.505   1.533   5.741 -0.6390  0.3302  0.0488
 4090SOL    HW113711   1.596   1.521   5.768 -0.6177 -0.3040 -0.2824
 4090SOL    HW213712   1.511   1.559   5.649 -0.7399  1.7988  0.4339
 4091SOL     OW13713   0.792   2.283   5.902  0.1480  0.0045 -0.6087
 4091SOL    HW113714   0.765   2.366   5.862 -1.7047  0.9728  2.3577
 4091SOL    HW213715   0.884   2.273   5.878  0.4068  2.8897 -1.1133
 4092SOL     OW13716   5.120   2.605  11.977 -0.2729 -0.2359  0.1766
 4092SOL    HW113717   5.113   2.585  11.884 -1.6915 -2.2057  0.6378
 4092SOL    HW213718   5.099   2.698  11.983  1.0448  0.2270 -1.5626
 4093SOL     OW13719   5.719   2.818  11.354 -0.1233  0.3415  0.4326
 4093SOL    HW113720   5.680   2.884  11.410 -1.5333 -1.7126  2.0225
 4093SOL    HW213721   5.661   2.812  11.278 -1.7477 -1.0568  1.6907
 4094SOL     OW13722   0.592   3.960   3.582  0.1674  0.1854 -0.0449
 4094SOL    HW113723   0.632   3.989   3.500  1.2535  0.7841  0.6762
 4094SOL    HW213724   0.534   4.032   3.606  0.2037  0.2159 -0.0484
 4095SOL     OW13725   4.110   4.529  10.789  0.1976  0.4282  0.1654
 4095SOL    HW113726   4.064   4.445  10.797  0.8002 -0.0579 -1.1862
 4095SOL    HW213727   4.156   4.538  10.872 -1.3866  0.3683  1.0959
 4096SOL     OW13728   0.869   5.312  11.161 -0.1651  0.0555 -0.6722
 4096SOL    HW113729   0.884   5.387  11.218 -0.5481  0.5092 -1.1560
 4096SOL    HW213730   0.779   5.285  11.180  0.4191 -1.1734  0.5140
 4097SOL     OW13731   7.210   6.663   4.515  0.7905  0.1650  0.4714
 4097SOL    HW113732   7.165   6.580   4.501  1.9177 -0.2332 -1.0085
 4097SOL    HW213733   7.145   6.730   4.491  0.4774 -0.3369 -0.0950
 4098SOL     OW13734   4.855   4.591   1.767 -0.3299 -0.7755 -0.0582
 4098SOL    HW113735   4.842   4.575   1.673 -1.7893  1.5612 -0.3235
 4098SOL    HW213736   4.796   4.530   1.810  1.0609 -2.5581 -0.5634
 4099SOL     OW13737   1.506   2.415   9.468  0.3261 -0.1338  0.3804
 4099SOL    HW113738   1.597   2.441   9.452  0.2063 -0.0182 -0.1143
 4099SOL    HW213739   1.496   2.333   9.420  0.2610 -0.3106  0.6962
 4100SOL     OW13740   0.405   4.046   5.898  0.3591 -0.6477 -0.0469
 4100SOL    HW113741   0.471   4.114   5.886  2.1206 -2.7200 -4.1370
 4100SOL    HW213742   0.455   3.966   5.914 -1.3378 -1.7450  0.0468
 4101SOL     OW13743   0.169   4.098   2.473 -0.2241  0.5871 -0.1466
 4101SOL    HW113744   0.193   4.162   2.405 -2.2649  1.6174  0.0157
 4101SOL    HW213745   0.073   4.102   2.476 -0.2762 -0.9330  1.3923
 4102SOL     OW13746   4.852   3.930   3.257 -0.1535  0.2478  0.8169
 4102SOL    HW113747   4.897   3.900   3.336  0.2891 -0.3903  0.3287
 4102SOL    HW213748   4.779   3.982   3.290  0.9452  1.3352  1.6146
 4103SOL     OW13749   5.688   7.666  10.302  0.1263  0.0657  0.2584
 4103SOL    HW113750   5.720   7.578  10.324  2.5016  1.3344  2.4137
 4103SOL    HW213751   5.743   7.694  10.229 -1.0180 -0.3975 -0.8131
 4104SOL     OW13752   5.327   4.976   8.977 -0.0600 -0.1203 -0.0360
 4104SOL    HW113753   5.331   5.062   9.019  0.4374 -0.5990  0.9355
 4104SOL    HW213754   5.419   4.951   8.967 -0.1514  0.1098 -1.7268
 4105SOL     OW13755   6.905   7.551   1.505  0.5184 -0.3754 -0.5292
 4105SOL    HW113756   6.923   7.645   1.503 -1.6319  0.1374  0.8917
 4105SOL    HW213757   6.863   7.532   1.421 -2.3296  0.7718  0.5049
 4106SOL     OW13758   0.668   4.406   3.647  0.2107  0.1001  0.6667
 4106SOL    HW113759   0.573   4.415   3.658 -0.3343 -0.4412 -2.4821
 4106SOL    HW213760   0.697   4.493   3.619  0.0671 -0.3690 -1.1083
 4107SOL     OW13761   0.500   0.087   4.852  0.5506  0.1666  0.6321
 4107SOL    HW113762   0.462   0.001   4.867 -0.3536  0.6443  1.1512
 4107SOL    HW213763   0.486   0.103   4.758  1.3834 -0.5436  0.3711
 4108SOL     OW13764   2.124   2.003   6.024 -0.1164  0.6540  0.3353
 4108SOL    HW113765   2.143   2.097   6.024 -1.2657  0.9002  1.2762
 4108SOL    HW213766   2.068   1.989   6.100 -0.7413 -0.6446 -0.3329
 4109SOL     OW13767   5.113   4.639  11.754  0.4149  0.2048  0.4034
 4109SOL    HW113768   5.093   4.638  11.660  0.7929  0.7411  0.3144
 4109SOL    HW213769   5.188   4.580  11.763  2.8436  2.9528 -0.2284
 4110SOL     OW13770   5.302   0.940   9.863  0.4612 -0.1195  0.5239
 4110SOL    HW113771   5.382   0.967   9.817 -0.1889  0.4081 -0.3182
 4110SOL    HW213772   5.257   0.883   9.801  1.4319 -2.6459  1.9820
 4111SOL     OW13773   0.744   6.431   9.456  0.2312  0.0307 -0.0504
 4111SOL    HW113774   0.813   6.368   9.478 -0.5881 -0.4932  1.1410
 4111SOL    HW213775   0.669   6.404   9.509 -0.9582  0.4873 -1.4161
 4112SOL     OW13776   4.865   6.944  12.215 -0.9275 -0.3026 -0.3257
 4112SOL    HW113777   4.888   6.933  12.122 -0.1176 -2.5999  0.0758
 4112SOL    HW213778   4.772   6.923  12.219 -0.4722 -2.6533 -0.3472
 4113SOL     OW13779   4.476   2.675   6.944 -0.7204 -0.1340 -0.0187
 4113SOL    HW113780   4.437   2.717   7.021  1.5317  1.6089  0.3079
 4113SOL    HW213781   4.416   2.695   6.873 -1.0648  1.4499  0.6543
 4114SOL     OW13782   7.384   1.908   9.877 -0.2031  0.2045 -0.1429
 4114SOL    HW113783   7.372   1.924   9.783  1.4554  0.5403 -0.3145
 4114SOL    HW213784   7.373   1.813   9.886 -0.0698  0.1276 -0.7271
 4115SOL     OW13785   6.618   5.637   9.880 -0.0282 -0.0991  0.0272
 4115SOL    HW113786   6.653   5.550   9.863  2.4176  0.4635  1.6696
 4115SOL    HW213787   6.695   5.694   9.882 -1.6452  2.3462 -2.0739
 4116SOL     OW13788   7.157   6.507   2.250  0.4758  0.1866  0.0600
 4116SOL    HW113789   7.087   6.451   2.282  3.4715 -2.9773  1.7567
 4116SOL    HW213790   7.149   6.588   2.301 -0.4551 -1.0991  2.0520
 4117SOL     OW13791   1.013   3.183   1.929  0.0531 -0.1219 -0.5359
 4117SOL    HW113792   0.984   3.200   2.019 -0.2832  1.4259 -0.9139
 4117SOL    HW213793   0.933   3.164   1.881  0.1507 -0.2065 -0.6670
 4118SOL     OW13794   5.770   6.916  11.226  0.0540 -0.2361  0.4034
 4118SOL    HW113795   5.848   6.971  11.225 -0.1130  0.0021  0.2477
 4118SOL    HW213796   5.791   6.844  11.285  0.8737 -0.8861 -0.6494
 4119SOL     OW13797   2.654   7.482  10.310 -0.0063 -0.0593 -0.0560
 4119SOL    HW113798   2.643   7.388  10.321 -0.3748 -0.0470 -0.3129
 4119SOL    HW213799   2.567   7.514  10.284 -0.3395  0.5910  1.6757
 4120SOL     OW13800   2.736   1.875   9.639 -0.2556  0.5623 -0.1266
 4120SOL    HW113801   2.683   1.842   9.566 -2.0016  2.3041  0.2475
 4120SOL    HW213802   2.751   1.967   9.618 -0.8695  1.1383  1.6924
 4121SOL     OW13803   2.486   3.438  11.673 -0.2624 -0.0908  0.6649
 4121SOL    HW113804   2.549   3.414  11.741  0.7163  2.4381  0.7612
 4121SOL    HW213805   2.404   3.450  11.719 -0.2890 -1.1192  0.9180
 4122SOL     OW13806   5.492   4.185   1.470 -0.2359 -0.3659  0.1977
 4122SOL    HW113807   5.560   4.232   1.421 -1.0740  0.8597  0.1687
 4122SOL    HW213808   5.434   4.253   1.503 -1.3233 -1.3676  0.4435
 4123SOL     OW13809   5.695   2.075   2.294 -0.4191 -0.0063  0.1529
 4123SOL    HW113810   5.614   2.064   2.344  0.3485 -1.0021  1.2406
 4123SOL    HW213811   5.703   2.169   2.281 -1.0466  0.2133  1.2558
 4124SOL     OW13812   1.700   3.991   9.051 -0.1625  0.7963  0.6628
 4124SOL    HW113813   1.721   4.080   9.022  0.1218  0.5282  0.0260
 4124SOL    HW213814   1.607   3.980   9.032  0.0375  0.6011 -0.2129
 4125SOL     OW13815   3.944   2.985   0.158 -0.6576 -0.1681 -0.2155
 4125SOL    HW113816   3.920   2.906   0.109  0.5886  0.1783 -1.4332
 4125SOL    HW213817   3.947   3.054   0.092  3.5152 -0.1471 -0.2315
 4126SOL     OW13818   7.644   7.672  11.307 -0.0503  0.2392  0.4186
 4126SOL    HW113819   7.622   7.581  11.285 -1.1914  0.0661  2.1328
 4126SOL    HW213820   7.561   7.713  11.328  0.6039  1.3365  0.9588
 4127SOL     OW13821   4.909   4.746  10.905  0.1889  0.2688  0.5055
 4127SOL    HW113822   4.828   4.796  10.916  1.1342  2.2545 -0.8664
 4127SOL    HW213823   4.974   4.794  10.957  0.4969 -1.4790  1.8574
 4128SOL     OW13824   0.432   7.189   9.903  0.0930 -0.0338  0.3742
 4128SOL    HW113825   0.402   7.181   9.813 -0.3711 -0.1352  0.5360
 4128SOL    HW213826   0.527   7.190   9.897  0.0594  1.0503 -0.2141
 4129SOL     OW13827   7.885   6.511   3.075  0.2103 -0.4455  0.8143
 4129SOL    HW113828   7.933   6.575   3.129  1.8935 -1.3108  0.4196
 4129SOL    HW213829   7.932   6.510   2.992 -1.0406 -0.7262  0.0838
 4130SOL     OW13830   4.573   2.060   3.277 -0.3125  0.1547  0.2198
 4130SOL    HW113831   4.660   2.023   3.257 -0.4642 -1.3834  2.1167
 4130SOL    HW213832   4.591   2.147   3.311  0.6139 -0.4439  1.3582
 4131SOL     OW13833   4.833   6.854  11.165 -0.2579  0.1141  0.2338
 4131SOL    HW113834   4.854   6.925  11.104 -0.5852 -1.6376 -2.0598
 4131SOL    HW213835   4.748   6.879  11.201 -0.3332  0.9192 -0.4588
 4132SOL     OW13836   6.290   2.594   7.403  0.1395  0.1860  0.5155
 4132SOL    HW113837   6.202   2.631   7.408 -0.1504 -0.4745  0.3765
 4132SOL    HW213838   6.347   2.669   7.384 -0.4869  0.4951 -0.1933
 4133SOL     OW13839   7.341   1.276  11.965 -0.5568  0.3253  0.7102
 4133SOL    HW113840   7.346   1.250  12.057 -1.5207  0.2574  0.7472
 4133SOL    HW213841   7.294   1.205  11.922 -0.1043  0.3494  0.1536
 4134SOL     OW13842   1.317   2.242   8.106 -0.3754 -0.0348 -0.2771
 4134SOL    HW113843   1.263   2.206   8.036 -0.2524 -1.5279  0.3545
 4134SOL    HW213844   1.278   2.327   8.125 -3.1255 -1.3955  0.7680
 4135SOL     OW13845   2.894   6.066   7.237  0.6172 -0.2831  0.4624
 4135SOL    HW113846   2.835   6.002   7.277 -1.1627  0.7793 -0.3846
 4135SOL    HW213847   2.979   6.021   7.233 -0.2772 -2.0994  1.0531
 4136SOL     OW13848   7.478   3.052   1.799 -0.0356  0.2224 -0.1911
 4136SOL    HW113849   7.489   2.977   1.859 -1.3925  0.6261  0.5999
 4136SOL    HW213850   7.553   3.108   1.818  0.1191 -0.1629  0.3846
 4137SOL     OW13851   5.154   4.603   7.265 -0.3064  0.0641  0.4209
 4137SOL    HW113852   5.197   4.568   7.343  1.8343  2.1876  0.3320
 4137SOL    HW213853   5.222   4.597   7.197 -1.1090  1.0201 -0.4825
 4138SOL     OW13854   2.034   3.475   6.759  0.4293  0.1734 -0.4360
 4138SOL    HW113855   1.999   3.405   6.705  1.8160 -1.0261  0.1648
 4138SOL    HW213856   2.071   3.538   6.696 -0.2830  0.0930 -0.9495
 4139SOL     OW13857   5.252   3.703   3.967 -0.8004 -0.3106  0.1158
 4139SOL    HW113858   5.190   3.656   4.024 -1.6244 -1.5770 -1.7420
 4139SOL    HW213859   5.200   3.770   3.924 -0.4968 -0.3026 -0.2390
 4140SOL     OW13860   3.967   3.978   7.993  0.5798 -0.3145 -0.3711
 4140SOL    HW113861   3.910   4.038   7.945  0.4273 -0.7251 -0.7102
 4140SOL    HW213862   3.918   3.955   8.071  0.8332  0.3661 -0.0033
 4141SOL     OW13863   7.894   6.525   3.435  0.3700  0.7458 -0.1210
 4141SOL    HW113864   7.871   6.614   3.406  0.5131  0.6064 -0.6635
 4141SOL    HW213865   7.886   6.471   3.357  1.0484  0.4159  0.0311
 4142SOL     OW13866   4.227   6.105   4.805  0.4831 -0.7410 -0.1424
 4142SOL    HW113867   4.135   6.081   4.819  0.2316  0.4317  0.2882
 4142SOL    HW213868   4.227   6.154   4.723  0.8695 -1.4410 -0.5774
 4143SOL     OW13869   4.588   0.051   5.239 -0.0000  0.6123 -0.0610
 4143SOL    HW113870   4.615   0.118   5.177 -0.2610  0.1117 -0.7329
 4143SOL    HW213871   4.505   0.082   5.274  0.4712  1.2146  0.5434
 4144SOL     OW13872   0.370   7.447   4.673  0.2299 -0.2585  0.0793
 4144SOL    HW113873   0.378   7.473   4.764 -0.2000 -2.6130  0.8446
 4144SOL    HW213874   0.439   7.496   4.628  1.5618 -0.3100  1.9447
 4145SOL     OW13875   1.018   6.233   5.381 -0.2713 -0.0558 -0.0871
 4145SOL    HW113876   1.112   6.240   5.364  0.0194  0.4959  1.5534
 4145SOL    HW213877   0.992   6.322   5.406 -0.9968 -0.4339  0.5412
 4146SOL     OW13878   7.011   5.835   2.383 -1.0094 -0.2520 -0.1871
 4146SOL    HW113879   7.038   5.922   2.352 -0.2771  0.0297  1.1461
 4146SOL    HW213880   6.951   5.804   2.316 -0.1251  0.6441 -1.4731
 4147SOL     OW13881   5.787   0.676   8.886  0.1173  0.2455  0.1866
 4147SOL    HW113882   5.779   0.744   8.820  1.0639  0.3774  0.1940
 4147SOL    HW213883   5.791   0.724   8.969 -0.7731  0.0951  0.3243
 4148SOL     OW13884   3.039   0.503   5.195 -0.4908  0.0781  0.5943
 4148SOL    HW113885   3.039   0.585   5.244 -0.5133  0.6361 -0.3209
 4148SOL    HW213886   3.128   0.470   5.204  1.1189  2.7349 -3.0850
 4149SOL     OW13887   1.625   6.424   0.223  0.0361  0.1345  0.5196
 4149SOL    HW113888   1.569   6.356   0.262 -0.3767  0.2488  0.1375
 4149SOL    HW213889   1.641   6.393   0.134  0.4974  0.1590  0.5925
 4150SOL     OW13890   0.400   3.541   6.855  0.2971  0.3074 -0.0318
 4150SOL    HW113891   0.394   3.600   6.780 -0.4382 -0.7653 -0.8431
 4150SOL    HW213892   0.460   3.472   6.828 -0.3637 -0.3582  0.1638
 4151SOL     OW13893   6.681   1.477   3.376 -0.1436  0.1495 -0.5622
 4151SOL    HW113894   6.639   1.554   3.337 -0.6726 -0.0031 -0.3014
 4151SOL    HW213895   6.617   1.407   3.365 -0.5957  0.2375  1.1450
 4152SOL     OW13896   7.437   7.366  12.044 -0.3346  0.3690 -0.0637
 4152SOL    HW113897   7.390   7.331  11.969 -1.7367  1.5715  0.2132
 4152SOL    HW213898   7.496   7.295  12.070 -1.6008 -1.0157 -0.7712
 4153SOL     OW13899   2.868   6.926   1.627 -0.3645  0.1722  0.2694
 4153SOL    HW113900   2.781   6.965   1.623 -0.9739 -0.9954  1.1947
 4153SOL    HW213901   2.902   6.932   1.538 -0.3970  2.7684  0.3740
 4154SOL     OW13902   3.113   6.872   0.778  0.2990  0.1508 -0.5125
 4154SOL    HW113903   3.030   6.873   0.729  0.0675  1.3560 -0.1244
 4154SOL    HW213904   3.178   6.842   0.714 -0.5108 -1.4524 -0.6556
 4155SOL     OW13905   1.172   3.190  11.663 -0.4604 -0.8093  0.1087
 4155SOL    HW113906   1.216   3.209  11.746 -2.3054 -0.3986  1.0507
 4155SOL    HW213907   1.183   3.270  11.611 -0.9289 -0.3347  0.7273
 4156SOL     OW13908   5.667   3.572   7.240 -0.2308 -0.1409  0.0082
 4156SOL    HW113909   5.643   3.625   7.164 -0.2961  1.6883  1.2257
 4156SOL    HW213910   5.593   3.582   7.300 -0.4149 -1.9851  0.1358
 4157SOL     OW13911   5.720   7.003   4.444  0.5697  0.8735 -0.1705
 4157SOL    HW113912   5.783   6.953   4.393  0.0067  1.4881 -1.5332
 4157SOL    HW213913   5.773   7.048   4.510  1.1662 -0.8715  0.6017
 4158SOL     OW13914   3.922   2.413   2.221  0.6678  0.7297  0.3386
 4158SOL    HW113915   3.956   2.417   2.310 -0.4939 -1.2147  0.9247
 4158SOL    HW213916   3.861   2.339   2.222  1.2441  0.1084 -2.2746
 4159SOL     OW13917   4.454   3.365   1.162 -0.2039 -0.0316  0.0633
 4159SOL    HW113918   4.410   3.429   1.107  0.2169  1.3081  1.2162
 4159SOL    HW213919   4.539   3.352   1.120 -1.2241 -1.8589 -1.6013
 4160SOL     OW13920   1.687   2.381   0.838 -0.3343  0.3486 -0.5981
 4160SOL    HW113921   1.741   2.309   0.870 -0.7578  0.1618 -0.2878
 4160SOL    HW213922   1.606   2.339   0.809 -0.3474  0.6343 -0.9824
 4161SOL     OW13923   0.661   6.921   1.272  0.2609 -0.7945  0.1208
 4161SOL    HW113924   0.746   6.967   1.273  0.6095 -1.4474  1.4370
 4161SOL    HW213925   0.614   6.961   1.198  0.6829  1.4473  0.9787
 4162SOL     OW13926   4.392   0.315   6.669 -0.3289 -0.0773  0.0268
 4162SOL    HW113927   4.314   0.334   6.722  1.8746  0.1123  3.4622
 4162SOL    HW213928   4.450   0.390   6.683  0.7855 -0.4827 -1.9845
 4163SOL     OW13929   2.209   4.676   1.447 -0.0094  0.0008  0.7120
 4163SOL    HW113930   2.290   4.711   1.409  0.1085  0.8118  1.6512
 4163SOL    HW213931   2.230   4.664   1.540 -1.3606  1.5752  1.2686
 4164SOL     OW13932   5.427   1.407   6.726 -0.4744  0.8764  0.2995
 4164SOL    HW113933   5.384   1.378   6.806  1.4770  2.2218  1.9155
 4164SOL    HW213934   5.358   1.454   6.678 -1.6033  0.2636  1.2665
 4165SOL     OW13935   4.188   7.867   6.197 -0.0564  0.1176  1.0023
 4165SOL    HW113936   4.136   7.941   6.227  0.5502  1.0978 -0.3006
 4165SOL    HW213937   4.259   7.861   6.260 -0.5087  0.1670  1.5288
 4166SOL     OW13938   0.377   5.467   0.727  0.0410  0.4187 -0.3750
 4166SOL    HW113939   0.416   5.534   0.671 -0.1408  2.2049  1.5138
 4166SOL    HW213940   0.282   5.479   0.717 -0.0439 -0.8640 -1.4498
 4167SOL     OW13941   6.070   0.759  11.526  0.4845  0.3641 -0.0314
 4167SOL    HW113942   6.135   0.689  11.536 -0.7189 -0.8033 -0.0860
 4167SOL    HW213943   6.021   0.757  11.608  1.1670  1.9566  0.4473
 4168SOL     OW13944   0.719   4.823   0.841 -0.2997 -0.4862 -0.3450
 4168SOL    HW113945   0.766   4.904   0.820 -1.3740  0.2112 -0.1591
 4168SOL    HW213946   0.784   4.754   0.828  0.8231  0.4408  0.0520
 4169SOL     OW13947   7.054   7.112   6.288 -0.2591 -0.2258  0.4348
 4169SOL    HW113948   7.022   7.164   6.362 -0.9636 -0.1310  0.0816
 4169SOL    HW213949   7.139   7.079   6.316 -1.2795 -1.6902  2.0115
 4170SOL     OW13950   2.426   5.559   0.352 -0.3522 -0.3199 -0.2620
 4170SOL    HW113951   2.405   5.542   0.444  0.4839  0.3538  0.0630
 4170SOL    HW213952   2.342   5.553   0.307 -0.9411  0.3647  0.7105
 4171SOL     OW13953   2.888   6.051   3.565  0.2465 -0.1603 -0.5365
 4171SOL    HW113954   2.817   6.096   3.610  0.9307  2.3134 -1.7752
 4171SOL    HW213955   2.874   6.070   3.472  1.5076 -1.1782 -0.9720
 4172SOL     OW13956   5.009   1.797   4.372 -0.2516  0.0519 -0.3935
 4172SOL    HW113957   5.031   1.862   4.305  1.4560 -0.6905 -0.5815
 4172SOL    HW213958   4.978   1.721   4.323  1.2671 -0.5960 -0.3985
 4173SOL     OW13959   2.318   7.925   3.877  0.1571  0.5251 -0.3243
 4173SOL    HW113960   2.301   7.991   3.945  0.1399 -0.6503  0.8559
 4173SOL    HW213961   2.406   7.892   3.897  0.4947  0.7358 -1.3908
 4174SOL     OW13962   7.564   7.851   9.970 -0.1339 -0.3897  0.5928
 4174SOL    HW113963   7.543   7.941   9.995  0.6639 -0.0012 -0.0883
 4174SOL    HW213964   7.624   7.860   9.895 -1.0595 -1.4889 -0.3210
 4175SOL     OW13965   7.505   5.567   3.635  0.2210  0.2312 -0.0958
 4175SOL    HW113966   7.576   5.561   3.700 -0.7390 -0.1379  0.9615
 4175SOL    HW213967   7.432   5.519   3.675 -0.1201 -0.7944 -1.8761
 4176SOL     OW13968   6.420   1.762   9.975 -0.1843  0.4042 -0.8467
 4176SOL    HW113969   6.404   1.668   9.969 -0.9719  0.4208  0.5264
 4176SOL    HW213970   6.367   1.790  10.049  2.8800  1.2800  1.1978
 4177SOL     OW13971   4.256   6.737  10.277 -0.0139  0.5119  0.1272
 4177SOL    HW113972   4.303   6.709  10.355  0.7118 -1.1199 -0.8390
 4177SOL    HW213973   4.319   6.789  10.228  0.5868 -0.9523 -0.7485
 4178SOL     OW13974   5.176   2.895   3.963 -0.5139  0.0135 -0.2788
 4178SOL    HW113975   5.262   2.867   3.994 -0.1783  1.7079  0.4424
 4178SOL    HW213976   5.168   2.859   3.875  0.5975 -0.8154 -0.0512
 4179SOL     OW13977   2.392   6.373  12.316  0.0116 -0.0962  0.1616
 4179SOL    HW113978   2.388   6.329  12.232 -2.2777  0.2352  0.0274
 4179SOL    HW213979   2.456   6.323  12.367  0.0080 -1.4566 -1.1099
 4180SOL     OW13980   5.999   2.422   4.322  0.3379  0.3443 -0.1764
 4180SOL    HW113981   5.973   2.460   4.405  0.6986  1.0404 -0.3768
 4180SOL    HW213982   6.091   2.449   4.310  0.0982  0.8001 -1.0950
 4181SOL     OW13983   6.619   6.967   7.989  0.2025 -0.4775  0.0702
 4181SOL    HW113984   6.708   6.998   7.971 -0.0098  0.5863  0.7749
 4181SOL    HW213985   6.600   6.998   8.078 -0.9064 -0.5896 -0.1105
 4182SOL     OW13986   5.599   3.699  11.866  0.1201  0.0308 -0.3497
 4182SOL    HW113987   5.567   3.786  11.841  0.2207  0.2929  0.4185
 4182SOL    HW213988   5.677   3.686  11.812  0.0482  0.3721 -0.5429
 4183SOL     OW13989   7.274   5.358  10.862 -0.2067  0.5590 -0.5414
 4183SOL    HW113990   7.301   5.280  10.911 -0.2942  1.1029  0.3883
 4183SOL    HW213991   7.212   5.402  10.919 -1.5370  0.4038 -1.7974
 4184SOL     OW13992   6.933   5.701   1.171 -0.3362 -0.4310  0.4926
 4184SOL    HW113993   6.977   5.750   1.241  1.5202 -1.1138 -0.1324
 4184SOL    HW213994   6.954   5.610   1.188 -1.9128 -0.8475  0.3802
 4185SOL     OW13995   4.486   1.911   4.901 -0.2840  0.2723 -0.3832
 4185SOL    HW113996   4.568   1.957   4.884 -0.5613  0.8500 -0.1593
 4185SOL    HW213997   4.431   1.931   4.825 -0.4450  0.4036 -0.2316
 4186SOL     OW13998   0.929   3.216   3.116 -0.3810 -0.1183  0.4643
 4186SOL    HW113999   0.868   3.146   3.093  0.1396 -0.7077  0.8643
 4186SOL    HW214000   0.994   3.216   3.046 -1.4719  1.3136 -0.6198
 4187SOL     OW14001   2.455   3.973   2.517  0.0993  0.0319  0.4044
 4187SOL    HW114002   2.380   3.953   2.573  0.1743  0.0028  0.4946
 4187SOL    HW214003   2.527   3.920   2.553  0.2093  0.1971  0.4288
 4188SOL     OW14004   4.412   2.495   9.259 -0.0294 -0.2228  0.7156
 4188SOL    HW114005   4.429   2.402   9.249  0.2034 -0.1404  0.3139
 4188SOL    HW214006   4.472   2.524   9.328 -2.0687 -0.9215  2.9190
 4189SOL     OW14007   0.432   3.346   2.739 -0.7065 -0.0848 -0.4760
 4189SOL    HW114008   0.350   3.385   2.767 -1.1079 -1.5439  0.4775
 4189SOL    HW214009   0.408   3.284   2.670 -0.4428 -0.6683 -0.0528
 4190SOL     OW14010   1.949   1.513   1.650  0.0289 -0.1592  0.2137
 4190SOL    HW114011   2.040   1.499   1.625 -0.2910 -0.5357 -0.7481
 4190SOL    HW214012   1.899   1.451   1.598 -0.9770  1.4344 -0.8223
 4191SOL     OW14013   0.603   2.618   0.461 -0.5003 -0.4421 -0.1256
 4191SOL    HW114014   0.581   2.531   0.493 -0.1465  0.1616  1.9158
 4191SOL    HW214015   0.528   2.672   0.485 -0.2035  0.0581 -0.3078
 4192SOL     OW14016   2.920   5.195   4.969  0.4456  0.6668  0.9923
 4192SOL    HW114017   3.015   5.183   4.965  0.8530  3.2259  1.5223
 4192SOL    HW214018   2.900   5.194   5.063  0.2956  2.2355  0.9977
 4193SOL     OW14019   6.220   3.810   5.290  0.2547  0.3415  0.7562
 4193SOL    HW114020   6.314   3.812   5.271  0.2285  0.6402  0.6615
 4193SOL    HW214021   6.188   3.732   5.245 -0.0071  1.6249 -1.4046
 4194SOL     OW14022   6.141   6.546   9.530 -0.0596 -0.3765  0.3805
 4194SOL    HW114023   6.208   6.556   9.462 -0.3162  0.5968  0.2465
 4194SOL    HW214024   6.174   6.476   9.586  0.7439 -0.3741 -0.0635
 4195SOL     OW14025   5.336   6.499  12.013  0.5701 -0.1515 -0.1121
 4195SOL    HW114026   5.371   6.472  12.098  1.6142  0.7250 -0.2337
 4195SOL    HW214027   5.371   6.587  12.000  1.7427 -0.8642 -2.1853
 4196SOL     OW14028   2.473   0.550   8.669  0.4167 -0.7551 -0.0072
 4196SOL    HW114029   2.462   0.635   8.627 -0.2344 -0.4796  0.7047
 4196SOL    HW214030   2.438   0.562   8.757 -0.7040 -2.0680 -0.2482
 4197SOL     OW14031   6.225   0.559   9.727 -0.2722 -0.3748 -0.1631
 4197SOL    HW114032   6.297   0.567   9.663  1.3339  0.8703  1.6846
 4197SOL    HW214033   6.258   0.497   9.791 -0.7630  0.3280  0.7898
 4198SOL     OW14034   2.898   7.672  11.550  0.2588 -0.1914  0.6422
 4198SOL    HW114035   2.978   7.629  11.581  0.0828 -1.8348 -0.9681
 4198SOL    HW214036   2.828   7.611  11.574 -0.3610  0.6102  0.8854
 4199SOL     OW14037   5.154   3.925   7.042  0.1288 -0.0852  0.5943
 4199SOL    HW114038   5.135   4.016   7.065 -2.5508 -0.4752  0.2136
 4199SOL    HW214039   5.204   3.931   6.961 -2.1446  1.0853 -0.8207
 4200SOL     OW14040   6.209   4.194   9.233  0.2013  0.5963  0.0596
 4200SOL    HW114041   6.149   4.190   9.307  0.5580 -0.4346  0.3015
 4200SOL    HW214042   6.282   4.247   9.264 -0.9348  2.6308 -0.5239
 4201SOL     OW14043   6.317   7.590   0.000 -0.1084  0.6988  0.0375
 4201SOL    HW114044   6.309   7.561  -0.090  0.8312  1.1647 -0.2137
 4201SOL    HW214045   6.271   7.674   0.003  0.6211  1.1212 -0.2454
 4202SOL     OW14046   5.700   7.713   8.406 -0.5850 -0.5796 -0.6523
 4202SOL    HW114047   5.683   7.619   8.411 -1.2630 -0.4938 -1.2085
 4202SOL    HW214048   5.620   7.750   8.369 -0.3889  0.2413 -0.2756
 4203SOL     OW14049   2.455   3.648   4.746  0.2349 -0.4529 -0.3029
 4203SOL    HW114050   2.514   3.585   4.787  1.1618  0.6658  0.1373
 4203SOL    HW214051   2.370   3.605   4.745  1.1572 -2.3986 -1.5852
 4204SOL     OW14052   5.077   7.678   0.167  0.5070 -0.4369  0.3806
 4204SOL    HW114053   4.989   7.667   0.202 -0.0921  1.9443 -0.2359
 4204SOL    HW214054   5.064   7.692   0.073  1.5485 -0.2638  0.2519
 4205SOL     OW14055   6.429   4.801   7.021  0.4484  0.4973  0.0471
 4205SOL    HW114056   6.418   4.733   7.087  0.2149  2.0332  1.6698
 4205SOL    HW214057   6.520   4.828   7.028 -0.0253  1.9270  1.0701
 4206SOL     OW14058   2.967   0.417   4.620  0.4543  0.2467  0.0025
 4206SOL    HW114059   2.927   0.408   4.706  0.0007  0.2598 -0.2074
 4206SOL    HW214060   2.915   0.482   4.574 -0.1076 -0.6903 -0.7397
 4207SOL     OW14061   4.628   5.347  10.989 -0.1913 -0.4725  0.0718
 4207SOL    HW114062   4.584   5.263  10.977 -0.0717 -0.9251  2.3011
 4207SOL    HW214063   4.558   5.412  10.982 -0.4139 -0.8110 -0.9127
 4208SOL     OW14064   7.905   4.527   5.449 -0.5576 -0.2205 -0.2619
 4208SOL    HW114065   7.814   4.497   5.451 -0.8343  0.6486  1.2338
 4208SOL    HW214066   7.951   4.469   5.510 -0.7048  1.0968  1.1523
 4209SOL     OW14067   1.455   1.588  11.933  0.2434 -0.0690  0.1972
 4209SOL    HW114068   1.519   1.657  11.914  1.5016 -1.2476 -0.0313
 4209SOL    HW214069   1.506   1.507  11.929 -0.7958 -0.8971  2.3049
 4210SOL     OW14070   4.765   3.485  11.189  0.4108  0.5680 -0.3910
 4210SOL    HW114071   4.829   3.414  11.188 -0.6456 -0.4252 -1.7181
 4210SOL    HW214072   4.794   3.543  11.118 -0.6725 -0.4220 -1.6994
 4211SOL     OW14073   1.862   1.625  11.264  0.2280 -0.2343 -0.5742
 4211SOL    HW114074   1.947   1.670  11.258  0.1810  0.4867  2.5016
 4211SOL    HW214075   1.801   1.693  11.291 -0.7266 -1.2972  0.0116
 4212SOL     OW14076   6.391   3.968  12.274 -0.0144 -0.4708 -0.1485
 4212SOL    HW114077   6.296   3.976  12.269  0.0471  0.9210  0.5658
 4212SOL    HW214078   6.406   3.878  12.304 -1.1657 -0.1665  1.4439
 4213SOL     OW14079   2.191   0.497   1.045  0.7339 -0.0162 -0.4528
 4213SOL    HW114080   2.270   0.547   1.066 -0.1339  1.1913  0.0313
 4213SOL    HW214081   2.131   0.562   1.008 -0.8578 -0.4428  1.2551
 4214SOL     OW14082   7.745   6.692   1.685  0.1769  0.3558  0.0146
 4214SOL    HW114083   7.805   6.618   1.673  0.3007  0.2224  1.3073
 4214SOL    HW214084   7.718   6.687   1.777 -1.0534  0.9973 -0.2818
 4215SOL     OW14085   4.199   2.535   2.303 -0.1539  0.3083 -0.1046
 4215SOL    HW114086   4.259   2.487   2.247  0.5964  0.8875  0.1773
 4215SOL    HW214087   4.250   2.554   2.382  0.4405  3.6046 -1.1211
 4216SOL     OW14088   6.370   3.256   4.093  0.2579 -0.6326  0.6494
 4216SOL    HW114089   6.403   3.211   4.015  2.9774  0.6036  0.9918
 4216SOL    HW214090   6.409   3.343   4.090  0.4101 -0.5066  3.3442
 4217SOL     OW14091   5.866   6.767   0.967 -0.0285 -0.3239  0.3502
 4217SOL    HW114092   5.862   6.677   0.999 -1.0864  0.0854  1.4673
 4217SOL    HW214093   5.776   6.799   0.977  0.3227  0.8310 -0.1050
 4218SOL     OW14094   0.157   1.264   3.838 -0.0853 -0.5914 -0.2695
 4218SOL    HW114095   0.160   1.308   3.753  3.0336  1.0180  0.4993
 4218SOL    HW214096   0.083   1.305   3.883  2.2546  3.8137  0.1589
 4219SOL     OW14097   0.207   6.620   8.082  0.3714  0.1680  0.0812
 4219SOL    HW114098   0.256   6.610   8.000  1.3957 -0.2830  0.7367
 4219SOL    HW214099   0.255   6.567   8.146 -1.6773 -1.3172  0.4632
 4220SOL     OW14100   4.549   5.983   8.517  0.1560  0.2560  0.0251
 4220SOL    HW114101   4.622   5.978   8.455 -0.1287 -1.1943 -0.2482
 4220SOL    HW214102   4.476   6.016   8.464  0.4595  1.1575  0.1568
 4221SOL     OW14103   2.292   3.602   7.565  0.1656  0.0899 -0.9309
 4221SOL    HW114104   2.243   3.677   7.600  0.0832  0.5332 -1.9487
 4221SOL    HW214105   2.279   3.608   7.471  1.5690 -0.2192 -1.1588
 4222SOL     OW14106   0.314   6.970  10.190  0.0839 -0.6235  0.4301
 4222SOL    HW114107   0.371   6.980  10.266 -0.9821 -0.0582  1.1759
 4222SOL    HW214108   0.276   6.882  10.201  0.9358 -1.0811 -0.1722
 4223SOL     OW14109   0.182   3.229   2.122  0.0816  0.1312  0.5313
 4223SOL    HW114110   0.115   3.198   2.062  0.8884 -2.4779  0.8611
 4223SOL    HW214111   0.264   3.197   2.085  1.1139  2.4558  0.6305
 4224SOL     OW14112   1.960   1.551   6.436 -0.1188  0.0085  0.9973
 4224SOL    HW114113   2.010   1.556   6.355 -1.1732 -0.2321  0.3172
 4224SOL    HW214114   1.983   1.466   6.473  0.8953  0.4019  1.3324
 4225SOL     OW14115   2.117   7.272   7.906 -0.1445  0.5851  0.4473
 4225SOL    HW114116   2.028   7.300   7.928 -1.1262  0.2461 -2.6520
 4225SOL    HW214117   2.145   7.333   7.838  1.3370 -0.3979  0.1344
 4226SOL     OW14118   3.849   3.343   4.158 -0.1066 -0.7777  0.2593
 4226SOL    HW114119   3.857   3.264   4.212  1.0074 -1.4601 -0.8514
 4226SOL    HW214120   3.788   3.318   4.089 -1.6769  0.1538  1.2611
 4227SOL     OW14121   0.474   7.688  11.358 -0.0231  0.9036  0.3713
 4227SOL    HW114122   0.467   7.622  11.289 -1.4816  0.3950  0.9657
 4227SOL    HW214123   0.556   7.668  11.403  0.0840  0.1848 -0.1336
 4228SOL     OW14124   0.182   5.434   1.685 -0.0122  0.5289 -0.1036
 4228SOL    HW114125   0.232   5.353   1.696 -0.9001 -0.0474 -0.2128
 4228SOL    HW214126   0.122   5.437   1.760 -1.3119  0.0891 -1.0837
 4229SOL     OW14127   3.081   6.165   5.445  0.8181  0.5554 -0.2316
 4229SOL    HW114128   3.073   6.218   5.365  1.2501 -0.4559 -0.9707
 4229SOL    HW214129   2.995   6.123   5.454  0.9052  0.3312 -0.4218
 4230SOL     OW14130   7.734   5.400   5.879 -0.0622 -0.0086  0.0981
 4230SOL    HW114131   7.769   5.372   5.794  0.3605 -0.0754  0.2923
 4230SOL    HW214132   7.717   5.318   5.926  0.9590  0.0364  0.5804
 4231SOL     OW14133   5.718   6.960   4.778 -0.1773 -0.2128  0.7398
 4231SOL    HW114134   5.697   6.869   4.757 -1.4003  0.3540 -0.6012
 4231SOL    HW214135   5.813   6.960   4.790 -0.0893 -1.5548  0.2343
 4232SOL     OW14136   4.016   6.830  11.731  0.1444  0.1149 -0.0384
 4232SOL    HW114137   4.104   6.800  11.709  0.2769  0.4027  0.0956
 4232SOL    HW214138   3.957   6.770  11.684  0.4030 -0.4309  0.3242
 4233SOL     OW14139   5.151   4.364  12.122  0.2026  0.1307  0.0585
 4233SOL    HW114140   5.092   4.412  12.065 -0.8241 -2.0064 -0.7864
 4233SOL    HW214141   5.117   4.380  12.210 -0.3414  0.6352 -0.2366
 4234SOL     OW14142   4.477   5.655   6.060  0.2227  0.2778  0.0699
 4234SOL    HW114143   4.421   5.674   6.135 -0.5733 -0.9465 -0.1797
 4234SOL    HW214144   4.448   5.717   5.993 -0.2673  0.2168  0.2178
 4235SOL     OW14145   0.140   1.067  10.997  0.0473  0.2926 -0.2725
 4235SOL    HW114146   0.145   1.162  10.990 -0.3840  0.3684  0.4401
 4235SOL    HW214147   0.048   1.046  10.987 -0.1335  0.1209  1.4869
 4236SOL     OW14148   2.659   6.657   2.936 -0.5759  0.0930 -0.2316
 4236SOL    HW114149   2.575   6.664   2.982 -0.6642  2.4331 -0.6010
 4236SOL    HW214150   2.647   6.710   2.857  0.8191 -0.6757 -0.9987
 4237SOL     OW14151   7.413   1.512   9.409 -0.0299 -0.5035  0.5463
 4237SOL    HW114152   7.365   1.585   9.370  0.0489 -0.5075  0.4426
 4237SOL    HW214153   7.383   1.435   9.360 -0.6702 -0.6503  1.1321
 4238SOL     OW14154   3.130   0.446   0.148 -0.0683 -0.2885  0.1910
 4238SOL    HW114155   3.129   0.464   0.054 -0.5892  0.1806  0.2790
 4238SOL    HW214156   3.075   0.515   0.185  0.8796  0.0871  0.9361
 4239SOL     OW14157   2.716   2.857   0.464 -0.5209 -0.4759 -0.2783
 4239SOL    HW114158   2.622   2.869   0.479 -1.0317 -0.2172 -3.1766
 4239SOL    HW214159   2.733   2.767   0.491 -1.6862 -0.6649 -0.1219
 4240SOL     OW14160   3.592   3.144   2.665  0.1177 -0.1431  0.2247
 4240SOL    HW114161   3.516   3.091   2.638 -0.4495  0.5930  0.3332
 4240SOL    HW214162   3.583   3.151   2.760  0.3956 -0.1591  0.2520
 4241SOL     OW14163   5.919   1.235   9.645  0.1283  0.4088 -0.3859
 4241SOL    HW114164   6.002   1.245   9.599 -0.6971  2.2119 -1.5733
 4241SOL    HW214165   5.881   1.323   9.647 -2.2330 -0.5251 -0.7912
 4242SOL     OW14166   1.097   7.068   3.816  0.3840 -0.2840  0.5423
 4242SOL    HW114167   1.157   7.076   3.743 -0.6740 -2.2668 -0.6368
 4242SOL    HW214168   1.083   7.158   3.846 -0.7747  0.8989 -3.0491
 4243SOL     OW14169   6.018   6.417   2.063  0.6738 -0.5504 -0.1015
 4243SOL    HW114170   5.979   6.369   2.136 -0.6835  0.6476  0.0130
 4243SOL    HW214171   6.000   6.509   2.083  1.8234 -0.0897 -1.0871
 4244SOL     OW14172   3.227   5.230   5.037  0.0397  0.4507 -0.3826
 4244SOL    HW114173   3.306   5.283   5.041  0.8537 -0.7786  0.4370
 4244SOL    HW214174   3.167   5.270   5.099 -1.2745  3.2893 -3.2035
 4245SOL     OW14175   6.531   7.674   4.364 -0.2659 -0.3313 -0.0118
 4245SOL    HW114176   6.577   7.640   4.288 -1.9130 -0.4123 -1.0302
 4245SOL    HW214177   6.571   7.759   4.381  0.8399 -0.7860 -0.2694
 4246SOL     OW14178   4.567   0.654   8.276 -0.2364  0.2588  0.5576
 4246SOL    HW114179   4.523   0.583   8.324  0.5174 -1.0801 -0.6516
 4246SOL    HW214180   4.503   0.724   8.274 -1.9376 -1.2400 -0.2191
 4247SOL     OW14181   5.808   5.172   7.431 -0.2467  0.2642 -0.4025
 4247SOL    HW114182   5.855   5.249   7.398  0.5429 -0.6844 -1.5958
 4247SOL    HW214183   5.759   5.205   7.506  0.4271  1.8304 -0.5902
 4248SOL     OW14184   4.898   4.547   3.029  0.3242  1.0544 -0.4361
 4248SOL    HW114185   4.858   4.631   3.006  2.5228  2.1546 -0.5388
 4248SOL    HW214186   4.975   4.571   3.080  0.0836 -1.0119  1.0091
 4249SOL     OW14187   6.675   3.576   1.215 -0.0314  0.0416  0.1117
 4249SOL    HW114188   6.735   3.636   1.260 -0.6929  0.6946  0.1425
 4249SOL    HW214189   6.660   3.506   1.279 -0.6500  0.7597  0.7849
 4250SOL     OW14190   3.861   1.407   1.072  0.3871 -0.1904  0.2223
 4250SOL    HW114191   3.768   1.417   1.093  0.1085 -0.2053 -0.9617
 4250SOL    HW214192   3.872   1.449   0.987  2.1776  2.9121  1.8025
 4251SOL     OW14193   5.626   0.419   7.647  0.2533  0.5448 -0.6984
 4251SOL    HW114194   5.549   0.461   7.610  0.9183  1.4374 -1.1193
 4251SOL    HW214195   5.687   0.491   7.664  0.6745 -0.0464  0.4143
 4252SOL     OW14196   4.664   3.763   1.697  0.2056 -0.5622  0.1280
 4252SOL    HW114197   4.670   3.676   1.735 -0.1475  0.0824  1.7575
 4252SOL    HW214198   4.588   3.760   1.640 -0.9367 -0.8445  1.6123
 4253SOL     OW14199   1.796   0.259   8.324 -0.0773  0.6145 -0.6094
 4253SOL    HW114200   1.717   0.205   8.325 -0.2469  0.7682 -2.3791
 4253SOL    HW214201   1.767   0.342   8.286  0.5004  1.4485  0.6998
 4254SOL     OW14202   2.512   7.049   3.974 -0.0098 -0.3233 -0.7394
 4254SOL    HW114203   2.482   7.075   3.887 -0.1813 -0.6910 -0.7915
 4254SOL    HW214204   2.463   7.105   4.035 -2.6822 -2.5429 -0.6766
 4255SOL     OW14205   5.061   7.441  11.359  0.1563  0.0972  0.5722
 4255SOL    HW114206   4.970   7.459  11.334  0.6985  1.2716 -0.6387
 4255SOL    HW214207   5.092   7.524  11.396  1.2889  0.3159 -0.7806
 4256SOL     OW14208   1.903   1.934   3.938  0.0798  0.0105 -0.3790
 4256SOL    HW114209   1.872   1.997   3.873  0.9722  0.3054 -0.5428
 4256SOL    HW214210   1.856   1.956   4.018 -2.5871 -1.6478 -1.3529
 4257SOL     OW14211   1.806   0.841  10.425  0.0828  0.1627  0.2402
 4257SOL    HW114212   1.760   0.919  10.457  1.4158  0.9817  0.2645
 4257SOL    HW214213   1.792   0.775  10.492 -1.2471  0.2907  0.1213
 4258SOL     OW14214   4.160   3.295   3.798  0.0651 -0.1508 -0.9430
 4258SOL    HW114215   4.111   3.230   3.849 -1.2847  1.0857 -0.5952
 4258SOL    HW214216   4.152   3.265   3.707 -0.0280 -0.7832 -0.7336
 4259SOL     OW14217   6.416   1.063   8.435  0.1247  0.2599  0.1192
 4259SOL    HW114218   6.512   1.062   8.435  0.1745 -0.5523  2.5931
 4259SOL    HW214219   6.392   1.051   8.527 -2.3640 -0.6184 -0.5835
 4260SOL     OW14220   3.743   4.902  10.872  0.0505  0.3913  0.4434
 4260SOL    HW114221   3.787   4.818  10.889 -1.9789 -0.8930 -0.1936
 4260SOL    HW214222   3.672   4.905  10.936 -1.6519  0.1958 -1.3368
 4261SOL     OW14223   4.787   4.245   1.729  0.1729 -0.1152  0.1435
 4261SOL    HW114224   4.757   4.177   1.668  0.1778 -0.5873  0.6570
 4261SOL    HW214225   4.875   4.268   1.698 -0.2158  0.3732 -0.6212
 4262SOL     OW14226   5.480   2.488   6.795  0.3051 -0.5534 -0.1012
 4262SOL    HW114227   5.551   2.478   6.858  0.8007 -2.0457 -0.8505
 4262SOL    HW214228   5.476   2.405   6.749 -0.5957  0.1982 -1.4780
 4263SOL     OW14229   7.799   3.678   6.156 -0.1537 -0.3906  0.0972
 4263SOL    HW114230   7.796   3.762   6.201 -0.3633  0.2122 -1.0114
 4263SOL    HW214231   7.746   3.691   6.077  0.0429 -1.4734 -0.2307
 4264SOL     OW14232   2.884   3.088   8.218 -0.1613  0.1687  0.0205
 4264SOL    HW114233   2.975   3.112   8.233 -0.1814  0.6740 -0.6473
 4264SOL    HW214234   2.852   3.061   8.304  1.1759 -2.0011 -0.0863
 4265SOL     OW14235   2.772   2.186   8.232 -0.4691  0.3281  0.1713
 4265SOL    HW114236   2.857   2.201   8.190 -0.0095  0.0715  0.9939
 4265SOL    HW214237   2.788   2.202   8.325 -1.7525  2.0558  0.1366
 4266SOL     OW14238   5.369   6.771   8.453  0.0511  0.0297  0.1661
 4266SOL    HW114239   5.452   6.730   8.429 -0.3922 -0.3600 -0.7403
 4266SOL    HW214240   5.357   6.749   8.545  0.8050 -0.1671  0.2262
 4267SOL     OW14241   2.111   6.367  10.917  0.3782 -0.4740 -0.1183
 4267SOL    HW114242   2.072   6.353  11.003  2.7147 -1.2450  0.9161
 4267SOL    HW214243   2.089   6.289  10.867 -0.3687 -0.3630  0.0346
 4268SOL     OW14244   1.189   1.574   3.956 -0.0373 -0.0172 -0.3206
 4268SOL    HW114245   1.115   1.628   3.926  0.6779  0.1827 -1.7908
 4268SOL    HW214246   1.183   1.494   3.904  0.0736 -0.5366  0.4475
 4269SOL     OW14247   6.195   7.256   9.405 -0.0609 -0.4897 -0.0673
 4269SOL    HW114248   6.252   7.275   9.479  0.6101  1.8163 -1.0757
 4269SOL    HW214249   6.110   7.235   9.444  0.6198 -0.7249  1.3544
 4270SOL     OW14250   1.744   0.601   6.574 -0.0631  0.2604  0.6349
 4270SOL    HW114251   1.680   0.530   6.564  1.2435 -0.9246  0.3170
 4270SOL    HW214252   1.699   0.679   6.540 -1.8351 -0.2156  1.7653
 4271SOL     OW14253   0.778   1.692   2.937 -0.3131 -0.1087 -0.3249
 4271SOL    HW114254   0.791   1.600   2.961  2.0376  0.4369  0.7818
 4271SOL    HW214255   0.743   1.733   3.016 -0.5005  0.1240 -0.5259
 4272SOL     OW14256   1.114   3.616   0.783 -0.4691 -0.4468 -0.0559
 4272SOL    HW114257   1.069   3.599   0.700  0.3785  0.4882 -0.7235
 4272SOL    HW214258   1.184   3.677   0.761 -0.4067  0.0528  1.4087
 4273SOL     OW14259   5.032   1.729  11.851  0.5890  0.4329 -0.5017
 4273SOL    HW114260   4.993   1.641  11.859 -0.7893  1.0142 -0.5083
 4273SOL    HW214261   5.118   1.721  11.892 -0.1023 -0.5620  0.8215
 4274SOL     OW14262   3.119   6.303   0.093  0.6593  0.2975 -0.0728
 4274SOL    HW114263   3.073   6.278   0.174 -1.1638 -1.5323 -1.5723
 4274SOL    HW214264   3.128   6.221   0.045 -0.0591  1.6142 -2.5977
 4275SOL     OW14265   1.580   4.736  11.533 -0.4003 -0.1340 -0.2556
 4275SOL    HW114266   1.604   4.661  11.478  1.7655 -0.4674  1.0365
 4275SOL    HW214267   1.596   4.812  11.478  1.9278 -0.4529 -0.1349
 4276SOL     OW14268   3.855   3.864   8.387  0.0174 -0.2251 -0.0323
 4276SOL    HW114269   3.841   3.891   8.296  0.2658 -0.9272 -0.2848
 4276SOL    HW214270   3.897   3.939   8.429  0.6809 -0.2118 -0.7173
 4277SOL     OW14271   3.118   2.398   2.463 -0.1294  0.0691  0.3950
 4277SOL    HW114272   3.107   2.303   2.466  0.4603  0.0137  0.9302
 4277SOL    HW214273   3.108   2.420   2.371 -1.6994 -0.3385  0.4298
 4278SOL     OW14274   6.098   0.341   4.815  0.4403 -0.0373  0.1434
 4278SOL    HW114275   6.136   0.356   4.902  1.0427  0.6506 -0.2227
 4278SOL    HW214276   6.004   0.356   4.827  0.6550  1.1958  0.4451
 4279SOL     OW14277   1.613   1.533  10.756  0.4721  0.3151  0.1700
 4279SOL    HW114278   1.672   1.606  10.773 -1.1805  1.2396  2.5542
 4279SOL    HW214279   1.629   1.472  10.828  0.1108 -0.4862 -0.4134
 4280SOL     OW14280   6.750   6.417   7.394 -0.8103  0.2063  0.0237
 4280SOL    HW114281   6.757   6.409   7.490  0.2905 -0.2507 -0.0821
 4280SOL    HW214282   6.701   6.339   7.367 -1.9025  0.7855  0.2886
 4281SOL     OW14283   6.035   5.949  10.835 -0.2749 -0.1346  0.3286
 4281SOL    HW114284   6.112   5.907  10.873  0.8249  1.8031  0.3590
 4281SOL    HW214285   5.965   5.932  10.898 -0.0182 -2.2805  0.0958
 4282SOL     OW14286   0.856   3.436   9.208  0.7610  0.7604  0.0070
 4282SOL    HW114287   0.947   3.416   9.190  0.7445 -0.7056  1.4158
 4282SOL    HW214288   0.807   3.395   9.136  1.1647  1.2749 -0.5718
 4283SOL     OW14289   3.735   4.839   6.898 -0.3948  0.2252 -0.1501
 4283SOL    HW114290   3.808   4.780   6.883 -0.0030  0.1077  1.9084
 4283SOL    HW214291   3.671   4.786   6.945 -1.7337  0.4014 -1.6783
 4284SOL     OW14292   6.957   0.763   3.010  0.7089  0.2386 -0.0399
 4284SOL    HW114293   6.936   0.670   3.020  1.4488  0.1462  0.8677
 4284SOL    HW214294   6.875   0.808   3.030  0.7550 -0.1726  1.1531
 4285SOL     OW14295   1.227   4.840   3.891 -0.1052 -0.2011  0.1560
 4285SOL    HW114296   1.305   4.830   3.836 -0.3045  0.6932 -0.3081
 4285SOL    HW214297   1.170   4.767   3.865 -0.7367  0.9063 -1.7827
 4286SOL     OW14298   4.209   3.136   8.774 -0.3079 -0.4236  1.1044
 4286SOL    HW114299   4.122   3.100   8.794 -0.0068 -0.9677  1.4629
 4286SOL    HW214300   4.261   3.060   8.750 -0.1764  0.0179 -0.0428
 4287SOL     OW14301   5.996   1.427   4.954 -0.1855 -0.6311  0.1429
 4287SOL    HW114302   5.980   1.497   4.891  0.4252 -1.3939 -0.8865
 4287SOL    HW214303   6.068   1.377   4.917 -0.3951 -1.6248  1.0212
 4288SOL     OW14304   2.461   2.757  11.577  0.5923 -0.0391  0.6286
 4288SOL    HW114305   2.476   2.814  11.501 -1.5535  2.9860  2.2625
 4288SOL    HW214306   2.542   2.762  11.627  1.5929 -1.1195 -0.7855
 4289SOL     OW14307   0.418   7.251   9.520 -0.0353  0.3176 -0.2740
 4289SOL    HW114308   0.497   7.281   9.475 -0.2221 -1.2941 -1.7960
 4289SOL    HW214309   0.429   7.157   9.528 -2.3517 -0.1608 -1.7441
 4290SOL     OW14310   1.244   1.108   7.654  0.2927  0.4307 -0.6016
 4290SOL    HW114311   1.156   1.097   7.619 -0.3043  0.8048  0.6972
 4290SOL    HW214312   1.293   1.032   7.622 -0.5220  0.1753 -1.2674
 4291SOL     OW14313   1.705   1.373   6.696  1.1562 -0.1209 -0.3340
 4291SOL    HW114314   1.719   1.340   6.785 -1.0204  0.0973  0.1535
 4291SOL    HW214315   1.678   1.464   6.707  0.5007 -0.1938 -1.1671
 4292SOL     OW14316   0.800   3.036   2.108 -0.3312  0.1871  0.2262
 4292SOL    HW114317   0.817   3.127   2.132 -0.7137 -0.0500  1.4410
 4292SOL    HW214318   0.868   2.986   2.151 -2.2834 -0.4665  2.7706
 4293SOL     OW14319   1.110   2.070   3.556  0.4414  0.6446 -0.2992
 4293SOL    HW114320   1.100   1.996   3.496  1.6307  0.4594 -0.3006
 4293SOL    HW214321   1.077   2.145   3.507  1.1543  0.4552 -1.1008
 4294SOL     OW14322   5.830   0.793   4.198  0.2210  0.0223  0.3408
 4294SOL    HW114323   5.760   0.815   4.259 -0.0930 -0.8930  0.3351
 4294SOL    HW214324   5.884   0.730   4.246 -0.5947 -1.4965 -0.6264
 4295SOL     OW14325   0.974   0.167   7.574 -0.0306  1.0466 -0.0869
 4295SOL    HW114326   0.924   0.249   7.567 -1.0353  0.3812 -0.9405
 4295SOL    HW214327   1.002   0.149   7.484  1.7431  1.3754  0.3619
 4296SOL     OW14328   1.533   5.815   8.032 -0.0379 -0.8216  0.0645
 4296SOL    HW114329   1.475   5.743   8.055 -0.8858 -0.8410 -1.9315
 4296SOL    HW214330   1.476   5.878   7.989  1.3414 -0.6735 -1.6207
 4297SOL     OW14331   5.698   2.675   1.928 -0.3971 -0.0452  0.0096
 4297SOL    HW114332   5.709   2.748   1.990  1.3217  0.2490 -0.5712
 4297SOL    HW214333   5.716   2.714   1.842 -0.5332 -0.9218 -0.4227
 4298SOL     OW14334   1.433   3.518  10.447  0.1947 -0.3939  0.6750
 4298SOL    HW114335   1.498   3.498  10.514  1.9179 -2.2567 -1.3812
 4298SOL    HW214336   1.393   3.433  10.425  0.0888  0.0401 -0.9922
 4299SOL     OW14337   1.370   7.576   3.514  0.3829 -0.4123 -0.0477
 4299SOL    HW114338   1.281   7.543   3.526  0.2437  0.5565  1.7562
 4299SOL    HW214339   1.426   7.509   3.553  0.2134  0.5350  1.8932
 4300SOL     OW14340   2.690   3.897   5.487  0.1733 -0.5269 -0.0788
 4300SOL    HW114341   2.725   3.937   5.566 -0.9323  1.1219 -0.3810
 4300SOL    HW214342   2.630   3.830   5.518 -1.1215  0.8661  0.5572
 4301SOL     OW14343   4.811   4.502   3.802 -0.2893  0.4170  0.5678
 4301SOL    HW114344   4.755   4.575   3.775 -2.0404 -1.5559 -1.5765
 4301SOL    HW214345   4.757   4.453   3.865  1.0373  1.1249  2.3328
 4302SOL     OW14346   4.614   1.078   7.193  1.0369  0.8084 -0.3054
 4302SOL    HW114347   4.613   0.983   7.179 -0.5033  0.8685 -0.8646
 4302SOL    HW214348   4.581   1.115   7.111  1.4131  1.8205 -0.0157
 4303SOL     OW14349   6.977   3.135  11.764 -0.3935 -0.1859  0.5741
 4303SOL    HW114350   6.953   3.224  11.736  0.1938  0.3895  1.8107
 4303SOL    HW214351   7.072   3.132  11.755 -0.6072 -1.5881 -1.8745
 4304SOL     OW14352   4.084   0.829   3.951 -0.2032  0.4017 -0.4900
 4304SOL    HW114353   4.057   0.892   3.885 -0.3355 -0.1970 -1.0203
 4304SOL    HW214354   4.096   0.747   3.903  2.3515  0.5574 -0.2797
 4305SOL     OW14355   4.904   1.248   7.194 -0.4319 -0.2181  0.0017
 4305SOL    HW114356   4.847   1.324   7.201 -0.6246 -0.2887 -0.7638
 4305SOL    HW214357   4.914   1.217   7.285 -2.3895 -0.7879  0.0726
 4306SOL     OW14358   7.326   6.552   5.150 -0.5278  0.5022  0.2769
 4306SOL    HW114359   7.337   6.458   5.163 -0.3128  0.4814 -0.0316
 4306SOL    HW214360   7.242   6.573   5.190 -0.7039  0.1307  0.1053
 4307SOL     OW14361   1.611   1.020   3.488 -0.0407  0.9962  0.2540
 4307SOL    HW114362   1.699   1.012   3.451 -0.8525 -1.3152 -1.4134
 4307SOL    HW214363   1.558   1.055   3.418 -0.6452  1.5053  0.9497
 4308SOL     OW14364   6.124   7.659  12.086 -0.3782 -0.1952 -0.4148
 4308SOL    HW114365   6.085   7.659  11.999  0.1527  1.3636 -0.6855
 4308SOL    HW214366   6.174   7.577  12.090 -1.5534 -0.9663 -1.0125
 4309SOL     OW14367   1.456   7.237   4.070  0.2030  0.3498  0.2836
 4309SOL    HW114368   1.389   7.296   4.103 -1.5180 -0.9804 -0.6980
 4309SOL    HW214369   1.427   7.150   4.096  1.2694 -0.3164 -0.6251
 4310SOL     OW14370   1.266   2.528  10.907 -0.3285 -0.0409  0.3135
 4310SOL    HW114371   1.178   2.560  10.886 -1.0821 -1.6366  0.8268
 4310SOL    HW214372   1.252   2.467  10.980  1.1201 -0.7854  0.0008
 4311SOL     OW14373   6.072   0.279   7.811  0.2319  0.2756  0.4476
 4311SOL    HW114374   6.038   0.339   7.745 -1.7557  1.5506  2.4901
 4311SOL    HW214375   5.997   0.226   7.837  1.3282 -1.2725  0.6175
 4312SOL     OW14376   6.583   6.089   2.403 -0.8357 -0.0114  0.2874
 4312SOL    HW114377   6.638   6.013   2.422 -0.6949 -0.4762 -1.7537
 4312SOL    HW214378   6.498   6.067   2.440 -0.3082 -0.3195  1.3606
 4313SOL     OW14379   6.144   6.577  10.787 -0.7527  0.4590 -0.1167
 4313SOL    HW114380   6.159   6.490  10.749  0.8129  0.7790 -0.2752
 4313SOL    HW214381   6.135   6.635  10.711 -1.5345  0.4993 -0.0071
 4314SOL     OW14382   7.724   3.060   5.254  0.4743 -0.3478  0.0244
 4314SOL    HW114383   7.812   3.098   5.257  0.2579  0.1038  1.0959
 4314SOL    HW214384   7.738   2.967   5.271  0.7412 -0.2539  0.3417
 4315SOL     OW14385   2.733   3.191   6.706 -0.1324  0.3790  0.0155
 4315SOL    HW114386   2.799   3.126   6.680  0.0228  0.8744 -0.8594
 4315SOL    HW214387   2.730   3.253   6.633 -1.5085  0.4159  0.0840
 4316SOL     OW14388   5.696   3.907   4.521  0.0609  0.2212 -0.3198
 4316SOL    HW114389   5.631   3.836   4.529  1.2373 -1.0991 -1.7681
 4316SOL    HW214390   5.664   3.975   4.579 -2.6617 -0.3449 -0.9835
 4317SOL     OW14391   2.952   4.789   2.714 -0.1864 -0.1062 -0.3191
 4317SOL    HW114392   2.887   4.856   2.691  0.5405  0.9471  0.5947
 4317SOL    HW214393   2.969   4.803   2.807  0.8719 -0.7864 -0.3937
 4318SOL     OW14394   4.571   5.911   6.876  0.4215 -0.2520 -0.7113
 4318SOL    HW114395   4.499   5.954   6.921  0.3258 -1.2836  0.1597
 4318SOL    HW214396   4.625   5.982   6.842 -1.6994  0.5818 -2.5784
 4319SOL     OW14397   6.337   7.010  12.010  0.0814  0.1549 -0.2496
 4319SOL    HW114398   6.398   6.955  11.961 -1.1140 -1.0093 -0.4869
 4319SOL    HW214399   6.313   7.080  11.949 -0.6790 -0.7585 -1.0229
 4320SOL     OW14400   1.790   4.642  11.122 -0.2490  0.4390  0.0476
 4320SOL    HW114401   1.782   4.729  11.083  1.1867 -0.5189 -2.6547
 4320SOL    HW214402   1.746   4.584  11.060  1.9370 -1.1494 -0.1275
 4321SOL     OW14403   1.643   4.705   9.328 -0.1173 -0.4990  0.7684
 4321SOL    HW114404   1.687   4.758   9.395 -0.7993  1.8586 -0.5194
 4321SOL    HW214405   1.552   4.736   9.329 -0.4611 -1.4233 -0.2995
 4322SOL     OW14406   1.559   3.564   9.256  0.2219  0.0619  0.1899
 4322SOL    HW114407   1.549   3.534   9.165 -1.3358  0.5000  0.1864
 4322SOL    HW214408   1.603   3.649   9.248  3.4845 -1.4671  0.1257
 4323SOL     OW14409   4.959   7.827   0.469 -0.0420 -0.1805  0.1922
 4323SOL    HW114410   4.938   7.808   0.560 -0.4846  1.8681  0.5777
 4323SOL    HW214411   5.047   7.864   0.471  0.6840 -1.7548 -0.4815
 4324SOL     OW14412   4.982   2.952   4.501 -0.3218 -0.1259 -0.0003
 4324SOL    HW114413   4.922   2.999   4.559  2.2715  0.2089  2.6768
 4324SOL    HW214414   5.061   3.006   4.500  1.0037 -1.9679 -0.8768
 4325SOL     OW14415   5.223   4.933   7.848 -0.0692 -0.2988 -0.0275
 4325SOL    HW114416   5.228   4.840   7.827 -0.8289 -0.8233  1.8513
 4325SOL    HW214417   5.220   4.936   7.944 -0.6079  1.6322 -0.0471
 4326SOL     OW14418   6.640   1.166   5.177  0.5589 -0.4050  0.0925
 4326SOL    HW114419   6.552   1.147   5.144  0.1285  0.2895  0.8375
 4326SOL    HW214420   6.668   1.084   5.218  0.1438 -0.5397  0.1121
 4327SOL     OW14421   0.402   0.272   2.958 -0.6416  0.1611 -0.3286
 4327SOL    HW114422   0.496   0.270   2.976 -1.0045 -0.4217  1.9000
 4327SOL    HW214423   0.389   0.348   2.902  1.1009  0.5245 -0.2736
 4328SOL     OW14424   6.686   0.713   1.725 -0.7056 -0.0591 -0.3718
 4328SOL    HW114425   6.700   0.679   1.813 -1.5653  0.4119 -0.0449
 4328SOL    HW214426   6.678   0.807   1.737  1.5498  0.3057 -1.2545
 4329SOL     OW14427   7.558   3.503   2.080  0.3262  0.2019 -0.4354
 4329SOL    HW114428   7.610   3.509   2.160 -0.6684 -1.0354  0.3623
 4329SOL    HW214429   7.542   3.593   2.054  1.3475  0.6110  0.2974
 4330SOL     OW14430   7.402   6.025   7.065 -0.2716  0.4860 -0.0501
 4330SOL    HW114431   7.453   5.964   7.119  0.9015  1.2494 -0.2681
 4330SOL    HW214432   7.346   5.969   7.012  1.5179 -0.4853 -0.9912
 4331SOL     OW14433   4.599   0.742   2.377 -0.2250  0.0572 -0.5658
 4331SOL    HW114434   4.687   0.779   2.375  0.1009 -0.7064 -0.8833
 4331SOL    HW214435   4.611   0.650   2.353 -1.0074 -0.2607  0.1995
 4332SOL     OW14436   5.810   4.134   5.010  0.4598 -0.1405 -0.0080
 4332SOL    HW114437   5.774   4.223   5.017 -0.0228 -0.2260 -1.1558
 4332SOL    HW214438   5.884   4.143   4.951  1.0096 -0.3482  0.6386
 4333SOL     OW14439   1.097   6.685   0.904  0.2534 -0.0010 -0.1245
 4333SOL    HW114440   1.124   6.610   0.851 -1.9949 -0.5099 -0.6227
 4333SOL    HW214441   1.042   6.648   0.972  0.5453  1.0243  0.6971
 4334SOL     OW14442   5.817   3.413   1.510  0.1528 -0.7072 -0.2065
 4334SOL    HW114443   5.804   3.360   1.431 -0.0827 -0.7500 -0.1378
 4334SOL    HW214444   5.834   3.348   1.579 -1.1540 -0.7602  0.0913
 4335SOL     OW14445   7.293   1.946   8.437 -0.0804  0.0076  0.0259
 4335SOL    HW114446   7.288   1.919   8.345 -2.2215  0.3134 -0.0019
 4335SOL    HW214447   7.317   1.867   8.484  0.5131 -0.2863 -0.7453
 4336SOL     OW14448   0.681   3.665   9.371 -0.0290  0.3501 -0.4353
 4336SOL    HW114449   0.618   3.594   9.358  0.3522 -0.1984  0.6277
 4336SOL    HW214450   0.641   3.740   9.327 -2.4868  0.5808  1.9028
 4337SOL     OW14451   6.974   0.580   5.341 -0.0195  0.4100 -0.2505
 4337SOL    HW114452   7.008   0.495   5.313 -1.4969 -0.9860  1.8599
 4337SOL    HW214453   7.009   0.591   5.429  0.4063  2.1883 -0.6140
 4338SOL     OW14454   4.282   5.549   3.655 -0.6929  0.0771  0.0715
 4338SOL    HW114455   4.257   5.600   3.732 -2.0231 -1.6308  0.8530
 4338SOL    HW214456   4.218   5.573   3.589 -1.1209 -0.3031  0.3369
 4339SOL     OW14457   4.133   7.631   8.195 -0.1239 -0.2998 -0.2522
 4339SOL    HW114458   4.139   7.719   8.160 -0.0418 -1.0369 -2.2411
 4339SOL    HW214459   4.039   7.611   8.195 -0.0902 -0.4633 -0.4953
 4340SOL     OW14460   4.553   6.431   5.505  0.1902 -0.5298  0.3015
 4340SOL    HW114461   4.476   6.483   5.480  0.5788  0.6224  1.3551
 4340SOL    HW214462   4.612   6.439   5.430 -0.3017 -0.5879 -0.1021
 4341SOL     OW14463   1.137   2.398   2.799  0.1625 -0.4814  0.4541
 4341SOL    HW114464   1.062   2.427   2.748  1.0092  0.5105 -0.2647
 4341SOL    HW214465   1.120   2.432   2.887 -0.7575 -1.2345  0.5882
 4342SOL     OW14466   6.219   1.405   1.192  0.2293  0.4570 -0.3491
 4342SOL    HW114467   6.188   1.471   1.253  0.1658 -0.3785  0.5481
 4342SOL    HW214468   6.155   1.334   1.200  1.1964 -0.4032 -0.0531
 4343SOL     OW14469   1.632   5.953   1.208 -0.3309 -0.3576 -0.1080
 4343SOL    HW114470   1.676   6.013   1.268 -0.3179 -0.2048 -0.2696
 4343SOL    HW214471   1.622   6.003   1.127  2.3561 -1.5008 -1.2707
 4344SOL     OW14472   5.984   7.017   2.047 -0.3672 -0.0238 -0.0546
 4344SOL    HW114473   6.040   6.978   2.114  0.4281 -1.5037 -1.5037
 4344SOL    HW214474   6.017   7.106   2.036 -1.1071  0.5697  2.1178
 4345SOL     OW14475   3.550   2.529   9.302  0.1627  0.3153  0.1948
 4345SOL    HW114476   3.466   2.573   9.287  0.2038 -0.1174 -1.4930
 4345SOL    HW214477   3.615   2.600   9.297  0.0784  0.3335 -0.7168
 4346SOL     OW14478   4.882   6.458   1.850  0.1927 -0.4746  0.7703
 4346SOL    HW114479   4.906   6.514   1.924 -0.1264  4.1857 -2.2064
 4346SOL    HW214480   4.964   6.443   1.803 -0.1740  0.5782 -0.2623
 4347SOL     OW14481   6.515   1.064   6.985  0.2084 -0.1675  0.4658
 4347SOL    HW114482   6.546   1.137   7.039 -0.4832 -0.4857  1.3208
 4347SOL    HW214483   6.422   1.084   6.970  0.0159 -0.8691  0.7045
 4348SOL     OW14484   6.991   0.983   5.038 -0.3375  0.1775  0.0351
 4348SOL    HW114485   7.053   0.942   5.099 -0.6428  1.5601  1.3572
 4348SOL    HW214486   6.956   1.058   5.087 -0.2438  1.6532 -2.0100
 4349SOL     OW14487   5.962   2.008   2.302 -0.8678 -0.1850 -0.5884
 4349SOL    HW114488   5.965   1.925   2.254  0.7152 -0.1592 -0.6116
 4349SOL    HW214489   5.889   2.056   2.264 -0.5508 -0.7541 -1.9865
 4350SOL     OW14490   5.332   6.245  11.063  0.5783 -0.2362 -0.2274
 4350SOL    HW114491   5.241   6.275  11.066  0.3514 -0.5600 -2.3404
 4350SOL    HW214492   5.348   6.225  10.971  3.2240  1.0974 -0.1582
 4351SOL     OW14493   3.006   3.742   4.056 -0.3934  0.1194  0.2762
 4351SOL    HW114494   2.986   3.725   4.148 -2.7119  0.2663 -0.1382
 4351SOL    HW214495   3.051   3.827   4.056 -1.7612  0.8746  1.1746
 4352SOL     OW14496   3.917   1.933  11.881 -0.3962 -0.3459  0.0095
 4352SOL    HW114497   3.826   1.964  11.891 -1.3272 -2.9274  0.3008
 4352SOL    HW214498   3.950   1.980  11.805 -1.4468  1.7457  0.7502
 4353SOL     OW14499   2.240   1.249   0.990  0.1871  0.4080  0.6460
 4353SOL    HW114500   2.225   1.255   1.084 -2.1104  1.6096  0.2896
 4353SOL    HW214501   2.165   1.295   0.951 -0.3068 -2.2111 -1.8443
 4354SOL     OW14502   3.591   7.610   4.033  0.0572  0.0415  0.5019
 4354SOL    HW114503   3.680   7.618   3.998  0.1501 -0.0871  0.7020
 4354SOL    HW214504   3.565   7.700   4.053 -0.2996  0.2022 -0.6110
 4355SOL     OW14505   6.881   3.036   5.763 -0.6500 -0.6607  0.2511
 4355SOL    HW114506   6.805   3.082   5.799 -0.6642 -1.0962  0.8005
 4355SOL    HW214507   6.924   2.997   5.840 -0.6381 -1.5554 -0.1904
 4356SOL     OW14508   1.816   4.112   8.746  0.3228  0.2653 -0.9334
 4356SOL    HW114509   1.825   4.207   8.738 -0.4240  0.2983 -1.5665
 4356SOL    HW214510   1.725   4.095   8.722  0.6218 -0.6706 -1.4600
 4357SOL     OW14511   3.031   6.463   1.199  0.1906  0.1116 -0.2411
 4357SOL    HW114512   2.993   6.378   1.222 -1.8442  0.8470 -0.6488
 4357SOL    HW214513   2.999   6.480   1.110  1.8378  0.6435 -0.7716
 4358SOL     OW14514   4.964   1.759   0.933  0.4957 -0.2817 -0.3365
 4358SOL    HW114515   4.989   1.840   0.887  0.2627 -0.5369 -0.9256
 4358SOL    HW214516   4.885   1.782   0.982  1.3274  0.2777  0.7932
 4359SOL     OW14517   4.466   4.809   9.108  0.1373  0.4451  0.0919
 4359SOL    HW114518   4.374   4.824   9.085  0.3983  2.4129  0.1954
 4359SOL    HW214519   4.514   4.827   9.028  0.4271 -1.3114 -0.1743
 4360SOL     OW14520   7.361   6.207   5.378  0.0385 -0.2124 -0.1548
 4360SOL    HW114521   7.310   6.132   5.346 -1.1261 -1.2843  3.6030
 4360SOL    HW214522   7.295   6.266   5.416  1.2282  0.7854  0.4405
 4361SOL     OW14523   3.674   6.698   0.649 -0.0034  0.0867  0.1817
 4361SOL    HW114524   3.620   6.632   0.605 -1.5561  0.7388  1.0583
 4361SOL    HW214525   3.643   6.698   0.740  0.0347  1.9372  0.2290
 4362SOL     OW14526   0.434   7.680   5.858  0.1382  0.3153 -0.4227
 4362SOL    HW114527   0.416   7.665   5.765 -2.1584  2.0691 -0.3493
 4362SOL    HW214528   0.466   7.770   5.862  1.8431 -0.2833  0.3661
 4363SOL     OW14529   3.615   0.636   4.841 -0.5540 -0.1637  0.7375
 4363SOL    HW114530   3.559   0.655   4.766 -1.3447  1.4317  1.6646
 4363SOL    HW214531   3.671   0.713   4.849  0.3121 -0.8139  1.1205
 4364SOL     OW14532   2.497   7.241   1.107 -0.3424  0.2004  0.0926
 4364SOL    HW114533   2.417   7.193   1.085 -0.2777 -0.5371  1.3821
 4364SOL    HW214534   2.468   7.308   1.169 -0.5402  2.3092 -2.1244
 4365SOL     OW14535   3.638   1.713   7.662 -0.1059 -0.8073 -0.1899
 4365SOL    HW114536   3.732   1.734   7.657 -0.2106  0.0562  1.0233
 4365SOL    HW214537   3.630   1.630   7.615  1.2742 -0.9005 -0.3164
 4366SOL     OW14538   2.855   2.572   2.011 -0.1416 -0.4490 -0.3679
 4366SOL    HW114539   2.898   2.526   2.083 -2.4011 -2.1146  0.0533
 4366SOL    HW214540   2.784   2.513   1.984 -1.5027  1.6278 -1.6651
 4367SOL     OW14541   4.761   0.202  11.623 -0.2153 -0.0193  0.2252
 4367SOL    HW114542   4.826   0.232  11.687 -0.4154  2.2344 -0.5215
 4367SOL    HW214543   4.701   0.148  11.673  1.0799 -0.4523  1.3699
 4368SOL     OW14544   3.927   1.935  11.069  0.1455 -0.4249 -0.1218
 4368SOL    HW114545   3.901   1.927  11.160 -0.6140  0.7234 -0.2155
 4368SOL    HW214546   3.946   2.028  11.058 -1.7389 -0.1727 -1.6401
 4369SOL     OW14547   1.630   4.379   3.431 -0.0934  0.3421 -0.8497
 4369SOL    HW114548   1.598   4.372   3.341 -1.9380  0.7469 -0.2625
 4369SOL    HW214549   1.633   4.289   3.463  0.8395  0.1686 -1.3754
 4370SOL     OW14550   7.087   2.932   9.952  0.2892 -0.3785  0.0902
 4370SOL    HW114551   7.167   2.972   9.917  0.6160  0.1863  1.4355
 4370SOL    HW214552   7.090   2.950  10.046 -1.5489 -0.0944  0.1379
 4371SOL     OW14553   0.130   3.217  11.050 -0.1326 -0.3851  0.0116
 4371SOL    HW114554   0.189   3.150  11.085  1.3785 -0.2816 -2.1783
 4371SOL    HW214555   0.098   3.181  10.968 -1.3937  0.5296  0.0628
 4372SOL     OW14556   6.822   7.845   4.043 -0.3840  0.3155 -0.5925
 4372SOL    HW114557   6.915   7.830   4.029 -0.2302  1.2241 -0.6044
 4372SOL    HW214558   6.791   7.880   3.960 -0.8700 -0.5202 -0.7788
 4373SOL     OW14559   0.200   2.156  11.742 -0.1709  0.4656 -0.1174
 4373SOL    HW114560   0.244   2.159  11.827  1.0588 -0.4034 -0.6939
 4373SOL    HW214561   0.225   2.237  11.699  1.1764 -0.1439 -0.5528
 4374SOL     OW14562   5.879   1.260   5.174 -0.0101 -0.2103 -0.2344
 4374SOL    HW114563   5.819   1.186   5.171  0.5340 -0.6319 -1.9259
 4374SOL    HW214564   5.931   1.252   5.093 -0.0920  2.1385 -0.5847
 4375SOL     OW14565   7.908   3.803   7.909  0.2462 -0.0858 -0.3609
 4375SOL    HW114566   7.904   3.787   8.004 -0.4694 -1.5210 -0.5960
 4375SOL    HW214567   7.982   3.751   7.879 -0.2322 -0.5591 -0.7408
 4376SOL     OW14568   0.372   2.410   0.133 -0.4360 -0.4886 -0.8671
 4376SOL    HW114569   0.408   2.367   0.210 -0.4110 -1.5085 -1.4376
 4376SOL    HW214570   0.422   2.491   0.125  0.6805 -1.1521 -0.7519
 4377SOL     OW14571   3.084   7.297   9.896 -0.7287 -0.1331  0.0018
 4377SOL    HW114572   3.070   7.307   9.991 -0.2150  1.3808 -0.0511
 4377SOL    HW214573   3.033   7.368   9.857  0.8148  0.6507 -0.6824
 4378SOL     OW14574   1.538   0.395   5.309 -0.5927  0.0301  0.0959
 4378SOL    HW114575   1.632   0.379   5.303  0.0441  1.2735  3.8957
 4378SOL    HW214576   1.499   0.308   5.314  0.5093 -0.4937 -0.1428
 4379SOL     OW14577   4.246   1.099   0.830  0.0910  0.3401 -0.3002
 4379SOL    HW114578   4.265   1.040   0.903  1.6023 -0.0074 -0.9404
 4379SOL    HW214579   4.210   1.043   0.762  2.2792 -0.0450 -1.2074
 4380SOL     OW14580   0.486   3.722   5.895 -0.0049 -0.0282  0.0755
 4380SOL    HW114581   0.479   3.679   5.980 -0.7537  1.6632  0.9256
 4380SOL    HW214582   0.434   3.667   5.835 -2.3201  0.5029  1.4719
 4381SOL     OW14583   2.278   0.431   4.986  0.3058 -0.1526 -0.2532
 4381SOL    HW114584   2.345   0.420   4.919  0.6637 -1.1711  0.2511
 4381SOL    HW214585   2.326   0.465   5.062  0.1182 -0.1469 -0.1365
 4382SOL     OW14586   4.198   3.824  10.590 -0.0138  0.2536  0.3247
 4382SOL    HW114587   4.186   3.900  10.648  0.5729 -0.1668  1.0128
 4382SOL    HW214588   4.112   3.810  10.551  0.1901  2.2235 -1.0296
 4383SOL     OW14589   2.753   7.748   2.176  0.2736 -0.1058  0.4815
 4383SOL    HW114590   2.674   7.795   2.149  1.5135  1.1500 -1.1811
 4383SOL    HW214591   2.745   7.662   2.134  0.4121  0.5259 -0.9208
 4384SOL     OW14592   6.511   4.250   3.406  0.2914 -0.1179  0.1515
 4384SOL    HW114593   6.582   4.250   3.470  0.7864  0.0557 -0.3943
 4384SOL    HW214594   6.432   4.263   3.459  0.7942  1.1500  0.6320
 4385SOL     OW14595   4.787   4.693   9.265  0.4268 -0.5105 -0.0049
 4385SOL    HW114596   4.787   4.677   9.171 -0.1408 -1.4986  0.1455
 4385SOL    HW214597   4.783   4.788   9.274  2.2597 -0.3093 -0.9691
 4386SOL     OW14598   2.083   3.500   9.786  0.5387  0.0305 -0.4690
 4386SOL    HW114599   2.107   3.566   9.721  1.3429  1.3478  1.1047
 4386SOL    HW214600   2.167   3.468   9.820  0.1375 -0.3252  0.2143
 4387SOL     OW14601   5.955   2.256   7.330  0.0691 -0.3501 -0.0249
 4387SOL    HW114602   5.873   2.238   7.285 -1.4697  1.1576  2.0131
 4387SOL    HW214603   5.966   2.351   7.323  2.3049 -0.6146 -1.2320
 4388SOL     OW14604   0.105   7.025   6.820 -0.7202 -0.6861  0.0029
 4388SOL    HW114605   0.177   7.033   6.757 -0.8928  0.0587 -0.1047
 4388SOL    HW214606   0.147   7.015   6.905 -0.4877 -1.0568 -0.1565
 4389SOL     OW14607   5.427   1.224  10.522  0.2225 -0.2762  0.2501
 4389SOL    HW114608   5.517   1.244  10.549  0.4419  0.1455 -0.7752
 4389SOL    HW214609   5.390   1.309  10.499 -0.2525 -0.5292  0.0876
 4390SOL     OW14610   3.939   6.502   9.048  0.4107  0.0093  0.6785
 4390SOL    HW114611   3.920   6.569   9.114 -1.0023 -0.4538  0.7750
 4390SOL    HW214612   4.001   6.544   8.989 -1.5717  1.9939 -0.1381
 4391SOL     OW14613   2.605   6.796   1.323  0.2491  0.2480 -0.1775
 4391SOL    HW114614   2.566   6.719   1.365  0.7728 -0.2683 -0.6136
 4391SOL    HW214615   2.698   6.774   1.317  0.2481  0.4804 -1.2278
 4392SOL     OW14616   3.547   2.900   4.269 -0.0562  0.2666  0.5134
 4392SOL    HW114617   3.635   2.910   4.234  0.3896 -2.5542  0.5715
 4392SOL    HW214618   3.493   2.876   4.194 -0.3234 -0.0510  0.7999
 4393SOL     OW14619   6.057   1.477   0.477  0.2508 -0.6922 -0.7123
 4393SOL    HW114620   6.018   1.557   0.442  1.1147  0.2435  0.3798
 4393SOL    HW214621   6.096   1.435   0.401  1.7191  1.0723 -1.0177
 4394SOL     OW14622   1.693   1.362   8.468 -0.2253 -0.7645  0.1654
 4394SOL    HW114623   1.755   1.329   8.403 -0.8545 -0.7158 -0.4735
 4394SOL    HW214624   1.640   1.285   8.492 -2.1758 -0.1666 -1.8645
 4395SOL     OW14625   6.547   5.512   0.853  0.3480 -0.4041 -0.2504
 4395SOL    HW114626   6.593   5.497   0.770  2.3480 -0.8428  0.8804
 4395SOL    HW214627   6.603   5.572   0.902 -0.2457 -0.9888  1.2072
 4396SOL     OW14628   0.740   3.175   0.404 -0.1891 -0.2188 -0.4822
 4396SOL    HW114629   0.756   3.081   0.398  1.0984  0.0122 -0.9560
 4396SOL    HW214630   0.747   3.196   0.497 -0.9061 -0.6526 -0.3265
 4397SOL     OW14631   2.627   6.096  11.779  0.0208 -0.0845  0.5600
 4397SOL    HW114632   2.544   6.066  11.743 -0.3809  0.7356  0.7755
 4397SOL    HW214633   2.602   6.153  11.852  0.7788 -0.0911  0.8358
 4398SOL     OW14634   5.953   1.216   3.983 -0.2457  0.0576 -0.3390
 4398SOL    HW114635   5.912   1.293   4.022  1.5720  1.5311 -1.1508
 4398SOL    HW214636   6.025   1.195   4.042 -0.1420 -0.4109 -0.6320
 4399SOL     OW14637   4.327   3.119   4.934 -0.3049 -0.1079  0.6471
 4399SOL    HW114638   4.406   3.172   4.920 -0.6939 -0.0256 -1.4875
 4399SOL    HW214639   4.301   3.091   4.847 -1.7821 -1.4280  1.4631
 4400SOL     OW14640   7.648   6.570   5.784  0.6022 -0.2477 -0.1761
 4400SOL    HW114641   7.672   6.633   5.716 -1.1942 -0.1365 -0.7595
 4400SOL    HW214642   7.682   6.608   5.865  0.7264  0.7947 -0.6948
 4401SOL     OW14643   6.957   0.218  10.927 -0.0421  0.4525 -0.4688
 4401SOL    HW114644   7.048   0.248  10.934  0.3468 -0.1759 -2.2547
 4401SOL    HW214645   6.962   0.124  10.941 -0.5212  0.5135  0.1096
 4402SOL     OW14646   5.203   5.563   0.514 -1.1638 -0.2664 -0.0090
 4402SOL    HW114647   5.153   5.522   0.585 -1.0510  0.0710  0.2686
 4402SOL    HW214648   5.285   5.589   0.555 -1.7492  1.4416  0.1680
 4403SOL     OW14649   6.858   2.983   3.497  0.1997 -0.3283  0.6359
 4403SOL    HW114650   6.864   3.033   3.416 -0.8468  0.5612  1.0856
 4403SOL    HW214651   6.935   2.926   3.495  0.1073 -0.4616 -1.0522
 4404SOL     OW14652   5.452   0.446   1.792  0.4290  0.4412 -0.7409
 4404SOL    HW114653   5.467   0.401   1.875  0.4653  2.5980  0.5112
 4404SOL    HW214654   5.360   0.427   1.771 -0.0683  1.0984  0.6621
 4405SOL     OW14655   5.613   3.591   9.566 -0.2706 -0.3927 -0.1507
 4405SOL    HW114656   5.612   3.651   9.492 -2.1187 -1.3458 -0.9812
 4405SOL    HW214657   5.639   3.507   9.528 -0.4246 -0.7113  0.4400
 4406SOL     OW14658   5.285   5.025   2.788  0.5231 -0.5969  0.1096
 4406SOL    HW114659   5.218   5.093   2.791  0.5580 -0.5813  0.6843
 4406SOL    HW214660   5.367   5.070   2.807  0.7555 -0.5594 -0.9266
 4407SOL     OW14661   3.229   5.645   8.661  0.0526  0.3220 -0.6188
 4407SOL    HW114662   3.257   5.566   8.614 -1.0152 -0.4911  0.0685
 4407SOL    HW214663   3.295   5.711   8.639  0.2458 -0.3817 -2.2594
 4408SOL     OW14664   4.478   1.309  10.517 -0.1374 -0.3371 -0.0592
 4408SOL    HW114665   4.457   1.221  10.486 -0.1267 -0.2881 -0.2106
 4408SOL    HW214666   4.408   1.364  10.480 -1.6032 -0.6311  2.0896
 4409SOL     OW14667   6.138   4.057   3.005 -0.4055 -0.9443 -0.3469
 4409SOL    HW114668   6.086   3.984   2.973 -1.4559 -0.3457 -0.0444
 4409SOL    HW214669   6.074   4.124   3.029  0.5432  0.3415 -1.2326
 4410SOL     OW14670   7.696   7.726   3.055  0.6675 -0.0315  0.7067
 4410SOL    HW114671   7.632   7.764   2.994  2.0851 -2.5991 -2.7151
 4410SOL    HW214672   7.777   7.722   3.004  2.2705 -1.3858  3.1947
 4411SOL     OW14673   1.652   2.746   3.155 -0.0109 -0.3015  0.4169
 4411SOL    HW114674   1.706   2.734   3.233 -0.6633 -0.7939  0.8031
 4411SOL    HW214675   1.712   2.731   3.082  0.7547  0.7964  0.7963
 4412SOL     OW14676   0.018   7.182  10.739  0.8109  0.4483  0.3038
 4412SOL    HW114677   0.110   7.154  10.742  1.4221  2.3206  0.3537
 4412SOL    HW214678   0.013   7.255  10.801 -1.0241 -0.4166  1.2411
 4413SOL     OW14679   5.397   3.345  10.761 -0.3883 -0.3355  0.4066
 4413SOL    HW114680   5.340   3.322  10.835  0.2934 -1.1419  0.7009
 4413SOL    HW214681   5.412   3.262  10.715  1.1732 -0.3125  0.8057
 4414SOL     OW14682   7.674   6.856   7.228  0.3329  0.0394 -0.1152
 4414SOL    HW114683   7.623   6.774   7.227  0.4578 -0.0697  1.0297
 4414SOL    HW214684   7.723   6.855   7.146  1.0041 -1.4721  0.2719
 4415SOL     OW14685   2.743   3.332   6.473  0.2154  0.1067  0.5243
 4415SOL    HW114686   2.808   3.395   6.504  0.0869 -0.7766  2.7885
 4415SOL    HW214687   2.668   3.386   6.447  0.3334  0.9497  1.8444
 4416SOL     OW14688   4.492   7.620  11.241  0.4946  0.1703  0.2188
 4416SOL    HW114689   4.481   7.666  11.325  2.4990  1.0878  0.0634
 4416SOL    HW214690   4.506   7.691  11.178  0.6338 -0.5693 -0.5896
 4417SOL     OW14691   6.757   6.732   5.759  0.3411 -0.3266 -0.2519
 4417SOL    HW114692   6.773   6.766   5.671 -1.9986  1.6865  0.0094
 4417SOL    HW214693   6.785   6.803   5.817  1.1109 -1.3256  0.6311
 4418SOL     OW14694   4.367   1.901   0.828 -0.5272  0.4161 -0.1038
 4418SOL    HW114695   4.390   1.849   0.752  1.4559  0.9634  0.0771
 4418SOL    HW214696   4.287   1.860   0.862 -0.0471 -1.3513 -1.0145
 4419SOL     OW14697   7.083   2.389  11.277 -0.2321  0.3862 -0.2864
 4419SOL    HW114698   7.107   2.481  11.270 -0.4762  0.4952  0.2317
 4419SOL    HW214699   7.101   2.367  11.368  0.9529 -0.4092 -0.6912
 4420SOL     OW14700   3.540   0.677  10.219  0.0416 -0.6984  0.4933
 4420SOL    HW114701   3.502   0.752  10.266  1.9929 -1.9069  4.4002
 4420SOL    HW214702   3.475   0.607  10.228  0.0551 -0.6903  0.6501
 4421SOL     OW14703   2.410   0.067   8.441 -0.0081 -0.3333  0.3000
 4421SOL    HW114704   2.328   0.079   8.489 -0.3827 -1.6712  0.0567
 4421SOL    HW214705   2.466   0.139   8.470 -0.3802 -0.8178  2.4078
 4422SOL     OW14706   6.683   7.193   0.090  0.6886 -0.2630  0.2849
 4422SOL    HW114707   6.607   7.134   0.091  0.9604 -0.6118  0.5086
 4422SOL    HW214708   6.721   7.182   0.003 -1.0248  1.8729 -0.8343
 4423SOL     OW14709   3.773   4.176   7.881  0.0097  0.1410 -0.4706
 4423SOL    HW114710   3.677   4.178   7.885  0.0235 -0.1291  0.0731
 4423SOL    HW214711   3.794   4.194   7.789 -0.6190 -1.8580 -1.0544
 4424SOL     OW14712   1.946   5.196   9.312 -0.1594  0.3293 -0.0359
 4424SOL    HW114713   1.947   5.201   9.408  0.6029 -0.6974  0.0299
 4424SOL    HW214714   1.962   5.103   9.293  1.3628  0.7910 -1.1726
 4425SOL     OW14715   3.705   5.895   5.332  0.2349 -0.3181  0.2152
 4425SOL    HW114716   3.649   5.973   5.335  0.1873 -0.2208 -1.8090
 4425SOL    HW214717   3.668   5.842   5.262  0.2716 -2.2049  1.5589
 4426SOL     OW14718   4.886   5.774   7.305  0.2653  0.6975  0.3695
 4426SOL    HW114719   4.827   5.702   7.282 -0.1354  1.3238 -0.6017
 4426SOL    HW214720   4.828   5.846   7.329  0.6355  1.1578 -0.0936
 4427SOL     OW14721   0.453   6.893   9.143 -0.1429 -0.3800  0.5119
 4427SOL    HW114722   0.488   6.804   9.152 -0.7100 -0.5789  0.7552
 4427SOL    HW214723   0.499   6.943   9.211 -0.4832 -0.6866  0.9723
 4428SOL     OW14724   2.279   6.316   6.218  0.1338 -0.0204 -0.8006
 4428SOL    HW114725   2.257   6.382   6.284  1.2567  0.7819 -1.2027
 4428SOL    HW214726   2.277   6.363   6.135  1.6424 -0.2931 -1.0260
 4429SOL     OW14727   5.482   6.441   3.718 -0.0558  0.0757 -0.1466
 4429SOL    HW114728   5.463   6.368   3.777  0.5824  0.9412  1.1953
 4429SOL    HW214729   5.400   6.489   3.713  0.4918  1.4901  2.2941
 4430SOL     OW14730   1.415   0.670  11.527  0.1964  0.2288 -0.2987
 4430SOL    HW114731   1.332   0.628  11.547  0.5969 -0.0308  0.8965
 4430SOL    HW214732   1.417   0.676  11.432  0.1015 -2.4320 -0.5347
 4431SOL     OW14733   7.050   2.089   1.054  0.4565 -0.1312  0.1746
 4431SOL    HW114734   7.089   2.037   0.984 -0.5675  0.0068 -0.5262
 4431SOL    HW214735   7.124   2.118   1.107  1.2686 -0.1424 -0.9227
 4432SOL     OW14736   6.686   3.042   2.748 -0.0032 -0.2393 -0.3198
 4432SOL    HW114737   6.602   3.037   2.794  0.4070  0.0803  0.4973
 4432SOL    HW214738   6.672   3.109   2.681  0.2408  1.5373  1.3042
 4433SOL     OW14739   1.410   5.032   6.227  0.4225 -0.0273 -0.4933
 4433SOL    HW114740   1.361   4.983   6.161  1.4590 -0.9129 -0.6399
 4433SOL    HW214741   1.420   4.970   6.300  0.2779  0.5494  0.0192
 4434SOL     OW14742   5.116   7.383   4.611 -0.3121 -0.4337  0.0647
 4434SOL    HW114743   5.203   7.395   4.575 -0.6209 -0.9119 -0.8680
 4434SOL    HW214744   5.066   7.340   4.541 -0.9307 -1.3604  1.0349
 4435SOL     OW14745   4.625   2.048  10.744  0.1351 -0.3871  0.5527
 4435SOL    HW114746   4.696   2.033  10.806  0.5856 -0.6877 -0.0243
 4435SOL    HW214747   4.573   2.118  10.783  1.4317  0.6827  0.4280
 4436SOL     OW14748   1.047   2.095   0.129  0.4349  0.1910 -0.0639
 4436SOL    HW114749   1.008   2.149   0.060 -1.7708 -0.4229  0.6335
 4436SOL    HW214750   1.129   2.063   0.091  0.1951  1.3982 -1.6839
 4437SOL     OW14751   3.340   2.283   6.869  0.0331  0.3056  0.1917
 4437SOL    HW114752   3.425   2.307   6.906  0.3890  0.5827 -0.7729
 4437SOL    HW214753   3.298   2.229   6.936  1.5603 -1.0498  0.0912
 4438SOL     OW14754   1.293   6.933   9.948  0.0862 -0.8235  0.2747
 4438SOL    HW114755   1.198   6.947   9.956  0.5244  3.2298  0.8849
 4438SOL    HW214756   1.303   6.839   9.939 -4.1344 -1.2926 -2.1230
 4439SOL     OW14757   1.672   5.574   5.763 -0.4974  0.3373  0.6775
 4439SOL    HW114758   1.595   5.627   5.784 -0.5684 -0.4664  2.6038
 4439SOL    HW214759   1.675   5.506   5.830  0.5300 -1.1410 -0.7635
 4440SOL     OW14760   3.056   7.826   9.982 -0.0858 -0.2308 -0.3165
 4440SOL    HW114761   3.030   7.801   9.894  0.2874 -0.9807 -0.2233
 4440SOL    HW214762   2.982   7.876  10.016 -0.5452 -0.5832 -0.7866
 4441SOL     OW14763   0.512   2.656   0.082 -0.7500 -0.5004 -0.0506
 4441SOL    HW114764   0.582   2.604   0.042 -1.0690 -1.0136  0.0523
 4441SOL    HW214765   0.554   2.696   0.159 -0.1816  0.3642 -0.7929
 4442SOL     OW14766   1.917   1.498   9.992 -0.7414 -0.3035  0.0700
 4442SOL    HW114767   1.855   1.437  10.032  0.0111 -0.4248  1.0959
 4442SOL    HW214768   2.003   1.461  10.012 -0.2804 -1.5086 -3.4318
 4443SOL     OW14769   1.815   0.155   6.238 -0.0292 -0.4667  0.0762
 4443SOL    HW114770   1.860   0.204   6.307  1.9334 -1.1979 -0.6211
 4443SOL    HW214771   1.728   0.137   6.274 -0.0033  1.4913  1.2623
 4444SOL     OW14772   2.203   5.461   2.459 -0.3575  0.3747 -0.2637
 4444SOL    HW114773   2.202   5.553   2.431  0.2702  0.1578 -1.0283
 4444SOL    HW214774   2.176   5.412   2.381 -1.5840 -0.0435  0.4003
 4445SOL     OW14775   3.083   1.586   8.087  0.1468 -0.5224 -0.3309
 4445SOL    HW114776   3.105   1.663   8.140  1.0421 -1.4201  0.6422
 4445SOL    HW214777   2.994   1.564   8.113  0.5390 -0.8928  0.7614
 4446SOL     OW14778   5.430   5.354   4.662 -0.2268  0.1150  0.1595
 4446SOL    HW114779   5.517   5.346   4.700  0.2534  1.9806 -0.4560
 4446SOL    HW214780   5.409   5.447   4.669 -1.5654 -0.0635 -1.0055
 4447SOL     OW14781   2.898   5.787   6.037 -0.1577 -0.0372 -0.4756
 4447SOL    HW114782   2.867   5.871   6.071 -0.1025  0.0012 -0.5193
 4447SOL    HW214783   2.952   5.810   5.962  1.5035  0.0417  0.6730
 4448SOL     OW14784   3.126   5.822   2.908  0.5655 -0.1232  0.4541
 4448SOL    HW114785   3.138   5.746   2.851  0.8721  1.5321 -1.8185
 4448SOL    HW214786   3.035   5.848   2.896  0.8178  0.6616  0.1455
 4449SOL     OW14787   5.285   1.319   7.013 -0.1143  0.1761  0.4768
 4449SOL    HW114788   5.205   1.303   6.962  0.1043 -0.5977  0.3589
 4449SOL    HW214789   5.313   1.232   7.040  2.4987  0.0465 -2.1998
 4450SOL     OW14790   0.708   6.854  11.104 -0.1293  0.3386  0.6193
 4450SOL    HW114791   0.719   6.795  11.030  1.7279  3.2444 -1.6457
 4450SOL    HW214792   0.639   6.813  11.157  1.3847 -4.0654 -0.3530
 4451SOL     OW14793   4.741   2.859  11.770  0.4196 -0.5790 -0.2652
 4451SOL    HW114794   4.704   2.925  11.711  0.4964  0.8762  1.2298
 4451SOL    HW214795   4.675   2.848  11.838  1.0769 -0.9057  0.3296
 4452SOL     OW14796   0.117   2.506   3.915  0.9314 -0.1969 -0.2487
 4452SOL    HW114797   0.099   2.468   3.828 -1.6275  0.4577 -0.0835
 4452SOL    HW214798   0.117   2.431   3.974 -3.5011 -0.2493 -0.0099
 4453SOL     OW14799   5.112   1.457   7.178  0.0979  0.3342  0.2402
 4453SOL    HW114800   5.040   1.393   7.180 -1.1199  1.6513 -0.0247
 4453SOL    HW214801   5.181   1.413   7.129 -0.9807 -0.5250 -0.5820
 4454SOL     OW14802   5.150   6.151   7.281  0.0285  0.0431 -0.1092
 4454SOL    HW114803   5.105   6.230   7.248  0.4170 -0.0228 -0.8287
 4454SOL    HW214804   5.143   6.157   7.376  0.8016  1.3918 -0.1121
 4455SOL     OW14805   0.289   6.725   7.439  0.6090  0.1395 -0.3601
 4455SOL    HW114806   0.249   6.638   7.439  0.5216  0.1791 -1.0639
 4455SOL    HW214807   0.284   6.753   7.531  0.4867 -0.5241 -0.1592
 4456SOL     OW14808   3.873   1.961  11.348 -0.1135  0.2957 -0.5177
 4456SOL    HW114809   3.850   1.936  11.438 -0.3364 -0.0826 -0.6779
 4456SOL    HW214810   3.793   1.999  11.312 -0.9363 -2.1452 -1.4801
 4457SOL     OW14811   3.547   0.367   6.753  0.1828  0.3005 -0.1590
 4457SOL    HW114812   3.567   0.275   6.734  2.6723  0.7181  0.1958
 4457SOL    HW214813   3.626   0.402   6.793 -0.9747  2.4368  0.4374
 4458SOL     OW14814   1.605   1.820   3.462 -0.0650  0.3490 -0.6957
 4458SOL    HW114815   1.645   1.773   3.389  2.6707  0.1587  0.8097
 4458SOL    HW214816   1.612   1.912   3.438 -0.5031  0.2330 -1.2905
 4459SOL     OW14817   7.532   3.289   3.963  0.0048 -0.4513  0.2490
 4459SOL    HW114818   7.515   3.304   3.869  0.7668  0.4044  0.2372
 4459SOL    HW214819   7.478   3.354   4.007  1.0132  0.3531  0.3227
 4460SOL     OW14820   0.219   0.575   8.775 -0.0876  0.1036 -0.3961
 4460SOL    HW114821   0.200   0.621   8.694 -1.2657 -0.0864 -0.2513
 4460SOL    HW214822   0.211   0.482   8.753  0.6478  0.0171 -0.3105
 4461SOL     OW14823   6.012   3.311   8.425 -0.0405 -0.2112 -0.4805
 4461SOL    HW114824   6.061   3.230   8.410 -0.8618 -0.5119 -1.7145
 4461SOL    HW214825   5.994   3.345   8.338 -0.2695  0.9727  0.0084
 4462SOL     OW14826   1.356   2.951   1.359 -0.9011  0.2835 -0.4868
 4462SOL    HW114827   1.285   3.012   1.380 -0.8842  0.0664  0.2312
 4462SOL    HW214828   1.334   2.871   1.406 -0.9892 -0.3230 -1.5337
 4463SOL     OW14829   5.493   6.718   4.970  0.0228  0.0710 -0.3938
 4463SOL    HW114830   5.444   6.720   5.052  1.2965  2.2825  0.3861
 4463SOL    HW214831   5.444   6.775   4.911 -0.5150 -0.9728 -0.9953
 4464SOL     OW14832   0.979   2.334   6.851  0.0652 -0.1796  0.2331
 4464SOL    HW114833   0.986   2.413   6.798 -0.3298  0.4244  1.0540
 4464SOL    HW214834   0.891   2.300   6.832  0.7646 -1.2516 -1.2233
 4465SOL     OW14835   5.337   4.366   8.909 -0.3938  0.1585 -0.0796
 4465SOL    HW114836   5.270   4.322   8.856  1.2973 -0.2733 -1.9804
 4465SOL    HW214837   5.413   4.309   8.903  1.2916  2.3724 -1.0814
 4466SOL     OW14838   2.130   0.132  10.211  0.1175 -0.1205 -0.0832
 4466SOL    HW114839   2.196   0.095  10.270  1.1820  0.3630 -0.9373
 4466SOL    HW214840   2.053   0.145  10.267  0.0572 -2.5202  0.4977
 4467SOL     OW14841   6.202   7.637   2.412 -0.3085 -0.4982  0.2923
 4467SOL    HW114842   6.290   7.601   2.420 -0.7577 -1.6402  0.3194
 4467SOL    HW214843   6.215   7.731   2.400  0.9653 -0.8059 -0.9924
 4468SOL     OW14844   0.860   3.340   6.265  0.0722 -0.7797 -0.0592
 4468SOL    HW114845   0.874   3.315   6.174  0.9646  2.7224 -1.0470
 4468SOL    HW214846   0.783   3.396   6.263 -0.6763 -1.6638  1.6140
 4469SOL     OW14847   6.804   6.937   0.570  0.1025 -0.4818 -0.1766
 4469SOL    HW114848   6.841   6.925   0.482 -2.6205  2.4425 -1.9228
 4469SOL    HW214849   6.767   6.852   0.592  1.2972 -1.4266 -1.6043
 4470SOL     OW14850   1.132   4.813   0.543  0.6610  0.1629 -0.0954
 4470SOL    HW114851   1.122   4.906   0.523 -1.3163 -0.0493 -0.2698
 4470SOL    HW214852   1.097   4.804   0.632  1.4054 -0.3216  0.1564
 4471SOL     OW14853   0.892   5.131  10.369  0.1894 -0.5461  0.7254
 4471SOL    HW114854   0.896   5.059  10.433 -0.6708 -0.5291  0.8124
 4471SOL    HW214855   0.890   5.210  10.422  0.4525 -0.4847  0.6456
 4472SOL     OW14856   6.656   0.173   2.789 -0.2285 -0.5051  0.3725
 4472SOL    HW114857   6.648   0.257   2.834 -0.1833 -1.4393  2.1880
 4472SOL    HW214858   6.747   0.148   2.802  0.5517  0.3994 -2.5544
 4473SOL     OW14859   0.661   5.309   1.126  0.5611  0.5168  0.1868
 4473SOL    HW114860   0.597   5.325   1.057  1.6190  2.0591 -0.5008
 4473SOL    HW214861   0.668   5.214   1.131 -2.8351  0.1980  1.3333
 4474SOL     OW14862   7.666   5.887   6.884 -0.2496  0.0219 -0.3598
 4474SOL    HW114863   7.673   5.859   6.976  0.8366 -0.2530 -0.5047
 4474SOL    HW214864   7.601   5.828   6.846  1.3861 -1.8390 -0.4537
 4475SOL     OW14865   1.691   1.482   9.591  0.2974  0.2513 -0.2763
 4475SOL    HW114866   1.682   1.416   9.659 -0.0474 -0.2585 -0.8029
 4475SOL    HW214867   1.776   1.522   9.608  0.3928 -0.1494  0.2118
 4476SOL     OW14868   6.414   5.852   9.406 -0.4918 -0.4146  0.3156
 4476SOL    HW114869   6.376   5.768   9.433  0.6024 -1.2280 -0.5813
 4476SOL    HW214870   6.408   5.852   9.311 -1.8809  1.2362  0.3643
 4477SOL     OW14871   4.822   1.984   1.922 -0.0159 -0.4043 -0.2348
 4477SOL    HW114872   4.863   1.922   1.862 -0.6380  0.2489 -1.3500
 4477SOL    HW214873   4.807   2.063   1.870 -1.4923 -0.1727  0.4974
 4478SOL     OW14874   4.033   2.214  10.025  0.5622  0.3015  0.0385
 4478SOL    HW114875   4.057   2.285  10.084  0.6195  1.1165 -0.9474
 4478SOL    HW214876   3.938   2.205  10.035  0.7617 -0.6495  1.4145
 4479SOL     OW14877   0.073   7.893   3.776  0.6187 -0.4094 -0.0454
 4479SOL    HW114878   0.026   7.888   3.859  0.6103 -2.2433 -0.1281
 4479SOL    HW214879   0.010   7.929   3.714  0.1666 -0.3981  0.4189
 4480SOL     OW14880   5.203   7.633   1.105  0.3779  0.5512  0.2072
 4480SOL    HW114881   5.191   7.577   1.028  1.8126  1.9194 -1.0666
 4480SOL    HW214882   5.295   7.622   1.129  0.6692  2.2268  0.0011
 4481SOL     OW14883   6.097   7.226   7.496  0.1422  0.0860  0.1071
 4481SOL    HW114884   6.106   7.310   7.542  1.3296  0.6036 -1.0006
 4481SOL    HW214885   6.070   7.250   7.408 -1.3947 -0.8522  0.2763
 4482SOL     OW14886   3.794   2.778   3.392 -0.1459  0.3141 -0.7269
 4482SOL    HW114887   3.742   2.762   3.470 -0.4347  1.4624 -0.6631
 4482SOL    HW214888   3.885   2.777   3.423 -0.2359  0.3143 -0.4673
 4483SOL     OW14889   4.299   3.311   6.954  0.3250  0.1966  0.1072
 4483SOL    HW114890   4.372   3.372   6.967 -0.5414  1.5359 -1.0199
 4483SOL    HW214891   4.229   3.365   6.917 -0.5046 -1.4887 -0.8838
 4484SOL     OW14892   3.034   6.090   5.068 -0.1156  0.2993  0.1932
 4484SOL    HW114893   3.072   6.125   4.987  0.6482 -1.8421 -0.4696
 4484SOL    HW214894   3.000   6.004   5.042 -0.9688  0.0867  1.9012
 4485SOL     OW14895   2.597   3.434   2.403 -0.5263  0.0937  0.6581
 4485SOL    HW114896   2.540   3.431   2.325  0.6012 -0.5651 -0.1696
 4485SOL    HW214897   2.655   3.358   2.393  0.6223  0.8527  1.3839
 4486SOL     OW14898   0.330   3.258   5.225  0.1297  0.3279 -0.2791
 4486SOL    HW114899   0.302   3.339   5.183  0.1181  0.4181 -0.1009
 4486SOL    HW214900   0.371   3.287   5.307  1.4731  0.2481 -0.9113
 4487SOL     OW14901   7.522   6.077   3.831 -0.6633  0.0693 -0.2106
 4487SOL    HW114902   7.525   6.059   3.737 -1.8919 -0.6306 -0.1477
 4487SOL    HW214903   7.611   6.064   3.862 -0.5694 -1.3638 -1.0124
 4488SOL     OW14904   1.593   4.340   0.117 -0.0319 -0.5225  0.3051
 4488SOL    HW114905   1.649   4.385   0.180  0.3663 -2.9368  1.7749
 4488SOL    HW214906   1.632   4.360   0.032  1.2735  0.2614  1.0607
 4489SOL     OW14907   0.747   0.997   1.458 -0.0001  0.5426 -0.1785
 4489SOL    HW114908   0.749   0.905   1.485  2.1172  0.0494 -1.6782
 4489SOL    HW214909   0.766   1.047   1.537  0.2373 -0.4163  0.3801
 4490SOL     OW14910   7.051   5.845   4.311  0.1447  0.2245 -0.1698
 4490SOL    HW114911   6.999   5.924   4.301 -0.6537 -0.1602  0.7356
 4490SOL    HW214912   7.043   5.822   4.404  0.4568 -0.8381 -0.3850
 4491SOL     OW14913   5.552   2.520   1.676  0.0551 -0.2415  0.4096
 4491SOL    HW114914   5.574   2.611   1.655 -1.2216 -0.1804 -0.8541
 4491SOL    HW214915   5.574   2.471   1.596 -1.2125 -0.6815  0.2996
 4492SOL     OW14916   0.186   6.529  11.785  0.6432  0.4069 -0.7434
 4492SOL    HW114917   0.224   6.442  11.802  1.4872  1.1968  1.9182
 4492SOL    HW214918   0.255   6.575  11.737  1.7159  0.6960  0.9822
 4493SOL     OW14919   0.160   4.111   1.000 -0.4166 -0.1147 -0.0948
 4493SOL    HW114920   0.195   4.022   1.006  1.6457  0.6872  0.5646
 4493SOL    HW214921   0.222   4.165   1.048 -1.6322  1.7097 -0.4584
 4494SOL     OW14922   4.164   4.226   2.911 -0.7626 -0.3090  0.1857
 4494SOL    HW114923   4.236   4.168   2.886 -0.4026  0.6302 -1.0462
 4494SOL    HW214924   4.086   4.171   2.909 -0.5238 -0.6228 -1.6278
 4495SOL     OW14925   6.666   2.389   2.397 -0.0205  0.2191  0.4619
 4495SOL    HW114926   6.604   2.316   2.398  0.2113  0.0196  0.2831
 4495SOL    HW214927   6.651   2.434   2.480  1.4591 -1.4012  1.6770
 4496SOL     OW14928   4.425   7.470  11.543  0.3045  0.5061 -0.2197
 4496SOL    HW114929   4.357   7.402  11.545 -1.4978  2.1678 -1.1404
 4496SOL    HW214930   4.411   7.521  11.623  0.6785  0.6688 -0.2544
 4497SOL     OW14931   5.105   2.025   4.170 -0.1884  0.2647  0.0515
 4497SOL    HW114932   5.083   2.112   4.205  1.4449  0.2881  1.1287
 4497SOL    HW214933   5.189   2.038   4.126  0.8107 -1.0236  1.4837
 4498SOL     OW14934   7.166   1.240   7.451 -0.2130 -0.0316 -0.4142
 4498SOL    HW114935   7.173   1.152   7.413  1.7852 -0.5511  0.9890
 4498SOL    HW214936   7.227   1.293   7.400 -0.2624  0.1636 -0.2692
 4499SOL     OW14937   4.433   1.062   2.731 -0.2358 -0.3254  0.7331
 4499SOL    HW114938   4.457   0.979   2.772  1.3767 -0.0356  0.4593
 4499SOL    HW214939   4.474   1.058   2.644 -1.2770  0.2064  0.2073
 4500SOL     OW14940   4.554   0.424   1.319 -0.4818  0.5687  0.5712
 4500SOL    HW114941   4.645   0.433   1.291 -1.1240  2.9218 -1.0589
 4500SOL    HW214942   4.521   0.348   1.270  0.2056  0.6311 -0.0091
 4501SOL     OW14943   3.610   7.198  10.089  0.0248 -0.0934 -0.0630
 4501SOL    HW114944   3.543   7.133  10.067  2.0217 -2.7212  1.0557
 4501SOL    HW214945   3.598   7.213  10.183 -0.6890  1.6167 -0.3825
 4502SOL     OW14946   0.890   6.116  10.641 -0.0864 -1.2014 -0.3027
 4502SOL    HW114947   0.984   6.129  10.628  0.0132 -1.9784 -0.4483
 4502SOL    HW214948   0.857   6.089  10.555 -0.6610  0.1918 -0.5386
 4503SOL     OW14949   6.130   3.882   3.976  0.2467  0.2160  0.8260
 4503SOL    HW114950   6.050   3.919   4.014 -0.2683 -0.8882  0.8577
 4503SOL    HW214951   6.139   3.925   3.891 -1.1451 -0.6086  0.2262
 4504SOL     OW14952   2.049   3.573   8.029  0.4935  0.2527 -0.3489
 4504SOL    HW114953   2.091   3.580   8.114  1.0480  0.6648 -0.6440
 4504SOL    HW214954   1.960   3.545   8.047  0.6443  0.2283  0.3550
 4505SOL     OW14955   0.142   5.275   5.727  0.2181  0.0189 -0.3156
 4505SOL    HW114956   0.051   5.280   5.697 -0.1810 -1.0864  0.6300
 4505SOL    HW214957   0.136   5.252   5.820  1.4483  2.0508  0.3224
 4506SOL     OW14958   6.926   7.879   9.072 -0.2920  0.1991  0.0050
 4506SOL    HW114959   6.881   7.910   9.150 -1.3060 -1.9882  0.3608
 4506SOL    HW214960   6.965   7.958   9.033 -1.7140  1.6702  1.4354
 4507SOL     OW14961   2.437   0.307   2.991  0.2444 -0.0505 -0.1426
 4507SOL    HW114962   2.510   0.368   2.979  0.1091  0.0734 -0.3431
 4507SOL    HW214963   2.473   0.221   2.968  0.4611 -0.0633  0.2288
 4508SOL     OW14964   4.129   3.055   5.846  0.1569  0.0292  0.1447
 4508SOL    HW114965   4.206   3.050   5.790  1.4346  1.8918  1.6133
 4508SOL    HW214966   4.056   3.031   5.789  1.6302 -0.2843 -1.6929
 4509SOL     OW14967   0.457   4.116   2.019  0.0665  0.3255 -0.0885
 4509SOL    HW114968   0.486   4.191   1.968  2.5310  0.7059  1.6943
 4509SOL    HW214969   0.390   4.151   2.078  0.2217  0.7968 -0.1934
 4510SOL     OW14970   3.876   6.399   0.389  0.1564  0.0105 -0.2249
 4510SOL    HW114971   3.899   6.311   0.358 -1.0356 -1.7224  3.2136
 4510SOL    HW214972   3.786   6.412   0.358  0.4600  0.1961 -1.0442
 4511SOL     OW14973   3.613   3.427   6.079 -0.2856 -0.2240  0.6875
 4511SOL    HW114974   3.547   3.417   6.147 -0.2577 -0.7741  0.6390
 4511SOL    HW214975   3.566   3.469   6.007 -0.4379 -0.0807  0.8696
 4512SOL     OW14976   2.539   0.343   1.635  0.2334 -0.7417  0.1405
 4512SOL    HW114977   2.535   0.262   1.585  1.0682 -0.8330  0.2000
 4512SOL    HW214978   2.598   0.323   1.708  0.7567  0.0287 -0.0607
 4513SOL     OW14979   1.726   3.239  12.358 -0.0471  0.2223 -0.2896
 4513SOL    HW114980   1.701   3.324  12.323 -1.1576 -0.7079 -1.8901
 4513SOL    HW214981   1.644   3.193  12.372  0.5565 -1.1292 -0.9396
 4514SOL     OW14982   2.551   1.536   2.188  0.5772 -0.3702 -0.0916
 4514SOL    HW114983   2.502   1.471   2.237  0.1820 -1.6153 -2.0324
 4514SOL    HW214984   2.521   1.620   2.223 -0.0336 -1.1830  1.4078
 4515SOL     OW14985   3.299   3.264   2.475  0.0634  0.0505  0.0302
 4515SOL    HW114986   3.366   3.246   2.410 -0.4617  0.9878 -0.8068
 4515SOL    HW214987   3.219   3.281   2.424 -0.8945 -1.3006  1.0041
 4516SOL     OW14988   1.636   3.710  11.227  0.1514 -0.1569 -0.2973
 4516SOL    HW114989   1.566   3.767  11.259  0.5716  0.6959 -0.8591
 4516SOL    HW214990   1.717   3.753  11.254  0.4636 -0.9400  0.0147
 4517SOL     OW14991   6.790   5.673   9.579  0.8944 -0.8938 -0.3315
 4517SOL    HW114992   6.773   5.589   9.622  0.0914  0.1524  1.4776
 4517SOL    HW214993   6.879   5.696   9.604 -0.0207  0.3684  2.0627
 4518SOL     OW14994   2.430   4.970   0.461 -0.4404 -0.5552  0.5196
 4518SOL    HW114995   2.509   4.971   0.514  1.4677 -0.7930 -2.1167
 4518SOL    HW214996   2.456   4.928   0.379 -3.0958  0.0510 -0.7665
 4519SOL     OW14997   0.481   5.073   7.643 -0.2666 -0.1420 -0.2721
 4519SOL    HW114998   0.509   5.049   7.555 -1.7181 -0.7742 -0.6017
 4519SOL    HW214999   0.413   5.009   7.664  0.3350 -0.2456  1.4771
 4520SOL     OW15000   7.543   0.694   5.760 -0.5402  0.4865 -0.1362
 4520SOL    HW115001   7.628   0.728   5.735 -0.0004 -0.7711 -0.0526
 4520SOL    HW215002   7.500   0.768   5.804 -0.6382  2.0274 -2.6241
 4521SOL     OW15003   6.345   3.814   7.255 -0.2307  0.1817  0.1480
 4521SOL    HW115004   6.386   3.883   7.308  3.5353 -1.9074  0.3519
 4521SOL    HW215005   6.312   3.751   7.319 -1.1508  0.4859 -0.0246
 4522SOL     OW15006   3.294   4.185   2.028 -0.0848 -0.2761 -0.2185
 4522SOL    HW115007   3.383   4.217   2.017  0.6163 -1.8157  0.6037
 4522SOL    HW215008   3.278   4.134   1.948  0.6471 -1.8486  0.5965
 4523SOL     OW15009   0.438   1.982   5.332 -0.1267 -0.5332 -0.5567
 4523SOL    HW115010   0.352   1.942   5.320  0.1421 -0.8755 -1.4246
 4523SOL    HW215011   0.466   2.005   5.243 -0.6156  2.3321 -0.0600
 4524SOL     OW15012   2.692   5.205  12.047  0.1924  0.3418 -0.2656
 4524SOL    HW115013   2.621   5.228  12.107  0.4699  3.5811 -1.0052
 4524SOL    HW215014   2.754   5.156  12.101 -2.1868 -1.9945  0.5589
 4525SOL     OW15015   0.163   2.448  12.032  0.4366 -0.7692  0.7069
 4525SOL    HW115016   0.080   2.468  11.988  1.0031 -2.3343 -1.2592
 4525SOL    HW215017   0.216   2.527  12.021 -0.7009  0.1883  1.8493
 4526SOL     OW15018   2.534   5.854  10.714  0.4195 -0.2488  0.3448
 4526SOL    HW115019   2.514   5.764  10.687 -1.6062 -0.1005  1.1850
 4526SOL    HW215020   2.449   5.899  10.715  0.9710  0.9276  2.5545
 4527SOL     OW15021   5.459   4.023   4.046  0.7311 -0.0412 -0.2196
 4527SOL    HW115022   5.480   4.080   3.972  0.2082 -1.2969 -1.3742
 4527SOL    HW215023   5.364   4.032   4.057  0.1831 -2.4174 -2.0110
 4528SOL     OW15024   1.476   0.627   2.184  0.1732  0.3593 -0.2385
 4528SOL    HW115025   1.425   0.547   2.172  1.3230 -0.3721 -0.4227
 4528SOL    HW215026   1.478   0.668   2.098  0.7041 -0.1204 -0.4604
 4529SOL     OW15027   3.243   0.257   1.339 -0.3348 -0.0369 -0.3523
 4529SOL    HW115028   3.332   0.291   1.353 -0.6934  0.0671  2.1653
 4529SOL    HW215029   3.187   0.316   1.389 -1.5445 -1.4850  0.0736
 4530SOL     OW15030   3.396   2.763   2.651  0.4313  0.3592 -0.1062
 4530SOL    HW115031   3.327   2.744   2.715  0.5121  0.5688  0.0442
 4530SOL    HW215032   3.412   2.679   2.607 -0.0197  0.3406 -0.2413
 4531SOL     OW15033   2.991   6.494  10.570 -0.5910 -0.0793  0.0187
 4531SOL    HW115034   2.967   6.579  10.534  1.6906  0.8812  0.5623
 4531SOL    HW215035   2.992   6.435  10.495  0.9729  1.1531 -0.9743
 4532SOL     OW15036   6.638   0.291   8.437 -0.0889 -0.0385  0.3000
 4532SOL    HW115037   6.654   0.335   8.520  1.3084 -0.6336  0.3721
 4532SOL    HW215038   6.598   0.208   8.461 -2.3365  0.9460  0.1860
 4533SOL     OW15039   3.005   6.114   5.948  0.3768  0.3153 -0.3975
 4533SOL    HW115040   3.076   6.101   5.885  1.2092  0.4961  0.4856
 4533SOL    HW215041   3.047   6.107   6.034 -1.0430 -1.8731  0.2199
 4534SOL     OW15042   0.383   7.660  10.066  0.4488 -0.1748 -0.0380
 4534SOL    HW115043   0.317   7.721  10.098  0.0552 -0.2645 -0.6482
 4534SOL    HW215044   0.378   7.585  10.126  0.1684 -0.0732  0.0661
 4535SOL     OW15045   0.925   7.601   3.871  0.0000 -0.7635 -0.5948
 4535SOL    HW115046   0.834   7.582   3.895  0.1651  0.4139  1.1995
 4535SOL    HW215047   0.977   7.539   3.921  0.2182 -0.8464 -0.9224
 4536SOL     OW15048   7.208   6.990   9.298 -0.4922 -0.1130  0.1271
 4536SOL    HW115049   7.273   7.059   9.286 -0.2738 -0.3547 -0.0714
 4536SOL    HW215050   7.258   6.910   9.308 -0.7850 -0.6410 -2.1593
 4537SOL     OW15051   2.583   4.730   5.527 -0.2731 -0.8364  0.1607
 4537SOL    HW115052   2.636   4.810   5.532  0.0104 -0.9293 -1.0558
 4537SOL    HW215053   2.522   4.737   5.600 -0.5720  0.7225 -0.2004
 4538SOL     OW15054   3.201   7.547   5.208 -0.0220  0.6894  0.3134
 4538SOL    HW115055   3.266   7.530   5.140 -0.3831  2.5185 -0.5461
 4538SOL    HW215056   3.117   7.542   5.163 -0.3753  0.2584  1.0042
 4539SOL     OW15057   2.555   4.965  10.361 -0.2673 -0.2973  0.1099
 4539SOL    HW115058   2.546   4.880  10.319 -1.3061 -0.4391  0.5918
 4539SOL    HW215059   2.629   5.006  10.316  2.4857 -2.7345  2.0534
 4540SOL     OW15060   1.131   1.998   1.391  0.4922  0.1754 -0.5040
 4540SOL    HW115061   1.149   1.914   1.434  0.0761  0.1919 -0.2964
 4540SOL    HW215062   1.218   2.035   1.376  0.6489  0.4475  0.8966
 4541SOL     OW15063   7.658   5.624   3.250  0.1662 -0.1089  0.4412
 4541SOL    HW115064   7.589   5.660   3.306  0.1884  2.1715 -0.9015
 4541SOL    HW215065   7.732   5.610   3.310 -0.8586 -0.9686  1.5682
 4542SOL     OW15066   3.450   7.086   9.086 -0.4168  0.1853  0.0821
 4542SOL    HW115067   3.421   6.996   9.100  1.4857 -0.5377 -0.2759
 4542SOL    HW215068   3.535   7.078   9.042  1.0230  2.0543  2.2498
 4543SOL     OW15069   0.083   6.647   4.505 -0.1510  0.0995  0.3922
 4543SOL    HW115070   0.080   6.742   4.494  0.2408  0.3086  1.8636
 4543SOL    HW215071  -0.005   6.617   4.480 -0.0689  0.7449 -0.7528
 4544SOL     OW15072   0.284   3.225   8.057  0.0207 -0.8115  0.4412
 4544SOL    HW115073   0.196   3.249   8.028 -0.0219 -0.0746  1.1524
 4544SOL    HW215074   0.340   3.294   8.023  0.5396 -1.9184 -1.0771
 4545SOL     OW15075   1.561   6.707   3.690  0.3405 -0.1788 -0.2043
 4545SOL    HW115076   1.619   6.686   3.763  0.4158  0.6618 -0.0122
 4545SOL    HW215077   1.602   6.782   3.646 -0.0064 -0.3031 -0.7538
 4546SOL     OW15078   3.419   7.578   7.544  0.0873 -1.0239  0.5116
 4546SOL    HW115079   3.399   7.642   7.475  2.2784 -0.3953  0.3737
 4546SOL    HW215080   3.460   7.630   7.613  1.2949 -2.1641  0.6837
 4547SOL     OW15081   7.229   0.444   3.372 -0.1223  0.2683 -0.2158
 4547SOL    HW115082   7.316   0.482   3.385 -0.3525  0.2684  1.5025
 4547SOL    HW215083   7.174   0.519   3.349  0.2103  0.3466 -0.7849
 4548SOL     OW15084   7.525   1.261   2.085 -0.2356  0.1800 -0.0540
 4548SOL    HW115085   7.619   1.240   2.090 -0.6044 -1.9202 -1.0305
 4548SOL    HW215086   7.482   1.187   2.127 -1.4657  1.4942  1.0813
 4549SOL     OW15087   7.678   7.308   4.634  0.7374  0.2067 -0.0658
 4549SOL    HW115088   7.737   7.294   4.708  0.2143  0.4815  0.4148
 4549SOL    HW215089   7.717   7.380   4.585 -0.3227  1.9291  1.4959
 4550SOL     OW15090   3.487   4.308   4.604 -0.0992  0.2075 -0.3311
 4550SOL    HW115091   3.556   4.246   4.625 -0.5535  0.0835  0.9320
 4550SOL    HW215092   3.533   4.386   4.573  0.5151 -0.4260 -1.0308
 4551SOL     OW15093   4.098   1.643   3.092  0.1000  0.5684  0.3422
 4551SOL    HW115094   4.139   1.560   3.117  0.5308  0.2687 -1.2576
 4551SOL    HW215095   4.004   1.628   3.104  0.1839 -0.1230  0.1710
 4552SOL     OW15096   7.395   3.644   9.597  0.3260 -0.3770  0.0009
 4552SOL    HW115097   7.344   3.593   9.533 -0.1052  0.7830 -0.6040
 4552SOL    HW215098   7.477   3.595   9.606 -0.2106 -1.3746 -0.2790
 4553SOL     OW15099   5.580   4.990   6.069  0.0760  0.4471 -0.7562
 4553SOL    HW115100   5.671   5.001   6.042  0.1975  1.9469  0.1386
 4553SOL    HW215101   5.550   5.079   6.089 -1.1684 -0.1642  0.2502
 4554SOL     OW15102   1.023   5.505   4.333 -0.7711  0.0950 -0.8474
 4554SOL    HW115103   1.057   5.560   4.403 -3.2600  0.3492  0.2677
 4554SOL    HW215104   1.032   5.416   4.367 -3.2226  0.2779  0.5237
 4555SOL     OW15105   2.470   1.169   0.245 -0.3265  0.1494  0.0465
 4555SOL    HW115106   2.519   1.212   0.315  1.0399 -0.9460 -0.1947
 4555SOL    HW215107   2.425   1.240   0.200  0.6453  1.1407  0.5939
 4556SOL     OW15108   4.644   0.381  12.175 -0.3121  0.7000 -0.0516
 4556SOL    HW115109   4.666   0.378  12.268 -0.8086  0.3664  0.0618
 4556SOL    HW215110   4.726   0.359  12.130  0.0218  1.2298  0.2900
 4557SOL     OW15111   3.078   1.002   5.422  0.1130  0.6266  0.5826
 4557SOL    HW115112   3.107   1.000   5.514 -0.6486 -3.7683  0.9225
 4557SOL    HW215113   2.986   1.026   5.426 -0.1020 -0.2418  1.0919
 4558SOL     OW15114   2.800   5.378   3.803  0.1608 -0.1532  0.2096
 4558SOL    HW115115   2.727   5.437   3.784  0.5372  0.0203 -0.7287
 4558SOL    HW215116   2.765   5.291   3.785 -0.0261 -0.1276  0.4384
 4559SOL     OW15117   6.997   2.547   6.560 -0.4043  0.1942 -0.0345
 4559SOL    HW115118   7.084   2.515   6.585 -1.5269 -1.6825  1.7329
 4559SOL    HW215119   6.995   2.537   6.465  1.4880  0.8467 -0.1877
 4560SOL     OW15120   4.799   6.989   3.391  0.2622 -0.1466 -0.1253
 4560SOL    HW115121   4.760   6.923   3.333  0.2433 -0.7190  0.5252
 4560SOL    HW215122   4.775   6.960   3.479 -0.8536  1.4302  0.1417
 4561SOL     OW15123   0.192   0.749   4.552  0.0985  0.2383 -0.2822
 4561SOL    HW115124   0.253   0.745   4.625 -0.6030 -1.8590  0.2569
 4561SOL    HW215125   0.176   0.843   4.540  3.6428  0.9276 -0.7103
 4562SOL     OW15126   1.930   6.012   3.172  0.3017  0.4220  0.2557
 4562SOL    HW115127   1.940   6.043   3.262 -0.6029  1.2608  0.0736
 4562SOL    HW215128   1.837   5.991   3.163  0.3413  0.5479 -0.5506
 4563SOL     OW15129   0.933   7.589   3.431  0.7985 -0.0098 -0.3582
 4563SOL    HW115130   0.875   7.524   3.472  0.9872 -0.5307 -0.9039
 4563SOL    HW215131   0.893   7.673   3.451 -0.9426 -0.4102 -1.8944
 4564SOL     OW15132   2.735   1.164   6.890 -0.3366 -0.1057  0.2830
 4564SOL    HW115133   2.767   1.095   6.948 -0.2823 -0.4404 -0.1408
 4564SOL    HW215134   2.789   1.240   6.911 -0.6053 -0.0920  0.9766
 4565SOL     OW15135   6.869   4.901   9.843  0.1548  0.1352 -0.0781
 4565SOL    HW115136   6.898   4.827   9.790 -0.0257  0.2823 -0.3873
 4565SOL    HW215137   6.844   4.862   9.927  1.0276 -0.0235  0.1211
 4566SOL     OW15138   0.277   1.729   6.382  0.0840 -0.1569 -0.1528
 4566SOL    HW115139   0.260   1.796   6.316 -0.9811  0.0608  0.3311
 4566SOL    HW215140   0.373   1.730   6.392  0.0957  1.3485 -0.1021
 4567SOL     OW15141   5.073   4.526   6.178  0.1568 -0.2631  0.0026
 4567SOL    HW115142   5.112   4.488   6.257 -2.3433 -0.3760  1.2966
 4567SOL    HW215143   4.999   4.577   6.210 -1.0521 -0.4469 -2.2786
 4568SOL     OW15144   4.343   2.553  10.420 -0.1273  0.3236 -0.9594
 4568SOL    HW115145   4.329   2.495  10.345  0.3115  0.3866 -1.0918
 4568SOL    HW215146   4.364   2.494  10.492  2.0096  0.3844 -1.4771
 4569SOL     OW15147   5.738   3.409   3.298  0.2083 -0.3839  0.1050
 4569SOL    HW115148   5.688   3.479   3.256  2.3403  0.6836 -0.8235
 4569SOL    HW215149   5.682   3.379   3.369 -1.7262  0.7007 -0.8808
 4570SOL     OW15150   1.531   0.640   1.148  0.4115 -0.1432 -0.5817
 4570SOL    HW115151   1.459   0.695   1.116  3.7418  4.9507 -0.4808
 4570SOL    HW215152   1.539   0.663   1.241  1.1113 -2.0227 -0.1314
 4571SOL     OW15153   0.873   6.754   7.838 -0.6289 -0.8309  0.5051
 4571SOL    HW115154   0.887   6.842   7.802 -1.4212 -0.7867  0.2783
 4571SOL    HW215155   0.807   6.715   7.780  0.3119 -1.8804  0.1126
 4572SOL     OW15156   7.389   3.111   9.484  0.5180  0.3724  0.3880
 4572SOL    HW115157   7.320   3.173   9.459  0.2650 -0.0025  0.1619
 4572SOL    HW215158   7.429   3.085   9.401 -0.6592 -1.2715  0.2969
 4573SOL     OW15159   6.822   5.198   9.958  0.4968 -0.0628 -0.1123
 4573SOL    HW115160   6.837   5.106   9.936 -2.3128 -0.2016 -1.8720
 4573SOL    HW215161   6.886   5.245   9.905  1.2693 -0.9086  0.0234
 4574SOL     OW15162   6.396   5.354   6.847  0.2146  0.2209  0.1811
 4574SOL    HW115163   6.368   5.367   6.756 -0.5219 -1.3269  0.1569
 4574SOL    HW215164   6.479   5.308   6.840 -0.3283 -0.8113  0.2642
 4575SOL     OW15165   4.922   2.040   1.152 -0.1615  0.3521 -0.0316
 4575SOL    HW115166   4.880   2.122   1.180 -0.8529  0.2338 -0.6780
 4575SOL    HW215167   4.932   2.050   1.057 -0.3447 -0.3586 -0.1273
 4576SOL     OW15168   1.660   4.693   8.605  0.2325  0.1833 -0.1066
 4576SOL    HW115169   1.573   4.733   8.599 -0.0503 -0.5311 -1.0997
 4576SOL    HW215170   1.648   4.617   8.662 -0.0811 -0.5946 -1.1808
 4577SOL     OW15171   2.556   0.281   4.060  0.2544 -0.4394 -0.0212
 4577SOL    HW115172   2.571   0.217   3.991  0.2392  0.7734 -1.1928
 4577SOL    HW215173   2.642   0.321   4.075  0.9173 -2.5897  2.7120
 4578SOL     OW15174   3.533   6.060   8.764 -0.0118  0.0507  0.5167
 4578SOL    HW115175   3.526   6.119   8.688  0.0962  1.5235  1.5961
 4578SOL    HW215176   3.627   6.046   8.775  0.0129  0.4183  0.7934
 4579SOL     OW15177   4.518   1.610   3.505 -0.0582 -0.1178  1.0984
 4579SOL    HW115178   4.511   1.692   3.457 -0.3222 -0.2342  0.9387
 4579SOL    HW215179   4.581   1.557   3.456  1.4487  0.6421  2.1308
 4580SOL     OW15180   4.727   7.791   3.426  0.0972 -0.6194  0.3644
 4580SOL    HW115181   4.653   7.827   3.475  0.0903  1.4572 -1.0031
 4580SOL    HW215182   4.691   7.713   3.383 -1.1655  0.0288  0.1757
 4581SOL     OW15183   1.964   7.383   7.652 -0.2843 -0.1039 -0.1410
 4581SOL    HW115184   1.954   7.364   7.559 -0.3787 -1.7208  0.1645
 4581SOL    HW215185   2.056   7.408   7.662  0.6416 -3.1065 -0.2300
 4582SOL     OW15186   2.575   6.996  11.666  0.2202  0.1649 -0.5539
 4582SOL    HW115187   2.494   6.973  11.622 -1.2254  1.2577  1.3665
 4582SOL    HW215188   2.635   6.924  11.646 -0.5609  0.2507 -3.5605
 4583SOL     OW15189   0.555   1.947   1.011  0.2590  0.2287 -0.8170
 4583SOL    HW115190   0.561   2.013   1.080  0.5959  0.7377 -1.3245
 4583SOL    HW215191   0.489   1.980   0.951  0.4736  0.1342 -1.1084
 4584SOL     OW15192   1.029   1.661   8.875 -0.6294  0.2600 -0.5133
 4584SOL    HW115193   1.043   1.576   8.832 -0.7565  0.0455 -0.1313
 4584SOL    HW215194   1.020   1.723   8.802 -1.0012 -0.1277 -0.8021
 4585SOL     OW15195   2.307   2.400   2.080 -0.4349  0.2581  0.0987
 4585SOL    HW115196   2.365   2.462   2.037 -1.5114  0.8721 -0.5169
 4585SOL    HW215197   2.221   2.415   2.040 -0.8660 -1.1633  0.4238
 4586SOL     OW15198   4.265   3.116   6.069 -0.5441 -0.1655  0.2712
 4586SOL    HW115199   4.219   3.115   5.985  0.9537 -0.4276 -0.5710
 4586SOL    HW215200   4.278   3.023   6.089  0.5343 -0.0868 -0.0297
 4587SOL     OW15201   6.344   3.414   5.201  0.0659 -0.4760  0.3369
 4587SOL    HW115202   6.343   3.320   5.183  2.8065 -0.4645 -0.3801
 4587SOL    HW215203   6.377   3.453   5.120 -0.7639  1.0896  0.7278
 4588SOL     OW15204   0.191   2.724   0.423 -0.0818  0.5723  0.1917
 4588SOL    HW115205   0.148   2.787   0.365 -0.7482  0.1197  0.1797
 4588SOL    HW215206   0.220   2.653   0.365  3.0210  1.9899 -0.2210
 4589SOL     OW15207   5.696   2.752  10.371  0.0483 -0.6905 -0.3819
 4589SOL    HW115208   5.639   2.829  10.365 -0.2588 -0.8485  0.3488
 4589SOL    HW215209   5.775   2.785  10.415  1.0283 -0.2146 -2.3658
 4590SOL     OW15210   3.528   6.540   4.507  0.2459 -0.1814  0.0756
 4590SOL    HW115211   3.524   6.466   4.569  1.6262  0.7355  1.3253
 4590SOL    HW215212   3.620   6.542   4.480  0.1443  0.8852 -0.1943
 4591SOL     OW15213   0.662   4.284  11.601  0.1056 -0.3021  0.3874
 4591SOL    HW115214   0.597   4.343  11.564 -2.2530 -1.5082  2.3549
 4591SOL    HW215215   0.718   4.261  11.527 -1.5068  1.0404 -1.3445
 4592SOL     OW15216   5.383   6.101   7.955 -0.4087 -0.8707 -0.8344
 4592SOL    HW115217   5.398   6.126   8.046  0.4569  0.0633 -1.2176
 4592SOL    HW215218   5.469   6.070   7.924 -0.3048  0.3053 -1.7749
 4593SOL     OW15219   4.562   5.438   0.506  0.2023  0.4922 -0.1736
 4593SOL    HW115220   4.515   5.401   0.581  0.9626  1.3440  0.7556
 4593SOL    HW215221   4.510   5.514   0.481  0.5052  0.8112  0.1629
 4594SOL     OW15222   4.890   1.750   8.957  0.2068  0.0278 -0.2732
 4594SOL    HW115223   4.954   1.747   8.886  1.2700  0.3128  0.6422
 4594SOL    HW215224   4.833   1.676   8.941 -0.0531  0.5375 -1.8551
 4595SOL     OW15225   5.675   5.843   9.366 -0.0884 -0.3703 -0.1489
 4595SOL    HW115226   5.585   5.816   9.386  0.2568 -1.9996 -0.6546
 4595SOL    HW215227   5.699   5.790   9.290  0.5549  1.6595 -1.4379
 4596SOL     OW15228   4.121   5.989   7.142  0.1713 -0.3772  0.1615
 4596SOL    HW115229   4.082   5.979   7.055  0.4098  0.3017 -0.0301
 4596SOL    HW215230   4.121   5.900   7.178  1.1383 -0.8800 -0.9912
 4597SOL     OW15231   5.685   6.976   2.088  0.1210 -0.2536 -0.8220
 4597SOL    HW115232   5.778   6.990   2.067  0.2297 -0.5265 -0.5303
 4597SOL    HW215233   5.685   6.960   2.182 -0.2704  0.1493 -0.7492
 4598SOL     OW15234   3.401   5.521   9.868  0.0352 -0.0832 -0.7082
 4598SOL    HW115235   3.458   5.473   9.929 -0.2358  0.2068 -0.2170
 4598SOL    HW215236   3.453   5.596   9.840 -0.6649  1.1228  1.0524
 4599SOL     OW15237   4.495   7.013   2.493  0.3714  0.5775 -0.0805
 4599SOL    HW115238   4.489   6.943   2.429 -3.8508  0.1451  0.4728
 4599SOL    HW215239   4.521   7.090   2.443  0.5869 -0.4381 -1.5783
 4600SOL     OW15240   6.502   7.000   0.705  0.0251 -0.9072 -0.2763
 4600SOL    HW115241   6.549   7.009   0.788 -0.6971 -0.6868  0.1188
 4600SOL    HW215242   6.557   6.942   0.653  0.0303 -1.8329  0.7119
 4601SOL     OW15243   7.162   2.386   8.369 -0.4481 -0.5094 -0.1321
 4601SOL    HW115244   7.225   2.314   8.379 -0.9699 -0.9365  0.1934
 4601SOL    HW215245   7.153   2.398   8.275 -0.3909 -0.9101 -0.1905
 4602SOL     OW15246   7.515   5.270   3.618  0.1741  0.7036 -0.1340
 4602SOL    HW115247   7.528   5.178   3.597  1.3214  0.5723  0.9964
 4602SOL    HW215248   7.577   5.287   3.689  3.2875  3.4339 -3.1260
 4603SOL     OW15249   2.496   5.614  10.622  0.7412  0.0552 -0.0066
 4603SOL    HW115250   2.540   5.622  10.538  2.3286 -1.2002  0.6476
 4603SOL    HW215251   2.484   5.519  10.634 -0.5267  0.2783  0.6674
 4604SOL     OW15252   5.796   5.373   3.731 -0.4120  0.1677  0.4013
 4604SOL    HW115253   5.886   5.405   3.721 -0.3447  0.5678  1.9725
 4604SOL    HW215254   5.807   5.282   3.760 -0.5191  0.0626  0.1063
 4605SOL     OW15255   6.469   5.897   2.035  0.1779 -0.6761  0.2248
 4605SOL    HW115256   6.514   5.848   2.103 -0.1991 -2.4090 -0.7265
 4605SOL    HW215257   6.473   5.842   1.957 -1.6958  0.0543 -0.4727
 4606SOL     OW15258   3.830   1.728   3.714 -0.3962 -0.1934  0.3154
 4606SOL    HW115259   3.896   1.783   3.673 -1.5118  1.1859  0.2949
 4606SOL    HW215260   3.795   1.782   3.786  0.0223 -1.7281  1.7459
 4607SOL     OW15261   2.260   6.244   3.314  0.0689  0.1619 -0.2288
 4607SOL    HW115262   2.198   6.314   3.332 -0.1905  0.2443 -1.3587
 4607SOL    HW215263   2.279   6.252   3.220  0.7035 -0.7336 -0.1927
 4608SOL     OW15264   0.925   6.401   9.810  0.0449  0.1804  0.2426
 4608SOL    HW115265   0.885   6.487   9.828 -0.1037 -0.0602  1.1386
 4608SOL    HW215266   0.850   6.343   9.796  0.1460  0.1943 -0.3541
 4609SOL     OW15267   0.773   3.038  12.282 -0.9420  0.3924 -0.2391
 4609SOL    HW115268   0.830   2.961  12.282 -1.0985  0.2671 -1.0293
 4609SOL    HW215269   0.831   3.111  12.304 -0.8311  0.0310  0.7156
 4610SOL     OW15270   0.295   3.696   7.084 -0.1907 -0.0302  0.2134
 4610SOL    HW115271   0.322   3.621   7.031 -1.2932 -0.4708  0.2333
 4610SOL    HW215272   0.368   3.711   7.144  0.6717 -0.1297 -0.7865
 4611SOL     OW15273   6.368   5.470   1.876  0.5150 -0.1991 -0.3505
 4611SOL    HW115274   6.446   5.435   1.832 -0.2964 -1.4640 -0.8581
 4611SOL    HW215275   6.297   5.456   1.813 -0.7078 -2.1684  1.3412
 4612SOL     OW15276   2.604   0.598   8.396 -1.0500 -0.1084 -0.0767
 4612SOL    HW115277   2.655   0.614   8.317  1.6279  0.7468  1.6763
 4612SOL    HW215278   2.632   0.667   8.456 -3.5366 -0.2851  1.3919
 4613SOL     OW15279   3.033   7.509  12.381 -0.7256 -0.2401  0.0314
 4613SOL    HW115280   3.058   7.547  12.465 -0.0242  1.5281 -0.9316
 4613SOL    HW215281   3.056   7.417  12.388  0.7543  0.1951  1.2357
 4614SOL     OW15282   2.419   6.045   1.359 -0.4471  0.2728 -0.0625
 4614SOL    HW115283   2.443   6.093   1.439 -0.1540 -1.0732  0.6907
 4614SOL    HW215284   2.451   6.101   1.288 -2.4031  2.4471  0.6296
 4615SOL     OW15285   5.786   7.679   4.978  0.0731  0.1615 -0.1320
 4615SOL    HW115286   5.760   7.680   4.886 -1.2554 -0.0497  0.2271
 4615SOL    HW215287   5.878   7.650   4.976  0.3582  1.0630 -1.4395
 4616SOL     OW15288   3.509   3.337  11.595  0.0580  0.7601  0.4563
 4616SOL    HW115289   3.511   3.242  11.606 -0.2800  0.5089 -1.3464
 4616SOL    HW215290   3.416   3.359  11.592  0.0578  0.7036 -2.0477
 4617SOL     OW15291   6.758   3.335   2.933 -0.1470  0.0652 -0.1517
 4617SOL    HW115292   6.814   3.381   2.996 -0.8822  1.7504 -0.6728
 4617SOL    HW215293   6.741   3.250   2.974  2.5774 -0.4355  0.1096
 4618SOL     OW15294   4.283   1.280   0.396  0.0107 -0.1480 -0.2990
 4618SOL    HW115295   4.299   1.189   0.422 -2.5679 -0.4213  0.6374
 4618SOL    HW215296   4.309   1.284   0.304  2.3688 -1.1628  0.2497
 4619SOL     OW15297   2.417   5.083  11.865 -0.4501 -0.5126  0.1406
 4619SOL    HW115298   2.328   5.074  11.899 -0.9684 -0.7883 -1.2202
 4619SOL    HW215299   2.405   5.115  11.775  0.8991  1.5987  0.6217
 4620SOL     OW15300   1.055   5.480   7.324  0.4327  0.1580 -0.5084
 4620SOL    HW115301   1.150   5.489   7.318  0.4795  0.1868  0.1768
 4620SOL    HW215302   1.032   5.422   7.252  1.0078 -0.0894 -0.4990
 4621SOL     OW15303   7.367   2.476   5.886 -0.5620  0.5939  0.4154
 4621SOL    HW115304   7.341   2.562   5.919  2.2203  1.6872  0.0246
 4621SOL    HW215305   7.388   2.491   5.794 -1.0162 -0.7785  0.0520
 4622SOL     OW15306   2.602   3.852  10.658  0.3499 -0.3404 -0.3097
 4622SOL    HW115307   2.588   3.797  10.581  0.2602 -0.2613 -0.3512
 4622SOL    HW215308   2.682   3.819  10.698  0.4827 -0.2803 -0.5254
 4623SOL     OW15309   2.626   2.314  12.206  0.5313 -0.4722  0.1970
 4623SOL    HW115310   2.667   2.399  12.193 -0.0415 -0.1007  0.7577
 4623SOL    HW215311   2.692   2.250  12.179  0.7467  0.1624 -0.8063
 4624SOL     OW15312   5.109   1.156   3.183  0.6633 -0.8374  0.3202
 4624SOL    HW115313   5.198   1.144   3.217  0.8448 -1.2388 -0.2906
 4624SOL    HW215314   5.119   1.154   3.088  0.0556 -0.4585  0.2441
 4625SOL     OW15315   6.320   3.633  12.046  0.1783 -0.4495 -0.0732
 4625SOL    HW115316   6.226   3.646  12.057  0.5407  0.6423  2.1328
 4625SOL    HW215317   6.335   3.644  11.952 -1.6745  0.8821 -0.2568
 4626SOL     OW15318   6.949   1.295  11.967 -0.4374 -0.3145  0.2695
 4626SOL    HW115319   7.016   1.252  11.914 -0.0794  1.8578 -1.1433
 4626SOL    HW215320   6.997   1.362  12.016 -1.3832  0.4535  0.1621
 4627SOL     OW15321   4.540   7.311   7.669 -0.6117 -0.0864 -0.0457
 4627SOL    HW115322   4.619   7.330   7.720  1.0682 -1.6564 -1.8919
 4627SOL    HW215323   4.525   7.390   7.617 -0.4190  0.3086  0.4889
 4628SOL     OW15324   1.137   5.618  10.521 -0.2264  0.3232  0.2597
 4628SOL    HW115325   1.151   5.713  10.525 -0.2631  0.4097 -1.2737
 4628SOL    HW215326   1.151   5.595  10.429  0.6013 -1.3000  0.7466
 4629SOL     OW15327   2.631   5.462   0.631  0.4932 -0.4180 -0.3663
 4629SOL    HW115328   2.643   5.557   0.628 -2.1529  0.1661  2.3863
 4629SOL    HW215329   2.707   5.430   0.679 -1.1248  1.2045  3.7201
 4630SOL     OW15330   3.833   5.838  10.813 -0.0883  0.3376  0.0164
 4630SOL    HW115331   3.847   5.904  10.880 -2.1362 -0.3339  1.1980
 4630SOL    HW215332   3.747   5.860  10.775  0.1888 -0.3852 -1.0901
 4631SOL     OW15333   4.353   6.976   7.670  0.1367  0.0579 -0.2463
 4631SOL    HW115334   4.301   7.057   7.676 -0.3443 -0.3293  1.2982
 4631SOL    HW215335   4.299   6.910   7.713  0.8656 -0.9293 -0.8013
 4632SOL     OW15336   7.519   3.167  10.165 -0.5667 -0.0987 -0.0301
 4632SOL    HW115337   7.451   3.102  10.183  0.5815 -1.0391  1.1365
 4632SOL    HW215338   7.473   3.251  10.163 -1.9295 -0.8323 -0.5486
 4633SOL     OW15339   6.737   5.589   1.503  0.1041 -0.4688  0.0778
 4633SOL    HW115340   6.674   5.646   1.546  0.5641 -0.0687  0.2180
 4633SOL    HW215341   6.684   5.537   1.442 -0.2752  0.3101 -0.2686
 4634SOL     OW15342   6.921   0.341   6.048  0.0769 -0.1326  0.0582
 4634SOL    HW115343   6.974   0.267   6.080 -1.2605 -1.0885  0.1464
 4634SOL    HW215344   6.864   0.302   5.982  0.2731  1.1164 -0.8776
 4635SOL     OW15345   7.844   4.908   6.648 -0.2460 -0.1839  0.0634
 4635SOL    HW115346   7.768   4.851   6.656 -0.4588  0.1159  0.1805
 4635SOL    HW215347   7.904   4.878   6.716  0.4652 -1.5173 -1.0850
 4636SOL     OW15348   1.236   3.911   8.565 -0.0762 -0.0862  0.1763
 4636SOL    HW115349   1.331   3.904   8.575  0.0256  0.9605  0.0537
 4636SOL    HW215350   1.205   3.820   8.569  1.0975 -0.6103 -1.4937
 4637SOL     OW15351   0.372   1.762   9.772  0.4077  0.1176 -0.5232
 4637SOL    HW115352   0.301   1.699   9.785 -0.8933  1.7580  0.8466
 4637SOL    HW215353   0.452   1.714   9.795 -0.4838 -1.1535  0.0015
 4638SOL     OW15354   3.525   5.455   9.507  0.3522  0.2024 -0.2190
 4638SOL    HW115355   3.545   5.414   9.423 -0.0623 -0.5908  0.0592
 4638SOL    HW215356   3.581   5.532   9.510  1.9315 -0.9088 -0.3007
 4639SOL     OW15357   4.942   7.398   0.142 -0.1659  0.0561 -0.0120
 4639SOL    HW115358   4.852   7.424   0.159 -0.1506  0.3192 -0.3128
 4639SOL    HW215359   4.938   7.350   0.059  0.0170  0.3481 -0.1909
 4640SOL     OW15360   0.903   1.926  11.219  0.4132  0.0528  0.4801
 4640SOL    HW115361   0.934   1.853  11.166  0.0134 -0.0499  0.3815
 4640SOL    HW215362   0.811   1.906  11.236 -0.7868  2.2102 -2.5309
 4641SOL     OW15363   7.489   7.508   1.457 -0.0650  0.8266 -0.0621
 4641SOL    HW115364   7.491   7.603   1.448 -2.0034  1.0342  1.0149
 4641SOL    HW215365   7.490   7.493   1.552 -2.1288 -0.0837 -0.1366
 4642SOL     OW15366   7.679   4.493   9.550  0.3032 -0.6662  0.5408
 4642SOL    HW115367   7.750   4.501   9.486 -0.2214 -1.1196 -0.1133
 4642SOL    HW215368   7.705   4.550   9.622  0.3099  0.8995 -0.6367
 4643SOL     OW15369   1.488   5.003   4.214 -0.1721 -0.2429 -0.1970
 4643SOL    HW115370   1.491   5.088   4.171  0.2596 -0.3517 -0.3814
 4643SOL    HW215371   1.396   4.976   4.205 -0.0117 -0.4595 -1.4404
 4644SOL     OW15372   7.289   3.671   7.575  0.4723 -0.0177 -0.6084
 4644SOL    HW115373   7.308   3.607   7.507 -0.1067  0.0397 -0.8274
 4644SOL    HW215374   7.375   3.701   7.604  0.9159 -2.5878  1.1477
 4645SOL     OW15375   6.886   0.209   2.138 -0.5903  0.1370 -0.3261
 4645SOL    HW115376   6.905   0.175   2.051  1.2026 -1.2298  0.5254
 4645SOL    HW215377   6.799   0.248   2.130 -0.6221 -0.2504 -2.6197
 4646SOL     OW15378   4.224   2.556   3.764 -0.2735 -0.5189 -0.4946
 4646SOL    HW115379   4.253   2.598   3.683  0.3790 -1.1190 -0.5859
 4646SOL    HW215380   4.300   2.506   3.794 -0.0807  0.7170  1.2001
 4647SOL     OW15381   4.702   0.358   9.538 -0.5206  0.3184  0.1272
 4647SOL    HW115382   4.651   0.356   9.458 -0.6368 -0.5923  0.2203
 4647SOL    HW215383   4.790   0.332   9.512 -0.9526 -1.7233  0.5617
 4648SOL     OW15384   0.523   6.942   7.855  0.3825 -0.2407  0.6110
 4648SOL    HW115385   0.483   6.856   7.847  2.5435 -1.3213  0.6288
 4648SOL    HW215386   0.587   6.946   7.783 -0.3910  1.7980 -0.0369
 4649SOL     OW15387   7.885   5.319  11.274  0.6110  0.0426  0.6455
 4649SOL    HW115388   7.825   5.347  11.206  0.0801 -1.3347  0.5253
 4649SOL    HW215389   7.971   5.321  11.232  0.7261  2.1379  0.8537
 4650SOL     OW15390   0.364   2.480   5.145  0.1188  0.6201  0.8306
 4650SOL    HW115391   0.346   2.535   5.069 -0.1404 -0.1539  0.3199
 4650SOL    HW215392   0.282   2.434   5.162  0.4843 -0.0166  0.9096
 4651SOL     OW15393   6.059   2.746   7.372  0.4854  0.4172  0.7493
 4651SOL    HW115394   6.021   2.801   7.304  1.2566 -0.3853 -0.3798
 4651SOL    HW215395   6.043   2.793   7.454 -2.1679  0.4879  0.2597
 4652SOL     OW15396   4.582   0.974  11.949  0.0764 -0.1978  0.1915
 4652SOL    HW115397   4.544   0.925  12.022 -0.8301  1.2813  0.7515
 4652SOL    HW215398   4.647   1.031  11.989 -1.2444  1.4813  0.0690
 4653SOL     OW15399   7.354   3.877   0.286 -0.0350 -0.1640 -0.0434
 4653SOL    HW115400   7.327   3.800   0.238 -0.6812 -0.0338  0.0895
 4653SOL    HW215401   7.271   3.921   0.309  0.2763  0.0738  0.6762
 4654SOL     OW15402   1.606   2.453   7.635 -0.3690 -0.4629 -0.2014
 4654SOL    HW115403   1.532   2.470   7.693  1.2980  1.5408  1.5279
 4654SOL    HW215404   1.613   2.532   7.581  1.3924  0.1147  0.7815
 4655SOL     OW15405   0.454   2.831   3.911  0.4960  0.1952 -0.6035
 4655SOL    HW115406   0.465   2.744   3.951 -0.3457 -0.4559 -1.7350
 4655SOL    HW215407   0.541   2.871   3.917  1.0429 -0.9458 -0.5677
 4656SOL     OW15408   1.723   3.579  11.625 -0.6842 -0.3067 -0.4357
 4656SOL    HW115409   1.758   3.608  11.709 -2.4887  0.3071  0.1534
 4656SOL    HW215410   1.686   3.658  11.585  1.9162 -0.1500 -2.8075
 4657SOL     OW15411   2.460   4.736   9.704  0.1777 -1.1112 -0.0025
 4657SOL    HW115412   2.526   4.738   9.635  0.0764 -1.2619 -0.1042
 4657SOL    HW215413   2.457   4.644   9.731 -0.3573 -1.2059 -0.3578
 4658SOL     OW15414   0.751   2.000   2.927  0.3105 -0.0548 -0.3954
 4658SOL    HW115415   0.829   2.046   2.957 -0.6513  1.5531 -0.2582
 4658SOL    HW215416   0.785   1.931   2.869  1.9730 -1.0100  1.5754
 4659SOL     OW15417   4.000   7.643   3.081 -0.4165  0.4051  0.6069
 4659SOL    HW115418   4.037   7.565   3.040 -0.9338  0.0223  0.8672
 4659SOL    HW215419   3.931   7.672   3.021 -2.0809 -0.9124  1.7814
 4660SOL     OW15420   1.288   7.302   1.690 -0.2501 -0.2946 -0.6133
 4660SOL    HW115421   1.360   7.352   1.653 -0.3940  1.1383  0.9116
 4660SOL    HW215422   1.222   7.301   1.621  0.7869 -0.6874 -1.6262
 4661SOL     OW15423   4.436   5.630   1.598  0.5435 -0.0503 -0.2152
 4661SOL    HW115424   4.451   5.619   1.504  0.2556  1.3321 -0.4432
 4661SOL    HW215425   4.371   5.700   1.604  0.8193  0.1246  1.0200
 4662SOL     OW15426   4.903   3.173   3.342 -0.1768 -0.3078  0.4426
 4662SOL    HW115427   4.869   3.245   3.289 -0.6997 -1.4133 -0.7938
 4662SOL    HW215428   4.825   3.124   3.369  0.1472 -0.2312  1.5570
 4663SOL     OW15429   1.961   7.111  11.495  0.1558  0.4146  0.2132
 4663SOL    HW115430   1.956   7.020  11.465 -0.1818  0.5096 -0.0350
 4663SOL    HW215431   1.895   7.156  11.442 -1.7272  0.2702  2.2933
 4664SOL     OW15432   3.561   1.839  11.441 -0.3189  0.3569 -0.2722
 4664SOL    HW115433   3.600   1.787  11.371  1.3668 -0.7999  1.4312
 4664SOL    HW215434   3.582   1.929  11.419  0.9556 -0.0521 -0.8311
 4665SOL     OW15435   7.171   6.650   6.178 -0.1743  0.2246 -0.0784
 4665SOL    HW115436   7.162   6.715   6.108  0.5873 -1.5401 -1.8963
 4665SOL    HW215437   7.084   6.609   6.184 -0.2929  0.5070  0.1547
 4666SOL     OW15438   2.861   7.822   7.754 -0.0790 -0.2817 -0.0833
 4666SOL    HW115439   2.834   7.876   7.680 -0.9805 -1.8565 -0.9619
 4666SOL    HW215440   2.812   7.740   7.743  2.6996 -2.0891  0.0216
 4667SOL     OW15441   6.727   3.747   4.219  0.1256  0.2682 -0.0033
 4667SOL    HW115442   6.772   3.788   4.145 -1.0694  0.2251 -0.7639
 4667SOL    HW215443   6.789   3.680   4.250  0.0002 -0.8566 -2.0114
 4668SOL     OW15444   4.321   6.456  11.264  0.2090  0.4968 -0.3081
 4668SOL    HW115445   4.400   6.414  11.299  0.5000 -0.6528 -2.1583
 4668SOL    HW215446   4.310   6.535  11.317  1.8900  0.0518  0.7997
 4669SOL     OW15447   2.969   1.798   4.993 -0.4764  0.3404  0.4708
 4669SOL    HW115448   2.957   1.853   4.916  0.0011 -0.8581 -0.5117
 4669SOL    HW215449   2.946   1.710   4.963  1.6505 -0.5088  1.0757
 4670SOL     OW15450   5.298   4.241   4.305  0.4121 -0.2046 -0.2110
 4670SOL    HW115451   5.249   4.301   4.362  0.4960 -0.3509  0.0184
 4670SOL    HW215452   5.241   4.226   4.230  0.0811 -0.4191  0.0791
 4671SOL     OW15453   3.910   1.396   5.020  0.9033 -0.2646  0.2122
 4671SOL    HW115454   3.970   1.346   4.964  1.1742 -0.0751  0.3297
 4671SOL    HW215455   3.954   1.480   5.032  0.7644 -0.2435  0.5660
 4672SOL     OW15456   6.334   3.382   3.732 -0.5549  0.1516 -0.5956
 4672SOL    HW115457   6.326   3.301   3.682  1.3465 -0.4498 -0.0305
 4672SOL    HW215458   6.244   3.410   3.747 -1.3221 -2.3369 -0.0747
 4673SOL     OW15459   4.222   3.583  11.105 -0.2017  0.0252 -0.1804
 4673SOL    HW115460   4.132   3.612  11.088 -0.7821 -1.6805 -0.2162
 4673SOL    HW215461   4.213   3.516  11.172  1.1915  0.6276  0.6470
 4674SOL     OW15462   6.396   0.217   9.734  0.0451  0.2757 -0.7617
 4674SOL    HW115463   6.368   0.272   9.807  1.2566 -1.2906  0.9643
 4674SOL    HW215464   6.318   0.167   9.711  0.4167 -1.7708  1.9016
 4675SOL     OW15465   4.164   7.799   0.830 -0.4773 -0.2939  0.9553
 4675SOL    HW115466   4.134   7.775   0.742 -0.4251 -1.6351  1.2891
 4675SOL    HW215467   4.259   7.788   0.826 -0.3622  0.6065  0.9090
 4676SOL     OW15468   1.978   6.479   5.864 -0.1515  0.5894  0.9292
 4676SOL    HW115469   1.894   6.525   5.858 -0.1039  0.4822 -2.0685
 4676SOL    HW215470   2.042   6.541   5.828  0.4761 -0.5066  0.0961
 4677SOL     OW15471   0.820   3.986   0.290 -0.1587 -0.2053  0.3298
 4677SOL    HW115472   0.726   4.004   0.292 -0.4560 -1.6877  1.6082
 4677SOL    HW215473   0.826   3.894   0.265  0.9483 -0.2012  0.5420
 4678SOL     OW15474   5.067   4.875   0.168 -0.0299  0.2125  0.1851
 4678SOL    HW115475   4.973   4.861   0.178  0.4442 -2.0331  2.6336
 4678SOL    HW215476   5.081   4.966   0.194 -1.4354  0.3142  0.6413
 4679SOL     OW15477   2.760   4.694  12.118  0.1685  0.4661  0.0650
 4679SOL    HW115478   2.700   4.620  12.123  1.2663 -0.4915 -0.3518
 4679SOL    HW215479   2.826   4.666  12.054  1.5221  1.1187  1.1253
 4680SOL     OW15480   4.917   0.392   0.241 -0.0538 -0.3511  0.1972
 4680SOL    HW115481   4.971   0.425   0.169  0.5787 -0.8152  0.4513
 4680SOL    HW215482   4.964   0.315   0.273 -0.0255  0.1682  1.4602
 4681SOL     OW15483   6.878   1.308   3.171  0.3372  0.0151  0.6184
 4681SOL    HW115484   6.848   1.399   3.182  0.4758  0.1433 -0.0324
 4681SOL    HW215485   6.840   1.261   3.245 -2.8076 -0.1674 -0.9355
 4682SOL     OW15486   0.638   1.836  11.246 -0.1933 -0.1402 -0.3136
 4682SOL    HW115487   0.683   1.777  11.185 -0.3892  0.4085 -0.9887
 4682SOL    HW215488   0.599   1.777  11.311  1.2725 -0.6420  0.1421
 4683SOL     OW15489   3.508   4.357   6.693  0.0244  0.0183 -0.6442
 4683SOL    HW115490   3.524   4.343   6.600  0.9599  0.0965 -0.5097
 4683SOL    HW215491   3.579   4.415   6.721  0.1712 -0.5702  0.2576
 4684SOL     OW15492   1.727   2.739   0.489  0.0059 -0.3143  0.2504
 4684SOL    HW115493   1.715   2.723   0.582  0.3328  0.0112  0.3500
 4684SOL    HW215494   1.737   2.652   0.451  0.7010 -0.4073  0.6380
 4685SOL     OW15495   3.772   1.981   1.258  0.3053 -0.7142  0.4455
 4685SOL    HW115496   3.856   1.938   1.276  1.1945  1.1797  1.0722
 4685SOL    HW215497   3.716   1.911   1.224  1.4588 -2.4898  2.0222
 4686SOL     OW15498   5.494   5.577  11.439  0.4990 -0.0989  0.1363
 4686SOL    HW115499   5.426   5.632  11.478  1.7904  1.9327 -0.3333
 4686SOL    HW215500   5.536   5.535  11.514 -0.8799 -0.9618  0.4667
 4687SOL     OW15501   5.009   3.065   2.979  0.3387 -0.4277 -0.1351
 4687SOL    HW115502   4.962   2.996   2.932 -1.6116 -0.3640  1.5671
 4687SOL    HW215503   5.096   3.067   2.939 -0.5253 -1.8052 -2.2310
 4688SOL     OW15504   5.184   6.014  11.882 -0.2139  0.5877  0.0361
 4688SOL    HW115505   5.184   6.080  11.951  0.2641  0.5624  0.0630
 4688SOL    HW215506   5.261   5.960  11.901 -1.3772 -0.8641  0.8710
 4689SOL     OW15507   7.211   5.672  11.182  0.4066  0.4761 -0.0337
 4689SOL    HW115508   7.173   5.719  11.256  1.5064 -0.1393  0.9636
 4689SOL    HW215509   7.142   5.611  11.155 -0.0145  0.7078  0.4959
 4690SOL     OW15510   6.241   2.291   5.044  0.0110  0.3385 -0.2199
 4690SOL    HW115511   6.297   2.213   5.039 -0.2849  0.0265  1.0598
 4690SOL    HW215512   6.302   2.365   5.032  0.3669 -0.0668 -0.9532
 4691SOL     OW15513   7.018   5.394   1.138 -0.3208  0.4900  0.1156
 4691SOL    HW115514   7.022   5.362   1.048 -1.4417 -0.8235  0.4791
 4691SOL    HW215515   7.109   5.396   1.167 -0.0982 -2.0371 -0.1169
 4692SOL     OW15516   6.057   4.565   4.174 -0.0556  0.1251  0.2418
 4692SOL    HW115517   5.962   4.571   4.179  0.0381  1.5517  1.1852
 4692SOL    HW215518   6.078   4.474   4.195 -1.1992 -0.1495  0.2221
 4693SOL     OW15519   6.011   4.172   3.564  0.8654  0.2128  0.0824
 4693SOL    HW115520   6.054   4.217   3.492  1.4853 -0.0868  0.2653
 4693SOL    HW215521   6.080   4.153   3.626  0.7372 -1.5199 -0.2545
 4694SOL     OW15522   2.559   3.395   4.167  0.0493 -1.0907  0.1940
 4694SOL    HW115523   2.639   3.447   4.160 -0.5308 -0.1082  0.7044
 4694SOL    HW215524   2.568   3.348   4.251  1.0346 -2.6667 -0.7287
 4695SOL     OW15525   1.527   0.226   0.070 -0.5184  0.1251  0.2075
 4695SOL    HW115526   1.516   0.319   0.088 -0.0141  0.4152 -0.8861
 4695SOL    HW215527   1.526   0.219  -0.025 -2.1287 -1.2041  0.2749
 4696SOL     OW15528   5.558   0.851   6.411 -0.8756  0.5853  0.3835
 4696SOL    HW115529   5.644   0.892   6.423 -1.3699  1.2999  1.7390
 4696SOL    HW215530   5.502   0.923   6.381 -1.3645  0.5098  1.1062
 4697SOL     OW15531   7.245   3.406   8.016 -0.5103  0.6182 -0.1882
 4697SOL    HW115532   7.250   3.491   7.974 -0.1560  1.4461  1.4418
 4697SOL    HW215533   7.249   3.425   8.110 -1.3543 -1.1246  0.2555
 4698SOL     OW15534   7.335   3.734   8.202 -0.4087 -0.5404 -0.4365
 4698SOL    HW115535   7.351   3.729   8.108  0.4492 -1.2609 -0.2633
 4698SOL    HW215536   7.422   3.730   8.241 -0.5752  1.7734  0.3310
 4699SOL     OW15537   5.633   1.427  11.433  0.0446  0.2676 -0.1703
 4699SOL    HW115538   5.706   1.440  11.372 -0.7564  1.6334 -0.8892
 4699SOL    HW215539   5.555   1.438  11.379 -0.8273 -3.5076  0.0437
 4700SOL     OW15540   7.175   4.402  11.331  0.4553  0.6692  1.0192
 4700SOL    HW115541   7.183   4.492  11.361 -0.8379  0.7709  1.1115
 4700SOL    HW215542   7.234   4.396  11.256  0.4907  1.6139  0.9658
 4701SOL     OW15543   2.783   1.718   7.657 -0.0506 -0.3043  0.1591
 4701SOL    HW115544   2.728   1.779   7.706  0.7068 -1.7107  2.9639
 4701SOL    HW215545   2.766   1.632   7.697 -0.2725 -1.8364 -2.9121
 4702SOL     OW15546   3.155   7.901  11.176 -0.4416 -0.3246 -0.6818
 4702SOL    HW115547   3.186   7.817  11.210 -0.4400 -0.5034 -1.1140
 4702SOL    HW215548   3.061   7.889  11.164 -0.9272  0.6036  1.7474
 4703SOL     OW15549   2.527   7.654   4.508  0.6122  0.5533 -0.4571
 4703SOL    HW115550   2.622   7.662   4.518  0.6366 -0.1268 -0.1262
 4703SOL    HW215551   2.492   7.722   4.565  0.8461 -0.9268  1.5241
 4704SOL     OW15552   1.104   0.229   8.328 -0.5323 -0.0618  0.2730
 4704SOL    HW115553   1.167   0.269   8.267 -1.7532  1.5712 -0.0086
 4704SOL    HW215554   1.050   0.172   8.272 -0.8567  0.4674  0.0338
 4705SOL     OW15555   2.057   6.128   7.443  0.0351  0.1670  0.5743
 4705SOL    HW115556   2.099   6.067   7.504 -1.0573  0.4599  1.6705
 4705SOL    HW215557   2.074   6.091   7.357 -0.5892 -1.7058  1.2059
 4706SOL     OW15558   0.869   7.802   1.663 -0.2464  0.5901  0.1153
 4706SOL    HW115559   0.824   7.753   1.594  1.1395  0.7733 -0.9733
 4706SOL    HW215560   0.884   7.889   1.624 -0.0062  0.9077  0.8989
 4707SOL     OW15561   4.758   4.568  12.168 -0.0784  0.3557  0.3160
 4707SOL    HW115562   4.794   4.612  12.245  0.2208  2.5320 -0.9871
 4707SOL    HW215563   4.833   4.525  12.127 -0.2638 -0.9237  1.2776
 4708SOL     OW15564   7.112   3.510   5.059  0.0797 -0.6567 -0.4694
 4708SOL    HW115565   7.034   3.460   5.035  0.4732 -1.7809  0.4991
 4708SOL    HW215566   7.083   3.568   5.129 -0.0052 -0.7047 -0.4641
 4709SOL     OW15567   1.914   2.358   7.952 -0.5621  0.3919  0.2635
 4709SOL    HW115568   1.838   2.412   7.976 -1.1443 -0.8180  1.2469
 4709SOL    HW215569   1.878   2.289   7.897  0.0259  0.4703 -0.2252
 4710SOL     OW15570   0.089   3.873  10.896 -0.0140  0.2561  0.1580
 4710SOL    HW115571   0.095   3.966  10.918 -0.3496  0.1346  0.8002
 4710SOL    HW215572   0.026   3.870  10.825  2.1014  0.8030 -1.8646
 4711SOL     OW15573   5.545   7.518   0.835 -0.1467 -0.5001 -0.0327
 4711SOL    HW115574   5.536   7.581   0.764 -1.6793 -0.0152  0.5636
 4711SOL    HW215575   5.597   7.563   0.901 -0.6340 -0.1147  0.0916
 4712SOL     OW15576   2.176   3.708   2.872 -0.1105  0.1496 -0.2648
 4712SOL    HW115577   2.127   3.628   2.850 -2.6087  0.8980  2.0483
 4712SOL    HW215578   2.108   3.772   2.894  1.9135  1.9228  1.1793
 4713SOL     OW15579   2.490   2.641   5.903  0.4941  0.1501 -0.5084
 4713SOL    HW115580   2.456   2.730   5.914 -0.4165 -0.5117  3.4233
 4713SOL    HW215581   2.429   2.600   5.842 -1.8922  0.9699  1.1832
 4714SOL     OW15582   7.235   6.710  11.914  0.1955  0.3583  0.1341
 4714SOL    HW115583   7.251   6.690  11.822 -1.0226  0.1020 -0.0426
 4714SOL    HW215584   7.152   6.667  11.934 -1.2721  3.0615  0.4216
 4715SOL     OW15585   2.842   4.062  11.676 -0.0805  0.1835 -1.1548
 4715SOL    HW115586   2.760   4.016  11.655 -0.3245  0.1087 -0.0961
 4715SOL    HW215587   2.893   3.998  11.726  0.4312  0.4012 -1.3893
 4716SOL     OW15588   6.733   0.912   1.080 -0.4837 -0.4294 -0.0638
 4716SOL    HW115589   6.802   0.864   1.127 -0.5993 -1.2518 -0.7019
 4716SOL    HW215590   6.658   0.909   1.139 -0.6613 -1.5528 -0.3214
 4717SOL     OW15591   2.054   6.055   8.657  0.1608 -0.3081  0.0456
 4717SOL    HW115592   2.068   6.132   8.712 -0.4338  0.6716 -1.1320
 4717SOL    HW215593   2.139   6.010   8.657  0.8653  0.9782 -0.1812
 4718SOL     OW15594   5.643   6.017   8.354  0.5438  0.6225 -0.0466
 4718SOL    HW115595   5.701   6.066   8.296  1.0253 -0.4241 -0.4817
 4718SOL    HW215596   5.555   6.039   8.323  0.7568  1.0499 -0.3613
 4719SOL     OW15597   6.883   0.564   0.671  0.6539  0.4939  0.3777
 4719SOL    HW115598   6.795   0.600   0.671  0.1514 -0.6490 -0.7149
 4719SOL    HW215599   6.907   0.556   0.763 -0.2499  1.0951  0.6748
 4720SOL     OW15600   6.371   5.411   0.595 -0.1120 -0.2227  0.1098
 4720SOL    HW115601   6.399   5.349   0.527 -0.2750  0.1867 -0.3330
 4720SOL    HW215602   6.449   5.464   0.611 -0.7125  1.2321 -1.4656
 4721SOL     OW15603   1.390   2.390   4.275  0.1169 -0.6734 -0.0726
 4721SOL    HW115604   1.300   2.372   4.301  1.0473 -3.4922  1.6584
 4721SOL    HW215605   1.431   2.428   4.353  0.9340 -1.3802 -0.1459
 4722SOL     OW15606   1.025   2.892   3.196  0.0085 -0.2838  0.0181
 4722SOL    HW115607   1.034   2.797   3.210  0.7434 -0.1556  0.4741
 4722SOL    HW215608   0.970   2.921   3.269  0.0178 -0.3177  0.0390
 4723SOL     OW15609   0.649   2.031   7.282  0.2426  0.2136 -0.7770
 4723SOL    HW115610   0.579   2.095   7.289  2.3574  2.6291 -0.2129
 4723SOL    HW215611   0.661   1.999   7.372 -0.1875 -0.3079 -0.8976
 4724SOL     OW15612   7.128   4.455   4.093 -0.4507  0.1841 -0.3333
 4724SOL    HW115613   7.136   4.363   4.117  0.4301  0.4259  0.3652
 4724SOL    HW215614   7.051   4.485   4.140 -1.1237 -0.3471 -1.0787
 4725SOL     OW15615   7.837   7.795   6.967  0.0091 -0.2783  0.3043
 4725SOL    HW115616   7.896   7.849   6.916 -0.0546 -0.7099 -0.2373
 4725SOL    HW215617   7.760   7.785   6.912 -0.3845 -0.0999  0.8152
 4726SOL     OW15618   4.930   0.783   9.309 -0.1597 -0.0579 -0.4163
 4726SOL    HW115619   5.020   0.813   9.319  0.1493 -1.1080  0.0906
 4726SOL    HW215620   4.878   0.843   9.362  0.6051 -1.1589  1.6824
 4727SOL     OW15621   0.280   6.146   1.364 -0.4830 -0.1571 -0.0399
 4727SOL    HW115622   0.213   6.078   1.358  1.0742 -1.6766 -1.2851
 4727SOL    HW215623   0.244   6.210   1.425 -1.7523 -2.4303  1.7497
 4728SOL     OW15624   0.095   2.488   0.193 -0.0785 -0.6510  0.4079
 4728SOL    HW115625   0.042   2.546   0.138  1.9950  0.6903 -0.2690
 4728SOL    HW215626   0.175   2.475   0.143  1.2812 -0.5602  2.4866
 4729SOL     OW15627   3.991   0.107   0.837 -0.3193  0.3278  0.2224
 4729SOL    HW115628   3.955   0.035   0.783  1.2261 -0.0886 -0.3049
 4729SOL    HW215629   4.073   0.072   0.871  0.4806  1.8623 -0.0716
 4730SOL     OW15630   2.505   4.207  10.281  0.0650  0.3881 -0.2043
 4730SOL    HW115631   2.572   4.270  10.307  0.6249 -1.0352  2.1240
 4730SOL    HW215632   2.544   4.160  10.207  1.1662  0.3563  0.3791
 4731SOL     OW15633   0.746   0.654  10.554  0.4712 -0.3172  0.7954
 4731SOL    HW115634   0.653   0.675  10.548  0.4009 -1.0062 -1.0039
 4731SOL    HW215635   0.749   0.568  10.594  0.3074 -0.5150  0.3825
 4732SOL     OW15636   3.878   5.045   2.384 -0.5433 -0.1671 -0.0200
 4732SOL    HW115637   3.863   4.956   2.353  0.7461 -0.2946 -0.3494
 4732SOL    HW215638   3.882   5.098   2.304  0.9442 -0.1988  0.0059
 4733SOL     OW15639   6.918   2.310  11.914  0.1569  0.2730  0.1868
 4733SOL    HW115640   6.991   2.317  11.976 -1.1646 -0.1055  1.8970
 4733SOL    HW215641   6.872   2.394  11.922 -1.1699 -0.5091  1.3156
 4734SOL     OW15642   2.006   1.434  11.103  0.4201  0.3883 -0.1385
 4734SOL    HW115643   1.945   1.485  11.156  1.1069  1.8878 -0.7422
 4734SOL    HW215644   1.993   1.343  11.132  0.6474  1.1179  2.4813
 4735SOL     OW15645   5.392   6.296   4.603  0.6415 -0.3231 -0.2019
 4735SOL    HW115646   5.434   6.281   4.518  2.5789 -0.0662  0.6499
 4735SOL    HW215647   5.388   6.391   4.612 -1.1519 -0.3207 -0.7146
 4736SOL     OW15648   6.751   1.655  11.049 -0.6305 -0.4401 -0.2188
 4736SOL    HW115649   6.787   1.634  10.963 -1.4480 -0.4917 -0.5540
 4736SOL    HW215650   6.677   1.595  11.060 -1.7201  0.8228 -0.3120
 4737SOL     OW15651   1.962   6.207   7.870 -0.8259 -0.0184  0.7007
 4737SOL    HW115652   1.965   6.112   7.871 -1.8004 -0.0940  3.0231
 4737SOL    HW215653   1.932   6.230   7.782  2.0182 -1.6595 -0.8473
 4738SOL     OW15654   2.764   5.964   4.726 -0.5396  0.4272 -0.0532
 4738SOL    HW115655   2.833   6.030   4.731 -0.3350  0.4406 -2.1336
 4738SOL    HW215656   2.787   5.900   4.793  2.1344 -0.1099 -1.3438
 4739SOL     OW15657   0.212   2.834   0.916  0.4195 -0.1707  0.8919
 4739SOL    HW115658   0.233   2.740   0.912  1.7618  0.1474 -0.3981
 4739SOL    HW215659   0.297   2.877   0.915 -0.1864  1.0852  1.4695
 4740SOL     OW15660   2.737   7.581   7.657  0.9523  0.1495  0.3637
 4740SOL    HW115661   2.821   7.540   7.679  0.4361 -0.2942  1.5811
 4740SOL    HW215662   2.683   7.568   7.735 -0.0324  1.0157 -0.1570
 4741SOL     OW15663   4.424   6.479   8.171 -0.4465  0.4285 -0.2753
 4741SOL    HW115664   4.390   6.437   8.092 -0.4237 -1.6617  0.7648
 4741SOL    HW215665   4.351   6.477   8.232  0.3244 -0.5456  0.6632
 4742SOL     OW15666   5.287   4.593   5.392  0.0924 -0.2380  0.1239
 4742SOL    HW115667   5.247   4.548   5.466 -1.7854 -1.2671 -1.4246
 4742SOL    HW215668   5.217   4.648   5.357  0.7728 -0.1919 -1.2257
 4743SOL     OW15669   5.320   1.371   1.417 -0.0458 -0.2166  0.1988
 4743SOL    HW115670   5.407   1.407   1.437 -0.4394  0.4191  0.8044
 4743SOL    HW215671   5.276   1.368   1.502 -0.0769 -2.0232  0.1522
 4744SOL     OW15672   5.477   0.173   3.778 -0.2521 -0.2279  0.2569
 4744SOL    HW115673   5.480   0.260   3.737 -1.8814 -0.9601 -1.5991
 4744SOL    HW215674   5.559   0.131   3.754 -0.9232 -0.4202 -1.8949
 4745SOL     OW15675   4.341   4.373   2.014  0.4313 -0.6157  0.0874
 4745SOL    HW115676   4.366   4.352   2.104  0.5067 -1.5003 -0.1340
 4745SOL    HW215677   4.393   4.314   1.960 -0.0509 -0.5018 -0.5165
 4746SOL     OW15678   2.198   0.769   0.888  0.5940  0.0782  0.7146
 4746SOL    HW115679   2.155   0.790   0.971 -1.2427  0.2154 -0.2075
 4746SOL    HW215680   2.221   0.854   0.851 -0.6579  0.1753  0.0889
 4747SOL     OW15681   0.668   6.777  10.835 -0.6343 -0.1512 -0.2084
 4747SOL    HW115682   0.705   6.862  10.809 -0.0349 -0.5832 -0.8098
 4747SOL    HW215683   0.650   6.733  10.752  1.0961 -1.4769  0.0625
 4748SOL     OW15684   0.214   2.003   7.230  0.0577  0.0085 -0.8228
 4748SOL    HW115685   0.234   1.910   7.241  0.0060  0.1499  0.6056
 4748SOL    HW215686   0.283   2.036   7.172 -0.2204 -1.0084 -1.7861
 4749SOL     OW15687   6.980   4.983   0.242 -0.1334 -0.2420 -0.5494
 4749SOL    HW115688   7.009   5.061   0.288  0.7652 -0.2335 -1.1058
 4749SOL    HW215689   7.049   4.918   0.259 -1.1334 -1.1078  0.3763
 4750SOL     OW15690   4.918   3.362  10.158  0.3880 -0.0609 -0.2225
 4750SOL    HW115691   5.007   3.377  10.125  0.0652  1.3571 -0.5527
 4750SOL    HW215692   4.898   3.441  10.209  0.2722 -1.4924  2.1136
 4751SOL     OW15693   7.213   1.666   4.096 -0.2108 -0.2550 -0.4325
 4751SOL    HW115694   7.266   1.663   4.176 -0.5295  0.0629 -0.2051
 4751SOL    HW215695   7.184   1.576   4.083 -0.8387 -0.1657  0.2830
 4752SOL     OW15696   6.774   5.257   4.148 -0.2866  0.5694  0.5248
 4752SOL    HW115697   6.701   5.263   4.210 -0.3283  1.3777  0.4093
 4752SOL    HW215698   6.742   5.198   4.080 -0.5220  0.2701  0.8890
 4753SOL     OW15699   0.168   5.831   5.865 -0.4500  0.0960  0.0958
 4753SOL    HW115700   0.154   5.778   5.944  0.6157 -1.3587 -0.6359
 4753SOL    HW215701   0.224   5.776   5.809  1.6723  2.4420 -0.2637
 4754SOL     OW15702   7.354   2.217   8.452  0.0075 -0.0187 -0.4975
 4754SOL    HW115703   7.345   2.128   8.486 -0.8035 -0.1309 -0.9985
 4754SOL    HW215704   7.441   2.218   8.412  0.7356 -0.0664  0.9994
 4755SOL     OW15705   1.868   0.995   3.225  0.0464 -0.4477 -0.2266
 4755SOL    HW115706   1.806   1.062   3.196  0.5062  0.2547  0.3770
 4755SOL    HW215707   1.910   0.965   3.144  2.5206  2.6942 -0.2947
 4756SOL     OW15708   4.913   6.300  10.197  0.0106  0.2003  0.0538
 4756SOL    HW115709   4.974   6.357  10.150 -0.0334  0.1722 -0.0363
 4756SOL    HW215710   4.831   6.349  10.198 -0.2922 -0.2658 -0.8548
 4757SOL     OW15711   5.068   0.821   7.229  0.2088 -0.1517 -0.0313
 4757SOL    HW115712   5.122   0.754   7.188  2.9261  1.9533 -0.2154
 4757SOL    HW215713   5.124   0.861   7.295 -1.7228  1.1546  0.9397
 4758SOL     OW15714   3.628   1.802   7.087  0.2336 -0.2534 -0.5611
 4758SOL    HW115715   3.577   1.882   7.096  1.7122  0.6592  0.0121
 4758SOL    HW215716   3.691   1.821   7.017  0.5338 -0.9590 -0.4957
 4759SOL     OW15717   1.519   2.621   7.034 -0.0384 -0.3690  0.2581
 4759SOL    HW115718   1.562   2.700   7.068  1.1105 -0.8628  0.0228
 4759SOL    HW215719   1.481   2.648   6.951 -2.6135  0.7774  1.7098
 4760SOL     OW15720   2.271   1.746  11.414 -0.0527  0.3107 -0.1292
 4760SOL    HW115721   2.326   1.821  11.391  1.0070  0.4332  2.4125
 4760SOL    HW215722   2.328   1.670  11.402  0.2595  0.3154  1.1254
 4761SOL     OW15723   0.467   2.940   8.022 -0.1468 -0.6790 -0.3951
 4761SOL    HW115724   0.475   2.960   8.115 -0.9823  1.2143 -0.6835
 4761SOL    HW215725   0.528   2.868   8.007  0.7901 -0.2957  1.3957
 4762SOL     OW15726   1.094   4.704   4.325  0.1018  0.0574  0.5020
 4762SOL    HW115727   1.025   4.767   4.306 -0.3506 -0.4655  0.3771
 4762SOL    HW215728   1.063   4.622   4.286  1.2121  0.0273 -0.3796
 4763SOL     OW15729   6.449   3.654   0.280  0.0596 -0.0927  0.1025
 4763SOL    HW115730   6.398   3.668   0.199  2.9985 -0.7888 -2.0154
 4763SOL    HW215731   6.479   3.564   0.274  0.3342 -0.1677  2.0484
 4764SOL     OW15732   7.658   6.791   4.084 -0.6757 -0.3417  0.1468
 4764SOL    HW115733   7.576   6.802   4.132 -0.3863  0.2541  0.5076
 4764SOL    HW215734   7.721   6.847   4.129  0.0241 -1.0533  0.0802
 4765SOL     OW15735   7.001   6.435   4.455  0.2249 -0.5492 -0.1778
 4765SOL    HW115736   6.918   6.386   4.451  0.1712 -0.4345 -0.5886
 4765SOL    HW215737   7.033   6.435   4.364  1.5154 -2.0193  0.2387
 4766SOL     OW15738   2.581   7.172   6.870  0.0453 -0.2961  0.6057
 4766SOL    HW115739   2.494   7.191   6.834 -0.0101 -0.4405  0.6626
 4766SOL    HW215740   2.619   7.109   6.808 -0.2303 -0.9042  1.0362
 4767SOL     OW15741   5.451   2.246   5.447  0.0651  0.0527 -0.3793
 4767SOL    HW115742   5.418   2.157   5.432  0.1579 -0.4272  1.9740
 4767SOL    HW215743   5.373   2.296   5.472  0.4840 -0.2287  1.6521
 4768SOL     OW15744   6.937   6.002  11.856 -0.2082  0.0600  0.1808
 4768SOL    HW115745   6.866   5.996  11.793  1.7370 -2.6706 -1.9529
 4768SOL    HW215746   6.940   6.095  11.879 -3.0005  0.6329 -1.2739
 4769SOL     OW15747   5.858   6.965   5.738  0.1688  0.2541  0.0541
 4769SOL    HW115748   5.801   7.009   5.800 -2.5355  0.1174 -2.1137
 4769SOL    HW215749   5.836   6.872   5.748  0.9564  0.0678  0.0638
 4770SOL     OW15750   3.323   1.104  10.457  0.7058  0.0275  0.3604
 4770SOL    HW115751   3.257   1.144  10.400  0.7106  0.1026  0.4060
 4770SOL    HW215752   3.400   1.161  10.448  0.1452  1.0714  1.7951
 4771SOL     OW15753   5.942   3.897   8.196 -0.2844 -0.2517  0.2754
 4771SOL    HW115754   5.874   3.850   8.148 -1.4406  1.8827 -0.2915
 4771SOL    HW215755   5.909   3.986   8.204  2.4525  0.9003 -0.0253
 4772SOL     OW15756   4.157   0.713   4.775  0.5428  0.1649 -0.1597
 4772SOL    HW115757   4.089   0.727   4.709  0.4423 -1.0109 -0.3265
 4772SOL    HW215758   4.115   0.659   4.842  0.4176  1.9533  1.2760
 4773SOL     OW15759   1.103   0.571  10.115  0.4551 -0.0381 -0.2910
 4773SOL    HW115760   1.110   0.533  10.203 -0.7610  2.4955  1.0242
 4773SOL    HW215761   1.104   0.496  10.056  1.6818 -1.8132  1.8434
 4774SOL     OW15762   4.310   7.546   1.153  0.3441  0.0307 -0.3434
 4774SOL    HW115763   4.318   7.452   1.137 -3.4843 -0.7619  1.4363
 4774SOL    HW215764   4.329   7.556   1.246 -0.2968  0.8583 -0.2950
 4775SOL     OW15765   1.243   2.253   3.757  0.5730 -0.0496  0.0959
 4775SOL    HW115766   1.166   2.304   3.783  1.4195  1.2452  0.1389
 4775SOL    HW215767   1.210   2.189   3.694 -0.3429  1.2826 -0.8160
 4776SOL     OW15768   7.800   1.671   8.916 -0.0899 -0.0567 -0.1838
 4776SOL    HW115769   7.814   1.724   8.994  1.1412 -0.0641 -0.3757
 4776SOL    HW215770   7.705   1.662   8.909 -0.2125 -0.6687  1.7180
 4777SOL     OW15771   3.351   4.122   2.320 -0.0450 -0.5361 -0.0604
 4777SOL    HW115772   3.359   4.196   2.381  1.4850 -1.2920  0.7082
 4777SOL    HW215773   3.329   4.164   2.236  0.9733  0.8317  0.3090
 4778SOL     OW15774   4.495   1.770  10.729 -0.1610  0.3859  0.1552
 4778SOL    HW115775   4.426   1.837  10.734  0.1610  0.7543 -0.2545
 4778SOL    HW215776   4.576   1.818  10.742 -0.0222 -0.1666  1.4308
 4779SOL     OW15777   4.531   3.055   1.581  0.2713 -0.4498  0.0071
 4779SOL    HW115778   4.506   3.079   1.670 -1.3174 -0.6068 -0.3537
 4779SOL    HW215779   4.504   3.130   1.528  1.6746 -0.1355 -0.3015
 4780SOL     OW15780   3.864   0.864   9.807  0.1260 -0.0181  0.0244
 4780SOL    HW115781   3.799   0.889   9.742 -0.8810 -1.8334  0.2739
 4780SOL    HW215782   3.904   0.947   9.833 -0.4181  0.8972 -1.8543
 4781SOL     OW15783   6.855   6.583   5.972  0.7083 -0.4147 -0.2969
 4781SOL    HW115784   6.822   6.632   6.048  1.0097 -1.0170  0.2352
 4781SOL    HW215785   6.816   6.627   5.897  0.5653  0.3286  0.1908
 4782SOL     OW15786   1.957   5.067   5.989  0.1130 -0.0401  0.0561
 4782SOL    HW115787   1.931   5.135   5.926  0.4833 -1.2615 -1.4723
 4782SOL    HW215788   2.047   5.089   6.012  0.4648 -0.3830 -0.9619
 4783SOL     OW15789   7.652   4.175   6.441 -0.2897  0.1333 -0.2375
 4783SOL    HW115790   7.706   4.251   6.465  1.4157 -1.5976  1.8057
 4783SOL    HW215791   7.713   4.116   6.396 -0.9728 -0.9778  0.2465
 4784SOL     OW15792   0.497   3.713   6.232  0.0194 -0.4517  0.1935
 4784SOL    HW115793   0.421   3.674   6.275  0.0241  0.5272  1.1262
 4784SOL    HW215794   0.462   3.789   6.187  0.3135 -0.4688 -0.0632
 4785SOL     OW15795   2.735   6.894   2.420  0.2429  0.2554 -0.2875
 4785SOL    HW115796   2.648   6.862   2.397  0.4434  1.1773 -2.6381
 4785SOL    HW215797   2.795   6.834   2.377  0.8030 -0.1028  0.9351
 4786SOL     OW15798   5.830   7.088   8.632 -0.3290 -0.0283 -0.0315
 4786SOL    HW115799   5.817   7.165   8.577  0.8407 -0.1469 -0.4951
 4786SOL    HW215800   5.753   7.034   8.616 -0.9621  0.8384 -0.0263
 4787SOL     OW15801   7.184   7.303   7.372  0.2734 -0.0463  0.3325
 4787SOL    HW115802   7.244   7.238   7.409 -0.6871 -0.6029  0.9582
 4787SOL    HW215803   7.194   7.292   7.277  0.5935 -0.6617  0.4289
 4788SOL     OW15804   7.927   5.376  12.258  0.7850 -0.2857  0.6799
 4788SOL    HW115805   7.995   5.414  12.203 -0.0221  0.4967  0.1986
 4788SOL    HW215806   7.849   5.426  12.237 -0.5072 -2.6239 -0.4685
 4789SOL     OW15807   2.880   3.896   3.151  0.1027 -0.3176  0.4409
 4789SOL    HW115808   2.792   3.930   3.137 -0.5465 -1.5458  1.4016
 4789SOL    HW215809   2.901   3.849   3.071 -0.6244 -1.0560  0.6692
 4790SOL     OW15810   6.811   2.455   7.563  0.1388  0.1433  0.5186
 4790SOL    HW115811   6.896   2.439   7.521 -1.5393  1.3657 -3.8278
 4790SOL    HW215812   6.768   2.370   7.562  0.5326 -0.0648  0.8375
 4791SOL     OW15813   3.793   5.068   5.157 -0.3266 -0.3671  0.0539
 4791SOL    HW115814   3.855   5.128   5.199 -0.2709  0.6844 -1.4566
 4791SOL    HW215815   3.710   5.082   5.202 -0.1180  0.2707  0.2360
 4792SOL     OW15816   0.087   3.368  11.435  0.1139  0.2161  0.2868
 4792SOL    HW115817   0.113   3.460  11.436 -0.5669  0.4286 -0.5440
 4792SOL    HW215818   0.021   3.360  11.503  0.1587  0.3472  0.3441
 4793SOL     OW15819   2.514   0.426   1.384  0.0606 -0.7350 -0.4416
 4793SOL    HW115820   2.538   0.410   1.475 -0.1167 -3.9624 -0.8624
 4793SOL    HW215821   2.597   0.418   1.336 -0.0950 -0.6265 -0.7292
 4794SOL     OW15822   0.064   3.665   5.456 -0.3064  0.0574  1.0468
 4794SOL    HW115823   0.152   3.627   5.455 -0.1746  0.3640  0.1175
 4794SOL    HW215824   0.005   3.590   5.456 -0.0459 -0.1510  0.3199
 4795SOL     OW15825   0.613   2.449   6.115 -0.0253 -0.2887 -0.0198
 4795SOL    HW115826   0.647   2.368   6.154  1.4357 -0.4252 -1.4563
 4795SOL    HW215827   0.525   2.426   6.085 -0.7349 -0.5041  2.0444
 4796SOL     OW15828   0.978   6.873  10.655 -0.0956 -0.0851  0.2783
 4796SOL    HW115829   0.887   6.877  10.626 -0.2503 -0.6745  0.6626
 4796SOL    HW215830   0.978   6.914  10.741  0.1176  0.4473  0.0320
 4797SOL     OW15831   7.191   2.839   3.051 -0.6317  0.3249 -0.1708
 4797SOL    HW115832   7.216   2.747   3.045  1.4066  0.8430 -0.2348
 4797SOL    HW215833   7.155   2.860   2.965 -0.9421 -0.3486 -0.2131
 4798SOL     OW15834   0.450   1.394   5.959  0.2638  0.1057 -0.4616
 4798SOL    HW115835   0.414   1.471   6.002  1.0945 -0.2397  0.9096
 4798SOL    HW215836   0.374   1.342   5.934 -0.3067 -0.9029  2.8893
 4799SOL     OW15837   6.617   5.428  12.034 -0.5348 -0.1251 -0.3208
 4799SOL    HW115838   6.688   5.453  11.975 -0.3889 -1.4115 -0.7077
 4799SOL    HW215839   6.563   5.507  12.041  0.8644  0.8547 -0.0805
 4800SOL     OW15840   7.409   2.844   3.364 -0.1157  0.4149  0.3358
 4800SOL    HW115841   7.446   2.770   3.315 -0.9376  1.7169 -2.4788
 4800SOL    HW215842   7.353   2.804   3.430 -0.8093 -1.5269 -1.3244
 4801SOL     OW15843   3.334   4.291   0.491 -0.2438  0.1411  0.0111
 4801SOL    HW115844   3.360   4.249   0.573 -0.9606  1.6018  1.0324
 4801SOL    HW215845   3.242   4.314   0.504 -0.7050 -0.6163 -1.6673
 4802SOL     OW15846   3.283   2.768   5.102 -0.5680  0.0112 -0.0335
 4802SOL    HW115847   3.350   2.720   5.151 -2.0661 -0.7763  1.3068
 4802SOL    HW215848   3.241   2.702   5.047 -2.5834 -0.2892  1.7503
 4803SOL     OW15849   1.670   6.680  11.785  0.1500  0.2173 -0.0684
 4803SOL    HW115850   1.679   6.585  11.792  1.6989  0.4196  1.4139
 4803SOL    HW215851   1.615   6.704  11.860  2.3037  0.7209  1.4699
 4804SOL     OW15852   0.612   0.113   2.831 -0.3365  0.0938  0.0069
 4804SOL    HW115853   0.540   0.049   2.833 -1.0050  0.8347 -0.0475
 4804SOL    HW215854   0.597   0.164   2.752 -1.0905  1.7492  1.1552
 4805SOL     OW15855   6.392   5.460   4.333 -0.3996  0.2047 -0.6318
 4805SOL    HW115856   6.444   5.515   4.275  0.9351  0.6267  0.8886
 4805SOL    HW215857   6.395   5.505   4.417 -3.3199  0.2660 -0.4645
 4806SOL     OW15858   1.082   6.251   0.060 -0.0514 -0.0715 -0.0555
 4806SOL    HW115859   1.010   6.211   0.108  0.4906 -0.3627  0.5295
 4806SOL    HW215860   1.131   6.300   0.126  0.0334  0.5023 -0.5306
 4807SOL     OW15861   5.451   5.924   6.870  0.2593  0.0820 -0.4315
 4807SOL    HW115862   5.457   6.011   6.909 -2.3529  1.2585 -2.3551
 4807SOL    HW215863   5.373   5.885   6.910  1.1238 -1.2335  0.0470
 4808SOL     OW15864   1.306   1.980  11.971 -0.2067 -0.3698  0.4893
 4808SOL    HW115865   1.271   2.067  11.990 -1.8564 -0.6812 -0.9205
 4808SOL    HW215866   1.237   1.920  11.997  0.4234 -1.1905  0.2988
 4809SOL     OW15867   3.698   4.334   0.920 -0.4866  0.5110 -0.4096
 4809SOL    HW115868   3.733   4.403   0.865  0.6661 -0.0921 -0.4572
 4809SOL    HW215869   3.663   4.380   0.997  0.4771  1.1400 -0.3281
 4810SOL     OW15870   5.981   6.229   4.448  0.2299  0.0301  0.3016
 4810SOL    HW115871   6.030   6.167   4.394 -1.1520 -1.8875  1.1366
 4810SOL    HW215872   5.893   6.231   4.410  0.3442  1.8178  0.0547
 4811SOL     OW15873   4.777   5.024   4.299  0.4804  0.4061  0.7832
 4811SOL    HW115874   4.784   5.011   4.393  1.3144  1.4564  0.8841
 4811SOL    HW215875   4.765   4.936   4.263  1.8593 -0.1952  1.7262
 4812SOL     OW15876   1.179   1.163   6.788 -0.3248 -0.0322 -0.2442
 4812SOL    HW115877   1.109   1.214   6.830 -0.2818  1.0299 -1.4207
 4812SOL    HW215878   1.134   1.111   6.722 -0.1102 -0.0581 -0.3678
 4813SOL     OW15879   6.871   3.872  12.154 -0.3630  0.3492  0.2321
 4813SOL    HW115880   6.857   3.915  12.070 -1.3280 -1.0541 -0.3621
 4813SOL    HW215881   6.808   3.800  12.155  0.2657 -0.2254  1.7620
 4814SOL     OW15882   6.473   1.949   4.810 -0.0499  0.1434  0.7899
 4814SOL    HW115883   6.537   1.964   4.880 -0.6696  0.6392  1.2626
 4814SOL    HW215884   6.510   1.994   4.734  0.1259  0.5009  1.0803
 4815SOL     OW15885   0.548   5.238   2.333 -0.2912  0.6282 -0.5254
 4815SOL    HW115886   0.453   5.229   2.338 -0.1016 -2.3556 -0.8257
 4815SOL    HW215887   0.571   5.207   2.246  1.1913 -2.0244  0.6992
 4816SOL     OW15888   2.094   2.634   6.875  0.0844 -0.2651 -0.2656
 4816SOL    HW115889   2.015   2.600   6.832  0.5429 -1.0361 -0.5053
 4816SOL    HW215890   2.067   2.720   6.908 -1.6422 -1.4996  1.8605
 4817SOL     OW15891   7.601   6.104  10.589 -0.2257  0.2549 -0.7373
 4817SOL    HW115892   7.527   6.154  10.556 -0.6664  1.0698  1.3610
 4817SOL    HW215893   7.572   6.069  10.673  1.5591  0.0927 -0.1349
 4818SOL     OW15894   6.344   3.716   3.595 -0.5713  0.0904 -0.8073
 4818SOL    HW115895   6.256   3.720   3.556 -0.3118  1.3830 -1.2986
 4818SOL    HW215896   6.328   3.709   3.689 -1.2321  1.9879 -0.7435
 4819SOL     OW15897   1.238   6.692   1.182 -0.1329  0.0861  0.5534
 4819SOL    HW115898   1.234   6.736   1.097 -1.3162  0.7813  0.9421
 4819SOL    HW215899   1.300   6.620   1.169  0.3688  0.7052 -0.6448
 4820SOL     OW15900   5.571   7.069  10.002 -0.6663  0.0002 -0.4356
 4820SOL    HW115901   5.566   7.164   9.989  2.2781  0.4198  0.7056
 4820SOL    HW215902   5.592   7.034   9.915  0.1743  0.6463 -0.5070
 4821SOL     OW15903   0.294   0.474   5.599  0.4803 -0.3472 -0.0756
 4821SOL    HW115904   0.363   0.411   5.621  0.3086 -0.3650  0.4379
 4821SOL    HW215905   0.212   0.424   5.608  0.2492  0.2513  1.6059
 4822SOL     OW15906   1.579   6.504   1.960  0.3879 -0.5431 -0.5925
 4822SOL    HW115907   1.525   6.439   2.005  1.1458 -0.4152  0.5206
 4822SOL    HW215908   1.656   6.455   1.930  1.4197 -0.0127  1.0766
 4823SOL     OW15909   0.290   1.575   9.313  0.2874 -0.4467  0.0393
 4823SOL    HW115910   0.281   1.600   9.221  1.0239 -0.2522  0.0153
 4823SOL    HW215911   0.352   1.638   9.349 -0.7565  0.1168  0.9354
 4824SOL     OW15912   3.581   1.197  10.882  0.4963  0.2327  0.3675
 4824SOL    HW115913   3.619   1.109  10.881  1.0116  0.3236  3.2148
 4824SOL    HW215914   3.490   1.185  10.856  0.7513 -1.0425  0.0406
 4825SOL     OW15915   1.010   7.138   6.770  0.2381  0.2359 -0.1223
 4825SOL    HW115916   0.948   7.160   6.839 -1.1973 -0.9186 -0.9826
 4825SOL    HW215917   1.075   7.208   6.772  1.3721 -0.7226  3.6484
 4826SOL     OW15918   3.417   6.113   7.650  0.0050 -0.3223  0.1999
 4826SOL    HW115919   3.356   6.090   7.580  0.5776 -0.1353 -0.3675
 4826SOL    HW215920   3.371   6.089   7.731 -1.4646  1.2786 -0.1198
 4827SOL     OW15921   6.743   6.620   8.300  0.3904 -0.8253  0.3899
 4827SOL    HW115922   6.821   6.674   8.289 -0.5147  0.0808 -2.2548
 4827SOL    HW215923   6.772   6.547   8.355  2.3443  0.8897  1.7697
 4828SOL     OW15924   2.542   6.860  11.019 -0.2608 -0.0654 -0.5673
 4828SOL    HW115925   2.547   6.765  11.030  0.8338  0.1626  1.4233
 4828SOL    HW215926   2.448   6.877  11.007 -0.5344 -1.3587 -0.4908
 4829SOL     OW15927   1.675   5.976   3.918 -0.3234  0.3507 -0.4692
 4829SOL    HW115928   1.738   5.999   3.849 -0.7610 -0.1608 -1.0453
 4829SOL    HW215929   1.729   5.937   3.987  0.2409  1.7179 -0.0978
 4830SOL     OW15930   3.931   6.032   1.523 -0.3840 -0.1255  0.5590
 4830SOL    HW115931   3.981   6.052   1.602 -0.2202 -0.5742  0.5678
 4830SOL    HW215932   3.889   6.115   1.500  2.3407  0.9843 -0.8806
 4831SOL     OW15933   1.254   5.937   4.137 -0.3109 -0.2459  0.6627
 4831SOL    HW115934   1.170   5.915   4.178 -0.8705  0.1523 -0.2202
 4831SOL    HW215935   1.262   6.032   4.149  0.4057 -0.3937  1.4279
 4832SOL     OW15936   3.350   3.705  12.191  0.7641 -0.2855  0.3947
 4832SOL    HW115937   3.260   3.699  12.159  0.2756 -4.5032  1.8983
 4832SOL    HW215938   3.342   3.723  12.285  1.4525 -0.7598  0.5577
 4833SOL     OW15939   5.785   1.464  10.886  0.2731 -0.1898 -0.2904
 4833SOL    HW115940   5.784   1.501  10.798  0.0443 -0.5111 -0.4242
 4833SOL    HW215941   5.840   1.386  10.879 -0.3781 -0.6499 -0.3275
 4834SOL     OW15942   4.578   3.409  10.200  0.3492  0.2278 -0.2577
 4834SOL    HW115943   4.636   3.467  10.251  1.7329 -0.4020 -1.0729
 4834SOL    HW215944   4.581   3.445  10.111 -1.4287  0.8442 -0.1193
 4835SOL     OW15945   0.072   4.514   9.128  0.1734 -0.0713 -0.3585
 4835SOL    HW115946   0.022   4.587   9.166 -2.8482 -3.2381  2.4871
 4835SOL    HW215947   0.130   4.485   9.198  1.1519 -0.5790 -1.3523
 4836SOL     OW15948   6.029   3.613   6.454 -0.0967 -0.0482 -0.3092
 4836SOL    HW115949   6.032   3.623   6.549 -0.6632  2.8173 -0.5127
 4836SOL    HW215950   6.118   3.632   6.424 -0.2662  0.5313 -0.4504
 4837SOL     OW15951   6.557   0.978   1.984 -0.4619 -0.4188  0.5329
 4837SOL    HW115952   6.528   1.057   1.939 -1.0629 -0.8948  0.0831
 4837SOL    HW215953   6.653   0.987   1.987 -0.6052  1.4103  2.4999
 4838SOL     OW15954   7.490   3.874   2.755  0.3143 -0.5304 -0.4638
 4838SOL    HW115955   7.577   3.889   2.720  0.2458  0.2244 -0.3330
 4838SOL    HW215956   7.431   3.910   2.690  0.0860 -1.2005 -0.6354
 4839SOL     OW15957   6.429   2.227  12.057 -0.3221  0.1491 -0.1648
 4839SOL    HW115958   6.416   2.250  11.965  2.0375 -1.3122 -0.9643
 4839SOL    HW215959   6.505   2.279  12.084 -0.1723 -0.4103  0.5362
 4840SOL     OW15960   4.586   2.491   5.753  0.2859 -0.0362 -0.2003
 4840SOL    HW115961   4.543   2.406   5.751  1.2220 -0.5134 -2.5512
 4840SOL    HW215962   4.536   2.542   5.818 -0.7510 -2.0950  0.6911
 4841SOL     OW15963   6.909   1.330   0.215  0.3080 -0.0144  0.4428
 4841SOL    HW115964   6.843   1.364   0.276 -1.7040 -0.5629 -1.3120
 4841SOL    HW215965   6.951   1.259   0.262 -0.2088  0.4685  1.6817
 4842SOL     OW15966   1.839   5.270   3.449  0.4276 -0.2734  0.0071
 4842SOL    HW115967   1.880   5.245   3.366  1.4561 -0.0105  0.4224
 4842SOL    HW215968   1.768   5.330   3.425  2.7526  2.4481 -0.5075
 4843SOL     OW15969   6.197   1.900   4.495 -0.1294  0.1966 -0.0243
 4843SOL    HW115970   6.127   1.885   4.557  0.7045  0.6854  1.0649
 4843SOL    HW215971   6.233   1.985   4.519  0.2514  0.3639 -1.1403
 4844SOL     OW15972   5.164   7.155   6.346 -0.3388  0.7090 -0.2365
 4844SOL    HW115973   5.211   7.235   6.324  0.6764  0.1925  0.0115
 4844SOL    HW215974   5.232   7.091   6.365 -1.1019 -0.4933 -1.3485
 4845SOL     OW15975   3.324   0.703   8.023  0.4600  0.4754  0.1303
 4845SOL    HW115976   3.405   0.750   8.039 -0.3472  1.6754  0.8880
 4845SOL    HW215977   3.323   0.688   7.928  2.4681 -1.3447  0.3191
 4846SOL     OW15978   4.530   5.121   6.767  0.2465  0.0244 -0.1025
 4846SOL    HW115979   4.586   5.198   6.775  0.4572 -0.1542  0.1249
 4846SOL    HW215980   4.445   5.156   6.740  0.0376  0.4389  1.0694
 4847SOL     OW15981   5.447   1.274  12.381 -0.5199 -0.1370  0.1584
 4847SOL    HW115982   5.363   1.235  12.404 -0.9036  0.1900 -0.6508
 4847SOL    HW215983   5.511   1.205  12.397 -0.8742 -0.2455  1.2127
 4848SOL     OW15984   4.369   6.939   6.349 -0.3975  0.4867 -0.2718
 4848SOL    HW115985   4.310   6.995   6.401 -2.4019 -1.5369 -0.2336
 4848SOL    HW215986   4.443   6.923   6.407 -0.7538  1.4300  0.4783
 4849SOL     OW15987   5.137   5.007  10.004 -0.1811 -0.1947  0.5496
 4849SOL    HW115988   5.140   4.939  10.073 -1.4635  0.0264  0.8338
 4849SOL    HW215989   5.051   4.997   9.964 -0.5504  1.4950  0.8384
 4850SOL     OW15990   0.656   2.665   4.484 -0.3487  0.2900 -0.3239
 4850SOL    HW115991   0.612   2.586   4.453 -1.8268  1.6287 -1.9348
 4850SOL    HW215992   0.588   2.714   4.530  0.1749  1.1674 -0.4477
 4851SOL     OW15993   5.128   7.285   8.115  0.8723 -0.3976 -0.6702
 4851SOL    HW115994   5.084   7.206   8.086  1.0938 -0.1158 -1.8021
 4851SOL    HW215995   5.218   7.258   8.131  0.6301 -0.6681  0.3019
 4852SOL     OW15996   7.551   2.700   2.122 -1.2208  0.3117 -0.3528
 4852SOL    HW115997   7.460   2.688   2.095 -1.7835 -1.2487  2.0435
 4852SOL    HW215998   7.555   2.667   2.211  1.6661  0.5835 -0.2892
 4853SOL     OW15999   6.285   3.257   7.572 -0.4338  0.3370 -0.3502
 4853SOL    HW116000   6.356   3.194   7.560  0.9442  1.3934  1.5524
 4853SOL    HW216001   6.211   3.205   7.603 -0.3960 -0.7287 -1.9394
 4854SOL     OW16002   0.292   5.224   2.316  0.2809 -0.2320 -0.7777
 4854SOL    HW116003   0.285   5.130   2.301  0.1356 -0.1792 -1.0437
 4854SOL    HW216004   0.220   5.262   2.267 -1.1985 -0.1727  1.3327
 4855SOL     OW16005   3.141   1.085  12.205  0.2324  0.0676 -0.2471
 4855SOL    HW116006   3.180   1.172  12.207  0.7852 -0.1792 -0.2102
 4855SOL    HW216007   3.074   1.088  12.273  0.3308  0.4226 -0.1615
 4856SOL     OW16008   6.472   5.644   5.277 -0.0647  0.1951 -0.0304
 4856SOL    HW116009   6.389   5.658   5.322 -1.1917  2.0435 -2.4354
 4856SOL    HW216010   6.532   5.708   5.317 -0.3982  0.3065  0.2979
 4857SOL     OW16011   6.522   7.512   7.377  0.3736  0.4597  0.3496
 4857SOL    HW116012   6.496   7.583   7.319 -0.0741 -0.2242 -0.2966
 4857SOL    HW216013   6.536   7.555   7.462  0.7687  1.4216 -0.1871
 4858SOL     OW16014   6.997   1.429   8.252  0.4510 -0.1797 -0.0991
 4858SOL    HW116015   7.001   1.525   8.259  0.9456 -0.1476 -0.8101
 4858SOL    HW216016   7.007   1.399   8.342 -0.6224  0.4583  0.2658
 4859SOL     OW16017   2.312   7.653   2.774 -0.1501 -0.6048 -0.3301
 4859SOL    HW116018   2.280   7.709   2.703  1.9896  0.1149 -0.8185
 4859SOL    HW216019   2.315   7.710   2.850  2.5356  0.2412 -0.9476
 4860SOL     OW16020   6.457   3.696   8.491  0.4715 -0.2700 -0.7940
 4860SOL    HW116021   6.406   3.641   8.551  1.8378  0.4730  1.1390
 4860SOL    HW216022   6.525   3.638   8.456 -1.6665 -1.3247 -3.5569
 4861SOL     OW16023   1.180   4.482   6.578 -0.8904 -0.0351  0.0226
 4861SOL    HW116024   1.249   4.467   6.514  0.7821 -0.3393  1.7934
 4861SOL    HW216025   1.152   4.394   6.604  0.5382 -0.0222  1.7909
 4862SOL     OW16026   7.364   2.279   0.796 -0.4224  0.7307  0.2241
 4862SOL    HW116027   7.383   2.323   0.713 -1.4731 -3.1339 -2.3576
 4862SOL    HW216028   7.273   2.301   0.814 -0.9706 -0.3101 -1.0902
 4863SOL     OW16029   6.685   1.595   0.154 -0.2620 -0.5094  0.2547
 4863SOL    HW116030   6.627   1.554   0.218 -0.1565 -0.7315  0.2067
 4863SOL    HW216031   6.657   1.687   0.152  1.0340 -0.0202  2.0850
 4864SOL     OW16032   3.894   7.659   6.903  0.3493  0.3060  0.3173
 4864SOL    HW116033   3.932   7.700   6.825 -0.5043  0.2262 -0.1658
 4864SOL    HW216034   3.894   7.727   6.969  0.9078  0.4367  0.1847
 4865SOL     OW16035   2.195   6.302   7.684  0.0657  0.0541 -0.2064
 4865SOL    HW116036   2.230   6.214   7.671  1.0789  0.4322 -0.1304
 4865SOL    HW216037   2.104   6.288   7.708 -0.1600 -0.9192 -1.4924
 4866SOL     OW16038   2.174   3.009   6.395  0.1418  0.9935  0.8649
 4866SOL    HW116039   2.109   2.948   6.359  1.7629  0.4289 -1.3076
 4866SOL    HW216040   2.135   3.040   6.477 -2.0417 -0.6900  0.5536
 4867SOL     OW16041   0.647   2.450  10.436  0.1185 -0.1815 -0.0002
 4867SOL    HW116042   0.707   2.424  10.366  0.7090  1.4999 -0.1528
 4867SOL    HW216043   0.673   2.539  10.459 -1.9610  0.3962  0.3326
 4868SOL     OW16044   4.274   1.847   3.503  0.9713 -0.2049  0.2361
 4868SOL    HW116045   4.198   1.799   3.470  0.2080  1.3505 -0.4062
 4868SOL    HW216046   4.283   1.818   3.593 -0.6019 -0.2106  0.4271
 4869SOL     OW16047   0.261   4.336   6.481 -0.1488  0.1683 -0.1660
 4869SOL    HW116048   0.338   4.312   6.430 -0.9884  0.1709 -1.4881
 4869SOL    HW216049   0.192   4.278   6.449 -0.7533  0.2985  0.8507
 4870SOL     OW16050   6.449   6.331  10.782  0.1097  0.6863  0.1092
 4870SOL    HW116051   6.477   6.385  10.856  0.3927  1.9497 -0.8704
 4870SOL    HW216052   6.360   6.303  10.805 -0.2101  1.9284  0.4783
 4871SOL     OW16053   3.648   0.651   1.269 -0.1474 -0.2645 -0.1712
 4871SOL    HW116054   3.557   0.663   1.298 -1.0325  0.9554 -3.0684
 4871SOL    HW216055   3.698   0.715   1.319 -1.2310  0.4016  0.0915
 4872SOL     OW16056   3.255   5.069   1.917  0.0057  0.0180 -0.2433
 4872SOL    HW116057   3.334   5.066   1.971 -0.8867 -1.0112  1.0763
 4872SOL    HW216058   3.183   5.065   1.979 -1.1148  1.0046 -1.4161
 4873SOL     OW16059   3.787   5.115  11.601 -0.1162  0.4208 -0.1835
 4873SOL    HW116060   3.880   5.120  11.624 -0.1527  2.2193 -0.2998
 4873SOL    HW216061   3.787   5.093  11.508  0.1048 -1.7110  0.2472
 4874SOL     OW16062   1.867   6.749   8.586 -0.1685 -0.5937  0.0860
 4874SOL    HW116063   1.866   6.845   8.593  1.7827 -0.5750  0.6994
 4874SOL    HW216064   1.811   6.719   8.657 -0.8669  0.0732 -0.1616
 4875SOL     OW16065   0.354   2.511   2.655  0.5629 -0.4378  0.1253
 4875SOL    HW116066   0.300   2.516   2.576 -1.0955 -0.2501  1.2355
 4875SOL    HW216067   0.436   2.471   2.625  0.0385 -0.2219 -1.7132
 4876SOL     OW16068   5.947   5.533   2.327  0.7739 -0.2649 -0.3562
 4876SOL    HW116069   5.905   5.468   2.271 -0.1762  0.8664 -0.9945
 4876SOL    HW216070   5.998   5.481   2.389 -0.9046 -1.6691 -0.0747
 4877SOL     OW16071   5.989   6.471  10.328  0.3096  0.2440  0.1717
 4877SOL    HW116072   6.035   6.457  10.411 -1.0788 -1.8990  0.6570
 4877SOL    HW216073   5.938   6.392  10.316 -0.1341  0.8550 -2.3773
 4878SOL     OW16074   2.759   5.349   8.211  0.0799  0.4674 -0.0915
 4878SOL    HW116075   2.713   5.392   8.139 -1.3683  0.9667  1.0886
 4878SOL    HW216076   2.734   5.258   8.205  1.1965  0.1974 -1.1120
 4879SOL     OW16077   7.318   1.463  10.439 -0.1139  0.4422 -0.8975
 4879SOL    HW116078   7.314   1.558  10.439 -0.6403  0.4265 -1.4701
 4879SOL    HW216079   7.399   1.442  10.392  2.4386  0.6324  2.9480
 4880SOL     OW16080   6.311   6.032   1.354  0.1645  0.2355 -0.5755
 4880SOL    HW116081   6.402   6.051   1.375 -0.0338  3.1892 -1.8746
 4880SOL    HW216082   6.305   6.045   1.260 -1.5073 -0.4485 -0.5968
 4881SOL     OW16083   6.350   4.993   9.289  0.4096  0.2363 -0.1747
 4881SOL    HW116084   6.391   5.072   9.253 -0.6092  1.1744  0.6233
 4881SOL    HW216085   6.356   4.929   9.219  0.5551  1.2690 -1.1460
 4882SOL     OW16086   5.516   4.054   1.716  0.7293  0.1449  0.4259
 4882SOL    HW116087   5.516   4.096   1.630 -1.5196  1.2362  0.8858
 4882SOL    HW216088   5.555   4.119   1.775 -0.7269  0.7701  0.7505
 4883SOL     OW16089   6.635   2.226   1.179  0.0453  0.6399 -0.0115
 4883SOL    HW116090   6.720   2.254   1.214 -0.3669  0.9124  0.7878
 4883SOL    HW216091   6.657   2.155   1.119  0.8282  0.5935  0.3113
 4884SOL     OW16092   5.114   5.421   6.232 -0.1245 -0.3321 -0.2613
 4884SOL    HW116093   5.073   5.436   6.146  0.1550  0.2773 -0.2969
 4884SOL    HW216094   5.045   5.382   6.285 -0.9034  1.0520 -0.1979
 4885SOL     OW16095   3.821   6.700   1.932  0.1238 -0.2407  0.1389
 4885SOL    HW116096   3.784   6.673   2.016 -1.3859  0.1017 -0.3874
 4885SOL    HW216097   3.777   6.783   1.912  0.5438 -0.2665 -0.9512
 4886SOL     OW16098   6.588   1.375   4.359 -0.5242  0.2475 -0.2027
 4886SOL    HW116099   6.625   1.304   4.411  0.2909 -0.5853 -1.8200
 4886SOL    HW216100   6.628   1.455   4.393  0.0085 -0.2773  0.4171
 4887SOL     OW16101   7.746   0.332   8.607 -0.4830  0.4279 -0.0589
 4887SOL    HW116102   7.689   0.345   8.532  2.1442 -0.9620 -2.4872
 4887SOL    HW216103   7.725   0.244   8.638 -2.3814  1.4162  1.7487
 4888SOL     OW16104   7.216   1.662   7.878  0.0368  0.1658 -0.3987
 4888SOL    HW116105   7.306   1.661   7.911 -1.1794  2.1436  3.6567
 4888SOL    HW216106   7.206   1.747   7.835 -0.4593  1.0174  1.3238
 4889SOL     OW16107   5.191   2.833   3.161  0.2861 -0.0709  0.5384
 4889SOL    HW116108   5.226   2.773   3.095 -0.1393 -1.4149  1.4959
 4889SOL    HW216109   5.200   2.920   3.122  1.2673 -0.7161 -0.7344
 4890SOL     OW16110   7.205   4.802  12.382 -0.2029  0.3369  0.0196
 4890SOL    HW116111   7.138   4.766  12.441  0.7361 -1.2419  0.1811
 4890SOL    HW216112   7.189   4.897  12.383 -1.6261  0.1251  1.0326
 4891SOL     OW16113   7.647   5.959   4.390  0.6035 -0.4583  0.7976
 4891SOL    HW116114   7.705   5.944   4.315  0.0035  1.4486 -0.1337
 4891SOL    HW216115   7.560   5.967   4.351  0.1685 -0.1831  1.7986
 4892SOL     OW16116   0.661   6.838   7.364  0.2130 -0.2412  0.3905
 4892SOL    HW116117   0.720   6.763   7.358 -0.0307 -0.3731 -0.4643
 4892SOL    HW216118   0.650   6.867   7.274  0.3662  0.8734  0.7144
 4893SOL     OW16119   7.450   1.664  10.112  0.0739 -0.4530 -0.5520
 4893SOL    HW116120   7.484   1.749  10.141  1.9954 -0.4561 -2.5114
 4893SOL    HW216121   7.527   1.611  10.098 -0.9397 -1.6330 -1.9506
 4894SOL     OW16122   4.233   0.879   2.828 -0.5516  0.4668  0.0695
 4894SOL    HW116123   4.169   0.808   2.822  0.2176 -0.2085 -0.2960
 4894SOL    HW216124   4.308   0.841   2.873 -1.1005  1.7984  2.2789
 4895SOL     OW16125   2.405   6.548   1.312  0.1333 -0.1684 -0.1409
 4895SOL    HW116126   2.327   6.603   1.324  1.1959  2.1055 -2.5067
 4895SOL    HW216127   2.380   6.485   1.244 -0.3393 -1.0647  0.8393
 4896SOL     OW16128   1.346   0.772  10.778 -0.3712 -0.0668  0.1737
 4896SOL    HW116129   1.335   0.708  10.848  1.3931  1.0961  1.6033
 4896SOL    HW216130   1.299   0.850  10.809 -2.2709 -0.4847 -1.4232
 4897SOL     OW16131   6.530   1.549   0.794  0.4181 -0.0190 -0.1811
 4897SOL    HW116132   6.462   1.493   0.757 -1.0215  1.1978  0.5034
 4897SOL    HW216133   6.521   1.539   0.889  1.0998  0.2749 -0.0813
 4898SOL     OW16134   0.365   5.350   5.569  0.2909 -0.1285 -0.5890
 4898SOL    HW116135   0.358   5.445   5.559  0.3690  0.3100  2.5041
 4898SOL    HW216136   0.296   5.328   5.632  1.7450 -1.7326  0.5273
 4899SOL     OW16137   1.137   7.247  11.874  0.2146  0.2432  0.2658
 4899SOL    HW116138   1.083   7.281  11.803 -1.0833 -1.1137  0.5662
 4899SOL    HW216139   1.178   7.325  11.912 -0.4227  1.1569 -0.8583
 4900SOL     OW16140   7.527   0.459  11.162 -0.6696  0.0648 -0.4259
 4900SOL    HW116141   7.457   0.463  11.228 -0.3150  2.2040 -0.0803
 4900SOL    HW216142   7.603   0.426  11.210 -1.1583 -1.3098 -0.5564
 4901SOL     OW16143   7.237   0.163   3.895 -0.2391 -0.1121  0.6000
 4901SOL    HW116144   7.260   0.198   3.809 -1.1651 -1.0522 -0.0576
 4901SOL    HW216145   7.201   0.238   3.942  2.2725  0.9326  0.9904
 4902SOL     OW16146   2.930   0.875   1.088  0.3371 -0.5072 -0.1631
 4902SOL    HW116147   2.912   0.817   1.014  1.8316 -1.1059 -0.0833
 4902SOL    HW216148   2.991   0.940   1.054  1.3084 -0.9912  0.5974
 4903SOL     OW16149   0.754   5.999   9.538  0.2162  0.3082 -0.3288
 4903SOL    HW116150   0.753   5.906   9.563 -1.3155  0.0654 -1.2185
 4903SOL    HW216151   0.842   6.012   9.502  0.7273 -0.5833  0.5292
 4904SOL     OW16152   0.280   6.170   4.840 -0.0999  0.0381  0.3313
 4904SOL    HW116153   0.245   6.156   4.927  0.5469  0.8169  0.7321
 4904SOL    HW216154   0.221   6.122   4.782 -0.4726 -0.5772  1.1982
 4905SOL     OW16155   1.661   5.474   3.139  0.2351 -0.6397 -0.4527
 4905SOL    HW116156   1.746   5.507   3.109 -0.7205  1.4669 -1.0363
 4905SOL    HW216157   1.669   5.470   3.234  0.6082  0.7768 -0.4037
 4906SOL     OW16158   3.681   4.371   0.544 -0.2570  0.1080 -0.2065
 4906SOL    HW116159   3.684   4.415   0.629 -2.4897  3.0670 -1.4673
 4906SOL    HW216160   3.705   4.281   0.562 -1.0835  0.5090  3.6279
 4907SOL     OW16161   1.896   0.382   7.295 -0.8174 -0.7934  0.4342
 4907SOL    HW116162   1.859   0.372   7.207 -0.9801  0.6705  0.3117
 4907SOL    HW216163   1.961   0.312   7.302 -2.1620 -2.1332 -0.1096
 4908SOL     OW16164   6.196   2.971   5.733 -0.3770 -0.0459 -0.2308
 4908SOL    HW116165   6.278   2.961   5.781 -0.4718  0.4260  0.0311
 4908SOL    HW216166   6.191   3.064   5.714  0.6625 -0.4548 -2.9271
 4909SOL     OW16167   0.668   3.010   8.476 -0.6301  0.4195 -0.2676
 4909SOL    HW116168   0.747   3.016   8.423  0.4372 -0.6761  1.1180
 4909SOL    HW216169   0.675   3.081   8.539 -0.6244  0.1786  0.0061
 4910SOL     OW16170   5.947   5.345   1.521 -0.7232  0.0237 -0.5135
 4910SOL    HW116171   5.936   5.384   1.435  3.4114 -1.6438 -2.0278
 4910SOL    HW216172   5.892   5.267   1.520 -1.4132  0.5139 -1.2633
 4911SOL     OW16173   6.583   3.083   3.934  0.0347 -0.4415  0.6004
 4911SOL    HW116174   6.499   3.086   3.888 -0.7420 -0.8020  1.9334
 4911SOL    HW216175   6.633   3.016   3.888  0.4872  1.2864 -1.6002
 4912SOL     OW16176   2.266   2.099  11.019  0.4043 -0.5254 -0.4503
 4912SOL    HW116177   2.242   2.101  11.112 -0.3979  0.4943 -0.6575
 4912SOL    HW216178   2.230   2.181  10.984 -0.9546 -1.7614 -2.0798
 4913SOL     OW16179   2.813   6.156   8.644 -0.0616 -0.1651 -0.1524
 4913SOL    HW116180   2.878   6.175   8.712 -0.0411  2.3569 -0.7804
 4913SOL    HW216181   2.737   6.123   8.692  0.4935  0.0882  0.9364
 4914SOL     OW16182   5.205   2.154   0.522 -0.0348 -0.2649 -0.3926
 4914SOL    HW116183   5.204   2.228   0.583 -0.2013 -0.5650 -0.0289
 4914SOL    HW216184   5.127   2.167   0.467 -0.4481 -0.5344  0.1168
 4915SOL     OW16185   5.015   7.476   9.706 -0.3086 -0.1595  0.0236
 4915SOL    HW116186   4.981   7.513   9.624  0.4073  1.9728  0.6365
 4915SOL    HW216187   4.944   7.489   9.769 -0.4673 -0.8612 -0.0048
 4916SOL     OW16188   6.708   2.187   5.637 -0.0374 -0.1751  0.2314
 4916SOL    HW116189   6.770   2.231   5.579 -0.7499  2.1048  1.0759
 4916SOL    HW216190   6.762   2.156   5.710  0.4499 -0.5399 -0.2729
 4917SOL     OW16191   4.452   2.571  11.709  0.2460 -0.2015 -0.0654
 4917SOL    HW116192   4.438   2.553  11.802 -0.3438 -0.5399 -0.2115
 4917SOL    HW216193   4.401   2.651  11.692 -2.9973 -2.2831 -0.9450
 4918SOL     OW16194   1.567   6.521   0.468  0.1487  0.2062  0.0823
 4918SOL    HW116195   1.506   6.449   0.451  2.3197 -1.6305 -0.4201
 4918SOL    HW216196   1.608   6.537   0.384 -1.2650  3.1044 -0.1595
 4919SOL     OW16197   0.737   5.688   5.893 -0.3245  0.2309 -0.1278
 4919SOL    HW116198   0.697   5.610   5.854  1.3054  0.2555 -2.0077
 4919SOL    HW216199   0.725   5.756   5.827 -1.4761  1.5644  1.3781
 4920SOL     OW16200   1.066   4.506   1.509 -0.0927 -0.3376 -0.3280
 4920SOL    HW116201   1.059   4.533   1.601  1.2451  0.2262 -0.3675
 4920SOL    HW216202   1.020   4.573   1.460 -0.2949 -0.3217 -0.1176
 4921SOL     OW16203   6.598   6.463   0.816  0.1114  0.2607  0.2567
 4921SOL    HW116204   6.645   6.544   0.834  0.1740  0.1024  0.8373
 4921SOL    HW216205   6.635   6.432   0.733  0.5778  0.4685  0.3834
 4922SOL     OW16206   3.540   7.686   6.996  0.5354 -0.0403 -0.1002
 4922SOL    HW116207   3.586   7.724   7.071  1.3640  0.7393 -0.9615
 4922SOL    HW216208   3.493   7.610   7.031  1.4231 -0.0675  1.0764
 4923SOL     OW16209   3.910   6.925  12.006  0.1263  0.0123  0.0972
 4923SOL    HW116210   3.830   6.901  11.958 -0.7127  0.9838  0.9500
 4923SOL    HW216211   3.944   6.842  12.039 -0.8587 -0.3661  0.1964
 4924SOL     OW16212   4.749   2.939  10.325  0.2649  0.3788 -0.6666
 4924SOL    HW116213   4.814   2.895  10.272  1.5632  0.1719  1.0210
 4924SOL    HW216214   4.793   3.018  10.357  0.1452 -0.3661  1.4727
 4925SOL     OW16215   7.559   5.646  11.548  0.0420 -0.7232  0.2296
 4925SOL    HW116216   7.550   5.722  11.491 -1.8272 -1.0799 -0.0097
 4925SOL    HW216217   7.572   5.572  11.489  0.1971 -0.8112  0.3727
 4926SOL     OW16218   6.241   4.549   2.893 -0.0121 -0.1250 -0.0493
 4926SOL    HW116219   6.192   4.623   2.857 -1.7035 -1.2044 -0.0917
 4926SOL    HW216220   6.252   4.488   2.820 -1.0536 -1.1068  0.5738
 4927SOL     OW16221   3.578   3.179   1.814 -0.1044  0.1283  0.2294
 4927SOL    HW116222   3.672   3.169   1.800 -0.2581 -0.5362 -0.3893
 4927SOL    HW216223   3.553   3.099   1.861 -0.4509  0.0633 -0.0686
 4928SOL     OW16224   3.966   7.522   3.857 -0.3070 -0.0488  0.4810
 4928SOL    HW116225   3.978   7.582   3.931  2.3918  0.6313 -0.3803
 4928SOL    HW216226   3.990   7.575   3.780 -0.1820 -1.5607 -0.5574
 4929SOL     OW16227   3.655   1.324   8.775 -0.0769  0.2098  0.0095
 4929SOL    HW116228   3.581   1.362   8.822  0.2193  2.5453 -1.2804
 4929SOL    HW216229   3.633   1.335   8.682  1.9316  1.1617 -0.4091
 4930SOL     OW16230   4.506   0.876   9.418 -0.0594  0.0204  0.0455
 4930SOL    HW116231   4.483   0.840   9.504  0.9129  0.8603  0.6810
 4930SOL    HW216232   4.564   0.950   9.438  0.2568  0.1669 -1.3459
 4931SOL     OW16233   4.599   0.499   3.943 -0.1401 -0.6069 -0.8950
 4931SOL    HW116234   4.539   0.525   3.873 -0.5514  0.8196 -0.0565
 4931SOL    HW216235   4.671   0.455   3.898 -0.4400  0.1928 -2.2139
 4932SOL     OW16236   3.731   0.976   5.288  0.0255 -0.5926 -0.2669
 4932SOL    HW116237   3.737   0.916   5.213 -2.7979  0.8329 -1.7967
 4932SOL    HW216238   3.672   0.932   5.349 -0.9666 -0.0420 -0.7913
 4933SOL     OW16239   6.838   7.866   6.977 -0.1448  0.2107 -0.3158
 4933SOL    HW116240   6.852   7.945   7.029 -0.5867 -0.7559  1.3437
 4933SOL    HW216241   6.923   7.822   6.977 -0.5387 -0.6225  1.0931
 4934SOL     OW16242   2.649   6.568   6.820 -0.1497  0.0957 -0.3652
 4934SOL    HW116243   2.619   6.478   6.812 -1.7785  0.4658  1.2049
 4934SOL    HW216244   2.571   6.622   6.807  0.6920  1.2848 -0.7423
 4935SOL     OW16245   2.753   1.593  10.071  0.0519 -0.0882  0.2223
 4935SOL    HW116246   2.827   1.647  10.099 -1.2302  1.6304  0.4868
 4935SOL    HW216247   2.741   1.615   9.979 -0.6631  0.3267  0.4073
 4936SOL     OW16248   5.379   3.565   6.514  0.5292 -0.6677  0.6794
 4936SOL    HW116249   5.461   3.522   6.489 -0.3443 -0.7951 -2.3435
 4936SOL    HW216250   5.394   3.658   6.495 -0.3246 -0.8287 -0.9096
 4937SOL     OW16251   3.245   5.082   0.263  0.7152 -0.0800  0.4563
 4937SOL    HW116252   3.298   5.077   0.342 -2.0845 -1.7464  2.4202
 4937SOL    HW216253   3.223   4.990   0.244  2.8934  0.0199 -3.5629
 4938SOL     OW16254   1.820   5.484   0.418 -0.3224  0.5857 -0.5925
 4938SOL    HW116255   1.780   5.568   0.440 -1.0191  0.3880 -1.0536
 4938SOL    HW216256   1.810   5.431   0.496 -2.7990 -0.1259 -1.3137
 4939SOL     OW16257   5.460   2.066   2.503  0.3955 -1.2744 -0.5848
 4939SOL    HW116258   5.524   2.067   2.574  0.7790  0.7345 -0.9020
 4939SOL    HW216259   5.413   1.983   2.514  1.8309 -1.9596  0.7352
 4940SOL     OW16260   2.361   7.392   3.050 -0.2737 -0.0597  0.0375
 4940SOL    HW116261   2.419   7.402   2.975  0.3899 -1.0737  0.3989
 4940SOL    HW216262   2.343   7.298   3.054  0.4186 -0.1468  1.6704
 4941SOL     OW16263   3.002   0.046   2.445  0.1343  0.2298  0.7208
 4941SOL    HW116264   3.010   0.078   2.355  1.9346  1.6404  1.3370
 4941SOL    HW216265   2.927   0.093   2.480 -0.3699 -0.0787  0.0891
 4942SOL     OW16266   3.345   1.363   4.993 -0.4574 -0.0822  0.4913
 4942SOL    HW116267   3.259   1.388   5.027 -0.6964  0.6243 -0.5672
 4942SOL    HW216268   3.386   1.446   4.969 -0.3546 -0.5392 -1.0094
 4943SOL     OW16269   3.340   6.455   5.920 -0.1598 -0.0596  0.4720
 4943SOL    HW116270   3.421   6.456   5.970 -0.7795 -1.2437  1.5806
 4943SOL    HW216271   3.360   6.404   5.842  0.2549 -0.0391  0.5665
 4944SOL     OW16272   2.421   0.259   7.246  0.1799  0.3770 -0.4906
 4944SOL    HW116273   2.397   0.208   7.169  2.2565  0.0251 -0.9626
 4944SOL    HW216274   2.462   0.339   7.210  1.3909  0.1016  0.2026
 4945SOL     OW16275   0.824   0.248  12.225 -0.2537  0.2095  0.3117
 4945SOL    HW116276   0.735   0.240  12.192 -0.8817  0.3406  1.9170
 4945SOL    HW216277   0.877   0.197  12.163 -1.3590  0.5361 -0.9344
 4946SOL     OW16278   6.621   4.502   6.946  0.3690  0.2132  0.2570
 4946SOL    HW116279   6.534   4.490   6.983  0.3944 -1.1463 -0.0403
 4946SOL    HW216280   6.624   4.441   6.872  1.9680 -0.6612  0.9798
 4947SOL     OW16281   1.386   3.733   0.748  0.4613  0.0525  0.1474
 4947SOL    HW116282   1.468   3.766   0.785  1.4566 -0.1939 -1.7150
 4947SOL    HW216283   1.388   3.639   0.766 -0.3329  0.3094  1.7188
 4948SOL     OW16284   3.619   3.252   3.341 -0.0657 -0.3412  0.0519
 4948SOL    HW116285   3.705   3.282   3.371  0.2314 -0.8035 -0.3042
 4948SOL    HW216286   3.629   3.157   3.331 -1.0543 -0.6159  1.4101
 4949SOL     OW16287   1.014   2.509   4.710  0.2186  0.0561  0.2097
 4949SOL    HW116288   1.091   2.560   4.735  0.6946  0.0887 -1.2447
 4949SOL    HW216289   0.941   2.552   4.755  0.9129  0.5850  0.8609
 4950SOL     OW16290   0.796   3.523  10.550 -0.0222  0.3760  0.0478
 4950SOL    HW116291   0.831   3.492  10.466 -1.3558  1.7200 -1.0590
 4950SOL    HW216292   0.799   3.618  10.544  1.2641  0.5174  2.1814
 4951SOL     OW16293   1.554   3.026   6.695  0.2548  0.7197  0.6183
 4951SOL    HW116294   1.601   3.010   6.613  1.2626 -1.5253  1.5658
 4951SOL    HW216295   1.580   3.115   6.720  1.0468  0.9096 -0.7751
 4952SOL     OW16296   6.290   2.992   8.683  0.1592  0.5842 -0.1834
 4952SOL    HW116297   6.295   2.924   8.616  0.7764 -0.9418  1.3086
 4952SOL    HW216298   6.197   2.997   8.705  0.2234 -0.6651  0.4918
 4953SOL     OW16299   2.975   4.898  10.407 -0.0379  0.0024 -0.5261
 4953SOL    HW116300   2.949   4.914  10.498  2.3401  0.2271  0.1708
 4953SOL    HW216301   2.987   4.985  10.370  1.3607 -0.0681 -0.2915
 4954SOL     OW16302   1.063   6.856   0.216  0.3765 -0.3992 -0.7154
 4954SOL    HW116303   1.089   6.845   0.124 -0.8566  0.0352 -1.1288
 4954SOL    HW216304   1.065   6.768   0.252  0.2110 -0.6679 -1.3504
 4955SOL     OW16305   7.404   2.394   4.021  0.2627  0.2760 -0.4024
 4955SOL    HW116306   7.426   2.316   3.969  0.8788  1.7435 -2.4548
 4955SOL    HW216307   7.489   2.434   4.040 -0.1372  1.3375 -0.8140
 4956SOL     OW16308   2.156   7.307   3.463 -0.7344  0.1511 -0.0681
 4956SOL    HW116309   2.088   7.249   3.497 -0.2393  0.4600  1.5701
 4956SOL    HW216310   2.166   7.375   3.531  2.6052 -1.0262  0.8490
 4957SOL     OW16311   3.095   7.146   5.806 -0.0610  0.3497  0.2038
 4957SOL    HW116312   3.013   7.189   5.784 -0.2067 -0.0537 -0.0549
 4957SOL    HW216313   3.153   7.167   5.732 -0.1761 -0.0063  0.0084
 4958SOL     OW16314   6.674   3.081  10.612  0.4693  0.0954  0.0250
 4958SOL    HW116315   6.654   3.081  10.705  0.4085  0.0275  0.0121
 4958SOL    HW216316   6.765   3.051  10.606  0.3714 -0.2057  0.0411
 4959SOL     OW16317   1.660   6.272   8.390  0.3977 -0.4006 -0.2724
 4959SOL    HW116318   1.711   6.328   8.449  0.8120 -1.0720  0.0287
 4959SOL    HW216319   1.691   6.183   8.410 -1.6158 -0.9493  0.6582
 4960SOL     OW16320   3.692   7.004   3.561  0.2569  0.3597 -0.0304
 4960SOL    HW116321   3.669   6.967   3.646 -1.3314  0.0070 -0.5916
 4960SOL    HW216322   3.658   6.942   3.497 -1.0850  1.9653 -0.9710
 4961SOL     OW16323   3.755   2.256   9.979 -0.3535 -0.1665 -0.0392
 4961SOL    HW116324   3.780   2.294  10.063  0.4663  0.6106 -0.6106
 4961SOL    HW216325   3.674   2.301   9.955 -0.2093  0.1206  0.0081
 4962SOL     OW16326   2.049   7.525   5.476 -0.1384 -0.5370  0.0280
 4962SOL    HW116327   1.992   7.597   5.504 -1.6265 -1.0944 -1.4273
 4962SOL    HW216328   2.062   7.539   5.383 -0.2852 -2.0393 -0.2355
 4963SOL     OW16329   5.714   7.359   8.154  0.4881 -0.1460 -0.1892
 4963SOL    HW116330   5.689   7.297   8.085  0.2677  0.2041 -0.4250
 4963SOL    HW216331   5.734   7.440   8.107  1.4632 -0.2351  0.0518
 4964SOL     OW16332   6.990   4.680   9.731 -0.2722 -0.1536 -0.2536
 4964SOL    HW116333   6.959   4.604   9.781 -0.0054 -1.9253 -2.6156
 4964SOL    HW216334   7.009   4.646   9.644 -0.1899  2.6722 -1.4664
 4965SOL     OW16335   1.528   7.638   1.713 -0.8035  0.0676  1.0335
 4965SOL    HW116336   1.599   7.576   1.696  0.4288  1.5640  0.5640
 4965SOL    HW216337   1.486   7.604   1.792  0.2101 -1.0307  1.1301
 4966SOL     OW16338   5.882   6.492   7.866  0.1983 -0.1623 -0.2263
 4966SOL    HW116339   5.847   6.581   7.874  0.3962 -0.0733 -0.3243
 4966SOL    HW216340   5.967   6.504   7.824 -0.4261 -0.5296 -1.6554
 4967SOL     OW16341   7.063   2.990   7.106 -0.5389  0.3732  0.2697
 4967SOL    HW116342   7.012   3.064   7.071  0.0859 -0.4419 -2.7012
 4967SOL    HW216343   6.996   2.928   7.136 -1.1270  1.1946  0.7163
 4968SOL     OW16344   3.007   7.048   3.091 -0.3494 -0.2404 -0.0511
 4968SOL    HW116345   3.086   7.097   3.066  0.1606 -1.0804 -0.1391
 4968SOL    HW216346   2.998   7.064   3.185  0.2896 -0.6290  0.0845
 4969SOL     OW16347   1.375   7.758   3.299 -0.4657  0.1104 -0.0183
 4969SOL    HW116348   1.356   7.691   3.364 -1.2763 -0.1810 -0.5359
 4969SOL    HW216349   1.457   7.730   3.258 -1.2196 -1.0280 -0.7983
 4970SOL     OW16350   5.273   4.181  10.415  0.0292  0.0351  0.0697
 4970SOL    HW116351   5.179   4.186  10.434  0.3442  2.4358  1.4228
 4970SOL    HW216352   5.307   4.118  10.478 -0.5522 -0.3567  0.0047
 4971SOL     OW16353   7.534   1.812   7.329  0.4686  0.0148  0.1161
 4971SOL    HW116354   7.461   1.866   7.360 -0.0038 -0.0169 -0.8831
 4971SOL    HW216355   7.588   1.873   7.278 -0.0546 -0.4356 -0.9947
 4972SOL     OW16356   2.542   4.894   4.144  0.3789 -0.1699  0.0633
 4972SOL    HW116357   2.636   4.890   4.160  0.7537 -0.6061 -1.9845
 4972SOL    HW216358   2.522   4.988   4.140  0.3385 -0.0269  2.2403
 4973SOL     OW16359   7.426   7.121   8.551  0.2529 -0.4676  0.1182
 4973SOL    HW116360   7.416   7.029   8.527  0.3154 -0.3487 -0.3780
 4973SOL    HW216361   7.419   7.168   8.468 -0.2649  0.0176  0.4307
 4974SOL     OW16362   0.487   3.355   4.763  0.3282 -0.5359 -0.3128
 4974SOL    HW116363   0.563   3.315   4.805  0.4953 -0.7417 -0.8005
 4974SOL    HW216364   0.491   3.324   4.672  0.4096  0.5292 -0.6825
 4975SOL     OW16365   4.897   5.488  10.282  0.1387 -0.1570  1.0198
 4975SOL    HW116366   4.951   5.414  10.254 -1.2659 -0.7168 -0.2935
 4975SOL    HW216367   4.808   5.465  10.257 -0.2199  2.4287 -0.4820
 4976SOL     OW16368   3.132   7.669   4.374 -0.2069  0.5820 -0.1430
 4976SOL    HW116369   3.188   7.741   4.401 -0.5998  2.5757 -4.0038
 4976SOL    HW216370   3.173   7.591   4.412  2.3105  2.4462  1.2367
 4977SOL     OW16371   3.037   4.245   8.757 -0.1304  0.4803 -0.5339
 4977SOL    HW116372   2.980   4.264   8.833  0.9996 -0.1763  0.5079
 4977SOL    HW216373   3.005   4.305   8.689 -1.4921  0.7611  0.2899
 4978SOL     OW16374   7.916   0.032  11.916  0.3499  0.2149  0.1632
 4978SOL    HW116375   7.984   0.099  11.915  0.5516  0.0369 -1.6568
 4978SOL    HW216376   7.962  -0.050  11.896 -0.1949 -0.1231  0.2751
 4979SOL     OW16377   0.807   1.109   5.667 -0.0317 -0.1714  0.3649
 4979SOL    HW116378   0.824   1.053   5.591 -1.7438 -1.2425  0.7223
 4979SOL    HW216379   0.802   1.198   5.630  0.0634 -0.5631 -0.6351
 4980SOL     OW16380   0.824   1.414   5.876 -0.2142 -0.6926 -0.2995
 4980SOL    HW116381   0.915   1.443   5.871 -0.0952 -0.4490  2.0585
 4980SOL    HW216382   0.797   1.405   5.785  1.6115  0.9752 -1.0966
 4981SOL     OW16383   3.007   5.807  11.467 -0.2673 -0.1803  0.1929
 4981SOL    HW116384   2.950   5.778  11.539 -0.3004 -0.8222 -0.0793
 4981SOL    HW216385   2.978   5.755  11.392 -1.8389  2.1644 -0.9244
 4982SOL     OW16386   0.520   5.019   1.031  0.0677 -0.1979 -0.0214
 4982SOL    HW116387   0.545   5.002   1.122  0.9879 -2.3851 -0.6345
 4982SOL    HW216388   0.603   5.023   0.984 -0.4712 -1.1226 -1.0847
 4983SOL     OW16389   2.665   3.269   3.445  0.1014  0.2804  0.7130
 4983SOL    HW116390   2.755   3.288   3.417  0.5680  0.9261  2.5050
 4983SOL    HW216391   2.612   3.334   3.400  0.5087 -0.1212 -0.3807
 4984SOL     OW16392   2.354   1.436   3.141 -0.0918 -0.1901  0.1612
 4984SOL    HW116393   2.298   1.361   3.122  0.7801 -0.9794  0.6291
 4984SOL    HW216394   2.396   1.456   3.057  1.1051 -1.4569  0.4088
 4985SOL     OW16395   6.017   0.826   2.387  0.2674  0.3250  0.1445
 4985SOL    HW116396   5.957   0.882   2.338  1.0728 -0.5482 -1.9477
 4985SOL    HW216397   6.081   0.887   2.425 -2.0772  1.3374  2.8847
 4986SOL     OW16398   6.293   0.464   6.881 -0.0418  0.3832  0.2889
 4986SOL    HW116399   6.268   0.547   6.841 -1.7512  0.1282  0.7729
 4986SOL    HW216400   6.320   0.409   6.807 -0.2397  0.9131 -0.1839
 4987SOL     OW16401   6.170   0.089   9.604  0.1182 -0.4489  0.5523
 4987SOL    HW116402   6.165   0.124   9.515 -1.1691 -0.3261  0.6607
 4987SOL    HW216403   6.138  -0.001   9.596 -0.9864 -0.1183  1.0411
 4988SOL     OW16404   7.597   3.348   5.867 -0.4736 -0.4348 -0.2416
 4988SOL    HW116405   7.581   3.340   5.773 -0.5368  0.9509 -0.3721
 4988SOL    HW216406   7.511   3.334   5.907 -0.9077  1.1621 -0.5546
 4989SOL     OW16407   0.736   1.620  11.857  0.2425  0.7707  0.0667
 4989SOL    HW116408   0.688   1.545  11.890 -1.9335  1.9029 -0.3555
 4989SOL    HW216409   0.775   1.590  11.775 -1.6435  0.3931 -0.7446
 4990SOL     OW16410   3.263   1.278   0.471  0.1785  0.3171 -0.4692
 4990SOL    HW116411   3.179   1.250   0.435  0.7020 -4.0361  1.0345
 4990SOL    HW216412   3.327   1.254   0.404  0.4145  1.5539 -0.7007
 4991SOL     OW16413   4.696   4.072   1.572 -0.0027  0.2556 -0.0799
 4991SOL    HW116414   4.615   4.045   1.530  0.6720 -2.3157  0.0888
 4991SOL    HW216415   4.765   4.040   1.513  0.9134  0.4022  0.8833
 4992SOL     OW16416   0.544   0.664   9.886 -0.1016 -0.1712 -0.5188
 4992SOL    HW116417   0.586   0.720   9.821  1.9602  0.1818  1.0619
 4992SOL    HW216418   0.485   0.609   9.834  2.4980 -0.9093 -2.9389
 4993SOL     OW16419   2.013   7.382   5.725  0.5455  0.5569  0.0304
 4993SOL    HW116420   2.012   7.290   5.753 -2.4714  0.1485 -1.0342
 4993SOL    HW216421   2.043   7.379   5.634  0.1783  0.5507 -0.0954
 4994SOL     OW16422   7.608   1.355   7.547  0.1269  0.0877 -0.0395
 4994SOL    HW116423   7.673   1.418   7.581  0.6323 -1.2273  1.5677
 4994SOL    HW216424   7.659   1.297   7.490  0.0235  0.0893 -0.1324
 4995SOL     OW16425   0.001   7.109   2.415 -0.0857  0.5302 -0.5088
 4995SOL    HW116426  -0.018   7.193   2.457 -0.3820  0.1965  0.0289
 4995SOL    HW216427   0.093   7.092   2.437  0.4078  1.3818 -1.7961
 4996SOL     OW16428   1.209   0.253  10.890  0.0537 -0.2570 -0.0850
 4996SOL    HW116429   1.258   0.275  10.810 -0.4128 -1.1401 -0.6228
 4996SOL    HW216430   1.165   0.171  10.869 -1.4998  0.4149  0.4645
 4997SOL     OW16431   3.166   6.202   3.875  0.4707 -0.2289  0.7541
 4997SOL    HW116432   3.239   6.239   3.925  0.3008 -2.1770  2.5481
 4997SOL    HW216433   3.090   6.210   3.932  0.2653 -2.5332  0.9021
 4998SOL     OW16434   7.410   0.114   3.120 -0.0063 -0.1774 -0.0732
 4998SOL    HW116435   7.436   0.023   3.134 -0.2481 -0.4146 -1.0879
 4998SOL    HW216436   7.352   0.111   3.044  0.4273  0.8917 -0.4687
 4999SOL     OW16437   0.109   6.128   7.944  0.8133  0.0271  0.0129
 4999SOL    HW116438   0.079   6.208   7.902 -0.0584 -1.0057 -1.4133
 4999SOL    HW216439   0.030   6.076   7.956  1.5190 -1.1343 -0.2126
 5000SOL     OW16440   1.612   2.200   3.241  0.0465  0.0248 -0.2788
 5000SOL    HW116441   1.614   2.105   3.228 -0.7616 -0.3949  2.0912
 5000SOL    HW216442   1.701   2.223   3.267  0.1661 -0.1468 -0.5411
 5001SOL     OW16443   0.544   6.922   8.839  0.4964 -0.2944  0.5836
 5001SOL    HW116444   0.497   6.941   8.920 -2.2552  0.4188 -1.0629
 5001SOL    HW216445   0.593   7.002   8.821 -0.1159  0.1331  0.7644
 5002SOL     OW16446   0.113   0.819  11.484 -0.4025  0.0417 -0.3191
 5002SOL    HW116447   0.189   0.860  11.443  0.1016  0.6791  1.1609
 5002SOL    HW216448   0.108   0.732  11.444  0.7675  0.1942 -0.8404
 5003SOL     OW16449   2.826   6.957  10.067  0.2323 -0.3775 -0.1169
 5003SOL    HW116450   2.776   7.037  10.081 -0.1783 -0.2249 -2.1084
 5003SOL    HW216451   2.822   6.943   9.972  0.9501 -2.3351  0.0983
 5004SOL     OW16452   2.303   4.479  12.303  0.1844  0.4241  0.0985
 5004SOL    HW116453   2.313   4.544  12.373  1.4450  1.9854 -1.4562
 5004SOL    HW216454   2.390   4.472  12.264 -0.4712 -0.5062 -1.2661
 5005SOL     OW16455   4.614   5.660   7.099  0.3540 -0.0140 -0.0236
 5005SOL    HW116456   4.626   5.645   7.005  0.1190  2.1135 -0.4419
 5005SOL    HW216457   4.665   5.591   7.141  1.8942  0.0234 -1.7247
 5006SOL     OW16458   6.771   2.594   3.802  0.3418 -0.9373  0.0456
 5006SOL    HW116459   6.853   2.546   3.816 -0.0738 -1.2767  1.5004
 5006SOL    HW216460   6.712   2.561   3.870  0.3576  2.3669  1.8556
 5007SOL     OW16461   0.631   0.679   1.803 -0.2355 -0.5339  0.1196
 5007SOL    HW116462   0.597   0.676   1.892 -0.6608 -0.1737 -0.0249
 5007SOL    HW216463   0.721   0.649   1.810  1.0799  3.1858  1.3094
 5008SOL     OW16464   7.013   1.611   4.646 -0.6623  0.4067  0.4403
 5008SOL    HW116465   6.924   1.614   4.613 -0.5812  0.8567  0.2606
 5008SOL    HW216466   7.068   1.631   4.570 -0.3963 -0.0528  0.5034
 5009SOL     OW16467   2.576   6.205   0.021  0.1117 -0.1718  0.2250
 5009SOL    HW116468   2.600   6.118  -0.011 -0.1325 -1.2835  2.8260
 5009SOL    HW216469   2.655   6.236   0.065 -0.5167 -0.1444  1.3682
 5010SOL     OW16470   3.125   7.329   6.603  0.1572  0.0238  0.2281
 5010SOL    HW116471   3.081   7.247   6.581 -0.3259  0.8622 -2.2953
 5010SOL    HW216472   3.128   7.330   6.699 -1.4740 -2.0561  0.3743
 5011SOL     OW16473   2.708   0.976   4.882 -0.0732  0.0287  0.5399
 5011SOL    HW116474   2.763   0.898   4.884  0.0628 -0.0222 -2.0144
 5011SOL    HW216475   2.730   1.023   4.963  2.5752 -0.7593  0.3770
 5012SOL     OW16476   4.734   4.447   1.975  0.4135  0.5249 -0.1103
 5012SOL    HW116477   4.688   4.499   2.040 -0.3055  1.0985 -1.0580
 5012SOL    HW216478   4.665   4.402   1.927  0.9812 -0.5585  0.0546
 5013SOL     OW16479   6.441   7.276   8.420  0.4020  0.4105 -0.0269
 5013SOL    HW116480   6.532   7.302   8.434  0.3469 -0.0570  1.3596
 5013SOL    HW216481   6.397   7.357   8.393  0.9521  0.9623  0.6828
 5014SOL     OW16482   6.015   3.147   7.645 -0.5321  0.2068 -0.4365
 5014SOL    HW116483   5.925   3.166   7.622 -0.7825 -0.1992  0.1806
 5014SOL    HW216484   6.023   3.052   7.633 -0.4646  0.0982  0.4269
 5015SOL     OW16485   1.556   3.105   0.649 -0.3344 -0.0609 -0.2137
 5015SOL    HW116486   1.501   3.028   0.630  2.0714 -1.6118 -1.4657
 5015SOL    HW216487   1.574   3.099   0.742 -0.6918 -0.6448 -0.1750
 5016SOL     OW16488   0.568   2.769   2.970 -0.4412  0.1672  0.0156
 5016SOL    HW116489   0.627   2.694   2.978 -1.9783 -0.9756  1.2565
 5016SOL    HW216490   0.502   2.741   2.907 -0.6374  0.7522 -0.0459
 5017SOL     OW16491   3.735   4.667  11.180 -0.6846  0.7622 -0.0472
 5017SOL    HW116492   3.794   4.686  11.107  0.4682 -1.6967  0.1573
 5017SOL    HW216493   3.679   4.745  11.186  0.6739  1.9929 -2.0593
 5018SOL     OW16494   4.484   3.322   7.946  0.7411  0.1023  0.3131
 5018SOL    HW116495   4.477   3.227   7.955  0.9544  0.1884  1.6404
 5018SOL    HW216496   4.450   3.356   8.029  1.5934  1.1413  0.2535
 5019SOL     OW16497   3.942   4.030   2.841  0.0517  0.2244 -0.1404
 5019SOL    HW116498   3.866   3.985   2.876  0.1665 -1.1948 -1.6298
 5019SOL    HW216499   4.016   3.971   2.858  0.6596  1.0832  0.3073
 5020SOL     OW16500   5.743   1.442   9.634 -0.0245  0.4905  0.0782
 5020SOL    HW116501   5.677   1.425   9.567 -0.4211  3.2571 -0.3426
 5020SOL    HW216502   5.693   1.475   9.709  0.4694 -2.0214  1.6227
 5021SOL     OW16503   2.329   2.253   8.650  0.1568 -0.3205 -0.9545
 5021SOL    HW116504   2.332   2.344   8.678  0.9231 -1.1048  1.8500
 5021SOL    HW216505   2.404   2.212   8.693 -2.1630 -2.9797  0.9947
 5022SOL     OW16506   7.430   7.370   6.863  0.4323  0.2203  0.3225
 5022SOL    HW116507   7.494   7.377   6.792  0.0871 -2.5746 -0.3939
 5022SOL    HW216508   7.469   7.307   6.924 -1.4924 -1.4714 -0.0773
 5023SOL     OW16509   3.483   7.924   4.985 -0.4635  0.4075 -0.6662
 5023SOL    HW116510   3.480   7.895   4.894  0.6967 -0.6404 -0.4033
 5023SOL    HW216511   3.513   8.014   4.980  0.5171  0.0627 -1.2934
 5024SOL     OW16512   0.076   4.892   5.670 -0.5925  0.2335  0.3006
 5024SOL    HW116513   0.034   4.920   5.752  1.0839  1.2285  0.8785
 5024SOL    HW216514   0.122   4.970   5.640 -0.9031 -0.2200 -1.4506
 5025SOL     OW16515   4.990   6.651   2.617 -0.2621  0.0101  0.1233
 5025SOL    HW116516   5.051   6.605   2.559 -0.3749  0.2598 -0.1990
 5025SOL    HW216517   5.005   6.743   2.599 -0.8021  0.0726 -0.0351
 5026SOL     OW16518   7.731   1.532   7.751 -0.3129  0.3252 -0.2541
 5026SOL    HW116519   7.764   1.620   7.734 -0.8420  0.5494 -0.1703
 5026SOL    HW216520   7.800   1.490   7.803  0.5724  0.1930 -1.5085
 5027SOL     OW16521   7.352   6.130  11.511 -0.4107 -0.8404 -0.3272
 5027SOL    HW116522   7.424   6.072  11.487 -0.9461 -1.5206 -0.3237
 5027SOL    HW216523   7.279   6.071  11.531 -0.2997 -0.2981  2.0010
 5028SOL     OW16524   0.768   5.712   9.590 -0.3290 -0.3842 -0.3192
 5028SOL    HW116525   0.828   5.743   9.657 -0.8609  0.4624 -0.2171
 5028SOL    HW216526   0.724   5.637   9.630  0.2246 -0.6290 -0.1732
 5029SOL     OW16527   1.266   3.003   5.904  0.3886  0.2441 -0.1321
 5029SOL    HW116528   1.296   2.913   5.914  2.6726  0.8192 -1.0308
 5029SOL    HW216529   1.288   3.026   5.814  0.5234  1.8994  0.2833
 5030SOL     OW16530   0.481   5.554   3.937  0.0650  0.4397 -0.0547
 5030SOL    HW116531   0.483   5.462   3.911  0.4162 -0.4959  2.8888
 5030SOL    HW216532   0.572   5.578   3.950 -0.0363  1.1478 -0.5801
 5031SOL     OW16533   5.663   6.606   3.592  0.3830 -0.3016 -0.0109
 5031SOL    HW116534   5.597   6.590   3.659  0.4196 -0.0348  0.0945
 5031SOL    HW216535   5.700   6.520   3.572  1.7931 -0.1839  1.7909
 5032SOL     OW16536   1.348   3.750   1.127 -0.0613 -0.0542  0.6585
 5032SOL    HW116537   1.308   3.735   1.213 -1.0195  2.9569  0.8504
 5032SOL    HW216538   1.441   3.762   1.145 -0.0328 -0.8131  1.0557
 5033SOL     OW16539   7.594   6.156   6.870 -0.3388 -0.2050 -0.2732
 5033SOL    HW116540   7.616   6.065   6.892 -0.7574 -0.3995 -0.6375
 5033SOL    HW216541   7.515   6.175   6.920  0.0892  0.1650  0.2706
 5034SOL     OW16542   3.457   5.124   3.223 -0.1209 -0.2158 -0.0437
 5034SOL    HW116543   3.399   5.161   3.289  0.0732  2.4245 -1.2495
 5034SOL    HW216544   3.420   5.037   3.206 -0.4997 -0.7547  3.0335
 5035SOL     OW16545   7.904   1.420   3.662 -0.2029 -0.0828  0.0867
 5035SOL    HW116546   7.880   1.340   3.616  0.9330  0.2791 -1.2032
 5035SOL    HW216547   7.860   1.413   3.747 -1.8039 -1.0907 -0.7767
 5036SOL     OW16548   3.804   5.209   3.358 -0.3502  0.7041 -0.3201
 5036SOL    HW116549   3.893   5.176   3.375 -1.1897 -0.5367  2.1668
 5036SOL    HW216550   3.769   5.151   3.291 -0.2994 -0.7572  0.8856
 5037SOL     OW16551   2.403   3.666   1.189 -0.2671 -0.5883 -0.1790
 5037SOL    HW116552   2.307   3.656   1.191 -0.1883 -1.4821 -0.4382
 5037SOL    HW216553   2.437   3.582   1.219  0.4464 -0.1548  0.2552
 5038SOL     OW16554   0.514   0.009   9.174 -0.1760 -0.2709  0.2807
 5038SOL    HW116555   0.546   0.070   9.240  1.3822  1.5689 -2.0090
 5038SOL    HW216556   0.522   0.056   9.091 -3.2427 -1.9900 -1.1681
 5039SOL     OW16557   5.233   1.097   2.485 -0.4112  0.1929 -0.1690
 5039SOL    HW116558   5.281   1.176   2.510 -1.6058  1.9284 -2.8924
 5039SOL    HW216559   5.143   1.126   2.473 -1.2172 -1.9464  0.2148
 5040SOL     OW16560   3.419   1.410  12.072 -0.0860  0.1629  0.0103
 5040SOL    HW116561   3.345   1.402  12.132  0.0039 -2.4140 -0.1081
 5040SOL    HW216562   3.455   1.497  12.089 -2.3545  0.9750  0.9643
 5041SOL     OW16563   0.160   4.186   8.645 -0.2022 -0.4199 -0.0643
 5041SOL    HW116564   0.225   4.161   8.579 -1.3349 -0.2030 -1.2994
 5041SOL    HW216565   0.211   4.233   8.711  0.8390  0.2059 -1.2519
 5042SOL     OW16566   2.622   3.909  10.256 -0.3054  0.2626  0.0312
 5042SOL    HW116567   2.608   3.894  10.349  0.5009 -0.1408  0.0957
 5042SOL    HW216568   2.534   3.915  10.219 -0.6339 -0.1110  0.7341
 5043SOL     OW16569   5.103   5.636  10.388  0.4307 -0.3171 -0.5305
 5043SOL    HW116570   5.019   5.596  10.367 -0.4319  1.0480  0.1338
 5043SOL    HW216571   5.125   5.602  10.474  1.5485 -2.1587 -1.4980
 5044SOL     OW16572   3.784   5.409   2.067 -0.1961 -0.3152 -0.2668
 5044SOL    HW116573   3.718   5.402   2.135 -1.6552  0.2249 -1.5526
 5044SOL    HW216574   3.796   5.503   2.055  0.3023 -0.4069 -0.5092
 5045SOL     OW16575   7.307   2.476   6.520  0.0406 -0.3567 -0.4859
 5045SOL    HW116576   7.352   2.417   6.460  0.6232  1.8798 -2.3890
 5045SOL    HW216577   7.371   2.545   6.539 -0.9734  0.3017  0.7304
 5046SOL     OW16578   1.273   5.226   7.809 -0.4439 -0.0860  0.6262
 5046SOL    HW116579   1.285   5.275   7.890 -0.5020 -1.2928  1.3901
 5046SOL    HW216580   1.197   5.170   7.826 -0.9781  0.2346 -0.5673
 5047SOL     OW16581   1.993   6.881  10.907 -1.1664  0.1300 -0.7574
 5047SOL    HW116582   2.004   6.923  10.822  2.1615 -0.4409 -0.7234
 5047SOL    HW216583   1.977   6.789  10.887  1.4194 -0.3612 -0.8586
 5048SOL     OW16584   3.581   1.722   8.974  0.7117  0.1669  0.4526
 5048SOL    HW116585   3.629   1.785   8.921  0.7132 -0.7591 -0.7169
 5048SOL    HW216586   3.543   1.773   9.045 -0.0022  1.6533 -0.9154
 5049SOL     OW16587   2.361   5.016   2.242 -0.6927 -0.2524  0.3616
 5049SOL    HW116588   2.312   5.023   2.324  0.0330  0.6693  0.7290
 5049SOL    HW216589   2.451   5.035   2.266 -0.4212 -0.2765 -0.5996
 5050SOL     OW16590   6.503   3.721   9.364  0.4272 -0.0899 -0.4501
 5050SOL    HW116591   6.452   3.764   9.296 -0.4044  0.0996  0.2791
 5050SOL    HW216592   6.438   3.690   9.427  1.0825 -1.4360 -0.4008
 5051SOL     OW16593   1.436   2.466   8.654 -0.1122  0.0524  0.8683
 5051SOL    HW116594   1.383   2.513   8.718 -0.8645  0.6441 -0.1664
 5051SOL    HW216595   1.444   2.377   8.689  0.8369  0.7504  2.5654
 5052SOL     OW16596   1.802   2.149   9.500  0.3397  0.2177  0.5105
 5052SOL    HW116597   1.714   2.166   9.535  0.2878 -0.3736  0.6760
 5052SOL    HW216598   1.861   2.195   9.559  0.1522  0.5021  0.4789
 5053SOL     OW16599   7.032   7.344   9.459  0.3111  0.4969  0.4830
 5053SOL    HW116600   6.992   7.367   9.543  1.0365  0.3678  0.8659
 5053SOL    HW216601   7.068   7.256   9.472  1.7434  1.0599  0.5180
 5054SOL     OW16602   3.442   1.513   0.033 -0.5721 -0.1535 -0.4327
 5054SOL    HW116603   3.388   1.504  -0.046  0.3575  1.4379 -1.3248
 5054SOL    HW216604   3.485   1.599   0.022 -1.5916  0.8450  2.5658
 5055SOL     OW16605   7.406   0.232   1.881  0.4011 -0.2264 -0.2318
 5055SOL    HW116606   7.321   0.255   1.844 -0.7781 -1.5683  1.4833
 5055SOL    HW216607   7.401   0.259   1.973  0.8775 -2.4301  0.5160
 5056SOL     OW16608   5.686   2.271   0.816  0.0113 -0.3041 -0.1518
 5056SOL    HW116609   5.645   2.268   0.729 -0.2486  1.8917 -0.1556
 5056SOL    HW216610   5.612   2.283   0.876  0.3876  0.6643  0.1270
 5057SOL     OW16611   4.636   0.757   0.707 -0.2252  0.3666 -0.0602
 5057SOL    HW116612   4.688   0.697   0.761 -0.9310  0.6659  0.9943
 5057SOL    HW216613   4.699   0.819   0.672  0.2304  0.2643  0.5613
 5058SOL     OW16614   5.956   2.413   8.146 -0.2982  0.0735  0.1790
 5058SOL    HW116615   5.967   2.434   8.238 -2.2872  2.2187  0.0261
 5058SOL    HW216616   6.020   2.468   8.101  0.6196 -0.9161  0.2413
 5059SOL     OW16617   4.595   7.004   9.957  0.2554  0.2748 -0.4690
 5059SOL    HW116618   4.648   6.984   9.881 -0.8271 -0.2707 -1.1010
 5059SOL    HW216619   4.549   7.085   9.935 -0.7028 -0.3243 -0.7702
 5060SOL     OW16620   3.670   7.746   7.214  0.1588 -0.0509 -0.0396
 5060SOL    HW116621   3.713   7.664   7.190 -0.2468  0.2231 -1.8636
 5060SOL    HW216622   3.737   7.813   7.201 -0.3311  0.2030 -1.3617
 5061SOL     OW16623   0.455   4.194   7.284 -0.0041 -0.1070  0.0158
 5061SOL    HW116624   0.503   4.260   7.333  0.7093  0.3226 -1.2113
 5061SOL    HW216625   0.425   4.132   7.350  0.4259  0.7474  1.0461
 5062SOL     OW16626   7.783   4.862   9.167 -0.3111  0.1189  0.0283
 5062SOL    HW116627   7.727   4.791   9.197 -1.0490  0.5529 -0.2882
 5062SOL    HW216628   7.745   4.940   9.208 -0.3969  0.5117 -0.7885
 5063SOL     OW16629   5.878   0.256  11.561  0.6005  0.2521 -0.0976
 5063SOL    HW116630   5.828   0.185  11.600  0.3252 -0.1323 -1.1187
 5063SOL    HW216631   5.823   0.288  11.489  1.5110  0.2823 -0.8017
 5064SOL     OW16632   7.093   2.555   3.527 -0.2080  0.4903 -0.1079
 5064SOL    HW116633   7.135   2.474   3.500  2.1257  1.6280 -0.2042
 5064SOL    HW216634   7.039   2.581   3.452  1.1880  0.4055 -1.1782
 5065SOL     OW16635   6.977   1.695   1.592 -0.2572 -0.1551  0.4712
 5065SOL    HW116636   7.041   1.658   1.531 -1.0357 -0.1968 -0.3244
 5065SOL    HW216637   6.892   1.667   1.559 -0.7090  0.0653  1.4131
 5066SOL     OW16638   6.109   3.369   1.231  0.0420 -0.6230  0.6317
 5066SOL    HW116639   6.144   3.367   1.320  1.1736 -1.1129  0.2034
 5066SOL    HW216640   6.187   3.367   1.175 -0.6322  0.2343 -0.3738
 5067SOL     OW16641   1.179   5.206   4.787  0.3044 -0.0071  0.8553
 5067SOL    HW116642   1.108   5.221   4.850  0.0366 -0.1445  0.5886
 5067SOL    HW216643   1.252   5.173   4.841  0.3120  0.5464  1.1892
 5068SOL     OW16644   7.548   0.921   5.475 -0.0339  0.0205 -0.2178
 5068SOL    HW116645   7.462   0.902   5.513  0.6228 -0.8515  0.8699
 5068SOL    HW216646   7.603   0.943   5.550 -0.0711  3.9274 -1.1084
 5069SOL     OW16647   7.471   6.137  10.157  0.3115  0.0655 -0.9098
 5069SOL    HW116648   7.384   6.175  10.147 -0.2205 -0.5948  0.8847
 5069SOL    HW216649   7.525   6.210  10.189  0.0710  0.1196 -0.6255
 5070SOL     OW16650   2.854   6.393  10.037 -0.0747  0.3441 -0.1935
 5070SOL    HW116651   2.882   6.392   9.946  0.6062 -0.6800  0.0002
 5070SOL    HW216652   2.874   6.482  10.067  0.9040  0.3172 -0.7039
 5071SOL     OW16653   3.006   0.876   0.044 -0.3025 -0.2685  0.0646
 5071SOL    HW116654   2.943   0.824   0.095  1.2129 -0.7664  1.4959
 5071SOL    HW216655   3.005   0.835  -0.042 -4.1097  1.5596 -1.0066
 5072SOL     OW16656   3.643   2.742   3.976  0.6163  0.2863  0.0389
 5072SOL    HW116657   3.662   2.708   3.889  0.5218  0.3791 -0.0178
 5072SOL    HW216658   3.549   2.725   3.988  0.4996  0.8152 -0.1148
 5073SOL     OW16659   2.832   1.111   8.574 -0.4579  0.1670  0.0803
 5073SOL    HW116660   2.740   1.126   8.596 -0.6765  1.0569 -1.3210
 5073SOL    HW216661   2.879   1.122   8.657 -1.6000 -0.2900  0.8084
 5074SOL     OW16662   3.111   6.252   2.257  0.0451 -0.3150 -0.0946
 5074SOL    HW116663   3.015   6.253   2.253  0.0605 -0.2516 -0.4695
 5074SOL    HW216664   3.138   6.318   2.193  0.2998  0.9123  1.2054
 5075SOL     OW16665   6.081   6.690   3.743 -0.6393 -0.6761 -0.6038
 5075SOL    HW116666   6.021   6.757   3.713  0.8572  2.0464  1.9947
 5075SOL    HW216667   6.134   6.669   3.666 -0.0392  2.4501 -1.1556
 5076SOL     OW16668   2.207   5.110  12.352 -0.7683  0.3202 -0.2823
 5076SOL    HW116669   2.294   5.104  12.391 -1.7785 -0.7744  2.0176
 5076SOL    HW216670   2.170   5.190  12.389 -0.8494  0.5936 -0.9616
 5077SOL     OW16671   4.754   7.642  10.159  0.3942 -0.2417  0.1594
 5077SOL    HW116672   4.658   7.643  10.161  0.3925 -0.2688  0.0709
 5077SOL    HW216673   4.779   7.622  10.249  0.3270  0.3530  0.3175
 5078SOL     OW16674   6.177   7.240   2.317  0.1123  0.4568  0.3256
 5078SOL    HW116675   6.247   7.177   2.298 -0.0266 -0.1002  1.5535
 5078SOL    HW216676   6.207   7.286   2.395  0.3372  2.1549 -0.7178
 5079SOL     OW16677   2.594   4.521  10.527  0.0972  0.0372 -0.1776
 5079SOL    HW116678   2.666   4.576  10.557  0.2374  0.3390 -1.0463
 5079SOL    HW216679   2.620   4.492  10.439 -1.2915  1.0103 -0.9515
 5080SOL     OW16680   3.528   5.583   8.392 -1.0868  0.4499 -0.4023
 5080SOL    HW116681   3.535   5.678   8.405 -0.2655  0.5354 -1.3926
 5080SOL    HW216682   3.451   5.572   8.337 -0.5846  0.6343 -1.1518
 5081SOL     OW16683   5.632   1.965   6.720  0.4726  0.6335 -0.5033
 5081SOL    HW116684   5.689   2.027   6.765 -2.6122  2.0810  1.7893
 5081SOL    HW216685   5.623   1.892   6.781 -0.2462  0.5072 -0.7456
 5082SOL     OW16686   5.868   0.205   6.702  0.2362  0.6796 -0.0743
 5082SOL    HW116687   5.819   0.123   6.699 -0.5416  1.1316  0.0021
 5082SOL    HW216688   5.821   0.264   6.643  1.2535  0.8294 -0.7484
 5083SOL     OW16689   7.384   6.275   8.973  0.7303 -0.3397  0.5003
 5083SOL    HW116690   7.391   6.315   8.886  0.2496  1.7108  1.3307
 5083SOL    HW216691   7.456   6.315   9.023  0.4488 -0.8091  1.2989
 5084SOL     OW16692   1.688   3.157   2.532 -0.0090  0.3852  0.0327
 5084SOL    HW116693   1.627   3.131   2.601  0.4886  1.0211  0.7264
 5084SOL    HW216694   1.651   3.119   2.452  0.0031 -1.3293  0.8028
 5085SOL     OW16695   7.405   7.078   9.488 -0.2452 -0.1236  0.0762
 5085SOL    HW116696   7.357   7.041   9.562 -2.2167 -1.8079 -1.9235
 5085SOL    HW216697   7.484   7.024   9.481  0.0839  0.2019  1.0328
 5086SOL     OW16698   5.048   7.774   7.451 -0.3415 -0.2077  0.3923
 5086SOL    HW116699   5.141   7.767   7.471  0.0020 -0.9067 -1.2834
 5086SOL    HW216700   5.045   7.816   7.365 -1.6408  1.0550  1.0208
 5087SOL     OW16701   5.243   4.697   7.727 -0.5228 -0.0296  0.0918
 5087SOL    HW116702   5.157   4.689   7.686  0.1381 -0.2937 -1.3133
 5087SOL    HW216703   5.251   4.619   7.783 -0.5599 -0.8631 -1.0336
 5088SOL     OW16704   3.332   0.663   7.749 -0.0807  0.8457 -0.4751
 5088SOL    HW116705   3.333   0.741   7.693 -0.3151  0.2831 -1.2846
 5088SOL    HW216706   3.240   0.636   7.750  0.0934  0.2221 -0.7291
 5089SOL     OW16707   6.512   0.825   6.735 -0.6059  0.3599  0.4101
 5089SOL    HW116708   6.479   0.911   6.709 -0.7501  0.5366  1.1713
 5089SOL    HW216709   6.604   0.826   6.707 -0.7224  0.5884  0.0206
 5090SOL     OW16710   2.672   4.868   1.238  0.6543 -0.2683  0.0547
 5090SOL    HW116711   2.675   4.921   1.158  1.3021 -1.2957 -0.6185
 5090SOL    HW216712   2.692   4.930   1.308 -0.5884  0.7868 -0.4857
 5091SOL     OW16713   4.702   7.482   8.032 -0.4504 -0.3369 -1.0053
 5091SOL    HW116714   4.672   7.573   8.034 -0.0912 -0.2126 -1.2359
 5091SOL    HW216715   4.661   7.442   8.109 -0.3768  0.0930 -0.7373
 5092SOL     OW16716   0.423   4.961   7.899 -0.2410  0.1068  0.0975
 5092SOL    HW116717   0.341   4.982   7.944  0.7631  1.0741  1.5972
 5092SOL    HW216718   0.437   4.868   7.917 -1.1723 -0.1695 -0.5019
 5093SOL     OW16719   7.027   2.346   7.121 -0.3508  0.4538  0.3274
 5093SOL    HW116720   7.049   2.437   7.104 -2.9496  1.1401  0.2323
 5093SOL    HW216721   7.006   2.309   7.035  1.5205 -0.5359  0.2447
 5094SOL     OW16722   0.274   0.884   8.713 -0.1904  0.3629  0.0046
 5094SOL    HW116723   0.238   0.901   8.626  2.5889  1.0406 -1.1172
 5094SOL    HW216724   0.197   0.862   8.766 -2.1585  1.2493 -2.2542
 5095SOL     OW16725   6.489   4.653   7.634 -0.2637 -0.1006  0.3085
 5095SOL    HW116726   6.567   4.692   7.595 -0.4826 -1.3076 -1.4133
 5095SOL    HW216727   6.517   4.627   7.722  0.5321  1.7435  0.6321
 5096SOL     OW16728   1.884   3.799   4.936 -0.0237  0.0966  0.0597
 5096SOL    HW116729   1.809   3.830   4.884 -1.0826 -0.0152  1.4605
 5096SOL    HW216730   1.859   3.818   5.027  1.3866 -0.5287  0.5990
 5097SOL     OW16731   7.156   0.528  10.775  0.5934  0.0935  1.0149
 5097SOL    HW116732   7.192   0.615  10.791 -0.8160  0.7341  0.8946
 5097SOL    HW216733   7.202   0.471  10.837  0.5805  1.1712  2.0558
 5098SOL     OW16734   5.896   1.030   4.839 -0.3921 -0.6982  0.2303
 5098SOL    HW116735   5.963   1.064   4.780 -0.4794 -0.8647  0.0366
 5098SOL    HW216736   5.814   1.067   4.806 -0.4782 -1.0404  0.0631
 5099SOL     OW16737   1.039   5.106   8.245 -0.1183 -0.5167 -0.0887
 5099SOL    HW116738   0.995   5.155   8.315  0.3189  1.4759 -1.1332
 5099SOL    HW216739   0.970   5.050   8.209 -0.1988 -2.1045  2.2978
 5100SOL     OW16740   6.783   4.822   0.963 -0.5927  0.2744  0.0404
 5100SOL    HW116741   6.787   4.900   1.018 -0.2560  0.8644 -0.8060
 5100SOL    HW216742   6.866   4.820   0.917 -0.8866 -0.1867 -0.4829
 5101SOL     OW16743   7.425   0.029   8.149  0.1411 -0.8972  0.2948
 5101SOL    HW116744   7.440  -0.004   8.238  0.1311  0.1733  0.7133
 5101SOL    HW216745   7.330   0.036   8.141  0.1736  0.0367  0.6076
 5102SOL     OW16746   2.489   0.427  11.047 -0.4173  0.3148  0.3232
 5102SOL    HW116747   2.397   0.432  11.022 -0.3658  2.6432  0.3951
 5102SOL    HW216748   2.530   0.500  11.001  1.0102  0.4956  1.8131
 5103SOL     OW16749   2.046   5.421   4.339 -0.1561  0.6604  0.0241
 5103SOL    HW116750   1.951   5.435   4.336 -0.3887 -0.6200 -3.3089
 5103SOL    HW216751   2.056   5.329   4.364  0.1270  0.5139 -0.6120
 5104SOL     OW16752   3.358   2.377   0.598  0.2434  0.0633  0.1643
 5104SOL    HW116753   3.417   2.452   0.588 -0.4542  0.5437 -0.3750
 5104SOL    HW216754   3.271   2.413   0.585 -0.1468 -0.7269  0.5441
 5105SOL     OW16755   1.369   3.390  12.305 -0.5007 -0.0529 -0.1257
 5105SOL    HW116756   1.463   3.390  12.287 -0.9076  0.0492 -2.5502
 5105SOL    HW216757   1.347   3.482  12.320 -0.5810  0.2625 -1.9751
 5106SOL     OW16758   2.095   5.640   7.213 -0.2919  0.9809 -0.4925
 5106SOL    HW116759   2.086   5.545   7.208 -0.8604  1.0610 -1.1128
 5106SOL    HW216760   2.173   5.654   7.267 -0.5911  0.1735  0.1755
 5107SOL     OW16761   2.872   7.037   0.272  0.0684  0.4900  0.1374
 5107SOL    HW116762   2.848   7.129   0.283  1.6846  0.9872 -0.1855
 5107SOL    HW216763   2.938   7.021   0.340 -0.3529 -0.5015  0.3359
 5108SOL     OW16764   7.261   6.564   8.749 -0.3964 -0.3687 -0.4085
 5108SOL    HW116765   7.267   6.572   8.844  0.5411 -0.9062 -0.4124
 5108SOL    HW216766   7.285   6.651   8.715 -0.5867 -0.2207 -0.1654
 5109SOL     OW16767   6.568   0.223  10.409  0.1061  0.1675 -0.5925
 5109SOL    HW116768   6.620   0.303  10.404 -0.5225  0.5391 -1.5812
 5109SOL    HW216769   6.547   0.214  10.501  4.1914 -1.5346  0.3758
 5110SOL     OW16770   0.564   6.176   8.756  0.0996 -0.2815  0.1518
 5110SOL    HW116771   0.509   6.196   8.832 -0.6455  0.1849 -0.4973
 5110SOL    HW216772   0.614   6.256   8.741  0.9487 -0.6909  0.7161
 5111SOL     OW16773   6.493   0.261   1.468 -0.0960  0.1821 -0.0397
 5111SOL    HW116774   6.404   0.284   1.443  0.0412 -0.3742 -1.1183
 5111SOL    HW216775   6.530   0.342   1.503 -1.2978  0.1894  1.3194
 5112SOL     OW16776   7.724   0.456  11.386  0.3284  0.6836  0.1542
 5112SOL    HW116777   7.765   0.393  11.446 -1.5186  0.0341  0.7983
 5112SOL    HW216778   7.647   0.486  11.433 -0.0395  1.7517 -1.0819
 5113SOL     OW16779   5.374   4.395  11.261 -0.0102  0.4582 -0.6705
 5113SOL    HW116780   5.425   4.468  11.296 -1.0790  1.0526 -0.3092
 5113SOL    HW216781   5.383   4.403  11.166  0.2576  0.7709 -0.6218
 5114SOL     OW16782   7.188   5.424   6.361 -0.4812  0.0178 -0.1605
 5114SOL    HW116783   7.171   5.369   6.284  0.4850  0.3491 -0.6265
 5114SOL    HW216784   7.101   5.458   6.385 -1.2258 -2.2983  0.6354
 5115SOL     OW16785   1.869   4.516   4.918  0.0957  0.6166  0.0767
 5115SOL    HW116786   1.883   4.468   4.999  0.4286  0.8075  0.1373
 5115SOL    HW216787   1.880   4.608   4.943  4.3130  0.5802 -0.9056
 5116SOL     OW16788   2.774   7.848   4.982 -0.4002 -0.1683  0.0812
 5116SOL    HW116789   2.733   7.882   5.061 -2.6049 -0.9519 -0.6588
 5116SOL    HW216790   2.705   7.798   4.938  1.0383 -0.5961 -1.8418
 5117SOL     OW16791   3.215   0.560   4.450 -0.1207 -0.0037 -0.0408
 5117SOL    HW116792   3.221   0.465   4.443 -2.3689 -0.1845 -0.3778
 5117SOL    HW216793   3.170   0.587   4.370  1.0855  1.4361 -0.2647
 5118SOL     OW16794   7.353   3.917   7.369 -0.1043 -0.4998  1.2807
 5118SOL    HW116795   7.356   3.823   7.351  0.5654 -0.1388 -0.6901
 5118SOL    HW216796   7.271   3.946   7.329  0.7521  0.0989 -0.1015
 5119SOL     OW16797   2.498   4.148   6.467 -0.2991 -0.5006  0.3073
 5119SOL    HW116798   2.577   4.104   6.500  1.1858  2.5428  1.1698
 5119SOL    HW216799   2.458   4.186   6.545 -2.0385 -1.0428 -0.2827
 5120SOL     OW16800   0.960   5.850   9.174  0.0609 -0.2371 -0.4832
 5120SOL    HW116801   0.965   5.893   9.259 -2.6882  1.0918 -0.8676
 5120SOL    HW216802   1.028   5.893   9.122  0.9304 -0.1781  0.6655
 5121SOL     OW16803   3.328   4.141   2.631  0.1228  0.0965 -0.2301
 5121SOL    HW116804   3.327   4.082   2.706  0.3596  0.8023  0.3366
 5121SOL    HW216805   3.298   4.087   2.558 -1.9400 -0.1412  0.7165
 5122SOL     OW16806   0.204   5.528   1.991  0.3890  0.5065  0.1099
 5122SOL    HW116807   0.295   5.523   1.963  0.6030 -0.6111  0.8923
 5122SOL    HW216808   0.200   5.470   2.068 -0.9356  0.6722  0.1912
 5123SOL     OW16809   3.151   5.754   4.715  0.5896  0.3473  0.0916
 5123SOL    HW116810   3.088   5.683   4.704  0.2859  0.7378 -0.8180
 5123SOL    HW216811   3.197   5.733   4.796 -0.1406 -0.3847  0.3330
 5124SOL     OW16812   1.654   7.905   6.707  0.3268  0.2176  0.4561
 5124SOL    HW116813   1.743   7.890   6.678  0.1903  0.9438 -0.3778
 5124SOL    HW216814   1.663   7.938   6.797  0.8730  0.0259  0.4735
 5125SOL     OW16815   1.607   1.930   3.818  0.0165  0.2553 -1.1340
 5125SOL    HW116816   1.536   1.875   3.850  1.1998 -1.3295 -1.0852
 5125SOL    HW216817   1.632   1.983   3.894  0.9626 -1.4965 -0.1384
 5126SOL     OW16818   7.158   0.867   1.796  0.0214  0.2316  0.3067
 5126SOL    HW116819   7.180   0.874   1.703  0.3927  1.2810  0.4689
 5126SOL    HW216820   7.231   0.908   1.842  0.8716 -2.0955  1.2087
 5127SOL     OW16821   1.570   0.104   6.316 -0.5235  0.4314 -0.0085
 5127SOL    HW116822   1.494   0.129   6.265 -1.1145 -1.6676 -0.2548
 5127SOL    HW216823   1.541   0.109   6.407 -0.4554  1.1296 -0.0218
 5128SOL     OW16824   5.196   1.361  11.952  0.1547 -0.0264  0.3796
 5128SOL    HW116825   5.173   1.284  12.005 -0.8608  0.4457  0.6487
 5128SOL    HW216826   5.112   1.398  11.926  0.6216  1.2491  0.6077
 5129SOL     OW16827   7.846   6.227   5.764 -0.3726  0.0737  0.5782
 5129SOL    HW116828   7.912   6.258   5.825  0.2676  1.6794 -0.8509
 5129SOL    HW216829   7.771   6.284   5.778  0.0697  0.9902 -0.6536
 5130SOL     OW16830   5.173   4.445   8.578 -0.1425 -0.4735  0.1794
 5130SOL    HW116831   5.191   4.390   8.502  0.0750 -1.0591  0.6554
 5130SOL    HW216832   5.143   4.385   8.645  3.6695 -0.6330  1.9875
 5131SOL     OW16833   0.404   5.178  11.844 -0.0128  0.1337 -1.1852
 5131SOL    HW116834   0.369   5.244  11.904 -1.3501 -1.1542 -0.4829
 5131SOL    HW216835   0.334   5.114  11.835  2.2303 -2.8388  0.6668
 5132SOL     OW16836   1.588   0.591   4.729  0.1070 -0.1571 -0.0521
 5132SOL    HW116837   1.655   0.572   4.795 -0.3149  0.5971  0.6178
 5132SOL    HW216838   1.636   0.638   4.660 -0.0896  2.6442  1.5527
 5133SOL     OW16839   0.836   5.003   2.015  0.0041 -0.0390 -0.1519
 5133SOL    HW116840   0.911   5.021   1.959  0.1913 -0.3332  0.0024
 5133SOL    HW216841   0.775   4.954   1.960 -0.2688  0.5729 -0.4085
 5134SOL     OW16842   1.365   7.096   6.954  0.2992  0.2032 -0.0093
 5134SOL    HW116843   1.457   7.070   6.962  0.2138  0.0958  0.7332
 5134SOL    HW216844   1.364   7.156   6.880  1.0965  0.7618  0.4087
 5135SOL     OW16845   5.952   1.613   6.825 -0.1552  0.1011  0.0815
 5135SOL    HW116846   6.029   1.635   6.773 -0.1436 -1.7132 -0.7442
 5135SOL    HW216847   5.933   1.522   6.803 -2.3793  0.4060  0.4816
 5136SOL     OW16848   7.190   2.440   8.099 -0.2808  0.2173  0.9312
 5136SOL    HW116849   7.238   2.508   8.146  0.2593  0.4362  0.0759
 5136SOL    HW216850   7.128   2.488   8.044  0.6259  0.0766 -0.2527
 5137SOL     OW16851   0.786   7.830   9.355  0.1035 -0.1521  0.3151
 5137SOL    HW116852   0.837   7.755   9.322  0.4780  0.7837 -1.3454
 5137SOL    HW216853   0.728   7.852   9.283  1.0165  2.0529  0.1881
 5138SOL     OW16854   5.693   5.289   5.523  0.0600 -0.0954  0.2290
 5138SOL    HW116855   5.750   5.366   5.519  0.9289 -0.7656 -0.5725
 5138SOL    HW216856   5.744   5.223   5.570 -1.2796  0.2766  2.3321
 5139SOL     OW16857   0.423   4.532   8.334 -0.6432  0.3077  0.1626
 5139SOL    HW116858   0.445   4.622   8.309 -0.2386  0.5679  1.3952
 5139SOL    HW216859   0.338   4.539   8.377 -0.6520  0.0897  0.1809
 5140SOL     OW16860   5.370   4.865   1.226  0.1601  0.1125 -0.4213
 5140SOL    HW116861   5.368   4.954   1.260 -0.6252  0.3815 -1.1477
 5140SOL    HW216862   5.278   4.840   1.216  0.3173 -1.4210  1.3846
 5141SOL     OW16863   3.923   3.303   1.429 -0.6307  0.2036  0.1914
 5141SOL    HW116864   4.001   3.274   1.477 -1.0556 -0.1973  0.6623
 5141SOL    HW216865   3.957   3.359   1.360  0.1391 -0.5862 -0.0936
 5142SOL     OW16866   3.002   0.202   6.844  0.5456 -0.2944 -0.0041
 5142SOL    HW116867   3.007   0.189   6.749 -0.0210 -0.6605  0.0144
 5142SOL    HW216868   3.091   0.183   6.875  1.3282  1.8816 -0.6854
 5143SOL     OW16869   6.506   0.873   1.233 -0.3219  0.5826 -0.5878
 5143SOL    HW116870   6.440   0.924   1.281  0.7289  1.3243  0.1060
 5143SOL    HW216871   6.465   0.787   1.220 -0.6375  0.3234  1.7056
 5144SOL     OW16872   3.763   7.851   4.375  0.1427 -0.3155  0.2553
 5144SOL    HW116873   3.803   7.831   4.460 -0.2287 -0.5045  0.3886
 5144SOL    HW216874   3.794   7.782   4.317  3.3680  1.7741 -0.7385
 5145SOL     OW16875   4.050   6.241   7.582  0.1185 -0.7872  0.1137
 5145SOL    HW116876   4.127   6.199   7.619  0.3732  0.0296  0.5289
 5145SOL    HW216877   4.072   6.253   7.489 -0.2446 -2.1892 -0.1894
 5146SOL     OW16878   5.098   4.543  10.966 -0.0373  0.0937  0.1656
 5146SOL    HW116879   5.185   4.574  10.943  0.4778 -2.8354 -2.3950
 5146SOL    HW216880   5.039   4.603  10.920  0.8019 -0.3753 -1.6174
 5147SOL     OW16881   7.740   2.798   6.727 -0.0818 -0.1893  0.0304
 5147SOL    HW116882   7.823   2.753   6.711  0.4360  1.0590 -0.9432
 5147SOL    HW216883   7.705   2.756   6.806  0.4365 -2.1709 -0.7368
 5148SOL     OW16884   4.539   3.000   7.711 -0.1398 -0.2918 -0.5311
 5148SOL    HW116885   4.553   3.004   7.805 -1.8308  1.3546 -0.2958
 5148SOL    HW216886   4.496   2.916   7.697 -3.2822  0.9408  0.7678
 5149SOL     OW16887   2.366   2.890   9.502  0.1573  0.2373 -0.4806
 5149SOL    HW116888   2.272   2.899   9.516  0.1645  0.5107 -0.6123
 5149SOL    HW216889   2.374   2.816   9.442  0.1612 -1.4862  1.4927
 5150SOL     OW16890   4.149   0.683   0.264  1.0034  0.5611 -0.0095
 5150SOL    HW116891   4.111   0.616   0.208  0.6991  0.1035  0.7268
 5150SOL    HW216892   4.232   0.706   0.222  0.0296  1.4651 -1.5668
 5151SOL     OW16893   5.996   0.717   3.518  0.1746 -0.1511 -0.0277
 5151SOL    HW116894   6.057   0.737   3.588 -0.5253  0.1372  0.5125
 5151SOL    HW216895   5.924   0.671   3.561 -0.1889 -0.1159 -0.5848
 5152SOL     OW16896   5.642   1.133   5.137  0.1322  0.0924 -0.2602
 5152SOL    HW116897   5.553   1.099   5.135  0.7057 -1.6086  1.1838
 5152SOL    HW216898   5.631   1.227   5.153 -1.3915 -0.0678 -0.2324
 5153SOL     OW16899   4.134   5.043   5.459 -0.2586 -0.1502 -0.2013
 5153SOL    HW116900   4.099   4.953   5.458 -0.7972  0.0064  1.5425
 5153SOL    HW216901   4.057   5.098   5.467  0.1985  0.2429  2.8276
 5154SOL     OW16902   0.948   4.058  11.564  0.0313 -0.2772  0.1930
 5154SOL    HW116903   0.899   4.026  11.639 -1.3854 -2.4056 -1.5381
 5154SOL    HW216904   0.901   4.137  11.536 -1.3472 -1.2317 -0.2941
 5155SOL     OW16905   1.551   1.099   7.859 -0.3412  0.1591  0.1790
 5155SOL    HW116906   1.548   1.102   7.764  2.2844 -2.8108 -0.1871
 5155SOL    HW216907   1.460   1.108   7.887 -1.3398 -0.1260 -2.6990
 5156SOL     OW16908   6.659   4.169  11.161 -0.2537  0.3641  0.1086
 5156SOL    HW116909   6.574   4.210  11.181 -0.9064 -1.1736  0.6271
 5156SOL    HW216910   6.644   4.076  11.172  1.3203 -0.0081 -0.5827
 5157SOL     OW16911   4.097   3.699   8.292  0.2755 -0.3590 -0.0466
 5157SOL    HW116912   4.003   3.704   8.307  0.3207 -0.0660  0.1387
 5157SOL    HW216913   4.137   3.728   8.375  0.5337 -1.4088  0.2122
 5158SOL     OW16914   5.417   3.552   7.689  0.4635 -0.0546  0.1713
 5158SOL    HW116915   5.349   3.486   7.678 -0.1874  0.2158  2.2326
 5158SOL    HW216916   5.499   3.503   7.688  0.0366 -0.8044  0.8403
 5159SOL     OW16917   1.802   3.241   3.807  0.1033 -0.1778  0.3954
 5159SOL    HW116918   1.731   3.220   3.867  1.0968 -2.3848  0.9231
 5159SOL    HW216919   1.874   3.270   3.864  0.7512 -1.4154  0.2628
 5160SOL     OW16920   4.425   6.917   0.895  0.0220 -0.8835 -0.6284
 5160SOL    HW116921   4.364   6.967   0.841 -0.3308 -0.4539  0.1465
 5160SOL    HW216922   4.472   6.860   0.833  1.3007  1.2299 -1.7139
 5161SOL     OW16923   0.604   1.122   2.422  0.2659  0.1197 -0.5709
 5161SOL    HW116924   0.573   1.044   2.469  0.2775  1.0135  0.9974
 5161SOL    HW216925   0.539   1.189   2.442  1.3714  1.0919 -0.0772
 5162SOL     OW16926   2.973   7.496   3.287 -0.3193  0.7279  0.8955
 5162SOL    HW116927   2.994   7.466   3.199  1.7067  2.5650  0.6598
 5162SOL    HW216928   2.980   7.418   3.341  1.6792  0.1302 -0.1163
 5163SOL     OW16929   7.111   7.278  10.196  0.1688  0.2376  0.8433
 5163SOL    HW116930   7.071   7.355  10.235 -0.7557  0.0971  0.1975
 5163SOL    HW216931   7.083   7.205  10.251 -1.0588  0.0510 -0.0019
 5164SOL     OW16932   5.803   7.497   1.490  0.3514 -0.3568  0.4527
 5164SOL    HW116933   5.710   7.477   1.500  0.1419 -0.7796 -1.8212
 5164SOL    HW216934   5.840   7.418   1.451  1.1659  0.6066 -0.8213
 5165SOL     OW16935   1.755   0.547   3.979 -0.0603 -0.1106 -0.5317
 5165SOL    HW116936   1.763   0.587   3.893 -0.6421  0.7336 -0.2171
 5165SOL    HW216937   1.671   0.580   4.013  0.7589  0.6206  0.8676
 5166SOL     OW16938   5.290   5.181  11.311 -0.1852  0.5961  0.1641
 5166SOL    HW116939   5.263   5.154  11.223 -0.9870  1.6594  0.0571
 5166SOL    HW216940   5.311   5.274  11.302 -0.4039  0.7493  1.1219
 5167SOL     OW16941   6.242   1.044  10.090  0.6118  0.8407 -0.2484
 5167SOL    HW116942   6.285   0.965  10.125 -0.0887  0.9139  0.8098
 5167SOL    HW216943   6.216   1.093  10.168 -2.1019  0.4276 -0.7976
 5168SOL     OW16944   1.161   0.220   5.304 -0.1862 -0.7458 -0.1569
 5168SOL    HW116945   1.215   0.154   5.348  0.8984  0.6371  0.6672
 5168SOL    HW216946   1.161   0.295   5.363 -2.0450 -0.2516 -0.7038
 5169SOL     OW16947   1.859   1.819   9.241  0.1259  0.6326 -0.0727
 5169SOL    HW116948   1.764   1.815   9.256  0.1828  0.9999  0.4297
 5169SOL    HW216949   1.897   1.815   9.329  0.6341 -0.6968 -0.3395
 5170SOL     OW16950   1.493   7.923  12.220 -0.6287 -0.3241  0.3264
 5170SOL    HW116951   1.501   8.017  12.201 -1.1117 -0.4993 -0.8644
 5170SOL    HW216952   1.400   7.911  12.241 -0.8820 -0.7322 -0.9026
 5171SOL     OW16953   5.386   3.530   7.072 -0.4608 -0.4802 -0.1344
 5171SOL    HW116954   5.332   3.589   7.123  2.1779  0.3259  1.9567
 5171SOL    HW216955   5.407   3.580   6.992  0.4776  0.8486  0.9020
 5172SOL     OW16956   3.052   7.880   5.722 -0.7102  0.2063  0.3508
 5172SOL    HW116957   2.997   7.886   5.644 -0.6801  1.8692  0.4251
 5172SOL    HW216958   2.990   7.882   5.795 -0.6444  0.6074  0.3997
 5173SOL     OW16959   6.953   1.443   9.552  0.2397 -0.2385 -0.1630
 5173SOL    HW116960   6.908   1.511   9.603  0.1913 -0.1613 -0.3068
 5173SOL    HW216961   6.945   1.364   9.604  0.1981 -0.1577 -0.0465
 5174SOL     OW16962   0.528   0.819  11.969 -0.6160 -0.1317  0.5196
 5174SOL    HW116963   0.565   0.906  11.953  0.3633 -0.4725  0.8868
 5174SOL    HW216964   0.436   0.827  11.943 -0.4205  0.8793  0.0980
 5175SOL     OW16965   6.666   0.746  11.608  0.4693 -0.8179 -0.2166
 5175SOL    HW116966   6.662   0.651  11.600  2.2755 -1.0751  1.1086
 5175SOL    HW216967   6.714   0.775  11.531  1.9872 -1.2907  0.4992
 5176SOL     OW16968   1.890   1.481   5.572  0.0833 -0.2033 -0.1320
 5176SOL    HW116969   1.946   1.475   5.649 -0.5497 -0.7501  0.2955
 5176SOL    HW216970   1.950   1.502   5.500  0.6617  0.4255  0.5218
 5177SOL     OW16971   7.777   5.730  11.724  0.0639  0.1880 -0.2295
 5177SOL    HW116972   7.722   5.678  11.784  2.0412 -3.4878 -1.2705
 5177SOL    HW216973   7.742   5.710  11.637  1.7791 -0.7214 -0.7557
 5178SOL     OW16974   1.954   5.128  10.961 -0.0874  0.3093  0.1190
 5178SOL    HW116975   2.033   5.180  10.976  1.2721 -0.9051 -2.1991
 5178SOL    HW216976   1.882   5.188  10.978  1.3809  2.1790  0.0442
 5179SOL     OW16977   1.257   4.665   7.096 -0.3081 -0.1637  0.0062
 5179SOL    HW116978   1.344   4.660   7.135  0.2621 -3.0070 -1.3827
 5179SOL    HW216979   1.199   4.625   7.161 -0.4936  0.9591  0.5658
 5180SOL     OW16980   7.728   2.646   3.788 -0.1777 -0.5553 -0.2504
 5180SOL    HW116981   7.740   2.574   3.727  0.7303  0.2025 -0.9943
 5180SOL    HW216982   7.815   2.686   3.796 -0.7437  0.7064 -0.1807
 5181SOL     OW16983   1.482   0.089   4.215  0.4751 -0.3963 -0.0119
 5181SOL    HW116984   1.475   0.166   4.159  2.5703  1.5126  2.1238
 5181SOL    HW216985   1.575   0.065   4.212  0.5109 -0.7171  1.9032
 5182SOL     OW16986   0.753   4.443   8.701 -0.3447  0.1148  0.0420
 5182SOL    HW116987   0.837   4.470   8.664 -0.4428 -0.0111 -0.2744
 5182SOL    HW216988   0.688   4.469   8.636 -0.4597 -0.6676 -0.1655
 5183SOL     OW16989   5.822   1.606   8.642  0.1660 -0.0276 -0.0543
 5183SOL    HW116990   5.845   1.528   8.692 -0.3463  0.7130  1.4017
 5183SOL    HW216991   5.789   1.573   8.559  0.7186 -1.3138  0.2157
 5184SOL     OW16992   5.691   5.199   8.790 -0.1272  0.5104  0.2237
 5184SOL    HW116993   5.641   5.256   8.848  0.1627  2.0525 -0.9722
 5184SOL    HW216994   5.782   5.207   8.819 -0.3002 -0.9562  1.3087
 5185SOL     OW16995   0.345   6.421  10.980 -0.1541  0.1368  0.5397
 5185SOL    HW116996   0.341   6.379  10.894  2.4121  0.5071  0.1755
 5185SOL    HW216997   0.328   6.514  10.962  2.1954  0.5277  0.0952
 5186SOL     OW16998   5.423   2.606   5.784 -0.1806 -0.1357 -0.1674
 5186SOL    HW116999   5.328   2.610   5.771 -0.2464  1.5881  0.6091
 5186SOL    HW217000   5.459   2.630   5.699 -0.4783  0.4930 -0.1275
 5187SOL     OW17001   2.966   6.676  11.253  0.5773  0.1418  0.3563
 5187SOL    HW117002   2.945   6.675  11.160  0.0523 -1.0095  0.4642
 5187SOL    HW217003   3.048   6.724  11.259 -0.3331  1.8649 -0.4783
 5188SOL     OW17004   1.600   3.744   6.214 -0.1793 -0.2482  0.5775
 5188SOL    HW117005   1.661   3.727   6.286  2.3886  0.5677 -1.2301
 5188SOL    HW217006   1.562   3.658   6.194 -0.1931 -0.6540  2.2335
 5189SOL     OW17007   6.975   6.123   4.952  0.2452 -0.1297 -0.7028
 5189SOL    HW117008   7.056   6.071   4.947 -0.4619 -1.7122  2.0916
 5189SOL    HW217009   6.926   6.083   5.023 -1.0984  3.4430  0.5900
 5190SOL     OW17010   2.398   6.736   2.111  0.0490  0.2535  0.1159
 5190SOL    HW117011   2.388   6.662   2.171 -0.5473  1.4003  1.4971
 5190SOL    HW217012   2.475   6.715   2.059 -1.2746 -2.3178 -1.0275
 5191SOL     OW17013   5.255   4.381   0.280  0.4588  0.4574  0.3762
 5191SOL    HW117014   5.271   4.475   0.287 -0.0292  0.7732 -1.9132
 5191SOL    HW217015   5.167   4.368   0.316  0.9452  0.6783  1.6836
 5192SOL     OW17016   0.142   1.976   2.122  0.2175  0.0011 -0.1270
 5192SOL    HW117017   0.089   2.038   2.173  0.8452 -0.7722  1.5397
 5192SOL    HW217018   0.147   2.015   2.035 -3.5374 -0.1420 -0.5804
 5193SOL     OW17019   0.719   4.242  12.078  0.3820 -0.0421 -0.1063
 5193SOL    HW117020   0.704   4.296  12.001 -2.6151  2.2604  1.8433
 5193SOL    HW217021   0.782   4.291  12.130  0.3207 -0.2065  0.1271
 5194SOL     OW17022   1.981   1.578  10.453 -0.3333 -0.5966  0.8708
 5194SOL    HW117023   1.906   1.602  10.399  0.5186 -0.5291 -0.3073
 5194SOL    HW217024   2.011   1.495  10.417  0.7480 -0.1418  0.6929
 5195SOL     OW17025   4.039   4.748   2.516  0.0990  0.1217 -0.0114
 5195SOL    HW117026   4.104   4.717   2.579 -0.6121 -0.7809  0.2966
 5195SOL    HW217027   3.981   4.673   2.501 -1.1642  1.0397  0.0807
 5196SOL     OW17028   6.156   0.578   8.846  0.2554  0.3559  0.0064
 5196SOL    HW117029   6.213   0.505   8.819  2.2480  1.0602  2.0155
 5196SOL    HW217030   6.111   0.545   8.924  0.2663  0.8593  0.2285
 5197SOL     OW17031   7.302   3.613   1.459  0.0372 -0.0170 -0.3505
 5197SOL    HW117032   7.258   3.530   1.476  0.3149 -0.3788 -1.3032
 5197SOL    HW217033   7.232   3.677   1.456 -0.1666 -0.1852  0.5312
 5198SOL     OW17034   6.258   0.424  11.539  0.5581  0.6500  0.3117
 5198SOL    HW117035   6.172   0.437  11.500  0.3357  1.8301  1.1667
 5198SOL    HW217036   6.315   0.401  11.465 -0.9358 -2.7715  0.0232
 5199SOL     OW17037   0.452   7.513   1.143 -0.4283 -0.1426 -0.5491
 5199SOL    HW117038   0.501   7.470   1.073 -0.5691 -1.3262  0.0534
 5199SOL    HW217039   0.368   7.535   1.102 -0.2051 -0.0747 -0.9805
 5200SOL     OW17040   4.620   2.697   3.651  0.2169 -0.0831  0.1649
 5200SOL    HW117041   4.629   2.631   3.719  1.7285 -0.3669 -0.2636
 5200SOL    HW217042   4.553   2.662   3.592 -0.5371 -0.1998  1.0694
 5201SOL     OW17043   4.892   6.111   3.494 -0.0272 -0.2723  1.0726
 5201SOL    HW117044   4.915   6.025   3.531  1.3359 -0.3973  0.0316
 5201SOL    HW217045   4.968   6.134   3.440 -0.4958  1.4732  1.1221
 5202SOL     OW17046   2.951   1.982   2.157 -0.7148 -0.1558  0.4688
 5202SOL    HW117047   3.044   2.007   2.159 -1.1831  1.6881  0.9773
 5202SOL    HW217048   2.932   1.970   2.063 -0.3437  1.0832  0.2178
 5203SOL     OW17049   5.941   5.950   5.048 -0.3024  0.0995 -0.0787
 5203SOL    HW117050   5.899   6.012   5.107 -0.1626  1.0423 -0.9493
 5203SOL    HW217051   6.021   5.923   5.093 -0.6201  0.1574  0.5224
 5204SOL     OW17052   6.344   1.059   0.972  0.0743  0.0155  0.0528
 5204SOL    HW117053   6.270   1.070   1.032 -0.6109 -0.4540 -0.6891
 5204SOL    HW217054   6.334   0.970   0.938  0.3791  0.3126 -0.8453
 5205SOL     OW17055   3.835   0.546   3.747 -0.8106  0.5321  0.2215
 5205SOL    HW117056   3.768   0.524   3.811 -1.5099 -0.6593 -0.8892
 5205SOL    HW217057   3.800   0.622   3.701 -0.6439  0.9218  0.7257
 5206SOL     OW17058   3.874   2.078   9.316  0.4851 -0.1745  0.2350
 5206SOL    HW117059   3.855   1.988   9.342  1.3899 -0.1780  0.9054
 5206SOL    HW217060   3.830   2.132   9.382 -0.2603 -0.1047 -0.3014
 5207SOL     OW17061   6.833   5.598  10.099  0.1099  0.2552  0.3090
 5207SOL    HW117062   6.828   5.661  10.028 -0.9241  0.0719  0.1918
 5207SOL    HW217063   6.762   5.536  10.081  0.4188 -0.3210  1.0008
 5208SOL     OW17064   2.272   3.919   1.186  0.3389 -0.1368  0.6200
 5208SOL    HW117065   2.208   3.930   1.257  0.1621 -2.2591  0.8487
 5208SOL    HW217066   2.329   3.848   1.216  0.9121 -0.3532 -0.9134
 5209SOL     OW17067   0.448   0.420   6.195 -0.1961 -0.4140  0.3223
 5209SOL    HW117068   0.363   0.380   6.175 -0.1856 -0.6073  0.6567
 5209SOL    HW217069   0.486   0.438   6.109 -0.6326 -0.1972  0.1671
 5210SOL     OW17070   5.877   3.852  10.196  0.2038  0.0479 -0.2871
 5210SOL    HW117071   5.938   3.881  10.127  2.0172  1.5860  1.8188
 5210SOL    HW217072   5.913   3.769  10.226  0.6061  0.3776  0.1572
 5211SOL     OW17073   4.632   1.626  11.997 -0.3968  0.5543  0.0314
 5211SOL    HW117074   4.643   1.532  12.010 -1.5342  0.5596  1.3225
 5211SOL    HW217075   4.611   1.636  11.904  0.9741 -0.3136 -0.4013
 5212SOL     OW17076   0.026   5.365   5.231 -0.4754  0.3394 -0.6040
 5212SOL    HW117077   0.110   5.403   5.205 -0.2887 -0.7085 -1.6760
 5212SOL    HW217078  -0.022   5.437   5.271  0.8005  1.0487 -0.2754
 5213SOL     OW17079   4.493   1.698   9.758 -0.0826 -0.4505  0.2238
 5213SOL    HW117080   4.519   1.677   9.847 -0.2645 -2.0405 -0.0761
 5213SOL    HW217081   4.493   1.615   9.712 -0.8295  0.2159 -1.0503
 5214SOL     OW17082   4.294   7.288  10.139  0.0586 -0.0168  0.3342
 5214SOL    HW117083   4.293   7.256  10.049 -1.5291 -2.8622  1.2076
 5214SOL    HW217084   4.251   7.373  10.135 -0.3271 -0.2574 -1.5509
 5215SOL     OW17085   3.171   7.422   8.288  0.4573  0.8855  0.1367
 5215SOL    HW117086   3.192   7.329   8.294 -0.1633  0.6454 -1.0625
 5215SOL    HW217087   3.128   7.432   8.203  1.0170  2.3702 -0.0069
 5216SOL     OW17088   4.956   7.646   6.907 -0.0376  0.5358 -0.3955
 5216SOL    HW117089   4.893   7.603   6.849  1.5794  0.1639 -1.9531
 5216SOL    HW217090   5.022   7.580   6.924  1.1333  1.5865 -0.6987
 5217SOL     OW17091   6.539   6.883   3.343 -0.1594 -0.0528 -0.1498
 5217SOL    HW117092   6.629   6.861   3.319 -0.1162 -0.9485  0.7644
 5217SOL    HW217093   6.546   6.925   3.429 -0.6966 -1.2824  0.5230
 5218SOL     OW17094   2.621   5.958   1.709 -0.0199  0.4833 -0.0778
 5218SOL    HW117095   2.539   5.932   1.667  0.6909 -1.5765 -0.2967
 5218SOL    HW217096   2.637   6.047   1.676 -1.3121  0.2927 -1.3350
 5219SOL     OW17097   2.856   3.062   4.820 -0.1258  0.3900  0.2653
 5219SOL    HW117098   2.902   3.138   4.855 -2.4033  1.9109  0.1913
 5219SOL    HW217099   2.823   3.017   4.898 -2.6488  2.1227  0.3401
 5220SOL     OW17100   1.883   6.571   7.343  0.2273  0.6844 -0.7129
 5220SOL    HW117101   1.799   6.531   7.367 -0.7520  1.3013 -2.8644
 5220SOL    HW217102   1.916   6.609   7.425 -1.1713 -0.2828  0.3538
 5221SOL     OW17103   5.484   6.273   2.559 -0.0908 -0.2207  0.5051
 5221SOL    HW117104   5.535   6.231   2.628  0.4071  0.4505  0.5560
 5221SOL    HW217105   5.542   6.272   2.483  0.1437  0.8422  0.6494
 5222SOL     OW17106   7.550   2.676  10.468  0.2008  0.1323 -0.6432
 5222SOL    HW117107   7.608   2.664  10.392  0.3899  0.4120 -0.5467
 5222SOL    HW217108   7.604   2.650  10.542  0.0316 -0.0932 -0.5975
 5223SOL     OW17109   5.514   5.740   0.055  0.0826  0.1391 -0.3793
 5223SOL    HW117110   5.493   5.648   0.042 -0.5689  0.2353 -0.0711
 5223SOL    HW217111   5.514   5.752   0.150  0.5609  0.3699 -0.4051
 5224SOL     OW17112   5.525   4.081  11.057  0.0754 -0.2710 -0.0991
 5224SOL    HW117113   5.450   4.079  11.117  0.4896 -0.2033  0.4281
 5224SOL    HW217114   5.517   4.165  11.011 -0.1746 -0.2693 -0.0540
 5225SOL     OW17115   2.837   7.549   1.795 -0.9560 -0.1024 -0.3424
 5225SOL    HW117116   2.804   7.572   1.708  0.0023 -0.0839 -0.7073
 5225SOL    HW217117   2.873   7.631   1.829 -0.5023 -0.3098 -0.3118
 5226SOL     OW17118   0.749   4.611   9.887  0.0698  0.2238 -0.1036
 5226SOL    HW117119   0.732   4.531   9.937 -0.7701  0.6479  0.3073
 5226SOL    HW217120   0.826   4.649   9.930  1.9218 -1.4768 -1.6963
 5227SOL     OW17121   3.924   6.230   9.174  0.4477  0.1315  0.7902
 5227SOL    HW117122   3.834   6.201   9.162 -0.2846  2.2698  0.7229
 5227SOL    HW217123   3.923   6.322   9.148  2.7686  0.0877  0.3068
 5228SOL     OW17124   3.239   4.026   3.851 -0.3569 -0.0210  0.6733
 5228SOL    HW117125   3.153   4.066   3.860 -1.2818 -1.5278 -0.7111
 5228SOL    HW217126   3.292   4.067   3.919 -2.6877 -0.4696  2.9501
 5229SOL     OW17127   4.090   5.889  12.364 -0.1951  0.5505 -0.2647
 5229SOL    HW117128   4.170   5.859  12.408 -0.7022  0.5906  0.7097
 5229SOL    HW217129   4.034   5.812  12.360 -1.3191  1.1946  1.8406
 5230SOL     OW17130   3.483   5.387   7.232 -0.2805 -0.2511  0.0694
 5230SOL    HW117131   3.489   5.428   7.146  1.2137  1.9318  1.1246
 5230SOL    HW217132   3.410   5.433   7.275  0.7602  0.6940  0.9012
 5231SOL     OW17133   0.207   2.390   6.393 -0.4714 -0.0366 -0.7547
 5231SOL    HW117134   0.172   2.474   6.363 -0.0609  0.1002 -0.8491
 5231SOL    HW217135   0.150   2.325   6.351 -0.9455  0.1992 -0.4802
 5232SOL     OW17136   7.325   3.285   9.075 -0.0508  0.0717  0.1399
 5232SOL    HW117137   7.414   3.292   9.042 -0.5821 -1.8030 -1.8872
 5232SOL    HW217138   7.277   3.356   9.031  0.0892  0.0937  0.0245
 5233SOL     OW17139   2.385   5.321   3.048 -0.1386  0.1404  0.4502
 5233SOL    HW117140   2.362   5.320   2.955  0.2623  3.5364  0.2075
 5233SOL    HW217141   2.301   5.325   3.093 -0.3380 -1.5806  0.3056
 5234SOL     OW17142   1.987   6.831   8.886  0.1583  0.3838  0.2345
 5234SOL    HW117143   2.030   6.916   8.895  2.3266 -0.6883  0.8829
 5234SOL    HW217144   2.030   6.791   8.810 -0.9665 -0.0877 -0.1752
 5235SOL     OW17145   6.924   3.899   5.202 -0.0617  0.1037 -0.7021
 5235SOL    HW117146   6.888   3.988   5.202 -2.9078 -0.9355 -0.5251
 5235SOL    HW217147   6.923   3.873   5.294 -1.4657 -0.8752 -0.9677
 5236SOL     OW17148   6.734   7.604   4.872 -0.1725  0.8002  0.0691
 5236SOL    HW117149   6.719   7.585   4.779 -0.6488  0.4129  0.2187
 5236SOL    HW217150   6.750   7.698   4.875 -0.0489  0.8002 -0.4190
 5237SOL     OW17151   5.929   7.847  10.417  0.0237  0.5584 -0.2788
 5237SOL    HW117152   5.927   7.792  10.339  0.8741  0.4704 -0.2449
 5237SOL    HW217153   5.899   7.933  10.387  0.1780  0.4794 -0.6628
 5238SOL     OW17154   1.832   7.878   9.343  0.1066 -0.2754  0.5022
 5238SOL    HW117155   1.863   7.914   9.259  2.1198  1.9446  2.0591
 5238SOL    HW217156   1.870   7.790   9.346 -1.1046 -0.9277 -1.4257
 5239SOL     OW17157   2.256   2.490   0.550 -0.5392  0.1984  0.0884
 5239SOL    HW117158   2.278   2.398   0.564 -0.4932  0.2338  0.2421
 5239SOL    HW217159   2.337   2.529   0.519 -0.6149  0.1414 -0.1913
 5240SOL     OW17160   7.072   6.133   6.647  0.3241  0.3025  0.0556
 5240SOL    HW117161   7.047   6.225   6.653 -1.3548 -0.1800  1.1565
 5240SOL    HW217162   7.137   6.121   6.717  1.5555  0.9003 -0.9325
 5241SOL     OW17163   0.829   5.786   3.053  0.4065 -0.0090 -0.3678
 5241SOL    HW117164   0.881   5.836   3.116  0.6748 -0.6792 -0.0502
 5241SOL    HW217165   0.830   5.840   2.974  0.5872  0.5457  0.0032
 5242SOL     OW17166   3.736   2.171   0.183 -0.2794  0.0186 -0.2046
 5242SOL    HW117167   3.739   2.105   0.252  0.5869 -0.5512 -0.7649
 5242SOL    HW217168   3.713   2.252   0.228 -0.7105 -0.5345  0.5940
 5243SOL     OW17169   4.555   3.737  11.542  0.3765 -0.2077 -0.2167
 5243SOL    HW117170   4.645   3.740  11.510  0.8377 -0.3698  1.0209
 5243SOL    HW217171   4.529   3.829  11.546  0.4470 -0.1632 -0.6410
 5244SOL     OW17172   6.533   7.710   0.620 -0.2873  0.2514 -0.5655
 5244SOL    HW117173   6.567   7.786   0.666 -2.3959  0.6874  0.4069
 5244SOL    HW217174   6.444   7.700   0.654 -0.4140 -2.0443 -1.4166
 5245SOL     OW17175   1.422   4.246   2.460 -0.0438  0.0758 -0.0714
 5245SOL    HW117176   1.488   4.310   2.485  0.3553 -0.3036 -0.1420
 5245SOL    HW217177   1.469   4.182   2.406 -0.1843 -0.8822  0.9097
 5246SOL     OW17178   6.416   4.685   2.132 -0.2178 -0.3613 -0.3830
 5246SOL    HW117179   6.354   4.618   2.103  0.3071 -1.1147  0.2005
 5246SOL    HW217180   6.407   4.755   2.068 -1.1925 -0.7423 -0.6834
 5247SOL     OW17181   5.247   1.591   4.216 -0.2356 -0.3449  0.2242
 5247SOL    HW117182   5.226   1.515   4.162  0.4304  0.0741 -0.6570
 5247SOL    HW217183   5.328   1.626   4.177 -0.7731  1.0727  0.3220
 5248SOL     OW17184   3.734   6.977   1.869 -0.5587 -0.4453 -0.1696
 5248SOL    HW117185   3.742   7.056   1.922 -1.3658  1.1641 -2.2917
 5248SOL    HW217186   3.788   6.994   1.792 -1.7308 -1.3966 -1.2635
 5249SOL     OW17187   1.469   0.527   1.597  0.2894 -0.6726  0.2005
 5249SOL    HW117188   1.493   0.611   1.558  1.4842 -0.9692  0.2753
 5249SOL    HW217189   1.438   0.474   1.523 -0.2261 -0.2586  0.1173
 5250SOL     OW17190   5.545   5.063   4.389 -0.8433 -0.3468 -0.0931
 5250SOL    HW117191   5.467   5.088   4.440 -0.7694 -0.3095  0.0018
 5250SOL    HW217192   5.563   5.139   4.334 -1.8103 -0.9328 -1.2654
 5251SOL     OW17193   0.046   2.723   7.444 -0.5458  0.7068 -0.0821
 5251SOL    HW117194   0.064   2.719   7.538 -1.1281 -1.1311 -0.0111
 5251SOL    HW217195   0.010   2.637   7.422 -0.5015  1.1147 -1.9854
 5252SOL     OW17196   1.958   1.080   0.850  0.1446  0.3798 -0.1519
 5252SOL    HW117197   1.896   1.044   0.914 -1.9124  1.5477 -1.3993
 5252SOL    HW217198   2.040   1.034   0.868 -1.4718 -2.4949  0.4651
 5253SOL     OW17199   3.631   2.950   8.975  0.9601 -0.2446 -0.3868
 5253SOL    HW117200   3.707   2.892   8.986  0.8837 -0.1258  0.9195
 5253SOL    HW217201   3.562   2.893   8.941  0.4214 -1.3482  2.3162
 5254SOL     OW17202   4.430   2.472   4.045  0.1494 -0.3613 -0.0279
 5254SOL    HW117203   4.382   2.424   3.978 -0.9081 -0.2340  0.6187
 5254SOL    HW217204   4.452   2.406   4.111  0.0718 -0.2546  0.1066
 5255SOL     OW17205   0.124   3.547   4.809 -0.0550 -0.1911  0.7574
 5255SOL    HW117206   0.141   3.640   4.793 -0.1265 -0.3709 -0.4317
 5255SOL    HW217207   0.140   3.505   4.725  1.6047 -1.4960  1.6616
 5256SOL     OW17208   6.254   1.734   6.361 -0.2715  0.1264  0.1232
 5256SOL    HW117209   6.317   1.671   6.326  1.3670  1.9792 -0.4681
 5256SOL    HW217210   6.216   1.776   6.284  0.3222  1.3919  0.4905
 5257SOL     OW17211   0.772   4.034   5.742  0.1864  0.1751 -0.5894
 5257SOL    HW117212   0.769   3.949   5.787  0.4388 -0.4897 -1.7935
 5257SOL    HW217213   0.690   4.037   5.693 -0.5831  1.3693  0.7127
 5258SOL     OW17214   4.607   2.348   8.401  0.2406  0.1670  0.2642
 5258SOL    HW117215   4.570   2.434   8.383 -1.2424 -0.2779  0.9450
 5258SOL    HW217216   4.691   2.347   8.355 -0.2087  1.5673 -0.6586
 5259SOL     OW17217   4.125   3.176   4.638  0.8358  0.1054  0.0980
 5259SOL    HW117218   4.071   3.252   4.661  1.1058  0.1805  0.4784
 5259SOL    HW217219   4.063   3.115   4.596  0.7582  0.8251 -0.8648
 5260SOL     OW17220   4.495   2.998   7.010 -0.1070 -0.7306 -0.2317
 5260SOL    HW117221   4.535   3.077   7.045 -2.0233 -0.0108  0.4649
 5260SOL    HW217222   4.520   2.997   6.918  1.5196 -0.3709  0.1842
 5261SOL     OW17223   3.897   7.157   7.909 -0.0480  0.7587 -0.4532
 5261SOL    HW117224   3.919   7.200   7.992 -0.9702  0.0249  0.1886
 5261SOL    HW217225   3.923   7.221   7.842 -3.0284  3.2146  0.4765
 5262SOL     OW17226   0.972   5.733  10.796 -0.0910 -0.0536 -0.0554
 5262SOL    HW117227   1.052   5.732  10.744  0.4555 -0.2456  0.7717
 5262SOL    HW217228   0.952   5.826  10.808 -1.5606  0.0472 -2.5665
 5263SOL     OW17229   7.522   5.068  11.785  0.2237 -0.1555  0.1684
 5263SOL    HW117230   7.541   4.975  11.794  1.2529  0.1164  1.0559
 5263SOL    HW217231   7.495   5.096  11.872 -0.8620  0.2340 -0.2678
 5264SOL     OW17232   1.107   5.803   3.456 -0.2011 -0.1649  0.1052
 5264SOL    HW117233   1.072   5.786   3.544  0.7818  0.6116  0.6774
 5264SOL    HW217234   1.173   5.734   3.444  0.2613  0.2257  0.3454
 5265SOL     OW17235   0.128   2.256  10.502 -0.5855 -0.3275 -0.0205
 5265SOL    HW117236   0.136   2.212  10.587  0.4678  1.1321  0.6794
 5265SOL    HW217237   0.173   2.340  10.514  0.7712 -0.6172 -2.4231
 5266SOL     OW17238   5.862   7.554   9.542 -0.4776  0.0794  0.4417
 5266SOL    HW117239   5.801   7.582   9.474 -0.7887  1.1032  1.1265
 5266SOL    HW217240   5.816   7.484   9.588 -0.8168  0.2951  0.4379
 5267SOL     OW17241   7.141   4.594   3.824  0.0097  0.0684  0.3870
 5267SOL    HW117242   7.084   4.646   3.767 -0.2118  1.4477  1.8082
 5267SOL    HW217243   7.081   4.537   3.873  0.1999 -1.1173 -0.6865
 5268SOL     OW17244   2.679   0.083  12.258 -1.0034 -0.1616  0.1978
 5268SOL    HW117245   2.704  -0.003  12.224  2.5730  1.1083 -0.8772
 5268SOL    HW217246   2.686   0.141  12.182  1.4554  1.8015  1.7608
 5269SOL     OW17247   6.406   1.862   1.218  0.0819  0.5673 -0.5390
 5269SOL    HW117248   6.323   1.843   1.175 -0.0402 -0.3860  0.0946
 5269SOL    HW217249   6.472   1.824   1.160 -0.1001 -0.9745  0.2128
 5270SOL     OW17250   0.669   7.050  12.355 -0.3740 -0.3066 -0.0948
 5270SOL    HW117251   0.685   7.111  12.428 -1.1018 -0.3763  0.1293
 5270SOL    HW217252   0.594   7.088  12.308 -0.6359 -0.8643 -0.1355
 5271SOL     OW17253   5.945   0.302   9.355 -0.2299 -0.0055  0.0014
 5271SOL    HW117254   5.954   0.350   9.437  0.5372  1.5369 -0.9234
 5271SOL    HW217255   6.034   0.277   9.331  0.0022  2.1580 -1.7681
 5272SOL     OW17256   5.247   7.166   4.756  1.1990  0.1675 -0.4235
 5272SOL    HW117257   5.315   7.216   4.802 -0.1504  2.0989 -0.4332
 5272SOL    HW217258   5.187   7.232   4.722 -1.9022 -1.4494  1.4476
 5273SOL     OW17259   6.362   2.803   9.654 -0.2275  0.0246 -0.7902
 5273SOL    HW117260   6.408   2.887   9.660 -0.4584  0.0729  2.7823
 5273SOL    HW217261   6.276   2.825   9.619 -0.5375  1.4705  0.7507
 5274SOL     OW17262   7.698   5.253   8.972  0.4972  0.6759 -0.7749
 5274SOL    HW117263   7.704   5.241   8.877  1.3828 -1.1389 -0.5310
 5274SOL    HW217264   7.607   5.279   8.987 -0.7863 -2.6924 -1.8355
 5275SOL     OW17265   2.349   5.711  11.136  0.2114 -0.4256  0.0052
 5275SOL    HW117266   2.280   5.667  11.085 -0.7483  0.4004  0.5487
 5275SOL    HW217267   2.403   5.639  11.170 -1.1714 -1.1969  0.6732
 5276SOL     OW17268   6.736   3.402   2.383  0.1365 -0.0839 -0.2424
 5276SOL    HW117269   6.687   3.464   2.437  1.5595  0.6774  0.2035
 5276SOL    HW217270   6.817   3.448   2.360  0.7037 -1.3494 -0.8780
 5277SOL     OW17271   4.121   5.160   9.304 -0.6469  0.6969 -0.2298
 5277SOL    HW117272   4.062   5.232   9.283 -1.1354 -0.1381 -1.8853
 5277SOL    HW217273   4.067   5.098   9.354 -0.7840  0.5845 -0.5150
 5278SOL     OW17274   6.610   7.197   8.169  0.1528 -0.4790  0.6590
 5278SOL    HW117275   6.594   7.274   8.224 -0.0513  0.1012 -0.1894
 5278SOL    HW217276   6.683   7.223   8.113 -0.8029 -0.3932 -0.5691
 5279SOL     OW17277   5.517   5.475  11.713 -0.3343  0.0567  0.0731
 5279SOL    HW117278   5.491   5.388  11.681  0.4427 -0.4841  0.8907
 5279SOL    HW217279   5.588   5.458  11.775 -0.9731  1.1911  1.1476
 5280SOL     OW17280   6.005   3.646   7.123  0.1621  0.4187  0.0132
 5280SOL    HW117281   6.087   3.603   7.100 -0.3969 -1.0474  0.6916
 5280SOL    HW217282   6.026   3.740   7.120  1.8249  0.0755  0.0892
 5281SOL     OW17283   4.839   7.061   6.380  0.3735  0.8181 -0.3915
 5281SOL    HW117284   4.880   7.038   6.297  1.3246 -0.9526  0.5262
 5281SOL    HW217285   4.850   7.156   6.387  3.2734  0.5784 -0.7799
 5282SOL     OW17286   4.931   6.497  10.507  0.4213 -0.0001 -0.2256
 5282SOL    HW117287   4.953   6.587  10.484  1.0317  0.2524  1.2314
 5282SOL    HW217288   4.894   6.504  10.595 -0.5806 -1.0502 -0.5454
 5283SOL     OW17289   3.637   2.075   5.045  0.6921  0.7135  0.0191
 5283SOL    HW117290   3.730   2.095   5.051  0.4105  1.5530  2.4960
 5283SOL    HW217291   3.634   1.980   5.040  1.6664  0.6541  0.2883
 5284SOL     OW17292   4.715   5.379   0.764  0.0797  0.3729 -0.0239
 5284SOL    HW117293   4.754   5.454   0.719 -2.7131  2.2355  0.4077
 5284SOL    HW217294   4.757   5.378   0.850  1.2877  0.4013 -0.5948
 5285SOL     OW17295   5.678   0.831   7.968  0.2947 -0.3606  0.1282
 5285SOL    HW117296   5.597   0.796   8.004 -0.2599  1.2779  0.6032
 5285SOL    HW217297   5.653   0.870   7.884  1.1708 -2.2876 -1.0857
 5286SOL     OW17298   6.933   6.919   3.828 -0.0451 -0.1114 -0.4229
 5286SOL    HW117299   6.883   6.951   3.753  1.5460 -0.6201 -1.7590
 5286SOL    HW217300   6.955   6.829   3.805  1.3434  0.0516  0.1857
 5287SOL     OW17301   4.553   0.918   7.423 -0.6361  0.3948 -0.2733
 5287SOL    HW117302   4.573   0.838   7.471 -0.8490  0.9256  0.7527
 5287SOL    HW217303   4.577   0.900   7.333  4.4307  0.8644  0.6699
 5288SOL     OW17304   2.851   0.703   9.446 -0.0709  0.1457  0.4969
 5288SOL    HW117305   2.768   0.713   9.401 -0.1331  1.1321  0.7993
 5288SOL    HW217306   2.827   0.691   9.538  0.1203  0.6984  0.6229
 5289SOL     OW17307   2.338   7.308   9.083  0.1033  0.6214 -0.1676
 5289SOL    HW117308   2.339   7.375   9.152  0.5342  1.3395 -0.8504
 5289SOL    HW217309   2.412   7.251   9.103  0.0270  0.6293  0.1460
 5290SOL     OW17310   7.456   4.275   1.456  0.1171  0.6897 -0.2231
 5290SOL    HW117311   7.391   4.262   1.387  1.0332  1.6214 -1.3099
 5290SOL    HW217312   7.494   4.360   1.436  0.2114  1.1127  1.6286
 5291SOL     OW17313   2.380   4.942   8.822  0.1438 -0.6532  0.3639
 5291SOL    HW117314   2.431   4.949   8.741  1.8019 -2.0028  1.2201
 5291SOL    HW217315   2.289   4.945   8.793  0.6895 -0.7580 -1.5102
 5292SOL     OW17316   4.573   5.423   5.152 -0.2986  0.0213  0.2522
 5292SOL    HW117317   4.600   5.334   5.177  1.4268  0.1871 -0.8421
 5292SOL    HW217318   4.522   5.412   5.072  2.0152  0.1230 -1.3306
 5293SOL     OW17319   3.360   4.121   5.654  0.2330 -0.5265 -0.1454
 5293SOL    HW117320   3.269   4.091   5.662  0.4217 -1.0834 -0.0144
 5293SOL    HW217321   3.374   4.177   5.729 -0.3090  0.3817 -0.7085
 5294SOL     OW17322   3.050   7.882   8.570  0.1736  0.4066 -0.4784
 5294SOL    HW117323   3.080   7.800   8.530 -0.0912 -1.8594  3.4150
 5294SOL    HW217324   2.993   7.921   8.504  0.5230 -2.4080 -2.6495
 5295SOL     OW17325   1.992   2.373   1.013 -0.4416  0.6243 -0.3113
 5295SOL    HW117326   1.908   2.335   0.987  0.3044 -0.3653 -1.3701
 5295SOL    HW217327   2.038   2.302   1.058 -0.5411  1.4601  1.1842
 5296SOL     OW17328   4.574   5.029  10.287 -0.3901 -0.8210 -0.1431
 5296SOL    HW117329   4.509   5.090  10.250 -1.0996 -0.4616  1.6020
 5296SOL    HW217330   4.531   4.993  10.365  1.4841 -0.6133  1.0357
 5297SOL     OW17331   5.327   3.722   2.004  0.1145  0.3433  0.2111
 5297SOL    HW117332   5.331   3.774   1.924 -0.2436 -0.3224 -0.2489
 5297SOL    HW217333   5.414   3.732   2.044  0.3658  0.5133 -0.3711
 5298SOL     OW17334   1.125   5.783   4.753 -0.1140  0.2740  0.2592
 5298SOL    HW117335   1.109   5.695   4.786  1.4714 -0.8039 -1.6422
 5298SOL    HW217336   1.213   5.805   4.785  0.9367 -0.3021 -2.0373
 5299SOL     OW17337   0.992   2.603   0.712 -0.4522  0.6512 -0.3272
 5299SOL    HW117338   0.925   2.644   0.658 -1.4715  0.6486  0.8940
 5299SOL    HW217339   0.995   2.656   0.792  0.0647 -0.1173  0.1847
 5300SOL     OW17340   1.474   2.095  10.731 -0.3273  0.6442 -0.6208
 5300SOL    HW117341   1.430   2.011  10.737  0.8415  0.0937  2.8291
 5300SOL    HW217342   1.409   2.159  10.760 -0.4436  0.5625 -0.7028
 5301SOL     OW17343   2.224   3.983   0.718  0.1888  0.7308  0.1247
 5301SOL    HW117344   2.153   3.920   0.706 -1.2824  2.0535  1.5064
 5301SOL    HW217345   2.267   3.956   0.800  1.9906 -0.6306 -1.1678
 5302SOL     OW17346   6.097   3.183  10.123  0.1417  0.3777  0.2860
 5302SOL    HW117347   6.061   3.160  10.037  0.3358  0.8392  0.0745
 5302SOL    HW217348   6.037   3.143  10.186  0.3212 -0.4550 -0.0608
 5303SOL     OW17349   2.811   1.409   9.683  0.4583  0.2279 -0.3779
 5303SOL    HW117350   2.872   1.364   9.624  0.3600 -0.0666 -0.2525
 5303SOL    HW217351   2.727   1.406   9.637  0.1982 -0.7219  0.1372
 5304SOL     OW17352   5.151   0.604   5.969  0.0769  0.7890 -0.3038
 5304SOL    HW117353   5.107   0.646   6.043  0.5431 -1.3958  1.3205
 5304SOL    HW217354   5.243   0.603   5.993  0.0991 -0.9266 -0.3553
 5305SOL     OW17355   5.272   0.417  11.231  0.2832  0.2906 -0.4708
 5305SOL    HW117356   5.215   0.361  11.179  0.3493 -0.4552  0.2551
 5305SOL    HW217357   5.317   0.471  11.165 -0.5139  0.2008 -1.1069
 5306SOL     OW17358   6.926   3.100   3.751 -0.8705 -0.4583 -0.2212
 5306SOL    HW117359   6.864   3.035   3.717  0.4200 -1.9593  0.1971
 5306SOL    HW217360   6.996   3.048   3.792 -1.5137  1.1923  3.3703
 5307SOL     OW17361   4.858   6.350   0.031 -0.0572 -0.7268  0.1303
 5307SOL    HW117362   4.899   6.347  -0.055  0.4466  0.1952  0.3318
 5307SOL    HW217363   4.859   6.258   0.061 -0.0905 -1.0241 -0.7692
 5308SOL     OW17364   0.370   4.711   6.560 -0.1060  0.7574  0.4491
 5308SOL    HW117365   0.414   4.779   6.611  1.0809 -0.0272  0.5151
 5308SOL    HW217366   0.438   4.676   6.503 -0.6363 -0.5152  0.5610
 5309SOL     OW17367   6.746   0.284   1.259 -0.0109  0.6016 -0.5297
 5309SOL    HW117368   6.821   0.231   1.283 -0.4983  0.1479  0.0063
 5309SOL    HW217369   6.754   0.364   1.311 -1.8912 -1.0024  2.4974
 5310SOL     OW17370   3.376   2.299   9.072  0.1654  0.0986 -0.2947
 5310SOL    HW117371   3.317   2.226   9.053  0.6352 -0.6305  0.9118
 5310SOL    HW217372   3.456   2.258   9.106  0.0999  1.1722  1.3014
 5311SOL     OW17373   4.740   6.170   7.138 -0.0968  0.0110  0.5088
 5311SOL    HW117374   4.777   6.205   7.219 -1.2217 -0.1466  1.1115
 5311SOL    HW217375   4.716   6.080   7.160 -0.1520 -0.1207 -0.0826
 5312SOL     OW17376   7.149   4.576   7.805  0.0390  0.0574  0.2682
 5312SOL    HW117377   7.084   4.568   7.736  1.3107  0.2777 -1.0075
 5312SOL    HW217378   7.224   4.618   7.763  0.2505  1.8012  2.2068
 5313SOL     OW17379   4.640   5.147   2.432 -0.2445 -0.1326  0.9590
 5313SOL    HW117380   4.611   5.179   2.347  2.3040 -0.6322 -0.1868
 5313SOL    HW217381   4.669   5.226   2.478  1.0062 -0.1459  0.2314
 5314SOL     OW17382   1.787   1.100   1.987 -0.2064  0.4196 -0.2396
 5314SOL    HW117383   1.727   1.065   2.053  1.4166  0.5586  1.3996
 5314SOL    HW217384   1.874   1.083   2.023  0.7771 -0.1185 -2.7117
 5315SOL     OW17385   3.808   0.088  11.452  0.2333  0.0316 -0.3815
 5315SOL    HW117386   3.723   0.043  11.452  0.0807  0.3013  0.3562
 5315SOL    HW217387   3.868   0.025  11.412 -0.5487  0.3223 -2.1284
 5316SOL     OW17388   4.424   5.829   2.310  0.2221 -0.2423  0.5139
 5316SOL    HW117389   4.384   5.750   2.346 -0.9634  1.1533  2.4287
 5316SOL    HW217390   4.370   5.851   2.235 -0.1007 -0.6605  0.6158
 5317SOL     OW17391   1.374   5.874   4.451 -0.2587  0.3981 -0.0473
 5317SOL    HW117392   1.369   5.893   4.357  1.9855 -0.1575 -0.3426
 5317SOL    HW217393   1.453   5.820   4.460 -0.5198  0.3006  2.1418
 5318SOL     OW17394   0.707   2.943   3.985  0.0947  0.1540  0.2281
 5318SOL    HW117395   0.796   2.975   4.002 -0.3759  1.5970  0.1496
 5318SOL    HW217396   0.655   2.977   4.057 -0.8989  1.7648 -1.1649
 5319SOL     OW17397   7.175   4.348   7.065 -0.4510 -0.1724 -0.1508
 5319SOL    HW117398   7.139   4.350   7.153 -0.5291 -2.1273 -0.0965
 5319SOL    HW217399   7.098   4.348   7.008 -0.3971  1.7517 -0.2914
 5320SOL     OW17400   3.264   6.379   4.093 -0.1393  0.2436 -0.2669
 5320SOL    HW117401   3.206   6.455   4.086 -0.6968 -0.1487  0.0312
 5320SOL    HW217402   3.319   6.398   4.169 -0.4934  0.2023  0.0007
 5321SOL     OW17403   6.473   7.579   2.433  0.5025  0.2431 -0.6801
 5321SOL    HW117404   6.508   7.630   2.506 -0.2833  0.4111 -0.4151
 5321SOL    HW217405   6.519   7.613   2.356 -0.0389  1.3989 -0.5178
 5322SOL     OW17406   6.171   1.014   9.309 -0.0263  0.2860 -0.0789
 5322SOL    HW117407   6.140   1.082   9.250 -0.4360 -0.0363 -0.2366
 5322SOL    HW217408   6.093   0.984   9.354 -0.8414 -3.5295 -3.4798
 5323SOL     OW17409   0.795   6.595   9.929  0.2548 -0.2094 -0.0291
 5323SOL    HW117410   0.742   6.637   9.861 -1.2400  0.6765  1.5847
 5323SOL    HW217411   0.848   6.666   9.965  1.0412 -0.6752 -0.2481
 5324SOL     OW17412   6.103   4.593   4.878  0.1467  0.4415 -0.2357
 5324SOL    HW117413   6.113   4.561   4.789  2.0741 -0.2054  0.1631
 5324SOL    HW217414   6.151   4.675   4.880 -0.3543  0.7336  0.0788
 5325SOL     OW17415   0.276   6.365   0.540 -0.1611 -0.1824 -0.0941
 5325SOL    HW117416   0.340   6.391   0.606  0.9094 -2.7526  0.0158
 5325SOL    HW217417   0.327   6.312   0.478 -1.5126  0.6252 -2.0029
 5326SOL     OW17418   6.567   6.328   4.698 -0.2830  0.1758  0.1427
 5326SOL    HW117419   6.481   6.342   4.659 -0.3204 -2.1321 -0.7529
 5326SOL    HW217420   6.550   6.285   4.781 -0.0208 -0.8652 -0.3195
 5327SOL     OW17421   3.894   2.428  12.259 -0.3459  1.0644  0.2108
 5327SOL    HW117422   3.978   2.469  12.276 -0.3556  0.9373  0.5732
 5327SOL    HW217423   3.898   2.344  12.304  0.3089 -0.1028 -1.8897
 5328SOL     OW17424   4.592   6.036  10.093  0.2570  0.1795  0.2232
 5328SOL    HW117425   4.530   6.006  10.027 -0.4658 -1.0359  1.3744
 5328SOL    HW217426   4.674   6.047  10.046 -0.0001 -1.5443 -0.7399
 5329SOL     OW17427   1.194   7.596   7.208 -0.6750  0.2501 -0.1351
 5329SOL    HW117428   1.151   7.596   7.293  0.1053 -0.4917  0.2722
 5329SOL    HW217429   1.281   7.632   7.225  0.7811 -3.0639  0.1058
 5330SOL     OW17430   1.572   5.675   8.385  0.1989 -0.0812  0.2993
 5330SOL    HW117431   1.594   5.624   8.464  0.4142 -1.0223 -0.3460
 5330SOL    HW217432   1.599   5.618   8.312 -1.8766 -0.1250 -0.4982
 5331SOL     OW17433   5.961   7.556   2.549  0.1715 -0.1068  0.0918
 5331SOL    HW117434   5.927   7.468   2.528  0.5672 -0.0487 -0.8311
 5331SOL    HW217435   6.043   7.562   2.501 -0.8752  1.5515 -1.5916
 5332SOL     OW17436   4.513   1.242   1.947 -0.4412 -0.3730 -0.0874
 5332SOL    HW117437   4.447   1.306   1.922  1.2382  0.7806 -1.8182
 5332SOL    HW217438   4.505   1.171   1.883  0.9801  0.5142 -1.2938
 5333SOL     OW17439   6.105   5.338   0.275 -0.4935  0.7495 -0.0093
 5333SOL    HW117440   6.165   5.303   0.209  0.5760 -0.0897  1.3530
 5333SOL    HW217441   6.106   5.433   0.259  1.8896  0.8715  0.4708
 5334SOL     OW17442   6.233   0.226  11.747 -0.3004  0.1219 -0.3994
 5334SOL    HW117443   6.201   0.307  11.707 -1.1076 -0.3190 -0.6758
 5334SOL    HW217444   6.218   0.159  11.680  1.0608 -0.1354 -0.4689
 5335SOL     OW17445   5.613   3.901   7.526 -0.2337  0.6773  0.0126
 5335SOL    HW117446   5.700   3.889   7.566 -0.6111  0.6158  0.8389
 5335SOL    HW217447   5.552   3.873   7.594 -0.9533  1.9845 -0.0759
 5336SOL     OW17448   2.645   0.102   6.184  0.1812 -0.3172  0.1374
 5336SOL    HW117449   2.600   0.157   6.249  0.7671  0.1769  0.1294
 5336SOL    HW217450   2.686   0.165   6.124  1.3756 -0.7538  0.4766
 5337SOL     OW17451   5.617   7.889   2.621 -0.6816  0.9148 -0.3243
 5337SOL    HW117452   5.662   7.818   2.665  0.0446  2.2254  1.1527
 5337SOL    HW217453   5.548   7.847   2.570 -0.3184 -0.8133  0.5634
 5338SOL     OW17454   0.815   4.437   2.246  0.1349  0.2232 -0.8561
 5338SOL    HW117455   0.862   4.429   2.329 -0.3501  0.5078 -0.5474
 5338SOL    HW217456   0.730   4.474   2.270  0.5094  1.7005 -1.6370
 5339SOL     OW17457   2.167   1.497   7.344  0.0092 -0.1690 -0.1626
 5339SOL    HW117458   2.076   1.497   7.372 -0.0406  0.0273 -0.3242
 5339SOL    HW217459   2.172   1.566   7.278  0.3500  0.0623  0.0997
 5340SOL     OW17460   7.698   6.419  11.009  0.1033 -0.5894  0.1028
 5340SOL    HW117461   7.690   6.396  10.917  1.6174  0.3874 -0.3248
 5340SOL    HW217462   7.793   6.427  11.023 -0.0752  4.0249  0.4291
 5341SOL     OW17463   5.862   2.772   0.017 -0.0024 -0.5559 -0.2877
 5341SOL    HW117464   5.885   2.864   0.006  0.2227 -0.4808  0.7793
 5341SOL    HW217465   5.794   2.757  -0.049  1.6747 -0.2846 -2.2118
 5342SOL     OW17466   4.497   0.029  10.627 -0.0686  0.5910  0.2922
 5342SOL    HW117467   4.477  -0.058  10.593  1.1616  0.2913  0.2968
 5342SOL    HW217468   4.413   0.075  10.625 -0.3828  0.0502 -1.5925
 5343SOL     OW17469   0.937   1.476   8.295  0.5178  0.1785 -0.0716
 5343SOL    HW117470   0.864   1.499   8.352  0.2356  1.4619 -0.9081
 5343SOL    HW217471   0.917   1.387   8.267 -0.5470  0.3710  0.0075
 5344SOL     OW17472   5.837   6.107  11.481  0.9629  0.1637 -0.3326
 5344SOL    HW117473   5.899   6.124  11.552  0.0147  1.4295  0.2337
 5344SOL    HW217474   5.757   6.151  11.509  0.6448  0.9311 -2.3115
 5345SOL     OW17475   5.128   4.311   4.076  0.1848  0.2089  0.1069
 5345SOL    HW117476   5.148   4.332   3.985 -2.1137  1.1605 -0.2555
 5345SOL    HW217477   5.098   4.394   4.113  0.9086 -0.2091  1.7103
 5346SOL     OW17478   7.372   4.235   6.921  0.2639  0.4035 -0.0261
 5346SOL    HW117479   7.456   4.270   6.951 -0.2313  0.7401  1.0512
 5346SOL    HW217480   7.307   4.284   6.971 -0.6418  1.0174 -1.7417
 5347SOL     OW17481   4.093   7.517   7.556  1.0411  0.4793 -0.1943
 5347SOL    HW117482   4.154   7.456   7.513  0.2136 -0.1222 -0.5319
 5347SOL    HW217483   4.075   7.584   7.490  0.9107  0.3579 -0.2822
 5348SOL     OW17484   1.556   0.641   8.805  0.0977  0.6907  0.4257
 5348SOL    HW117485   1.551   0.596   8.890 -0.6431  0.5636  0.3237
 5348SOL    HW217486   1.525   0.730   8.823 -0.9499  0.3997  0.1155
 5349SOL     OW17487   2.775   4.586   0.501 -0.2623 -0.2223  0.4375
 5349SOL    HW117488   2.831   4.660   0.526  0.2678 -0.9141  1.3665
 5349SOL    HW217489   2.781   4.526   0.576 -1.4804 -0.7480  0.1233
 5350SOL     OW17490   2.178   6.098   0.862  0.4242  0.4523  0.3751
 5350SOL    HW117491   2.084   6.114   0.868 -0.0241 -1.5299 -0.4572
 5350SOL    HW217492   2.200   6.117   0.771  0.7368  0.4251  0.4422
 5351SOL     OW17493   4.373   1.916   4.648 -0.2420 -0.1758  0.0377
 5351SOL    HW117494   4.444   1.853   4.638 -1.1255 -1.4354  1.2747
 5351SOL    HW217495   4.386   1.979   4.578  2.0539 -0.4058  0.2016
 5352SOL     OW17496   0.497   5.428   9.799  0.1451 -0.1936  0.2984
 5352SOL    HW117497   0.577   5.461   9.839  0.5582 -1.1095  0.2532
 5352SOL    HW217498   0.519   5.338   9.773 -0.0098  0.4265 -2.2047
 5353SOL     OW17499   0.357   3.838   7.446 -0.5892  0.3797 -0.2482
 5353SOL    HW117500   0.283   3.785   7.418 -0.9949  1.4741 -1.3303
 5353SOL    HW217501   0.333   3.867   7.535 -0.2877 -1.3134  0.4219
 5354SOL     OW17502   2.513   2.021   0.834  0.0089  0.5157  0.5022
 5354SOL    HW117503   2.422   2.049   0.826  0.1189  0.9145  0.6289
 5354SOL    HW217504   2.508   1.938   0.882 -0.4774 -0.8110 -1.7158
 5355SOL     OW17505   2.076   4.411   4.690  0.0975  0.0250 -0.1524
 5355SOL    HW117506   2.098   4.347   4.758  0.6998 -0.1520 -0.5042
 5355SOL    HW217507   1.999   4.456   4.724 -1.8897 -2.5276 -0.9493
 5356SOL     OW17508   3.811   1.111   6.149 -0.4760 -0.2796 -0.3766
 5356SOL    HW117509   3.847   1.064   6.225 -0.0018 -1.3475 -1.2445
 5356SOL    HW217510   3.832   1.203   6.167 -0.2702 -0.5243  0.7344
 5357SOL     OW17511   1.258   2.154   1.884  0.5046  0.2335  0.5383
 5357SOL    HW117512   1.179   2.197   1.852  0.9482  0.2592 -0.5505
 5357SOL    HW217513   1.326   2.177   1.821  0.9491 -1.3446  0.3927
 5358SOL     OW17514   5.989   3.569   8.927 -0.0683  0.0014 -0.0744
 5358SOL    HW117515   6.051   3.515   8.976  1.2503  1.2601 -0.2599
 5358SOL    HW217516   6.011   3.553   8.835 -0.2501  0.1846 -0.1501
 5359SOL     OW17517   5.888   3.003   1.443 -0.4251 -0.4609  0.7419
 5359SOL    HW117518   5.971   3.006   1.490  0.2220 -1.6835 -0.2535
 5359SOL    HW217519   5.881   3.089   1.402 -1.0217  0.6433  3.0096
 5360SOL     OW17520   1.028   2.992   5.204  0.5120 -0.1087 -0.0591
 5360SOL    HW117521   0.961   2.961   5.143  1.4560 -0.0887 -1.1285
 5360SOL    HW217522   1.093   3.034   5.149  0.5812  1.4005  1.1287
 5361SOL     OW17523   5.529   0.429   1.295  0.5798  0.1305 -0.3681
 5361SOL    HW117524   5.578   0.359   1.338  1.0683  0.7213  0.0516
 5361SOL    HW217525   5.440   0.419   1.327  0.0033 -1.9357 -2.3197
 5362SOL     OW17526   0.625   1.180   8.962 -0.1384 -0.3662  0.0742
 5362SOL    HW117527   0.585   1.230   9.033  0.4826  2.3654 -1.3742
 5362SOL    HW217528   0.555   1.122   8.932 -0.9003 -0.4174  1.8245
 5363SOL     OW17529   3.540   2.247   9.290  0.5655  0.0054 -0.2850
 5363SOL    HW117530   3.494   2.225   9.371 -3.7292 -0.2425 -2.5150
 5363SOL    HW217531   3.559   2.341   9.298 -0.7668  0.2280  0.6202
 5364SOL     OW17532   7.104   0.643   9.885 -0.6192  0.4129 -0.3301
 5364SOL    HW117533   7.093   0.549   9.894 -1.4392  0.6768  2.1073
 5364SOL    HW217534   7.199   0.656   9.878 -0.3447 -0.4738  1.4429
 5365SOL     OW17535   2.814   3.870   9.886 -0.0130 -0.4494  0.7961
 5365SOL    HW117536   2.799   3.798   9.825 -0.5071 -1.0643  1.6286
 5365SOL    HW217537   2.883   3.922   9.845  1.2001 -2.0456  0.7324
 5366SOL     OW17538   6.737   5.926   7.382  0.0129 -0.1570  0.1990
 5366SOL    HW117539   6.792   5.969   7.448 -0.4445 -0.1234  0.5637
 5366SOL    HW217540   6.765   5.964   7.299  0.5626 -0.1619  0.3771
 5367SOL     OW17541   6.996   3.221   8.483  0.2399  0.0656 -0.6580
 5367SOL    HW117542   6.983   3.264   8.399  1.1632  0.9878 -0.3553
 5367SOL    HW217543   7.057   3.149   8.465  1.4310  1.0260 -0.5864
 5368SOL     OW17544   1.056   4.245   4.460  0.0103 -0.0964 -0.0558
 5368SOL    HW117545   1.061   4.161   4.413  1.5554  1.3002 -2.6546
 5368SOL    HW217546   1.140   4.251   4.506 -0.0655  0.0535  0.0601
 5369SOL     OW17547   0.034   3.872   4.087  0.6292  0.5667 -0.3259
 5369SOL    HW117548   0.025   3.959   4.126  1.0399  0.7997 -0.7387
 5369SOL    HW217549   0.033   3.887   3.993 -2.6966 -0.2339 -0.5134
 5370SOL     OW17550   6.537   6.299   4.243 -0.0821  0.5133 -0.2686
 5370SOL    HW117551   6.474   6.238   4.205  1.0944 -1.1678  0.3352
 5370SOL    HW217552   6.487   6.379   4.258 -2.3122 -0.9598  0.8590
 5371SOL     OW17553   1.751   1.591  10.286 -0.6377 -0.1418 -0.0435
 5371SOL    HW117554   1.728   1.499  10.276 -1.9570  0.0732  0.7795
 5371SOL    HW217555   1.741   1.628  10.199  0.0947 -0.8042 -0.4213
 5372SOL     OW17556   0.404   3.599   2.008 -0.1555  0.4193  0.8262
 5372SOL    HW117557   0.407   3.694   1.991  0.5611  0.1197 -0.9339
 5372SOL    HW217558   0.496   3.574   2.021  0.0577 -0.5097 -1.9215
 5373SOL     OW17559   2.770   4.106  10.844 -0.5784  0.5202 -0.0533
 5373SOL    HW117560   2.766   4.140  10.933 -1.3998 -1.5826  0.7689
 5373SOL    HW217561   2.684   4.067  10.828 -0.3139  0.4855 -1.6242
 5374SOL     OW17562   3.238   0.276   1.913  0.6731  0.2727  0.0282
 5374SOL    HW117563   3.207   0.211   1.850 -0.8656 -0.2028  1.1982
 5374SOL    HW217564   3.316   0.314   1.873  0.8461 -1.3539 -1.2846
 5375SOL     OW17565   6.047   2.739   6.392  0.0076 -0.2891 -0.8529
 5375SOL    HW117566   6.106   2.746   6.317 -0.6485  1.6711 -1.2583
 5375SOL    HW217567   6.096   2.777   6.465  0.6861 -2.2911 -0.2099
 5376SOL     OW17568   1.873   3.355   9.283 -0.2452 -0.0715 -0.3037
 5376SOL    HW117569   1.811   3.282   9.278  0.2733 -0.5050 -0.4744
 5376SOL    HW217570   1.854   3.396   9.367 -0.5150 -0.4273 -0.1851
 5377SOL     OW17571   5.327   0.841   1.957 -0.3145  0.7345  0.4105
 5377SOL    HW117572   5.389   0.831   1.885 -0.4932  0.3038  0.3132
 5377SOL    HW217573   5.298   0.932   1.951  1.8982  1.5925  1.7646
 5378SOL     OW17574   4.762   5.520  11.694  0.1606  0.5816 -0.1548
 5378SOL    HW117575   4.723   5.539  11.608 -0.4238  0.1038  0.0000
 5378SOL    HW217576   4.780   5.426  11.691  0.1241  0.5616  0.2539
 5379SOL     OW17577   4.909   2.732   4.638 -0.2295 -0.5181 -0.1496
 5379SOL    HW117578   4.954   2.798   4.586 -2.2795 -0.5409 -2.1169
 5379SOL    HW217579   4.889   2.777   4.721  0.8875  0.3706 -0.3427
 5380SOL     OW17580   1.581   5.264   8.780  0.6317 -0.0235  0.0787
 5380SOL    HW117581   1.675   5.266   8.765  0.6863 -0.3209  0.3693
 5380SOL    HW217582   1.565   5.180   8.822  0.1346 -0.2817 -0.6233
 5381SOL     OW17583   1.376   7.686   5.133 -0.4960  0.3083 -0.1544
 5381SOL    HW117584   1.312   7.751   5.103 -0.0480  1.0959  0.5721
 5381SOL    HW217585   1.433   7.673   5.058 -1.0513  0.1598 -0.5617
 5382SOL     OW17586   2.519   0.277   2.420 -0.2999  0.1151  0.0525
 5382SOL    HW117587   2.478   0.314   2.498 -1.1043 -1.7639  0.5779
 5382SOL    HW217588   2.526   0.350   2.359 -1.5459  1.1786  1.1354
 5383SOL     OW17589   1.162   3.641   8.589 -0.8303 -0.1563  0.0447
 5383SOL    HW117590   1.088   3.663   8.645 -0.0775  2.0784  0.2639
 5383SOL    HW217591   1.195   3.558   8.625 -1.7717  0.0384  1.4500
 5384SOL     OW17592   7.299   3.948  10.148 -0.3534 -0.2802  0.6835
 5384SOL    HW117593   7.239   3.952  10.223 -1.3206 -2.3732  0.0934
 5384SOL    HW217594   7.283   3.862  10.109  2.7559 -0.7822  0.2284
 5385SOL     OW17595   0.263   5.030   8.986  0.3325  0.0855 -0.1154
 5385SOL    HW117596   0.192   4.966   8.977 -1.8401  2.4229 -0.7297
 5385SOL    HW217597   0.262   5.056   9.078 -0.3710  0.9180 -0.3518
 5386SOL     OW17598   4.551   6.091   2.800  0.3177  0.1772  0.1578
 5386SOL    HW117599   4.489   6.020   2.781  0.4805  0.3817 -1.2228
 5386SOL    HW217600   4.495   6.165   2.824  0.0950 -0.0402  0.3246
 5387SOL     OW17601   7.317   4.220   6.657 -0.2005 -0.1891  0.7143
 5387SOL    HW117602   7.249   4.158   6.628  0.9013 -0.6511 -1.0348
 5387SOL    HW217603   7.312   4.218   6.753 -2.8823  0.0919  0.6553
 5388SOL     OW17604   1.901   0.239   5.993 -0.4932  0.1132 -0.2461
 5388SOL    HW117605   1.992   0.265   6.005 -0.5941  0.2153  0.3488
 5388SOL    HW217606   1.877   0.199   6.077 -1.0151  0.1608 -0.3712
 5389SOL     OW17607   2.364   7.633   9.780 -0.1473  0.1854 -1.1922
 5389SOL    HW117608   2.340   7.711   9.730 -2.6774  0.7986  0.7384
 5389SOL    HW217609   2.313   7.640   9.861  1.7181 -2.0598  0.3225
 5390SOL     OW17610   7.471   3.437  10.233  0.3411 -0.3876 -0.5519
 5390SOL    HW117611   7.379   3.460  10.219  0.0647 -0.4690  0.9316
 5390SOL    HW217612   7.476   3.413  10.325  1.6975 -1.1767 -0.7973
 5391SOL     OW17613   5.577   2.088   1.123 -0.1133 -0.1532  0.0334
 5391SOL    HW117614   5.605   2.037   1.198 -0.1444  0.6438  0.6037
 5391SOL    HW217615   5.516   2.152   1.159  1.1319  1.3285 -0.3721
 5392SOL     OW17616   6.178   2.224   1.827 -0.2159  0.0711 -0.3762
 5392SOL    HW117617   6.131   2.306   1.811 -0.3858 -0.5192 -3.4816
 5392SOL    HW217618   6.269   2.244   1.806 -0.3803 -0.6815 -1.8944
 5393SOL     OW17619   4.130   6.163   7.904  0.5521 -0.6235  0.8570
 5393SOL    HW117620   4.040   6.189   7.926 -0.1337 -1.2452 -1.0152
 5393SOL    HW217621   4.174   6.246   7.885 -0.1847 -0.4194 -0.0678
 5394SOL     OW17622   5.050   5.543   5.047 -0.2393  0.5812 -0.4714
 5394SOL    HW117623   5.013   5.531   4.960 -0.0557 -2.3660 -0.2467
 5394SOL    HW217624   5.141   5.513   5.039 -0.0856  0.7066  0.6337
 5395SOL     OW17625   6.607   1.925   5.661 -0.6290  0.8386  0.4624
 5395SOL    HW117626   6.598   1.925   5.756  0.8158 -0.0289  0.6178
 5395SOL    HW217627   6.633   2.014   5.639  0.0711  0.7662  0.9918
 5396SOL     OW17628   5.883   5.881  10.401  0.1350 -0.2495  0.4672
 5396SOL    HW117629   5.911   5.844  10.485  0.5160 -0.6566  0.1657
 5396SOL    HW217630   5.788   5.890  10.409  0.2376  0.3394  1.1834
 5397SOL     OW17631   1.795   5.341   7.501  0.3711 -0.1164  0.4438
 5397SOL    HW117632   1.749   5.396   7.565  2.0455  1.7867  0.1216
 5397SOL    HW217633   1.888   5.362   7.515  0.8511 -0.6721 -1.6942
 5398SOL     OW17634   5.301   2.482  10.572 -0.1216 -0.0116  0.0529
 5398SOL    HW117635   5.235   2.539  10.612 -0.7059 -0.2527 -0.5582
 5398SOL    HW217636   5.321   2.524  10.488  0.8984  0.3417  0.4564
 5399SOL     OW17637   2.614   0.110   2.744  0.1993  0.6133 -0.6913
 5399SOL    HW117638   2.707   0.130   2.741  0.1605  1.6895  2.1794
 5399SOL    HW217639   2.604   0.047   2.815 -1.1006 -0.8279 -2.0778
 5400SOL     OW17640   5.505   0.082   1.419  0.2270  0.0454  0.4432
 5400SOL    HW117641   5.429   0.089   1.475  0.3392 -0.0835  0.6127
 5400SOL    HW217642   5.495  -0.003   1.374 -0.3865  0.6023 -0.5087
 5401SOL     OW17643   7.882   0.272   1.403 -0.0232  0.0007 -0.6153
 5401SOL    HW117644   7.928   0.333   1.347  1.5149  1.0196  1.6242
 5401SOL    HW217645   7.950   0.213   1.436 -0.7473 -0.1694  0.6436
 5402SOL     OW17646   7.725   3.060   0.911  0.3264 -0.6658 -0.3675
 5402SOL    HW117647   7.649   3.004   0.893 -0.4091  0.2086 -0.0276
 5402SOL    HW217648   7.691   3.149   0.907  1.5856 -0.1933 -1.3688
 5403SOL     OW17649   6.889   6.647   7.597  0.5072 -0.6729  0.2486
 5403SOL    HW117650   6.915   6.675   7.685  0.4997  0.6579 -0.1586
 5403SOL    HW217651   6.927   6.559   7.588  1.8968 -0.1782  0.9703
 5404SOL     OW17652   1.008   2.773   3.914  0.2685 -0.0295 -0.3135
 5404SOL    HW117653   0.996   2.697   3.971  0.3306 -0.5907 -1.0227
 5404SOL    HW217654   1.005   2.848   3.972 -0.4402 -0.5395  0.3220
 5405SOL     OW17655   4.204   6.458   8.347  0.0622 -0.6538  0.2931
 5405SOL    HW117656   4.123   6.507   8.331  0.3234 -0.3102  0.0005
 5405SOL    HW217657   4.223   6.474   8.440  1.4564  1.8530 -0.3310
 5406SOL     OW17658   5.054   5.413   0.706 -0.5333  0.1499  0.4642
 5406SOL    HW117659   4.967   5.438   0.674 -1.6742 -2.1842  1.4923
 5406SOL    HW217660   5.052   5.317   0.707  2.0913  0.0281  0.5039
 5407SOL     OW17661   7.043   6.394   6.039  0.3622 -0.1031  0.3867
 5407SOL    HW117662   6.985   6.352   6.103 -0.2297 -0.8865 -0.6350
 5407SOL    HW217663   6.986   6.453   5.990  0.4682 -0.6900 -0.4603
 5408SOL     OW17664   6.655   2.556   1.201 -0.2699 -0.2052 -0.3731
 5408SOL    HW117665   6.731   2.514   1.240  1.2360  2.3854 -0.2692
 5408SOL    HW217666   6.590   2.559   1.272  0.9761  0.9018  0.7810
 5409SOL     OW17667   0.472   6.380   3.319 -0.5767 -0.6122 -0.7608
 5409SOL    HW117668   0.430   6.368   3.233 -1.5973 -0.5902 -0.2822
 5409SOL    HW217669   0.566   6.381   3.300 -0.8216  0.5741 -2.0255
 5410SOL     OW17670   5.604   7.743   7.311  0.0645  0.5333  0.1773
 5410SOL    HW117671   5.629   7.750   7.403  0.1180 -0.1909  0.2243
 5410SOL    HW217672   5.686   7.724   7.265 -0.2011 -0.6797  0.1844
 5411SOL     OW17673   3.477   1.894  10.855 -0.7164  0.4513 -0.3411
 5411SOL    HW117674   3.383   1.898  10.835 -0.1843  0.5016 -3.2405
 5411SOL    HW217675   3.507   1.985  10.846 -0.0905  0.1611 -1.3305
 5412SOL     OW17676   0.768   0.802   0.436  0.6213  0.6008 -0.1831
 5412SOL    HW117677   0.804   0.863   0.500 -0.6785  1.5595 -0.3082
 5412SOL    HW217678   0.841   0.782   0.378  1.4556  0.8390  0.7423
 5413SOL     OW17679   7.571   5.244   2.106 -0.8898 -0.2525 -0.0720
 5413SOL    HW117680   7.476   5.230   2.104 -1.2101  1.1856  2.0369
 5413SOL    HW217681   7.607   5.162   2.071 -2.8260 -2.4349  2.5379
 5414SOL     OW17682   7.630   2.308   8.992 -0.2339  0.3096 -0.3626
 5414SOL    HW117683   7.665   2.318   9.080 -0.6744  0.6287 -0.2226
 5414SOL    HW217684   7.536   2.298   9.004 -0.1589 -1.0677 -0.7009
 5415SOL     OW17685   6.835   5.748   4.803  0.1836  0.3310 -0.3063
 5415SOL    HW117686   6.739   5.743   4.798  0.2536 -2.0086 -0.1507
 5415SOL    HW217687   6.854   5.744   4.897  0.4505  1.0885 -0.3195
 5416SOL     OW17688   6.801   6.955   6.291  0.2938  0.2325 -0.2016
 5416SOL    HW117689   6.824   6.924   6.379 -1.2112  1.5092  0.6957
 5416SOL    HW217690   6.878   7.003   6.262  1.3289 -1.3629 -0.1789
 5417SOL     OW17691   0.935   7.323   9.032 -0.3896 -0.5258 -0.2063
 5417SOL    HW117692   0.941   7.239   9.077 -1.0022 -0.1222  0.6593
 5417SOL    HW217693   0.872   7.309   8.962 -1.0694 -0.5901  0.4105
 5418SOL     OW17694   6.626   3.146  11.935  0.6695  0.3689  0.5327
 5418SOL    HW117695   6.560   3.135  12.003  0.2774 -0.7694 -0.0034
 5418SOL    HW217696   6.691   3.079  11.953  0.8126  0.3805  0.0734
 5419SOL     OW17697   0.862   7.216   7.478 -0.3222  0.0821  0.0439
 5419SOL    HW117698   0.920   7.147   7.446 -0.8994  0.1712 -1.2599
 5419SOL    HW217699   0.795   7.225   7.410  0.7470  3.1884 -0.7853
 5420SOL     OW17700   6.800   6.761   9.092 -0.2921 -0.3668 -0.0281
 5420SOL    HW117701   6.755   6.844   9.106 -0.2199  0.3693 -3.4205
 5420SOL    HW217702   6.746   6.696   9.139 -1.9720  1.1799  0.2767
 5421SOL     OW17703   2.813   0.961   7.967  0.0891  0.1411 -0.5964
 5421SOL    HW117704   2.805   0.991   8.058  1.9036 -1.8053  0.2878
 5421SOL    HW217705   2.724   0.970   7.932 -1.4032 -1.6630  2.2706
 5422SOL     OW17706   3.533   1.138   4.084  0.0835  0.0117  0.5155
 5422SOL    HW117707   3.517   1.138   4.178  1.5401 -0.1149  0.7810
 5422SOL    HW217708   3.612   1.086   4.073 -0.1097 -0.0299 -0.7901
 5423SOL     OW17709   6.042   7.230   5.909 -0.3768  0.4005  0.4069
 5423SOL    HW117710   6.060   7.267   5.823 -2.2737  1.1035  0.2696
 5423SOL    HW217711   6.062   7.137   5.900 -0.1031  0.5592 -0.6466
 5424SOL     OW17712   3.359   2.757   3.256 -0.1314  0.2312 -0.0684
 5424SOL    HW117713   3.396   2.669   3.259  0.3235  0.3436 -1.6094
 5424SOL    HW217714   3.384   2.796   3.340 -0.7461 -1.2421  0.8464
 5425SOL     OW17715   6.722   5.113   0.731  0.0882  0.0271 -0.4346
 5425SOL    HW117716   6.804   5.068   0.751  0.4567  0.8455 -0.0599
 5425SOL    HW217717   6.746   5.177   0.663 -0.0883  0.7263  0.1485
 5426SOL     OW17718   3.637   5.495   5.605  0.6030 -0.0887  0.1124
 5426SOL    HW117719   3.617   5.410   5.566 -1.7795  0.1958  0.5363
 5426SOL    HW217720   3.624   5.557   5.532 -0.8395  0.1571  0.5384
 5427SOL     OW17721   1.242   7.884   4.159 -0.0151 -0.3168  0.2374
 5427SOL    HW117722   1.328   7.919   4.181  0.0221 -0.5965  0.5560
 5427SOL    HW217723   1.254   7.836   4.078  0.0147  0.0918  0.0008
 5428SOL     OW17724   0.639   3.728  12.142 -0.4709 -0.3487 -0.1409
 5428SOL    HW117725   0.687   3.683  12.072  2.0035 -0.7956  1.7229
 5428SOL    HW217726   0.591   3.658  12.187 -0.1891 -0.4263  0.0389
 5429SOL     OW17727   2.524   7.427   3.750  0.3164 -0.2159 -0.4618
 5429SOL    HW117728   2.461   7.461   3.814  0.0047 -0.3499 -0.6920
 5429SOL    HW217729   2.555   7.505   3.703 -1.0251 -0.3028 -1.5550
 5430SOL     OW17730   3.337   4.292   8.471  0.5772 -0.1678  0.3284
 5430SOL    HW117731   3.414   4.265   8.521  1.7612  2.1664 -0.0908
 5430SOL    HW217732   3.317   4.380   8.504 -1.6990 -0.5527  0.1313
 5431SOL     OW17733   1.710   4.273   5.209 -0.4547 -0.3892  0.0992
 5431SOL    HW117734   1.639   4.318   5.163 -0.2370 -0.9078 -0.7672
 5431SOL    HW217735   1.766   4.343   5.241 -0.3515 -0.0256 -0.8570
 5432SOL     OW17736   6.647   0.839   9.571  0.1809 -0.5720  0.9704
 5432SOL    HW117737   6.685   0.918   9.534 -1.6403 -0.6673 -1.3112
 5432SOL    HW217738   6.710   0.770   9.549  0.8207 -0.0697  1.2041
 5433SOL     OW17739   3.182   3.867   9.925  0.0491 -0.1771 -0.4598
 5433SOL    HW117740   3.134   3.930   9.872  0.3058 -0.4710 -1.0454
 5433SOL    HW217741   3.271   3.870   9.891  0.5267  0.5238  0.7554
 5434SOL     OW17742   3.190   0.863   8.913  0.0949  0.0009 -0.4328
 5434SOL    HW117743   3.256   0.930   8.899 -0.3377  0.4132 -0.5114
 5434SOL    HW217744   3.126   0.904   8.971 -0.0747 -0.4089 -0.3226
 5435SOL     OW17745   5.538   2.737   5.572 -0.2104 -0.0861 -0.1211
 5435SOL    HW117746   5.526   2.651   5.531  1.3488 -0.4273  0.0792
 5435SOL    HW217747   5.511   2.800   5.504 -0.7526 -0.7097 -0.4934
 5436SOL     OW17748   5.590   3.060   1.377 -0.3854 -0.3701 -0.1360
 5436SOL    HW117749   5.678   3.056   1.414 -1.1578 -0.6463  1.7690
 5436SOL    HW217750   5.603   3.045   1.283  1.4748 -1.5119  0.2533
 5437SOL     OW17751   6.733   3.822  10.638  0.3178 -0.1845 -0.0652
 5437SOL    HW117752   6.724   3.753  10.571  0.2404  1.3099 -1.6694
 5437SOL    HW217753   6.827   3.828  10.654  0.5149  0.5781 -1.3408
 5438SOL     OW17754   1.178   6.706   3.869  0.2555 -0.4011  0.3445
 5438SOL    HW117755   1.220   6.702   3.954  0.5949  0.9685  0.2488
 5438SOL    HW217756   1.228   6.644   3.815  1.5567  0.5011  0.4879
 5439SOL     OW17757   3.011   7.221  10.590  0.5414 -0.5630 -0.4938
 5439SOL    HW117758   2.988   7.190  10.677 -1.1881  0.7585 -0.4201
 5439SOL    HW217759   3.011   7.143  10.535  0.3157 -1.2254  0.4372
 5440SOL     OW17760   7.082   5.488   4.592 -0.1127  0.1900  0.1251
 5440SOL    HW117761   7.087   5.529   4.678  0.8005 -1.6696  1.0191
 5440SOL    HW217762   7.045   5.402   4.609  0.6828 -0.4579 -1.2369
 5441SOL     OW17763   2.261   6.128   5.573  0.0311  0.2672 -0.0620
 5441SOL    HW117764   2.327   6.196   5.591  0.3744  0.1551 -0.8526
 5441SOL    HW217765   2.178   6.176   5.568 -0.2499  0.2288  2.5148
 5442SOL     OW17766   7.272   2.864   5.554  0.3743  0.0207  0.3403
 5442SOL    HW117767   7.351   2.832   5.511 -0.4551 -0.0695 -1.1752
 5442SOL    HW217768   7.280   2.959   5.553 -0.1038  0.0663 -0.9904
 5443SOL     OW17769   2.325   5.364   4.980  0.5400 -0.0528 -0.3871
 5443SOL    HW117770   2.254   5.390   4.921  1.3755 -1.5043 -2.1716
 5443SOL    HW217771   2.381   5.441   4.986 -0.5250  0.7084  0.0444
 5444SOL     OW17772   2.241   0.159   4.138 -0.4285  0.1009 -0.1922
 5444SOL    HW117773   2.148   0.146   4.118 -0.8676 -1.1784  2.2801
 5444SOL    HW217774   2.266   0.081   4.186  1.9619  0.4501 -0.7492
 5445SOL     OW17775   6.164   1.848   7.178  0.2230  0.0614  0.4129
 5445SOL    HW117776   6.181   1.942   7.190  0.5831  0.1515 -0.6954
 5445SOL    HW217777   6.191   1.830   7.088 -0.9943 -0.8525  0.2060
 5446SOL     OW17778   3.500   2.658   3.511 -0.0631  0.3267  0.7800
 5446SOL    HW117779   3.553   2.673   3.589  0.6928 -1.0947  0.5804
 5446SOL    HW217780   3.411   2.645   3.544 -0.0716  1.4387  1.2320
 5447SOL     OW17781   6.235   0.727   9.317 -0.4518 -0.4530  0.1673
 5447SOL    HW117782   6.164   0.665   9.330  0.5794 -1.9352 -1.0078
 5447SOL    HW217783   6.193   0.813   9.324 -2.5939 -1.2620 -1.4993
 5448SOL     OW17784   5.057   4.780   5.308  0.4244 -0.5025 -0.6484
 5448SOL    HW117785   5.067   4.826   5.392  0.5316 -0.8900 -0.4466
 5448SOL    HW217786   4.977   4.729   5.317 -0.2044  0.3500 -1.2130
 5449SOL     OW17787   6.744   2.635   8.474  0.0365  0.3419  0.1018
 5449SOL    HW117788   6.722   2.604   8.562 -1.8666  1.6598  0.1370
 5449SOL    HW217789   6.764   2.556   8.425  0.9284 -0.4381  1.6373
 5450SOL     OW17790   3.612   7.170   8.119 -0.3985  0.2998 -0.2823
 5450SOL    HW117791   3.685   7.109   8.134 -0.1835  0.8403  1.0114
 5450SOL    HW217792   3.536   7.114   8.106 -0.0364 -0.2577 -0.0328
 5451SOL     OW17793   0.214   1.370   1.850 -0.7033 -0.4291  0.0193
 5451SOL    HW117794   0.258   1.310   1.790  0.3505  0.7847 -0.4701
 5451SOL    HW217795   0.130   1.328   1.869  0.8312 -3.0749  1.4345
 5452SOL     OW17796   3.059   6.294   7.378 -0.1790  0.1505  0.5586
 5452SOL    HW117797   3.078   6.298   7.284 -0.9400  1.9283  0.4443
 5452SOL    HW217798   2.966   6.316   7.384 -0.2754 -0.5103  1.7023
 5453SOL     OW17799   4.443   4.550   9.953  0.1859  0.1904  0.1778
 5453SOL    HW117800   4.445   4.504  10.036 -2.0686 -0.0638  0.1521
 5453SOL    HW217801   4.371   4.613   9.961  0.8227  1.1396 -1.0869
 5454SOL     OW17802   0.316   0.305   0.009 -0.1449 -0.5738 -0.2584
 5454SOL    HW117803   0.347   0.254   0.084  1.8397  1.0972  0.1516
 5454SOL    HW217804   0.389   0.303  -0.053 -0.0799  1.4987 -0.3326
 5455SOL     OW17805   7.756   1.137   8.270  0.1062 -0.2723 -0.1480
 5455SOL    HW117806   7.763   1.147   8.175  3.3740  0.8187  0.0634
 5455SOL    HW217807   7.753   1.042   8.284 -1.3508 -0.4289 -1.3351
 5456SOL     OW17808   6.346   3.194  11.330  0.3342 -0.4699 -0.1826
 5456SOL    HW117809   6.356   3.132  11.403  0.5993  1.7170  1.7698
 5456SOL    HW217810   6.255   3.185  11.303 -0.2487 -0.2157  1.5528
 5457SOL     OW17811   1.935   2.506   9.556  0.2074 -0.2134 -0.4903
 5457SOL    HW117812   1.975   2.432   9.603  0.3066 -0.2230 -0.5898
 5457SOL    HW217813   1.975   2.583   9.595  0.4831 -0.2314 -0.7400
 5458SOL     OW17814   3.139   0.676   4.217  0.5322  0.0986  0.0893
 5458SOL    HW117815   3.208   0.742   4.215  0.5491  0.0923 -2.6161
 5458SOL    HW217816   3.173   0.604   4.164 -1.4283  0.0335 -1.1769
 5459SOL     OW17817   4.004   7.237   0.494 -0.1214  0.3352  0.0958
 5459SOL    HW117818   3.938   7.193   0.547 -1.0002  1.3877 -0.0768
 5459SOL    HW217819   3.956   7.266   0.416  0.1774  2.3871  0.6262
 5460SOL     OW17820   6.118   3.026   3.949 -0.3714  0.1262 -0.0780
 5460SOL    HW117821   6.072   3.105   3.979 -2.1253 -0.3090 -1.4251
 5460SOL    HW217822   6.139   2.978   4.029 -2.3805  0.3276  0.6216
 5461SOL     OW17823   2.803   1.478   2.128  0.1459 -0.3867  0.4297
 5461SOL    HW117824   2.846   1.563   2.125 -0.3281 -0.1765 -1.6617
 5461SOL    HW217825   2.710   1.499   2.142  0.2775 -0.6976  1.9724
 5462SOL     OW17826   2.240   6.404   3.890  0.2638 -0.1513  0.1452
 5462SOL    HW117827   2.246   6.489   3.847 -1.1104  0.1666  0.5387
 5462SOL    HW217828   2.331   6.378   3.905  0.6978  1.4395  0.4038
 5463SOL     OW17829   6.838   5.996  12.283 -0.0141 -0.3092 -0.2367
 5463SOL    HW117830   6.811   6.071  12.230 -0.8125  0.4848  1.2262
 5463SOL    HW217831   6.929   5.981  12.258  0.1923  1.2040 -0.5089
 5464SOL     OW17832   6.994   7.112   1.458  0.1237 -0.0080 -0.0331
 5464SOL    HW117833   6.957   7.188   1.504  0.5398  0.6702 -0.7929
 5464SOL    HW217834   7.017   7.146   1.371  1.2299 -0.7557 -0.0506
 5465SOL     OW17835   3.993   5.131   2.118  0.1193 -0.2022  0.4659
 5465SOL    HW117836   4.052   5.206   2.103  0.5629 -0.4658  0.8614
 5465SOL    HW217837   4.043   5.055   2.090 -0.3658 -0.3516 -0.0169
 5466SOL     OW17838   2.164   7.117   9.801 -0.7355  0.1022  0.1907
 5466SOL    HW117839   2.256   7.112   9.829 -0.4606  1.6025 -0.3511
 5466SOL    HW217840   2.153   7.041   9.744  0.7457  0.8690 -1.2155
 5467SOL     OW17841   4.607   4.917   5.528  0.1996  0.4308 -0.0459
 5467SOL    HW117842   4.585   4.927   5.621 -0.7379 -2.1347  0.0889
 5467SOL    HW217843   4.698   4.886   5.528  0.0777  0.0751  0.0316
 5468SOL     OW17844   6.591   2.442   0.045  0.0701 -0.3648 -0.0184
 5468SOL    HW117845   6.677   2.465   0.010 -0.1810  1.4691  0.4674
 5468SOL    HW217846   6.544   2.525   0.051 -2.1508 -1.4231 -1.2688
 5469SOL     OW17847   5.082   5.623   2.716  0.0126 -0.2746  0.0875
 5469SOL    HW117848   5.173   5.602   2.737 -0.6199 -0.4943  3.0775
 5469SOL    HW217849   5.078   5.718   2.719  0.0836 -0.2776  0.3327
 5470SOL     OW17850   6.090   1.597   9.244 -0.4999  0.1336 -0.0335
 5470SOL    HW117851   6.125   1.555   9.323 -1.7688  1.1566  1.0908
 5470SOL    HW217852   6.068   1.686   9.270 -1.9392  0.1811 -1.2687
 5471SOL     OW17853   1.841   4.518   5.262 -0.0380  0.0401  0.3242
 5471SOL    HW117854   1.754   4.558   5.260  0.5727  1.3832  0.0166
 5471SOL    HW217855   1.902   4.591   5.260  1.1178 -0.8618  1.0490
 5472SOL     OW17856   4.038   2.041   2.025  0.1391 -0.2509 -0.0609
 5472SOL    HW117857   3.974   2.112   2.020 -0.9508 -1.1779  0.2024
 5472SOL    HW217858   4.033   2.010   2.115  1.2467 -0.1092  0.0690
 5473SOL     OW17859   3.310   0.937   0.415  0.1378  0.5792 -0.1494
 5473SOL    HW117860   3.292   1.010   0.355 -0.3869  1.0078  0.5130
 5473SOL    HW217861   3.272   0.965   0.498 -0.5158 -0.6777 -0.0131
 5474SOL     OW17862   7.610   0.561   3.276  0.1602 -0.3532  0.1203
 5474SOL    HW117863   7.703   0.582   3.271  0.4756 -1.4021  1.2269
 5474SOL    HW217864   7.596   0.496   3.207  1.0173 -2.7009  2.0157
 5475SOL     OW17865   5.870   5.720   9.800 -0.1536 -0.3752 -0.0523
 5475SOL    HW117866   5.913   5.766   9.872 -0.9128 -1.9331  1.4560
 5475SOL    HW217867   5.940   5.702   9.738  0.2490  2.4020 -0.5501
 5476SOL     OW17868   6.692   0.236   6.369  0.0044 -0.1619  0.2586
 5476SOL    HW117869   6.670   0.260   6.460 -1.1191 -1.3445  0.3276
 5476SOL    HW217870   6.783   0.206   6.373 -0.4565 -1.5195  1.2802
 5477SOL     OW17871   6.964   5.330   9.351 -0.1287  0.2117 -0.3684
 5477SOL    HW117872   6.998   5.303   9.437 -0.0935  1.3703  0.0007
 5477SOL    HW217873   6.872   5.303   9.353 -0.3680  0.9933  0.4105
 5478SOL     OW17874   3.968   0.668   6.542  0.7423  0.1988 -0.5864
 5478SOL    HW117875   3.958   0.702   6.630 -2.5371  3.3499 -1.9681
 5478SOL    HW217876   3.953   0.743   6.484  1.6604 -1.9197 -3.8972
 5479SOL     OW17877   1.990   4.733   0.150  0.3746 -0.0410  0.1113
 5479SOL    HW117878   2.049   4.689   0.211 -0.9019 -2.8206 -0.4939
 5479SOL    HW217879   1.916   4.761   0.205  0.4701 -0.0958  0.2689
 5480SOL     OW17880   1.275   7.374   9.828 -0.2716  0.0039  0.0485
 5480SOL    HW117881   1.217   7.308   9.867  2.5251 -2.0853  1.0467
 5480SOL    HW217882   1.308   7.423   9.903 -1.0147  1.4601 -0.5485
 5481SOL     OW17883   2.552   3.364   7.544 -0.4674  0.5104 -0.0838
 5481SOL    HW117884   2.612   3.438   7.535  0.2459 -0.0012  0.4375
 5481SOL    HW217885   2.539   3.332   7.455  0.4632  0.2845 -0.1430
 5482SOL     OW17886   3.363   7.739   1.148 -0.3807 -0.6380 -0.2939
 5482SOL    HW117887   3.355   7.656   1.101 -1.0812 -0.2486 -0.8892
 5482SOL    HW217888   3.415   7.795   1.090 -2.0365  0.1546 -1.0802
 5483SOL     OW17889   4.315   3.434   2.993  0.0410  0.0364  0.9367
 5483SOL    HW117890   4.383   3.475   3.046  0.0428  1.8443 -0.3560
 5483SOL    HW217891   4.360   3.367   2.942  0.5721  0.2225  1.1616
 5484SOL     OW17892   1.554   5.274  11.322  0.1790  0.7005 -0.0898
 5484SOL    HW117893   1.549   5.366  11.348 -2.2863  0.3200  1.1003
 5484SOL    HW217894   1.466   5.254  11.289  0.3664 -1.4546  0.5619
 5485SOL     OW17895   0.272   5.107   0.768  0.5057  0.0837  0.0979
 5485SOL    HW117896   0.191   5.056   0.763  0.7282 -0.2189 -0.4911
 5485SOL    HW217897   0.278   5.151   0.684  0.8241  0.3100  0.2385
 5486SOL     OW17898   7.001   3.208   0.734  0.0908 -1.0732 -0.5574
 5486SOL    HW117899   7.095   3.197   0.721  0.0981 -0.9734 -0.5920
 5486SOL    HW217900   6.964   3.205   0.646  0.2161  0.2988 -0.6810
 5487SOL     OW17901   6.569   4.047   8.571  0.4606  0.0598 -0.1046
 5487SOL    HW117902   6.616   4.011   8.646  0.1675 -0.8665 -0.3452
 5487SOL    HW217903   6.503   3.980   8.550  1.0854 -0.0946 -1.6945
 5488SOL     OW17904   6.675   3.172   9.767  0.3209  0.3555  0.3793
 5488SOL    HW117905   6.663   3.249   9.823 -4.7973 -0.3536  0.7090
 5488SOL    HW217906   6.716   3.107   9.824  3.1835  2.1372  0.5712
 5489SOL     OW17907   6.971   7.114   8.439 -0.6050 -0.0298  0.1146
 5489SOL    HW117908   6.995   7.036   8.489 -1.6269 -0.1666  0.4135
 5489SOL    HW217909   6.946   7.178   8.506  0.2822  0.5802 -0.1265
 5490SOL     OW17910   4.948   0.844   0.236  0.4632 -0.1638  0.1271
 5490SOL    HW117911   4.990   0.835   0.151  2.9863 -1.0638  1.3503
 5490SOL    HW217912   5.009   0.897   0.288  0.0476 -1.3555  1.9518
 5491SOL     OW17913   0.956   2.088   0.370 -0.2625  0.2281 -0.1236
 5491SOL    HW117914   0.998   2.101   0.284 -1.2195  0.6317 -0.5447
 5491SOL    HW217915   0.969   2.171   0.416 -0.4352  0.2870 -0.1813
 5492SOL     OW17916   2.565   7.708   3.654 -0.1516 -0.3677  0.5642
 5492SOL    HW117917   2.601   7.655   3.583 -0.9918 -0.6506  0.3341
 5492SOL    HW217918   2.641   7.752   3.692  0.2443  0.3983 -1.0186
 5493SOL     OW17919   7.438   0.478   0.650  0.0122  0.0528  0.1205
 5493SOL    HW117920   7.508   0.486   0.715  0.6811 -1.3140 -0.4003
 5493SOL    HW217921   7.484   0.476   0.566 -0.8305  1.5624 -0.4165
 5494SOL     OW17922   3.943   2.220   9.030  0.6791  0.3440 -0.0558
 5494SOL    HW117923   3.853   2.244   9.053  0.5581 -0.7231  0.6227
 5494SOL    HW217924   3.944   2.221   8.934 -0.2461 -0.2845 -0.0900
 5495SOL     OW17925   3.807   4.665   1.164 -0.5982  0.3103  0.3046
 5495SOL    HW117926   3.812   4.760   1.174 -2.8365  0.7648 -1.9412
 5495SOL    HW217927   3.834   4.649   1.073 -1.3581 -1.0664  0.2988
 5496SOL     OW17928   7.130   3.915  10.913  0.1630 -1.1212 -0.3696
 5496SOL    HW117929   7.082   3.833  10.902 -0.4821 -0.8510  0.3681
 5496SOL    HW217930   7.204   3.908  10.852  0.5385 -2.5589  0.2090
 5497SOL     OW17931   5.498   4.533   3.114 -0.3896  0.2688  0.3735
 5497SOL    HW117932   5.490   4.626   3.092  2.1543  0.6496  0.8098
 5497SOL    HW217933   5.473   4.488   3.033 -1.1026  1.3211 -0.0196
 5498SOL     OW17934   0.129   7.060   8.853  0.2671  0.6791 -0.5629
 5498SOL    HW117935   0.159   6.990   8.795  0.5201  0.3015  0.0184
 5498SOL    HW217936   0.154   7.031   8.940  1.0471  1.8248 -0.3776
 5499SOL     OW17937   7.631   5.908   2.111 -0.2322  0.8341  0.2509
 5499SOL    HW117938   7.700   5.973   2.102  1.0552 -0.0578  2.5784
 5499SOL    HW217939   7.560   5.953   2.156 -0.3358  1.2426 -0.3235
 5500SOL     OW17940   5.752   2.665   5.350  0.1625  0.2816 -0.0509
 5500SOL    HW117941   5.712   2.752   5.346 -0.2298  0.1604  0.8891
 5500SOL    HW217942   5.679   2.604   5.349  0.2175  0.0736  2.1411
 5501SOL     OW17943   0.505   0.256   0.354  0.8413  0.2450  0.4198
 5501SOL    HW117944   0.445   0.193   0.314  0.4120  0.6496  0.4252
 5501SOL    HW217945   0.569   0.274   0.285  1.4143 -0.7673  0.6662
 5502SOL     OW17946   3.579   5.294   4.744  0.4655 -0.2782 -0.4161
 5502SOL    HW117947   3.502   5.239   4.729  0.1021  0.1440 -0.1246
 5502SOL    HW217948   3.564   5.372   4.692  0.4929 -0.0104 -0.0294
 5503SOL     OW17949   2.290   0.991   6.973 -0.0494 -0.2179  0.0748
 5503SOL    HW117950   2.201   0.966   6.999  0.0475 -0.7057 -0.0471
 5503SOL    HW217951   2.278   1.061   6.910 -0.2752  1.6702  2.0934
 5504SOL     OW17952   2.779   5.770   3.409  0.4156  0.5356 -0.1989
 5504SOL    HW117953   2.723   5.693   3.398  0.6528  0.5168 -1.4093
 5504SOL    HW217954   2.735   5.839   3.360  0.0146  1.3004  1.1909
 5505SOL     OW17955   1.967   6.261   5.706 -0.0412 -0.0606 -0.3271
 5505SOL    HW117956   1.941   6.312   5.783 -1.6468 -0.6486 -0.4579
 5505SOL    HW217957   1.948   6.319   5.632 -0.9529 -0.4551 -0.4165
 5506SOL     OW17958   2.570   2.213   2.713  0.3521  0.9090 -0.1061
 5506SOL    HW117959   2.603   2.300   2.693 -0.1670  1.3146  0.7492
 5506SOL    HW217960   2.551   2.174   2.628 -0.5130  2.0731 -0.4650
 5507SOL     OW17961   2.283   1.451   0.559 -0.3637  0.1009  0.0690
 5507SOL    HW117962   2.375   1.441   0.533  0.6011  2.1885  2.2797
 5507SOL    HW217963   2.242   1.368   0.535  2.1198 -0.9651 -0.8337
 5508SOL     OW17964   5.931   1.889   3.161 -0.0674  0.1434  0.2811
 5508SOL    HW117965   6.012   1.849   3.192 -0.7312 -0.9045  0.7406
 5508SOL    HW217966   5.894   1.824   3.100 -0.0955  1.0209 -0.6631
 5509SOL     OW17967   6.065   4.116   1.595  0.0892 -0.6848 -0.4053
 5509SOL    HW117968   6.064   4.090   1.687 -0.8751 -1.0334 -0.5038
 5509SOL    HW217969   6.121   4.051   1.552  0.0036 -0.9179 -0.1690
 5510SOL     OW17970   6.509   0.764  10.038  0.4316  0.5700 -0.0100
 5510SOL    HW117971   6.530   0.671  10.037  1.1853  0.7352 -0.0873
 5510SOL    HW217972   6.436   0.773   9.977 -1.2251 -0.3237  1.7152
 5511SOL     OW17973   1.132   6.500  10.757 -0.2882  0.0808 -0.1597
 5511SOL    HW117974   1.080   6.496  10.678  1.2462 -0.6840 -1.1826
 5511SOL    HW217975   1.151   6.409  10.778  0.6210  0.3390  0.1944
 5512SOL     OW17976   1.906   6.789   5.768  0.1766 -0.0331  0.0304
 5512SOL    HW117977   1.961   6.823   5.838 -0.2273  1.3721 -0.3076
 5512SOL    HW217978   1.816   6.801   5.799 -0.0375  1.3923 -1.0305
 5513SOL     OW17979   1.287   2.888  10.278  0.1004 -0.1240  0.0024
 5513SOL    HW117980   1.368   2.922  10.240  0.5744 -0.3814  0.7637
 5513SOL    HW217981   1.291   2.913  10.370 -1.7567  1.8238 -0.3869
 5514SOL     OW17982   2.172   5.978   9.478 -0.2827  0.0108  0.1768
 5514SOL    HW117983   2.171   5.991   9.383  0.0940 -0.4303  0.1096
 5514SOL    HW217984   2.163   5.884   9.489  1.1823 -0.1172  0.5226
 5515SOL     OW17985   4.561   0.418   6.286 -0.2276 -0.1456 -0.2051
 5515SOL    HW117986   4.597   0.472   6.215  0.0998  1.2923  0.9973
 5515SOL    HW217987   4.569   0.473   6.364 -2.2657 -0.9672  0.6444
 5516SOL     OW17988   6.220   3.587   0.723 -0.6863  0.0246 -0.7858
 5516SOL    HW117989   6.130   3.619   0.735 -1.4560 -1.3435 -2.4184
 5516SOL    HW217990   6.245   3.620   0.637 -0.9126 -2.2461 -1.8098
 5517SOL     OW17991   7.230   5.390   9.263 -0.7234  0.1331  0.1990
 5517SOL    HW117992   7.166   5.375   9.333 -0.9148 -2.7446 -0.4447
 5517SOL    HW217993   7.179   5.386   9.182 -0.1024  0.4206 -0.2151
 5518SOL     OW17994   4.971   7.828  10.483  0.0392  0.2319  0.1429
 5518SOL    HW117995   4.905   7.760  10.465  0.1809 -0.2194  1.2732
 5518SOL    HW217996   5.053   7.791  10.449  0.3203 -0.6514  1.7097
 5519SOL     OW17997   4.289   7.359   5.150  0.3662 -0.1641  0.0263
 5519SOL    HW117998   4.347   7.376   5.075 -0.4366  0.8932 -0.3866
 5519SOL    HW217999   4.249   7.444   5.168 -0.1309 -0.6110  1.0925
 5520SOL     OW18000   6.450   6.970   7.353 -0.7821  0.1941 -0.9508
 5520SOL    HW118001   6.507   6.899   7.323 -0.6445  0.4585 -1.3160
 5520SOL    HW218002   6.375   6.926   7.393  0.7655 -0.2338  1.7661
 5521SOL     OW18003   3.754   2.940   4.110  0.5778  1.1059 -0.4120
 5521SOL    HW118004   3.711   2.871   4.060  1.4192  1.4476 -1.6576
 5521SOL    HW218005   3.841   2.904   4.130  0.7000  1.4583 -0.2993
 5522SOL     OW18006   4.701   7.210   6.677 -0.2142 -0.4212 -0.7165
 5522SOL    HW118007   4.794   7.210   6.700 -0.1588 -2.2816 -0.8485
 5522SOL    HW218008   4.696   7.255   6.593  0.9443 -2.4961 -1.9687
 5523SOL     OW18009   2.357   4.316  12.016 -0.5989 -0.0630  0.2194
 5523SOL    HW118010   2.364   4.239  12.072  0.4968 -0.2266 -0.1279
 5523SOL    HW218011   2.426   4.375  12.046 -0.9983  0.5111  0.0441
 5524SOL     OW18012   6.138   5.946   9.002  0.3634 -0.6306  0.7345
 5524SOL    HW118013   6.201   5.958   8.931 -1.0129  0.6636 -0.3459
 5524SOL    HW218014   6.068   5.894   8.963 -1.2179  1.5187  0.5433
 5525SOL     OW18015   2.071   7.350   2.284 -0.6165  0.0775 -0.2032
 5525SOL    HW118016   2.031   7.305   2.210 -2.3616  0.6558  0.3362
 5525SOL    HW218017   2.064   7.287   2.356  0.4025 -0.2004 -0.3317
 5526SOL     OW18018   7.780   7.801   1.535 -0.3495  0.5007 -0.0279
 5526SOL    HW118019   7.800   7.861   1.463 -4.0360  1.7696 -0.1605
 5526SOL    HW218020   7.791   7.853   1.614 -0.8956  0.5303  0.0298
 5527SOL     OW18021   7.221   6.727   0.601 -0.0082  0.2118  0.1844
 5527SOL    HW118022   7.316   6.723   0.592 -0.0783 -2.0269 -0.2319
 5527SOL    HW218023   7.190   6.641   0.571 -2.0978  0.5761  1.0794
 5528SOL     OW18024   2.813   4.415  11.161 -0.1416  0.5300 -0.7282
 5528SOL    HW118025   2.815   4.425  11.066 -2.3337  1.2187 -0.7536
 5528SOL    HW218026   2.823   4.504  11.195 -2.2406  0.7204 -0.4553
 5529SOL     OW18027   4.284   5.866   2.042 -0.2981 -0.3723  0.4986
 5529SOL    HW118028   4.304   5.825   1.957  0.0406 -1.3870  1.0573
 5529SOL    HW218029   4.192   5.848   2.057 -0.4435  0.0980  0.1993
 5530SOL     OW18030   3.441   0.912   1.459  0.1785 -0.1674 -0.1631
 5530SOL    HW118031   3.400   0.992   1.426  1.8057  0.5420 -0.5606
 5530SOL    HW218032   3.431   0.849   1.388 -0.5121 -0.1200 -0.1151
 5531SOL     OW18033   2.239   1.295  11.374 -0.1178 -0.4757  0.0035
 5531SOL    HW118034   2.295   1.313  11.449 -0.4511  0.3394  0.0606
 5531SOL    HW218035   2.153   1.274  11.412  0.1250 -1.7297 -0.0820
 5532SOL     OW18036   1.964   6.272  11.198 -0.4272 -0.2314  0.1765
 5532SOL    HW118037   1.894   6.255  11.260 -0.1260  1.0581  0.9175
 5532SOL    HW218038   2.031   6.318  11.249  0.8288 -1.1520 -0.5782
 5533SOL     OW18039   5.095   5.205  12.205 -0.4917  0.3909  0.3685
 5533SOL    HW118040   5.073   5.268  12.136  1.2047 -0.0365 -0.6140
 5533SOL    HW218041   5.021   5.209  12.265 -1.3144  1.9013 -0.6762
 5534SOL     OW18042   4.249   2.018   2.263  0.3579  0.1217 -0.0437
 5534SOL    HW118043   4.331   1.983   2.297  0.2021  0.2598  0.4820
 5534SOL    HW218044   4.258   2.014   2.167  0.2192 -1.6128 -0.0011
 5535SOL     OW18045   5.878   7.388   6.703 -0.3174 -0.2298 -0.3238
 5535SOL    HW118046   5.876   7.300   6.665  0.3487 -0.4178  0.0616
 5535SOL    HW218047   5.835   7.379   6.788 -1.9325  0.2205 -1.0506
 5536SOL     OW18048   7.373   1.642   2.193 -0.4301 -0.2531  0.0246
 5536SOL    HW118049   7.442   1.579   2.215  0.4218  0.3648 -0.7829
 5536SOL    HW218050   7.410   1.727   2.217  0.5973  0.4881 -3.6159
 5537SOL     OW18051   6.020   4.317   2.482 -0.4352 -0.0597  0.2096
 5537SOL    HW118052   5.977   4.240   2.446 -2.3671  1.5372 -1.1059
 5537SOL    HW218053   6.040   4.371   2.406  1.1640  0.6167  1.0746
 5538SOL     OW18054   7.871   6.504   8.075 -0.1890  0.1806  0.7593
 5538SOL    HW118055   7.960   6.471   8.084  0.3200  0.7764 -1.4785
 5538SOL    HW218056   7.821   6.456   8.141  1.7870 -0.0496  2.1815
 5539SOL     OW18057   4.499   6.343   9.952  0.0579  0.2871  0.3949
 5539SOL    HW118058   4.447   6.382   9.881 -1.0818 -0.6719  0.6677
 5539SOL    HW218059   4.536   6.263   9.914  0.8414  0.6365  0.3955
 5540SOL     OW18060   5.206   3.332   7.141  0.1217 -0.1890  0.0513
 5540SOL    HW118061   5.195   3.303   7.051 -0.6914 -0.1655  0.1385
 5540SOL    HW218062   5.296   3.367   7.144 -0.3298  1.1548 -1.1352
 5541SOL     OW18063   0.791   6.208  12.000  0.1114 -0.2910 -0.0881
 5541SOL    HW118064   0.817   6.279  11.940  0.7428 -0.1300  0.3593
 5541SOL    HW218065   0.874   6.172  12.030 -0.1227  0.8033  2.0615
 5542SOL     OW18066   3.661   7.166   5.043  0.2924 -0.6959  0.0114
 5542SOL    HW118067   3.634   7.230   5.108  0.6085  0.7814 -1.2514
 5542SOL    HW218068   3.597   7.095   5.051  0.0736 -0.3508  1.5941
 5543SOL     OW18069   2.625   2.892   3.596  0.4320 -0.2107  0.0566
 5543SOL    HW118070   2.570   2.944   3.655  0.9632 -0.6103  0.9214
 5543SOL    HW218071   2.568   2.821   3.567 -0.0430  0.3777 -0.4647
 5544SOL     OW18072   0.538   7.448   9.366 -0.4068  0.2629 -0.3732
 5544SOL    HW118073   0.626   7.429   9.335  0.3411 -1.1625  2.3239
 5544SOL    HW218074   0.530   7.544   9.360  1.6101  0.4846  0.0407
 5545SOL     OW18075   7.309   6.038  10.356  0.0251 -0.7422  0.5113
 5545SOL    HW118076   7.287   5.954  10.396  0.7647 -0.3263  1.8639
 5545SOL    HW218077   7.362   6.015  10.279  1.3408 -1.4951  1.6064
 5546SOL     OW18078   7.346   6.350   5.659 -0.0372 -0.5152 -0.4524
 5546SOL    HW118079   7.317   6.380   5.746  0.4622  2.5822 -1.2244
 5546SOL    HW218080   7.277   6.380   5.599  1.3606  0.7273 -1.5029
 5547SOL     OW18081   4.369   0.479   2.050 -0.2556 -0.0829 -0.3000
 5547SOL    HW118082   4.281   0.446   2.032  0.1071 -0.1586 -2.0593
 5547SOL    HW218083   4.359   0.574   2.052 -0.3862 -0.0947 -0.4095
 5548SOL     OW18084   0.670   3.581   6.958  0.1481 -0.2300 -0.3992
 5548SOL    HW118085   0.667   3.676   6.955  2.4336 -0.1323 -2.2738
 5548SOL    HW218086   0.754   3.558   6.919 -1.1768 -3.1154 -1.8578
 5549SOL     OW18087   7.134   2.032   5.851 -0.0585  0.0855 -0.3066
 5549SOL    HW118088   7.219   2.074   5.838 -0.5977  1.8997  1.4489
 5549SOL    HW218089   7.155   1.944   5.881  1.2388  0.6246  0.4601
 5550SOL     OW18090   0.019   4.663   3.088  0.2937 -0.4321  0.1257
 5550SOL    HW118091   0.048   4.690   3.175 -1.2433  0.4589  0.3977
 5550SOL    HW218092   0.059   4.577   3.075 -0.7828 -1.3633  2.4383
 5551SOL     OW18093   1.316   7.145   6.161  0.7320 -0.1208 -0.4106
 5551SOL    HW118094   1.383   7.184   6.217  1.9740 -0.1219 -1.8525
 5551SOL    HW218095   1.247   7.211   6.157  0.4960 -0.2065  1.2506
 5552SOL     OW18096   2.725   4.327   4.443  0.1576 -0.5372 -0.7322
 5552SOL    HW118097   2.676   4.274   4.506 -0.8174 -1.5409 -2.2807
 5552SOL    HW218098   2.669   4.331   4.366  0.4921  2.2418 -0.9109
 5553SOL     OW18099   1.070   7.456   0.860  0.0696 -0.0328 -0.1677
 5553SOL    HW118100   0.998   7.456   0.924  0.9977 -0.2945  0.9050
 5553SOL    HW218101   1.105   7.367   0.863  1.4739  0.5167  0.5388
 5554SOL     OW18102   3.338   5.017   1.478  0.0193  0.0963 -0.4662
 5554SOL    HW118103   3.258   5.001   1.529  1.3431  1.1756  2.1546
 5554SOL    HW218104   3.362   5.107   1.500  2.1036 -0.2937 -0.9791
 5555SOL     OW18105   2.787   0.497   9.926  0.1196  0.1835 -0.8660
 5555SOL    HW118106   2.710   0.442   9.913  0.3338 -0.1283 -0.8212
 5555SOL    HW218107   2.781   0.527  10.017  1.3324 -1.8417 -0.0645
 5556SOL     OW18108   6.457   5.239   1.302 -0.0848  0.5762 -0.0116
 5556SOL    HW118109   6.434   5.212   1.213  0.4980 -0.9324  0.2781
 5556SOL    HW218110   6.478   5.332   1.294 -0.4719  0.5652 -1.3651
 5557SOL     OW18111   6.577   3.860   6.777  0.1883  0.3753  0.3962
 5557SOL    HW118112   6.507   3.924   6.787  0.8591  0.9517  1.6018
 5557SOL    HW218113   6.568   3.802   6.853  1.5981  1.0541  1.1210
 5558SOL     OW18114   6.047   5.019   8.328 -0.0939  0.0596  0.3494
 5558SOL    HW118115   5.963   4.974   8.318  0.0800 -0.2533  0.2900
 5558SOL    HW218116   6.048   5.047   8.420 -0.1433 -0.1735  0.4216
 5559SOL     OW18117   0.454   1.812  11.858 -0.2258 -0.0498 -0.2895
 5559SOL    HW118118   0.422   1.722  11.853  0.2951 -0.2391 -0.3656
 5559SOL    HW218119   0.521   1.810  11.926  0.3201  0.1015 -0.8030
 5560SOL     OW18120   4.578   6.703   5.695  0.4453  0.7702  0.1882
 5560SOL    HW118121   4.521   6.756   5.751 -2.0318  0.1661 -1.5810
 5560SOL    HW218122   4.581   6.751   5.612  0.7981 -0.2472 -0.4098
 5561SOL     OW18123   4.900   1.329   5.091 -0.0164  0.5555 -0.4246
 5561SOL    HW118124   4.925   1.420   5.106  0.8236  0.3468 -0.4770
 5561SOL    HW218125   4.829   1.334   5.027  0.3666  1.1577 -0.8210
 5562SOL     OW18126   2.064   6.169   9.755 -0.2815  0.2432 -0.2371
 5562SOL    HW118127   2.123   6.107   9.711  0.3931  2.3627 -2.5395
 5562SOL    HW218128   2.095   6.172   9.845  3.1143  1.1134 -1.2853
 5563SOL     OW18129   2.834   2.959   6.915 -0.0048 -0.1433  0.1450
 5563SOL    HW118130   2.848   2.992   6.826  0.5639 -0.2478  0.1936
 5563SOL    HW218131   2.842   3.037   6.970  0.6692 -0.2405  0.1962
 5564SOL     OW18132   1.790   7.048   0.565  0.3214  0.3850  0.1707
 5564SOL    HW118133   1.736   7.123   0.540  0.2638  0.5957  0.8899
 5564SOL    HW218134   1.805   7.060   0.659  2.3707  0.8030 -0.1651
 5565SOL     OW18135   7.922   7.099   0.320 -0.1678  0.1873  0.3647
 5565SOL    HW118136   7.891   7.157   0.250  0.2794  1.9038  1.5213
 5565SOL    HW218137   7.850   7.097   0.383  0.1087  0.0600  0.6794
 5566SOL     OW18138   7.124   3.109   3.322  0.0529 -0.5907 -0.0017
 5566SOL    HW118139   7.181   3.180   3.292 -1.3479 -0.5910 -3.0164
 5566SOL    HW218140   7.036   3.138   3.300 -0.7737 -2.2860  0.8937
 5567SOL     OW18141   3.197   3.564   3.053  0.1614  0.0117 -0.2802
 5567SOL    HW118142   3.129   3.550   2.987 -0.4589 -0.0507  0.3501
 5567SOL    HW218143   3.277   3.576   3.003  0.3321 -3.1868 -0.9961
 5568SOL     OW18144   5.542   5.284   1.316  0.8592  0.0414  0.0876
 5568SOL    HW118145   5.586   5.368   1.325  1.8368 -0.6282  2.1093
 5568SOL    HW218146   5.599   5.233   1.259  0.9763  0.2582  0.0082
 5569SOL     OW18147   2.732   7.523   2.051 -0.1728 -0.0701 -0.1990
 5569SOL    HW118148   2.765   7.445   2.096  1.9830  0.3145 -0.9933
 5569SOL    HW218149   2.789   7.533   1.974 -1.7836  1.0567 -1.3297
 5570SOL     OW18150   4.543   5.191   1.497  0.6769  0.3964 -0.2704
 5570SOL    HW118151   4.568   5.220   1.409  0.2846 -1.4468 -1.0406
 5570SOL    HW218152   4.503   5.268   1.537  0.1856  1.0925 -1.9835
 5571SOL     OW18153   7.790   2.951   8.697  0.1920 -0.2607 -0.0674
 5571SOL    HW118154   7.844   3.030   8.702  0.1350 -0.2866  1.4198
 5571SOL    HW218155   7.850   2.883   8.667  0.6793 -0.0254  0.3631
 5572SOL     OW18156   0.384   4.937  11.144 -0.5516 -0.7548  0.5154
 5572SOL    HW118157   0.385   4.898  11.231  0.2118 -1.5464  0.1660
 5572SOL    HW218158   0.311   4.895  11.099  0.1743 -1.6936  0.1901
 5573SOL     OW18159   5.694   0.235   4.313  0.0981 -0.3396  0.4793
 5573SOL    HW118160   5.752   0.243   4.237  1.5403 -2.2696  1.2942
 5573SOL    HW218161   5.753   0.239   4.389 -0.9998 -0.9014  1.3907
 5574SOL     OW18162   2.266   1.697   9.291 -0.1919  0.4104 -0.6612
 5574SOL    HW118163   2.345   1.667   9.336 -0.4790  0.8104  0.1422
 5574SOL    HW218164   2.270   1.655   9.205  1.6888  1.6401 -1.2451
 5575SOL     OW18165   5.761   7.238   8.393 -0.0933  0.0463  0.0055
 5575SOL    HW118166   5.740   7.286   8.313 -1.9437 -1.0010 -0.1883
 5575SOL    HW218167   5.684   7.184   8.410  0.4976 -0.2133  2.1728
 5576SOL     OW18168   5.512   0.987   9.694 -0.1012 -0.1254 -0.3117
 5576SOL    HW118169   5.525   1.037   9.613  1.3547  0.3736  0.1965
 5576SOL    HW218170   5.551   0.901   9.675 -1.1167 -0.5202 -0.6337
 5577SOL     OW18171   5.933   3.073  10.288  0.1457  0.0995 -0.9580
 5577SOL    HW118172   5.886   2.999  10.248  0.1612 -0.1280 -0.5591
 5577SOL    HW218173   5.993   3.032  10.350  0.6013  0.4135 -1.1882
 5578SOL     OW18174   6.014   0.899   7.810  0.4059 -0.0552  0.8137
 5578SOL    HW118175   5.964   0.972   7.773 -0.3917 -0.1463  1.6679
 5578SOL    HW218176   6.014   0.833   7.741  1.4857  0.8802 -0.1257
 5579SOL     OW18177   5.256   1.274  10.792 -0.5907  0.0076 -0.0508
 5579SOL    HW118178   5.336   1.317  10.823 -0.9717  0.2800  0.5647
 5579SOL    HW218179   5.282   1.183  10.776  0.1557  0.3874 -1.1126
 5580SOL     OW18180   0.287   2.996  11.100  0.5276  0.4288  0.5430
 5580SOL    HW118181   0.310   2.944  11.177 -1.6715 -0.3941  0.7346
 5580SOL    HW218182   0.355   2.976  11.036  0.7200 -1.3148  1.2322
 5581SOL     OW18183   0.638   3.242   0.657  0.1957  0.1089 -0.1915
 5581SOL    HW118184   0.683   3.319   0.690  0.0908 -0.1628  0.6264
 5581SOL    HW218185   0.573   3.222   0.725  0.8059 -1.2059  0.0315
 5582SOL     OW18186   1.223   3.998   6.447 -0.0378 -0.1582  0.1644
 5582SOL    HW118187   1.301   4.052   6.461 -0.6759  0.8807 -0.2136
 5582SOL    HW218188   1.151   4.060   6.440 -1.3376 -1.1558  2.9916
 5583SOL     OW18189   6.867   7.926   7.366  0.5281 -0.8271 -0.0406
 5583SOL    HW118190   6.772   7.933   7.359  0.5802 -0.4922 -0.4701
 5583SOL    HW218191   6.887   7.836   7.337  0.4191 -0.6002 -0.8461
 5584SOL     OW18192   7.791   2.349   7.135  0.1163  0.3643  0.1541
 5584SOL    HW118193   7.696   2.343   7.142  0.0101 -0.0062 -1.3399
 5584SOL    HW218194   7.816   2.416   7.199 -0.9879 -0.4577  1.5103
 5585SOL     OW18195   7.779   2.071  10.477 -0.1196  0.6578  0.0039
 5585SOL    HW118196   7.780   2.165  10.493 -0.7796  0.7295 -0.3429
 5585SOL    HW218197   7.774   2.063  10.382  3.6611  0.2511 -0.3212
 5586SOL     OW18198   4.328   7.717   1.970  0.0745 -0.2043 -0.1957
 5586SOL    HW118199   4.406   7.725   1.916 -1.3023 -1.6379 -2.5401
 5586SOL    HW218200   4.312   7.806   2.002  1.1537  0.6488 -1.8774
 5587SOL     OW18201   1.783   7.097   7.330  0.0106  0.7582 -0.5664
 5587SOL    HW118202   1.766   7.007   7.303 -0.0438  0.7058 -0.3556
 5587SOL    HW218203   1.713   7.148   7.288 -0.8749  0.5050  0.5518
 5588SOL     OW18204   2.694   5.032   0.989 -0.1573  0.0543 -0.1149
 5588SOL    HW118205   2.673   5.020   0.897  0.3678  0.4923 -0.2952
 5588SOL    HW218206   2.648   5.113   1.014 -2.6096 -1.4967  0.7542
 5589SOL     OW18207   5.080   2.904   8.719  0.8679 -0.5016 -0.3574
 5589SOL    HW118208   5.043   2.934   8.802  3.6127 -0.1484  0.8549
 5589SOL    HW218209   5.077   2.981   8.663  0.9217 -0.1154  0.1560
 5590SOL     OW18210   5.973   7.791   7.216  0.1238 -0.3189  0.0993
 5590SOL    HW118211   5.997   7.828   7.301 -0.1890 -0.4146  0.2315
 5590SOL    HW218212   5.944   7.866   7.164  2.3060  0.0637 -0.6466
 5591SOL     OW18213   1.981   2.386  10.859 -0.2027  0.2084 -0.0217
 5591SOL    HW118214   1.930   2.316  10.901 -1.4288  1.6220  0.9451
 5591SOL    HW218215   1.939   2.399  10.774  1.0257 -1.2712 -0.9087
 5592SOL     OW18216   2.029   1.132  11.992  0.1441 -0.0359 -0.2026
 5592SOL    HW118217   2.122   1.148  11.976 -0.0586  0.4675 -0.9251
 5592SOL    HW218218   2.023   1.038  12.009  0.6495 -0.2574 -1.1760
 5593SOL     OW18219   0.655   5.577   2.228  0.5306  0.1025 -1.0221
 5593SOL    HW118220   0.646   5.524   2.149 -1.2211 -2.0873  0.5061
 5593SOL    HW218221   0.670   5.514   2.298 -1.0496  1.6346  0.8271
 5594SOL     OW18222   1.048   5.917   8.269  0.5871  0.8541  0.0035
 5594SOL    HW118223   0.965   5.943   8.229  1.1392  0.5394 -1.3930
 5594SOL    HW218224   1.037   5.937   8.363 -0.4533  2.3820 -0.4056
 5595SOL     OW18225   5.957   1.302   6.998 -0.0614 -0.0478 -0.0278
 5595SOL    HW118226   5.926   1.284   6.910 -0.3703  0.2239  0.0221
 5595SOL    HW218227   5.896   1.255   7.055 -0.5292  0.6707  0.0788
 5596SOL     OW18228   5.600   1.428  10.118 -0.3948  0.6498 -0.0795
 5596SOL    HW118229   5.628   1.338  10.101  0.3402  1.0606 -1.1556
 5596SOL    HW218230   5.675   1.468  10.162 -0.3937  0.9527 -0.3496
 5597SOL     OW18231   3.259   3.591   4.326 -0.1523 -0.2337 -0.0682
 5597SOL    HW118232   3.194   3.522   4.336  2.7502 -3.0834  0.6579
 5597SOL    HW218233   3.253   3.642   4.406 -0.1396 -1.7426  0.9209
 5598SOL     OW18234   1.783   5.728   3.565 -0.4464  0.2419  0.0286
 5598SOL    HW118235   1.697   5.689   3.558  0.3836 -1.6019 -0.4099
 5598SOL    HW218236   1.811   5.709   3.654  0.0294 -0.3660 -0.2392
 5599SOL     OW18237   5.992   6.161   3.499 -0.2747  0.2828 -0.4638
 5599SOL    HW118238   6.022   6.170   3.589 -1.4218 -1.7886  0.1987
 5599SOL    HW218239   6.071   6.139   3.450  0.0186 -0.9551  0.4996
 5600SOL     OW18240   1.696   5.710   0.486 -0.0730  0.0349 -0.3382
 5600SOL    HW118241   1.677   5.750   0.571  1.8016  1.1850 -0.3901
 5600SOL    HW218242   1.660   5.772   0.423 -1.2610 -0.7064 -0.4231
 5601SOL     OW18243   0.087   4.512  10.418  0.0046  0.0631  0.7358
 5601SOL    HW118244   0.153   4.521  10.487  0.9265 -0.0567 -0.1114
 5601SOL    HW218245   0.091   4.420  10.392 -0.4897  0.0570  0.6586
 5602SOL     OW18246   0.091   5.730   2.193  0.2817  0.5137 -0.4305
 5602SOL    HW118247   0.045   5.785   2.256  0.3109 -0.5235  0.5082
 5602SOL    HW218248   0.184   5.744   2.212  0.4529  2.6362 -2.3481
 5603SOL     OW18249   6.413   5.195  11.249 -0.4535 -0.2834 -0.5225
 5603SOL    HW118250   6.326   5.231  11.233  0.4518  1.6861 -1.2381
 5603SOL    HW218251   6.465   5.269  11.280  0.6239 -1.7286  1.3447
 5604SOL     OW18252   2.394   6.956   4.494 -0.8500 -0.3990 -0.1471
 5604SOL    HW118253   2.451   6.917   4.428  0.6439 -0.9792  1.4179
 5604SOL    HW218254   2.441   7.034   4.523 -2.0255  0.4745 -0.5368
 5605SOL     OW18255   1.422   5.692  11.818 -0.5347  0.5182 -0.5247
 5605SOL    HW118256   1.494   5.698  11.754 -0.8222  0.8526 -0.8265
 5605SOL    HW218257   1.373   5.773  11.805  1.0119  2.0274  2.0952
 5606SOL     OW18258   1.661   7.326   0.563 -0.4142  0.4334  0.1311
 5606SOL    HW118259   1.725   7.388   0.530 -1.0513  0.6881 -0.6370
 5606SOL    HW218260   1.579   7.376   0.570 -0.8762 -0.2449 -0.2749
 5607SOL     OW18261   7.868   7.667   6.412  0.4936 -0.0366 -0.4981
 5607SOL    HW118262   7.910   7.753   6.406 -1.6986  1.3725  2.1799
 5607SOL    HW218263   7.906   7.627   6.490 -1.6692  0.4943  0.8927
 5608SOL     OW18264   3.718   7.761   7.556 -0.4759 -0.2986  0.1232
 5608SOL    HW118265   3.802   7.789   7.591 -0.5456  0.2251 -0.1245
 5608SOL    HW218266   3.722   7.665   7.557  0.2041 -0.2725 -0.0883
 5609SOL     OW18267   4.277   0.546   5.467 -0.0541  0.0448 -0.5864
 5609SOL    HW118268   4.250   0.560   5.376 -2.5619 -2.3294 -0.3220
 5609SOL    HW218269   4.223   0.607   5.517  1.0099  1.0360 -0.6085
 5610SOL     OW18270   0.993   5.671   5.612  0.2439 -0.4099  0.3774
 5610SOL    HW118271   0.926   5.604   5.600  0.5274 -0.5294 -0.6261
 5610SOL    HW218272   1.032   5.652   5.697  0.4690 -1.6535  0.0145
 5611SOL     OW18273   0.819   5.379  11.964 -0.5710  0.0312  0.4559
 5611SOL    HW118274   0.821   5.300  11.911 -1.1867 -0.4504  1.1316
 5611SOL    HW218275   0.743   5.368  12.021 -0.8621  1.2559  0.3385
 5612SOL     OW18276   6.222   7.761   8.129  0.0207  0.3415  0.4141
 5612SOL    HW118277   6.236   7.812   8.049  1.2666 -1.5836 -0.6756
 5612SOL    HW218278   6.127   7.764   8.142 -0.2088  0.8029 -1.1060
 5613SOL     OW18279   1.697   4.782   7.083  0.5811 -0.1263 -0.5277
 5613SOL    HW118280   1.661   4.854   7.031 -0.8592 -0.1929  0.3163
 5613SOL    HW218281   1.750   4.825   7.149 -0.0521  0.1589 -0.1939
 5614SOL     OW18282   1.728   2.159   4.508 -0.0602 -0.0593  0.1292
 5614SOL    HW118283   1.698   2.148   4.598 -2.8027 -0.5120 -0.7435
 5614SOL    HW218284   1.784   2.084   4.492 -0.2429 -0.4413  1.1957
 5615SOL     OW18285   7.397   2.392   0.560  0.0674 -0.0541  0.2493
 5615SOL    HW118286   7.338   2.336   0.509  0.8020  0.5259 -1.2988
 5615SOL    HW218287   7.353   2.478   0.560 -0.5924 -0.3509  1.8093
 5616SOL     OW18288   1.721   4.517  10.332  0.4045  0.3103  0.1661
 5616SOL    HW118289   1.791   4.560  10.381  1.6465 -0.9478 -0.4044
 5616SOL    HW218290   1.743   4.534  10.240 -0.6643  0.8017 -0.0149
 5617SOL     OW18291   2.030   7.583  11.496  0.0490 -0.4918 -0.5645
 5617SOL    HW118292   2.093   7.546  11.557 -0.4597  0.0014  0.2775
 5617SOL    HW218293   1.980   7.508  11.464  0.2529 -0.7380 -0.3040
 5618SOL     OW18294   4.867   5.277  11.752 -0.4861 -0.2711 -0.3752
 5618SOL    HW118295   4.963   5.277  11.760 -0.5545 -2.5554  2.1149
 5618SOL    HW218296   4.850   5.216  11.680 -0.0702  0.2341 -0.9064
 5619SOL     OW18297   0.086   6.730   6.707  0.3655  0.1483 -0.3955
 5619SOL    HW118298   0.129   6.744   6.791 -1.9967 -0.6323  1.0349
 5619SOL    HW218299   0.094   6.814   6.662  2.8762  0.1814 -0.0343
 5620SOL     OW18300   6.354   1.720   4.368  0.7650  0.1738  0.3732
 5620SOL    HW118301   6.322   1.808   4.388 -0.7170 -0.6815  2.0726
 5620SOL    HW218302   6.419   1.702   4.436 -1.2219 -1.1561  2.0558
 5621SOL     OW18303   7.845   1.746   7.648 -0.1114  0.3069  0.1391
 5621SOL    HW118304   7.909   1.707   7.588 -1.8063 -2.8406  0.1530
 5621SOL    HW218305   7.898   1.790   7.714  1.9794 -0.6003 -0.8302
 5622SOL     OW18306   1.136   0.384   6.219 -0.4984  0.1107 -0.7180
 5622SOL    HW118307   1.164   0.476   6.214 -0.4607  0.0632 -1.4724
 5622SOL    HW218308   1.041   0.389   6.232 -0.1913  0.2769  2.1778
 5623SOL     OW18309   7.628   3.072   3.009 -0.3650  0.4251 -1.4221
 5623SOL    HW118310   7.548   3.051   3.057  0.5142 -2.7053 -1.1058
 5623SOL    HW218311   7.673   3.136   3.065 -1.3033  0.0380 -0.1763
 5624SOL     OW18312   2.173   3.545   4.771 -0.1971 -0.7988 -0.1958
 5624SOL    HW118313   2.164   3.640   4.772  2.1581 -0.5115  1.5785
 5624SOL    HW218314   2.118   3.515   4.844  1.8057 -0.3892  1.5664
 5625SOL     OW18315   0.298   6.421   4.897 -0.0379  0.2350 -0.0154
 5625SOL    HW118316   0.291   6.334   4.858 -1.0956  0.0402  0.5688
 5625SOL    HW218317   0.297   6.481   4.823 -2.4314 -0.1047 -0.3571
 5626SOL     OW18318   4.681   1.961   5.369 -0.2441 -0.1248 -0.2697
 5626SOL    HW118319   4.610   1.973   5.306 -1.2243  2.0163  1.1365
 5626SOL    HW218320   4.759   1.990   5.323 -0.8798  1.0152 -0.6794
 5627SOL     OW18321   3.937   5.365   7.187  0.2278 -0.9292  0.4228
 5627SOL    HW118322   4.005   5.425   7.158 -1.7404  0.0125 -2.7422
 5627SOL    HW218323   3.882   5.417   7.246  0.9025 -0.9662  1.0884
 5628SOL     OW18324   4.163   0.434  10.270  0.0707  0.3283 -0.3547
 5628SOL    HW118325   4.258   0.438  10.258  0.4173  1.9120  2.1346
 5628SOL    HW218326   4.127   0.477  10.193  1.2504 -1.1734 -1.8341
 5629SOL     OW18327   3.460   7.144  11.212 -0.5595  0.2515 -0.6296
 5629SOL    HW118328   3.477   7.069  11.156 -4.1527 -1.0783 -0.2412
 5629SOL    HW218329   3.395   7.196  11.164 -1.6143  0.5684  1.0198
 5630SOL     OW18330   1.870   7.781   2.079 -0.8515 -0.7297  0.1809
 5630SOL    HW118331   1.785   7.756   2.042 -0.5395 -2.3055  0.4796
 5630SOL    HW218332   1.873   7.738   2.164 -0.0081 -0.1594  0.4556
 5631SOL     OW18333   7.073   7.749   7.040 -0.2705 -0.2506  0.2059
 5631SOL    HW118334   7.129   7.696   6.984 -0.6374  0.4143 -0.8282
 5631SOL    HW218335   7.133   7.806   7.087  0.0703 -1.0786  0.7820
 5632SOL     OW18336   5.557   7.010  10.804 -0.0664  0.3230 -0.3901
 5632SOL    HW118337   5.564   6.949  10.877 -1.3055  1.9542  1.1760
 5632SOL    HW218338   5.641   7.002  10.758  0.8367 -0.6195  1.3308
 5633SOL     OW18339   2.490   5.911   0.618  0.5647 -0.3490 -0.0150
 5633SOL    HW118340   2.413   5.962   0.596  0.9919  1.8289  2.9218
 5633SOL    HW218341   2.528   5.886   0.534 -1.9590  0.6199 -1.5327
 5634SOL     OW18342   6.881   4.093   0.492 -0.2732  0.0419  0.2319
 5634SOL    HW118343   6.838   4.098   0.406  0.0740 -1.1664 -0.0323
 5634SOL    HW218344   6.956   4.151   0.485  1.7676 -2.5901 -1.5234
 5635SOL     OW18345   1.983   4.035   1.643 -0.0349 -0.3292  0.3225
 5635SOL    HW118346   1.935   4.065   1.721  0.9180 -0.6678  1.0672
 5635SOL    HW218347   2.064   4.086   1.643 -0.1693 -0.1023 -0.6399
 5636SOL     OW18348   7.663   2.789  12.206 -0.0122 -0.6026  0.2790
 5636SOL    HW118349   7.604   2.844  12.155  0.6306 -0.8004 -0.6963
 5636SOL    HW218350   7.610   2.762  12.282 -1.0818 -0.5288 -0.4137
 5637SOL     OW18351   3.970   2.732   3.155 -0.0525 -0.5159  0.6716
 5637SOL    HW118352   4.019   2.657   3.188 -0.2130 -0.8559  0.1414
 5637SOL    HW218353   3.881   2.720   3.189  0.0697 -0.2398  1.0954
 5638SOL     OW18354   5.962   2.095   5.897 -0.6996  0.1496 -0.6367
 5638SOL    HW118355   6.053   2.123   5.906 -1.1057  2.3037 -2.4407
 5638SOL    HW218356   5.956   2.060   5.808 -1.3474 -1.2669 -0.0601
 5639SOL     OW18357   0.131   3.453   0.560  0.2672 -0.2365 -0.4664
 5639SOL    HW118358   0.122   3.539   0.520  0.7935  0.2823  0.4843
 5639SOL    HW218359   0.050   3.440   0.608 -0.1488 -0.6338 -1.2614
 5640SOL     OW18360   7.150   2.916   2.428 -0.2203  0.0273  0.0417
 5640SOL    HW118361   7.105   2.983   2.376  1.9856  1.8659  0.3415
 5640SOL    HW218362   7.144   2.948   2.518  1.4444  0.2565  0.1072
 5641SOL     OW18363   1.818   7.538   0.450 -0.1620 -0.2117  0.0296
 5641SOL    HW118364   1.877   7.539   0.375  0.0776  1.9958  0.1809
 5641SOL    HW218365   1.845   7.614   0.502 -1.0490 -1.0530  1.7692
 5642SOL     OW18366   0.331   1.289   0.394  0.1774  0.3669  0.1123
 5642SOL    HW118367   0.260   1.232   0.363 -0.0058  0.8620 -0.4151
 5642SOL    HW218368   0.410   1.251   0.357  0.2294 -0.3376  0.9161
 5643SOL     OW18369   0.946   6.524   4.020 -0.2276  0.4174  0.5151
 5643SOL    HW118370   0.900   6.548   3.939  1.4742  0.1942 -0.5493
 5643SOL    HW218371   1.020   6.472   3.991  2.6866  3.4976  1.8170
 5644SOL     OW18372   1.111   2.361   8.673 -0.0634  0.0403  0.3195
 5644SOL    HW118373   1.047   2.431   8.683 -1.0075 -1.0984  3.8689
 5644SOL    HW218374   1.170   2.371   8.747 -0.8763 -3.3816  1.6393
 5645SOL     OW18375   7.569   6.530   4.075 -0.0074 -0.5791 -0.5734
 5645SOL    HW118376   7.523   6.536   3.991 -2.0124 -0.0700  0.4805
 5645SOL    HW218377   7.610   6.615   4.087 -2.5587  0.6327  0.3995
 5646SOL     OW18378   1.048   2.510   9.709  0.7010  0.1726  0.2977
 5646SOL    HW118379   0.963   2.484   9.744  1.1722 -0.4279  1.0279
 5646SOL    HW218380   1.031   2.594   9.666 -0.6005 -0.7253 -1.0627
 5647SOL     OW18381   2.484   1.783   8.174 -0.3422  0.0669 -0.3908
 5647SOL    HW118382   2.538   1.747   8.244 -0.6939 -0.9875 -0.6456
 5647SOL    HW218383   2.480   1.877   8.193  0.9846  0.0611  0.0173
 5648SOL     OW18384   1.861   2.299   8.755 -0.1541 -0.0781 -0.1047
 5648SOL    HW118385   1.847   2.275   8.664  2.0693 -2.1372  0.0004
 5648SOL    HW218386   1.788   2.258   8.803 -0.8772  0.3426 -0.8124
 5649SOL     OW18387   3.977   2.332   3.456  0.6336  0.1822 -0.1410
 5649SOL    HW118388   4.005   2.388   3.383  3.0808  0.7976  1.1290
 5649SOL    HW218389   3.941   2.254   3.415  1.5440  0.6937 -2.0036
 5650SOL     OW18390   3.729   3.942   8.144 -0.2950  0.0459 -0.0337
 5650SOL    HW118391   3.648   3.930   8.094 -0.5891  1.2844  0.0965
 5650SOL    HW218392   3.707   4.010   8.208  0.5745 -0.2949  0.6441
 5651SOL     OW18393   2.641   5.235  11.706 -0.1801  0.2667  0.1400
 5651SOL    HW118394   2.566   5.262  11.654  1.3499 -2.7651 -4.2157
 5651SOL    HW218395   2.700   5.310  11.704 -0.5259  0.5502 -1.9667
 5652SOL     OW18396   0.415   3.937  11.034 -0.5299 -0.4308 -0.3261
 5652SOL    HW118397   0.431   4.003  10.967  0.4814 -0.7784 -0.4373
 5652SOL    HW218398   0.339   3.888  11.002 -0.4491 -0.1906 -0.8999
 5653SOL     OW18399   5.672   1.945   4.941 -0.2307  0.8755  0.0821
 5653SOL    HW118400   5.760   1.976   4.920 -0.5131  0.8007 -1.2537
 5653SOL    HW218401   5.628   2.022   4.977  0.4782  0.8120  1.1655
 5654SOL     OW18402   5.373   0.915   8.688 -0.3993 -0.3360  0.1977
 5654SOL    HW118403   5.463   0.934   8.714  0.0566  3.8054 -3.2277
 5654SOL    HW218404   5.381   0.859   8.610 -0.7281  0.3390 -0.3322
 5655SOL     OW18405   6.167   6.591   6.943  0.3411 -0.5510 -0.3030
 5655SOL    HW118406   6.128   6.537   7.011 -1.3767  1.7559  0.6994
 5655SOL    HW218407   6.215   6.659   6.991  0.2056  0.3516 -1.3992
 5656SOL     OW18408   4.450   4.351  11.608 -0.1810 -0.2677  0.1234
 5656SOL    HW118409   4.501   4.403  11.546 -1.9267 -1.4312 -2.5020
 5656SOL    HW218410   4.516   4.313  11.667  1.7192  0.1916 -1.5758
 5657SOL     OW18411   5.569   5.745   1.511  0.6468  0.2334  0.2393
 5657SOL    HW118412   5.479   5.744   1.480 -0.4712  0.1818  3.1614
 5657SOL    HW218413   5.600   5.834   1.494 -0.2111  0.4821 -0.0692
 5658SOL     OW18414   1.478   1.114   1.022 -0.7919 -0.3906  0.3961
 5658SOL    HW118415   1.480   1.065   0.940 -0.9926 -0.4066  0.4009
 5658SOL    HW218416   1.522   1.057   1.085  2.4100  0.9462 -0.4047
 5659SOL     OW18417   4.886   7.518   5.622 -0.2175  0.3150 -0.0334
 5659SOL    HW118418   4.827   7.527   5.696 -1.7224 -1.2417 -0.9882
 5659SOL    HW218419   4.838   7.556   5.548  0.9419  1.1220 -0.4129
 5660SOL     OW18420   3.579   5.436  12.152  0.4242 -0.1686 -0.2970
 5660SOL    HW118421   3.668   5.444  12.188 -0.4274  0.0632  1.9657
 5660SOL    HW218422   3.550   5.350  12.180 -0.7975  0.5884  0.8882
 5661SOL     OW18423   3.914   7.136   6.430 -0.0789  0.3986 -0.5231
 5661SOL    HW118424   3.857   7.171   6.499  1.6073 -0.7738  1.5775
 5661SOL    HW218425   3.869   7.058   6.399 -0.4953  0.5201 -0.2359
 5662SOL     OW18426   3.431   2.584   0.251 -0.0682 -0.5242  0.5376
 5662SOL    HW118427   3.401   2.603   0.340  0.4844  2.4137  0.1833
 5662SOL    HW218428   3.351   2.568   0.201 -0.7026  1.5758  0.8017
 5663SOL     OW18429   5.380   4.257  11.505 -0.3829  0.2816 -0.1809
 5663SOL    HW118430   5.377   4.161  11.512 -1.2196  0.3285  0.2430
 5663SOL    HW218431   5.392   4.273  11.411 -1.3984 -0.2392 -0.4218
 5664SOL     OW18432   6.197   1.604  10.164 -0.0191  0.4359 -0.2840
 5664SOL    HW118433   6.143   1.552  10.225 -1.2782  1.1005 -0.7888
 5664SOL    HW218434   6.188   1.694  10.196 -2.3782  1.1320 -2.5237
 5665SOL     OW18435   4.090   5.394   5.540 -0.4652 -0.3037  0.3827
 5665SOL    HW118436   4.167   5.357   5.584 -0.7164  2.4079  3.5692
 5665SOL    HW218437   4.024   5.325   5.544  1.6143 -2.6663 -2.3426
 5666SOL     OW18438   2.919   0.005   6.244  0.1690  0.5808  0.0733
 5666SOL    HW118439   2.893  -0.066   6.302 -1.8216 -1.0706 -2.6154
 5666SOL    HW218440   2.838   0.053   6.227  0.2880  0.0071 -2.5197
 5667SOL     OW18441   5.539   4.647   8.327  0.3582  0.5964  0.3051
 5667SOL    HW118442   5.519   4.740   8.314 -2.0430 -0.1034 -1.6400
 5667SOL    HW218443   5.530   4.608   8.240 -3.9845 -2.3145  1.7395
 5668SOL     OW18444   4.939   6.476   3.068  0.1764 -0.3367  0.0459
 5668SOL    HW118445   4.963   6.491   2.976 -2.5480  0.4686 -0.6371
 5668SOL    HW218446   4.950   6.381   3.080 -0.6006 -0.6663 -1.5172
 5669SOL     OW18447   7.478   2.475   7.104 -0.0879 -0.2458 -0.2170
 5669SOL    HW118448   7.513   2.442   7.021  0.6042 -0.7045  0.2422
 5669SOL    HW218449   7.435   2.399   7.143  0.5911 -0.3449  0.3612
 5670SOL     OW18450   5.503   5.753   3.457  0.1962  0.1645  0.2010
 5670SOL    HW118451   5.550   5.755   3.540  0.7835 -1.3427 -0.0625
 5670SOL    HW218452   5.515   5.663   3.425 -1.7696  0.1114 -0.5062
 5671SOL     OW18453   2.785   6.475   4.921  0.2929  0.0141 -0.0010
 5671SOL    HW118454   2.858   6.493   4.980 -0.2201 -0.3864  0.7668
 5671SOL    HW218455   2.784   6.550   4.861  0.1378  0.9885  1.1800
 5672SOL     OW18456   7.778   5.348   3.228  0.0516  0.3591  0.1123
 5672SOL    HW118457   7.802   5.318   3.315  0.4420  1.5028  0.4198
 5672SOL    HW218458   7.685   5.370   3.235  0.2690  1.2085  0.4779
 5673SOL     OW18459   4.640   5.673   3.168  0.4024  0.0844 -0.1691
 5673SOL    HW118460   4.559   5.716   3.141  0.8196  1.2111  0.3258
 5673SOL    HW218461   4.687   5.739   3.219  0.9893 -1.0063  0.7653
 5674SOL     OW18462   0.358   3.866   3.257  0.4799  0.2358 -0.1619
 5674SOL    HW118463   0.273   3.860   3.300  0.9020 -1.2418  0.5522
 5674SOL    HW218464   0.347   3.932   3.189 -2.1645 -1.9339 -2.0721
 5675SOL     OW18465   3.014   2.644   4.092  0.6065 -0.3593 -0.4064
 5675SOL    HW118466   3.054   2.561   4.063 -0.2730 -1.1530  0.5801
 5675SOL    HW218467   2.933   2.651   4.041  0.9133  0.1596 -0.8386
 5676SOL     OW18468   0.058   2.117   0.446 -0.0804  0.5790  0.3846
 5676SOL    HW118469   0.098   2.050   0.501 -0.7713 -0.1751 -0.0155
 5676SOL    HW218470   0.077   2.089   0.356 -2.9173 -0.7658  0.1052
 5677SOL     OW18471   2.343   5.700   8.930 -0.1444 -0.7425  0.5746
 5677SOL    HW118472   2.349   5.704   9.025  0.7478  1.0083  0.4945
 5677SOL    HW218473   2.413   5.758   8.899 -1.4465  0.0379 -1.1035
 5678SOL     OW18474   4.919   2.927   4.854  0.3733 -0.2307  0.2261
 5678SOL    HW118475   4.834   2.934   4.898  0.6332 -0.1398  0.7179
 5678SOL    HW218476   4.945   3.017   4.836  0.4696 -0.2461  0.2845
 5679SOL     OW18477   4.677   1.972   1.226 -0.6173 -0.3664  0.5361
 5679SOL    HW118478   4.599   1.972   1.171 -1.3224  0.2054  1.5072
 5679SOL    HW218479   4.748   1.997   1.166 -1.2315 -0.5215 -0.2778
 5680SOL     OW18480   5.893   5.413   1.203 -0.2033  0.4977 -0.3758
 5680SOL    HW118481   5.848   5.391   1.122 -2.2797  0.0867  0.8400
 5680SOL    HW218482   5.830   5.464   1.254  1.4093  1.6678  0.5867
 5681SOL     OW18483   6.792   5.313   0.081  0.3922 -0.0206 -0.1033
 5681SOL    HW118484   6.787   5.234   0.134 -0.8383  0.4118  0.4691
 5681SOL    HW218485   6.861   5.365   0.122  1.7219 -1.0793 -0.9233
 5682SOL     OW18486   0.172   4.140  10.888 -0.6494  0.1296 -0.0081
 5682SOL    HW118487   0.148   4.202  10.819  0.0240  0.1794 -0.2091
 5682SOL    HW218488   0.262   4.114  10.866 -0.8204 -0.6986  0.2345
 5683SOL     OW18489   2.097   5.447  12.096  0.4418 -0.4008  0.2199
 5683SOL    HW118490   2.158   5.441  12.169  1.9174  0.8610 -0.8536
 5683SOL    HW218491   2.041   5.522  12.116  1.4266  0.5035 -0.3242
 5684SOL     OW18492   1.318   0.239   0.580 -0.4668 -0.2955  0.0961
 5684SOL    HW118493   1.237   0.193   0.602 -1.3171  0.4817 -1.3268
 5684SOL    HW218494   1.387   0.188   0.623 -1.7926 -0.2552  2.4215
 5685SOL     OW18495   5.170   0.326  11.527 -0.0532  0.0080 -0.5690
 5685SOL    HW118496   5.251   0.307  11.574 -0.6079  0.2931  0.5355
 5685SOL    HW218497   5.152   0.246  11.478 -0.0634 -0.7437  0.6229
 5686SOL     OW18498   7.641   6.034  11.288 -0.7340 -0.5954  0.1320
 5686SOL    HW118499   7.648   6.126  11.261  1.2440 -0.7869 -0.0906
 5686SOL    HW218500   7.587   5.994  11.220  0.6350 -0.1432 -1.2816
 5687SOL     OW18501   5.103   0.058  10.131 -0.6880 -0.1207  0.3265
 5687SOL    HW118502   5.013   0.036  10.153 -0.9352 -0.4090 -0.8947
 5687SOL    HW218503   5.096   0.122  10.060  0.0586 -0.6363 -0.2335
 5688SOL     OW18504   2.153   1.841   8.220  0.0077 -0.2340  0.0564
 5688SOL    HW118505   2.079   1.808   8.271 -0.7214  1.2617  0.0003
 5688SOL    HW218506   2.181   1.920   8.265 -1.1161  1.5522 -2.1781
 5689SOL     OW18507   1.709   1.668   7.401  0.3769  0.5858  0.1558
 5689SOL    HW118508   1.738   1.707   7.484 -1.4523  1.7058  0.3063
 5689SOL    HW218509   1.755   1.718   7.334 -0.2580  1.5518  0.4211
 5690SOL     OW18510   3.295   7.291  11.057  0.0095 -0.4745  0.0773
 5690SOL    HW118511   3.204   7.285  11.086 -0.2032 -1.0346 -0.6784
 5690SOL    HW218512   3.292   7.264  10.965  0.9128 -0.3214  0.0004
 5691SOL     OW18513   7.488   3.362   8.310 -0.3514 -0.0977  0.3356
 5691SOL    HW118514   7.483   3.274   8.274 -0.4342 -0.7559  1.9131
 5691SOL    HW218515   7.398   3.395   8.304 -0.1542  0.2548 -1.0937
 5692SOL     OW18516   2.652   3.527   1.851  0.0104 -0.0832 -0.7351
 5692SOL    HW118517   2.718   3.582   1.809 -1.8837  0.6159 -3.0021
 5692SOL    HW218518   2.585   3.588   1.881  0.1856 -0.8046  1.2525
 5693SOL     OW18519   3.389   0.981   9.526  0.4460 -0.3074 -0.0603
 5693SOL    HW118520   3.390   1.073   9.553  2.1436 -0.0867 -0.7376
 5693SOL    HW218521   3.375   0.933   9.607  1.0974  0.5064  0.5659
 5694SOL     OW18522   3.636   1.426   8.220 -0.4667 -0.2703 -0.4705
 5694SOL    HW118523   3.627   1.332   8.209  0.6420 -0.5415  0.7036
 5694SOL    HW218524   3.596   1.464   8.142  2.2924 -1.8171 -2.8092
 5695SOL     OW18525   0.037   6.451  11.043 -0.2227  0.3544 -0.4552
 5695SOL    HW118526   0.042   6.437  10.949 -0.2061  0.6512 -0.4972
 5695SOL    HW218527   0.097   6.523  11.060  0.0435  0.0696 -0.1688
 5696SOL     OW18528   5.323   6.125   6.041 -0.1700  0.0931 -0.4596
 5696SOL    HW118529   5.349   6.033   6.041 -1.8739 -0.4346 -0.6723
 5696SOL    HW218530   5.304   6.146   6.132  0.9865  0.4938 -0.2956
 5697SOL     OW18531   7.677   4.613   9.242  0.0413 -0.1552  0.8384
 5697SOL    HW118532   7.593   4.582   9.276 -0.0033 -1.9379 -0.7057
 5697SOL    HW218533   7.739   4.543   9.262  0.7244  0.2746  0.2785
 5698SOL     OW18534   5.590   0.590   2.124 -0.0825 -0.4146 -0.1867
 5698SOL    HW118535   5.652   0.623   2.189  0.1019  0.3487 -0.7322
 5698SOL    HW218536   5.505   0.624   2.154  0.0225  0.0593 -0.4172
 5699SOL     OW18537   1.220   5.639   0.430 -0.2915  0.6957  0.1433
 5699SOL    HW118538   1.130   5.610   0.422 -0.1247  0.4541 -0.9753
 5699SOL    HW218539   1.250   5.654   0.340  1.3205 -0.8979  0.3543
 5700SOL     OW18540   6.659   5.029   2.290 -0.3749  0.7786 -0.6113
 5700SOL    HW118541   6.693   5.017   2.378  0.2831  1.0020 -0.8293
 5700SOL    HW218542   6.724   4.987   2.233 -0.9644  0.3282 -0.9735
 5701SOL     OW18543   6.185   1.289   4.806 -0.1385 -0.8376  0.9176
 5701SOL    HW118544   6.265   1.324   4.767 -0.8772  0.5692  0.5659
 5701SOL    HW218545   6.203   1.197   4.823  0.8971 -0.9989 -0.9134
 5702SOL     OW18546   2.124   0.568   2.187 -0.0389 -0.2041 -0.2624
 5702SOL    HW118547   2.084   0.494   2.232 -0.5072  0.8641  1.1849
 5702SOL    HW218548   2.140   0.632   2.257  2.1960  0.2760 -1.1386
 5703SOL     OW18549   3.599   2.969   0.570 -0.2505  0.2280 -0.3949
 5703SOL    HW118550   3.508   2.998   0.558 -0.4178 -0.4877 -0.9649
 5703SOL    HW218551   3.634   2.964   0.481  0.6774  1.4581 -0.1320
 5704SOL     OW18552   0.694   0.234   2.294 -0.4402  0.0404  0.3020
 5704SOL    HW118553   0.771   0.214   2.241  0.4271  3.6949 -0.0889
 5704SOL    HW218554   0.708   0.187   2.376  0.7715 -1.5699 -0.7807
 5705SOL     OW18555   7.884   5.639   3.401 -0.0774  0.4673 -0.0680
 5705SOL    HW118556   7.894   5.549   3.433  0.5369 -0.4269 -2.5948
 5705SOL    HW218557   7.878   5.692   3.481 -0.2540 -1.7654  1.4901
 5706SOL     OW18558   2.825   3.639  11.723 -0.2684  0.0729  0.8646
 5706SOL    HW118559   2.888   3.702  11.690 -0.1555  0.0145  0.9650
 5706SOL    HW218560   2.867   3.601  11.800  0.2190 -1.0537  0.0787
 5707SOL     OW18561   6.316   7.571   1.028  0.2719  0.0206 -0.2121
 5707SOL    HW118562   6.403   7.608   1.046  0.6142 -0.9426  0.2163
 5707SOL    HW218563   6.261   7.646   1.008  1.2384  0.6399 -0.6023
 5708SOL     OW18564   6.694   4.448  12.088  0.1244 -0.0083 -0.0511
 5708SOL    HW118565   6.635   4.423  12.159  1.0054  1.0577  1.1033
 5708SOL    HW218566   6.737   4.367  12.063 -1.1252 -0.6200 -0.2419
 5709SOL     OW18567   2.420   6.205   0.393 -0.3082 -0.8764  0.0786
 5709SOL    HW118568   2.401   6.260   0.317 -1.5162 -0.4114  0.6863
 5709SOL    HW218569   2.507   6.170   0.376 -0.0916  0.1062 -0.9897
 5710SOL     OW18570   7.815   5.026   9.565 -0.2678 -0.0448  0.5667
 5710SOL    HW118571   7.764   5.012   9.644 -0.7104  2.0861  0.7059
 5710SOL    HW218572   7.900   5.057   9.596 -0.0130 -0.3832  0.2264
 5711SOL     OW18573   4.758   4.697   6.729 -0.6084  0.5480 -0.6156
 5711SOL    HW118574   4.698   4.676   6.801  0.3702  0.3466  0.1699
 5711SOL    HW218575   4.725   4.780   6.694 -0.6232  1.0833  0.6110
 5712SOL     OW18576   6.679   4.599   5.569 -0.0094  0.5289 -0.1149
 5712SOL    HW118577   6.638   4.623   5.486  1.4258  4.6248  0.1231
 5712SOL    HW218578   6.772   4.613   5.554  0.5727 -1.2886  1.4720
 5713SOL     OW18579   1.197   1.497  11.971  0.2257  0.0463  0.5426
 5713SOL    HW118580   1.292   1.506  11.969  0.2281  0.0291  0.5913
 5713SOL    HW218581   1.180   1.412  11.930  0.2909 -0.4079  1.4273
 5714SOL     OW18582   4.615   5.153   9.167 -0.2346  0.5252  0.0779
 5714SOL    HW118583   4.568   5.114   9.093 -1.1541  0.6202  0.6050
 5714SOL    HW218584   4.550   5.208   9.212  0.1225 -0.0581  1.3547
 5715SOL     OW18585   1.636   2.973   4.074 -0.0710 -0.0320 -0.3670
 5715SOL    HW118586   1.620   3.037   4.004  0.3369  0.0236 -0.4120
 5715SOL    HW218587   1.639   3.026   4.154  3.3250  0.4978 -0.6931
 5716SOL     OW18588   4.073   1.560  12.335  0.3538 -0.1337  0.4352
 5716SOL    HW118589   4.071   1.605  12.419  0.1157 -1.6634  1.2812
 5716SOL    HW218590   4.007   1.606  12.282  2.9171  3.1457 -0.2242
 5717SOL     OW18591   7.042   2.065  11.402  0.1688 -0.3603 -0.0556
 5717SOL    HW118592   6.971   2.001  11.413  0.8445 -1.0533  0.4256
 5717SOL    HW218593   7.008   2.145  11.441 -0.0818 -0.8968  0.8682
 5718SOL     OW18594   5.118   0.808   3.730 -0.0152  0.3411  0.4320
 5718SOL    HW118595   5.123   0.813   3.825  1.3655 -1.4992  0.5242
 5718SOL    HW218596   5.144   0.895   3.700  2.3397  0.1832  1.7401
 5719SOL     OW18597   1.645   6.489   2.891 -0.3581  0.0242  0.0949
 5719SOL    HW118598   1.685   6.419   2.839  0.2475  1.0653 -0.8795
 5719SOL    HW218599   1.622   6.447   2.974 -0.4490 -1.4376 -0.6452
 5720SOL     OW18600   3.925   3.960  11.387  0.0022  0.1858  0.2121
 5720SOL    HW118601   3.893   3.935  11.300  1.3744 -0.5612 -0.1187
 5720SOL    HW218602   4.011   3.999  11.370  0.1846  0.2434  1.2060
 5721SOL     OW18603   2.358   0.871  11.853 -0.2280  0.1347  0.6245
 5721SOL    HW118604   2.453   0.876  11.841 -0.3328 -1.0081 -1.0205
 5721SOL    HW218605   2.337   0.778  11.839 -1.6227  0.4187  0.7005
 5722SOL     OW18606   3.737   4.582   9.022 -0.0047 -0.0559  0.2987
 5722SOL    HW118607   3.717   4.502   9.070  0.4647 -0.6382 -0.4501
 5722SOL    HW218608   3.797   4.630   9.079 -1.5304  0.5525  1.4715
 5723SOL     OW18609   6.742   0.796   4.489 -0.0780 -0.5437 -0.0903
 5723SOL    HW118610   6.834   0.799   4.462 -0.0960  0.0316 -0.0983
 5723SOL    HW218611   6.731   0.873   4.544 -0.9348  0.2559 -1.3242
 5724SOL     OW18612   3.290   3.559   8.464 -0.1390  0.2634  0.3805
 5724SOL    HW118613   3.307   3.472   8.429  1.5834  0.7251 -0.0202
 5724SOL    HW218614   3.251   3.607   8.390  0.4706  0.2978  0.0717
 5725SOL     OW18615   2.724   6.710   7.460  0.2957 -0.2333  0.2934
 5725SOL    HW118616   2.642   6.698   7.411  1.9574 -0.8077 -2.5560
 5725SOL    HW218617   2.731   6.631   7.513 -0.1969 -0.9787 -0.7141
 5726SOL     OW18618   5.258   3.742   0.307 -0.1329 -0.0258  0.6223
 5726SOL    HW118619   5.164   3.727   0.310  0.0185 -1.2078 -0.1349
 5726SOL    HW218620   5.293   3.694   0.381 -0.0017 -0.6115  0.1843
 5727SOL     OW18621   0.463   6.311   1.216 -0.3781  0.2554  0.6910
 5727SOL    HW118622   0.444   6.378   1.281  0.8900  0.6831  0.6299
 5727SOL    HW218623   0.420   6.232   1.250 -2.1209  1.1287  0.6216
 5728SOL     OW18624   6.550   2.554   3.331 -0.1295  0.0634 -0.3900
 5728SOL    HW118625   6.590   2.622   3.385 -0.2227  0.7898 -1.2104
 5728SOL    HW218626   6.458   2.578   3.326 -0.4862 -1.0198  0.6218
 5729SOL     OW18627   3.358   0.040   4.690 -0.2455  0.4687 -0.0377
 5729SOL    HW118628   3.368  -0.022   4.618 -0.0376 -0.5594  0.8484
 5729SOL    HW218629   3.446   0.076   4.702  0.0167 -0.3083  0.5040
 5730SOL     OW18630   0.449   3.324   7.492  0.1906  0.1628  0.1675
 5730SOL    HW118631   0.528   3.290   7.535  0.0418 -1.6241 -0.8961
 5730SOL    HW218632   0.453   3.289   7.403 -0.9041  1.5501 -0.4697
 5731SOL     OW18633   5.540   5.052   3.354  0.6721 -0.3774 -0.0477
 5731SOL    HW118634   5.467   5.102   3.391  0.5899  0.6369 -1.5037
 5731SOL    HW218635   5.525   4.962   3.384  0.4771  0.3101  2.1275
 5732SOL     OW18636   5.769   3.158   3.167  0.0167  0.1443  0.0336
 5732SOL    HW118637   5.724   3.093   3.221 -0.9911  0.2333 -0.6527
 5732SOL    HW218638   5.745   3.242   3.206  0.0716  0.1671  0.0185
 5733SOL     OW18639   5.532   5.777   2.887  0.0714  0.2191  0.1383
 5733SOL    HW118640   5.489   5.704   2.932 -0.3070  0.3965  0.0654
 5733SOL    HW218641   5.613   5.791   2.937 -0.0130 -0.0319  0.3508
 5734SOL     OW18642   1.305   7.561   4.678 -0.9873 -0.5941 -0.1004
 5734SOL    HW118643   1.211   7.554   4.691 -0.9509  2.5380  3.1736
 5734SOL    HW218644   1.343   7.509   4.749 -0.2741  0.0036 -0.0410
 5735SOL     OW18645   1.838   2.484   6.321 -0.1101 -0.0657  0.1013
 5735SOL    HW118646   1.858   2.405   6.371  2.7883  1.0239  0.8887
 5735SOL    HW218647   1.844   2.456   6.229 -0.2186 -0.9643  0.3568
 5736SOL     OW18648   4.428   2.165   0.752  0.4491  0.6086  0.3304
 5736SOL    HW118649   4.372   2.092   0.724  0.8093  0.6227 -0.4371
 5736SOL    HW218650   4.369   2.240   0.755  0.1988  0.4062  0.5582
 5737SOL     OW18651   0.605   5.839  11.933 -0.3268 -0.0164  0.2415
 5737SOL    HW118652   0.520   5.881  11.920 -0.8274 -0.0521  2.8080
 5737SOL    HW218653   0.587   5.766  11.992  1.6820  1.0537  2.3334
 5738SOL     OW18654   0.833   3.413   0.748  0.1496 -0.7522 -0.1992
 5738SOL    HW118655   0.831   3.396   0.843  0.8620  0.5276  0.0694
 5738SOL    HW218656   0.907   3.361   0.717  0.8233 -0.0675  0.2097
 5739SOL     OW18657   5.631   6.902   8.612 -0.4414 -0.2877 -0.1171
 5739SOL    HW118658   5.617   6.819   8.568 -0.4965 -1.2366  1.6067
 5739SOL    HW218659   5.583   6.894   8.695  0.1507  1.1679  0.4031
 5740SOL     OW18660   3.424   6.140   0.937 -0.3378 -0.1478  0.1954
 5740SOL    HW118661   3.368   6.197   0.885 -2.7964 -0.9043  1.8541
 5740SOL    HW218662   3.467   6.198   0.999 -2.0885  0.0979  1.2483
 5741SOL     OW18663   6.690   7.567   4.612 -0.6208 -0.4884 -0.0662
 5741SOL    HW118664   6.715   7.501   4.547 -0.3310 -0.0808 -0.3721
 5741SOL    HW218665   6.607   7.603   4.579 -0.9015 -0.8639  0.2246
 5742SOL     OW18666   0.941   3.173   6.054 -0.2673  0.4025 -0.0875
 5742SOL    HW118667   0.967   3.199   5.966 -2.5924 -0.6321 -1.1572
 5742SOL    HW218668   0.956   3.079   6.057 -1.9119  0.1238 -0.0483
 5743SOL     OW18669   1.047   2.574   1.838  0.4246 -0.2829  1.1292
 5743SOL    HW118670   1.117   2.579   1.905  1.0393  3.2096  0.4207
 5743SOL    HW218671   0.968   2.600   1.885  0.5017  0.2788  0.9605
 5744SOL     OW18672   6.559   5.220   9.729 -0.1512  0.4014  0.5684
 5744SOL    HW118673   6.500   5.244   9.801 -1.8947 -0.9662 -0.3387
 5744SOL    HW218674   6.589   5.131   9.751  1.9478  1.1981  1.1961
 5745SOL     OW18675   7.333   1.965   2.741 -0.5523 -0.1164 -0.1306
 5745SOL    HW118676   7.252   1.997   2.703  0.1095  0.8162 -0.8200
 5745SOL    HW218677   7.324   1.870   2.743 -2.1869  0.0399  1.0549
 5746SOL     OW18678   1.625   6.835   9.824  0.2307 -0.0518  0.2759
 5746SOL    HW118679   1.635   6.744   9.852 -0.8654 -0.1965  0.2130
 5746SOL    HW218680   1.615   6.885   9.906 -1.2642 -0.2616  0.2404
 5747SOL     OW18681   1.989   1.215   3.400 -0.3240 -0.1030  0.0095
 5747SOL    HW118682   1.963   1.293   3.350  0.6674 -1.7723 -3.3837
 5747SOL    HW218683   1.942   1.143   3.359 -0.3025 -1.5215  2.2856
 5748SOL     OW18684   3.168   7.710   7.205  0.0508  0.6511  0.1113
 5748SOL    HW118685   3.255   7.717   7.245 -0.2638  0.9126  0.7668
 5748SOL    HW218686   3.185   7.686   7.114  0.7669 -0.7200  0.5850
 5749SOL     OW18687   3.481   7.654   1.969 -0.1981  0.0774 -0.2772
 5749SOL    HW118688   3.545   7.676   1.901 -0.3901 -1.8519 -1.1672
 5749SOL    HW218689   3.531   7.655   2.050  0.6587 -0.1016 -0.7906
 5750SOL     OW18690   4.439   6.457   0.287 -0.3278  0.4180  0.3237
 5750SOL    HW118691   4.346   6.436   0.278 -0.3055  0.0185  0.9498
 5750SOL    HW218692   4.456   6.521   0.218 -0.9983  0.2740  0.0171
 5751SOL     OW18693   1.614   0.707   6.343  0.0105 -0.1146 -0.4425
 5751SOL    HW118694   1.616   0.767   6.268  1.5573  3.3255  2.1036
 5751SOL    HW218695   1.531   0.726   6.387  0.5924  0.2926  0.4880
 5752SOL     OW18696   2.539   0.845  10.844  0.0519  0.0859 -0.2147
 5752SOL    HW118697   2.628   0.828  10.874  0.1624  0.7192 -0.1781
 5752SOL    HW218698   2.531   0.941  10.843 -0.7587  0.0385  0.1921
 5753SOL     OW18699   0.333   5.878   2.044 -0.1577 -0.2016 -0.2789
 5753SOL    HW118700   0.381   5.821   1.984  1.2040 -1.4398  1.8382
 5753SOL    HW218701   0.241   5.855   2.032  0.0121 -0.0265 -2.2043
 5754SOL     OW18702   0.095   3.614   7.733  0.6336 -0.5204  0.8405
 5754SOL    HW118703   0.025   3.623   7.668  1.5334 -0.5367 -0.1634
 5754SOL    HW218704   0.154   3.549   7.696  1.8482  0.4151  1.0506
 5755SOL     OW18705   7.692   2.484  11.461 -0.2097  0.9000 -0.6160
 5755SOL    HW118706   7.770   2.428  11.463  0.4431  1.8115  0.3313
 5755SOL    HW218707   7.726   2.573  11.450 -0.9406  1.5432  1.6905
 5756SOL     OW18708   6.400   1.343  10.580  0.3005  0.1229 -0.0719
 5756SOL    HW118709   6.371   1.384  10.498  0.3671 -0.6172 -0.4675
 5756SOL    HW218710   6.471   1.285  10.555  0.2591 -0.1839  0.5031
 5757SOL     OW18711   7.840   0.893   9.967 -0.1298  0.2538 -0.3614
 5757SOL    HW118712   7.857   0.916  10.058 -0.4636 -0.5506 -0.0867
 5757SOL    HW218713   7.791   0.967   9.932  0.9384  1.0590 -0.2056
 5758SOL     OW18714   7.876   5.481   1.201 -0.6547 -0.1375  0.1227
 5758SOL    HW118715   7.827   5.443   1.128  0.2974  0.0935 -0.6695
 5758SOL    HW218716   7.873   5.576   1.185 -1.1720 -0.0177  0.8729
 5759SOL     OW18717   4.636   0.489   4.925 -0.5971  0.0567  0.3543
 5759SOL    HW118718   4.600   0.577   4.913 -0.2593  0.1879  0.2601
 5759SOL    HW218719   4.725   0.504   4.957  0.3481 -0.1647 -1.9403
 5760SOL     OW18720   0.125   2.064  11.212  0.0205  0.2717  0.0905
 5760SOL    HW118721   0.080   1.988  11.175 -0.1836  0.4302  0.0087
 5760SOL    HW218722   0.177   2.029  11.283 -1.2028  0.2474  1.0108
 5761SOL     OW18723   1.256   1.270  11.238  0.1614  0.1484  0.0467
 5761SOL    HW118724   1.217   1.336  11.297 -0.6062  1.6055 -1.9910
 5761SOL    HW218725   1.180   1.227  11.199  0.6471 -2.2346  1.5265
 5762SOL     OW18726   2.783   3.771   9.479 -0.1328  0.3515 -0.0468
 5762SOL    HW118727   2.867   3.763   9.523 -1.4306  0.0023  2.6396
 5762SOL    HW218728   2.787   3.854   9.432  0.8365  1.7184  2.2453
 5763SOL     OW18729   2.353   4.724   7.336  0.3842  0.8794 -0.1049
 5763SOL    HW118730   2.342   4.702   7.244  0.4289  1.6039 -0.2854
 5763SOL    HW218731   2.267   4.757   7.363  0.7374  1.9172 -0.2342
 5764SOL     OW18732   0.722   2.526   8.131 -0.0673  0.4451 -0.0267
 5764SOL    HW118733   0.803   2.547   8.177 -0.0249 -0.3234  0.2568
 5764SOL    HW218734   0.652   2.546   8.193 -0.0865  0.8474 -0.1732
 5765SOL     OW18735   1.935   3.156   5.431  0.0504  0.2822  0.3672
 5765SOL    HW118736   2.006   3.174   5.368  1.0933 -0.7513  1.1925
 5765SOL    HW218737   1.960   3.073   5.472 -2.0306 -0.4913  0.1899
 5766SOL     OW18738   3.191   2.446  11.683 -0.2084 -0.4596  0.3498
 5766SOL    HW118739   3.212   2.500  11.760  2.1508  2.0983 -1.8832
 5766SOL    HW218740   3.274   2.403  11.661 -0.0533  0.9803 -2.2148
 5767SOL     OW18741   7.113   2.656   8.488 -0.3025 -0.4184 -0.3995
 5767SOL    HW118742   7.093   2.565   8.511 -0.7970 -0.0669  0.5993
 5767SOL    HW218743   7.164   2.649   8.407  0.7547 -1.6545  0.3318
 5768SOL     OW18744   5.738   0.338   9.148  0.0856  0.3665 -0.0300
 5768SOL    HW118745   5.768   0.307   9.233  2.0585 -1.2613 -1.2197
 5768SOL    HW218746   5.689   0.418   9.167  0.3265 -0.0363  2.6163
 5769SOL     OW18747   5.830   1.129   8.167 -0.1436 -0.4605 -0.2254
 5769SOL    HW118748   5.889   1.171   8.104  1.2306 -2.0417 -0.0803
 5769SOL    HW218749   5.765   1.195   8.187 -0.5792  0.1519 -3.2163
 5770SOL     OW18750   5.512   2.217   1.835  0.0939  0.4212  0.6170
 5770SOL    HW118751   5.431   2.190   1.793  0.3048  0.1969  0.3593
 5770SOL    HW218752   5.559   2.136   1.853 -0.0674  0.4927  1.4443
 5771SOL     OW18753   6.348   4.873   2.588 -0.7067  0.4663  0.0201
 5771SOL    HW118754   6.400   4.826   2.522  1.5729  3.2377 -0.3656
 5771SOL    HW218755   6.283   4.810   2.617  0.3779 -1.9677 -2.4150
 5772SOL     OW18756   6.057   2.165  11.311 -0.5417  0.0962  0.0678
 5772SOL    HW118757   6.138   2.201  11.347  0.1769 -0.9424 -0.4726
 5772SOL    HW218758   5.987   2.219  11.350  0.4227  1.3024  0.1786
 5773SOL     OW18759   2.535   5.244   7.090  0.3775  0.3423  0.0769
 5773SOL    HW118760   2.532   5.155   7.053 -0.7429  0.2332  0.3788
 5773SOL    HW218761   2.540   5.301   7.013  2.9221  0.0134 -0.0923
 5774SOL     OW18762   3.418   4.981   8.965  0.0469 -0.1653 -0.8714
 5774SOL    HW118763   3.386   4.893   8.984 -0.2893 -0.0874 -1.0543
 5774SOL    HW218764   3.350   5.039   8.999  0.6307  0.0561 -0.0493
 5775SOL     OW18765   1.585   6.553   9.894  0.7122  0.5219  0.2234
 5775SOL    HW118766   1.644   6.508   9.954  0.1626 -0.6584 -0.0770
 5775SOL    HW218767   1.599   6.510   9.810 -1.9449 -1.2414  0.5440
 5776SOL     OW18768   1.979   0.072   1.886  0.2672  0.0873  0.1625
 5776SOL    HW118769   1.958  -0.002   1.829  1.4901  1.2835 -1.9377
 5776SOL    HW218770   2.022   0.136   1.829  1.7472  1.2986  2.4621
 5777SOL     OW18771   2.004   1.961   9.041 -0.0446  0.0499 -0.1847
 5777SOL    HW118772   1.967   1.933   9.125  0.1179 -0.4458 -0.2747
 5777SOL    HW218773   2.062   1.890   9.015 -1.4878 -0.6867 -1.6145
 5778SOL     OW18774   5.356   4.691   8.967 -0.0645 -0.3751 -0.4761
 5778SOL    HW118775   5.331   4.783   8.965 -0.7273 -0.4751  1.3919
 5778SOL    HW218776   5.350   4.663   8.876  2.2293  1.9279 -1.4451
 5779SOL     OW18777   1.797   2.497   3.764 -0.0655 -0.1582 -0.1475
 5779SOL    HW118778   1.744   2.576   3.769  0.4040  0.3123 -1.8833
 5779SOL    HW218779   1.754   2.443   3.698  1.6974  0.3732 -1.8386
 5780SOL     OW18780   0.586   1.835   6.888  0.4636 -0.1472  0.2619
 5780SOL    HW118781   0.652   1.767   6.898  1.6019  1.0329  1.0049
 5780SOL    HW218782   0.604   1.874   6.803  1.5157  0.9355  0.9402
 5781SOL     OW18783   7.470   4.651   8.576  0.0286 -0.5435 -0.2841
 5781SOL    HW118784   7.401   4.702   8.618  0.0853  0.1028 -0.9549
 5781SOL    HW218785   7.464   4.564   8.617  1.5794  0.6159  2.7981
 5782SOL     OW18786   2.592   5.222   6.307 -0.1285  0.3961 -0.1811
 5782SOL    HW118787   2.627   5.141   6.271  1.7412  0.5312  1.1326
 5782SOL    HW218788   2.578   5.203   6.400  1.6824  1.8886  0.4703
 5783SOL     OW18789   0.163   1.439   4.595  0.2669 -0.2386  0.6612
 5783SOL    HW118790   0.246   1.392   4.593  0.1745 -0.3844 -0.0959
 5783SOL    HW218791   0.182   1.523   4.555 -0.6665 -1.5219 -2.8076
 5784SOL     OW18792   4.295   5.656   4.866  0.3352 -0.2958  0.1098
 5784SOL    HW118793   4.255   5.582   4.911  1.3691 -0.4522  0.8166
 5784SOL    HW218794   4.236   5.675   4.794 -1.4866  0.0554  1.6083
 5785SOL     OW18795   7.357   1.936   2.140 -0.0511 -0.4045 -0.5691
 5785SOL    HW118796   7.425   1.910   2.077  1.9597  1.9807  0.4692
 5785SOL    HW218797   7.290   1.977   2.086  0.6634 -0.2683 -1.3895
 5786SOL     OW18798   0.571   7.630   5.318 -0.5004  0.3820 -0.2523
 5786SOL    HW118799   0.635   7.574   5.275 -0.2179  0.0697  0.5539
 5786SOL    HW218800   0.620   7.708   5.344  0.0268 -0.5824  1.9105
 5787SOL     OW18801   1.336   2.966  11.854  0.0655  0.2760  0.3828
 5787SOL    HW118802   1.373   2.964  11.766 -1.2070  1.2757 -0.2132
 5787SOL    HW218803   1.334   3.059  11.877  1.0720 -0.0192  1.7935
 5788SOL     OW18804   6.812   5.628  11.878  0.3442  0.3221  0.3970
 5788SOL    HW118805   6.793   5.638  11.785 -0.9004  1.3188  0.7264
 5788SOL    HW218806   6.864   5.548  11.884  0.5484  0.3183 -1.1608
 5789SOL     OW18807   7.139   1.617   8.572 -0.1433 -0.0968 -0.2140
 5789SOL    HW118808   7.196   1.679   8.617  0.4851 -1.1508  0.5048
 5789SOL    HW218809   7.096   1.568   8.643  2.1464 -2.9815 -0.6225
 5790SOL     OW18810   3.358   3.194   5.346  0.6552 -0.4599  0.1293
 5790SOL    HW118811   3.357   3.204   5.250 -0.5645 -0.9290  0.0695
 5790SOL    HW218812   3.293   3.258   5.376  2.5277  1.2139  0.8527
 5791SOL     OW18813   5.824   2.917  10.085  0.2914  0.5395  0.0677
 5791SOL    HW118814   5.883   2.867  10.028  0.5154  0.3486  0.4658
 5791SOL    HW218815   5.787   2.984  10.028  0.5867  0.4073 -0.2838
 5792SOL     OW18816   2.377   5.485   8.647  0.1399  0.0645  0.4930
 5792SOL    HW118817   2.305   5.486   8.710 -0.6752 -0.0135 -0.4259
 5792SOL    HW218818   2.366   5.565   8.596 -1.2127 -1.4371 -1.7512
 5793SOL     OW18819   2.754   2.963   7.880  0.3374 -0.0133  0.3590
 5793SOL    HW118820   2.772   3.040   7.825  0.1590  0.2014  0.5991
 5793SOL    HW218821   2.840   2.931   7.906  0.4520 -0.5187 -0.5985
 5794SOL     OW18822   0.113   5.717  11.032  0.0010  0.1485 -0.2746
 5794SOL    HW118823   0.063   5.766  10.967 -0.3931  1.2983  0.8652
 5794SOL    HW218824   0.108   5.770  11.112  1.7818 -0.4453  0.2811
 5795SOL     OW18825   3.087   0.957  11.946 -0.0630 -0.3465  0.1065
 5795SOL    HW118826   3.122   1.022  12.007  1.1395 -0.3231 -0.5740
 5795SOL    HW218827   3.003   0.994  11.918 -0.1310  0.1531  0.9088
 5796SOL     OW18828   5.401   2.255   6.676 -0.3312  0.1210  0.5197
 5796SOL    HW118829   5.410   2.160   6.666 -1.0221  0.1360 -0.3681
 5796SOL    HW218830   5.308   2.269   6.695 -0.5866  0.7128 -0.9574
 5797SOL     OW18831   2.648   1.429   0.157 -0.4784 -0.4321  0.1900
 5797SOL    HW118832   2.582   1.429   0.087  1.2090  4.2581 -1.7949
 5797SOL    HW218833   2.731   1.419   0.111  0.5073 -1.6456  2.1262
 5798SOL     OW18834   1.958   3.856   8.810  0.0832  0.6485  0.2171
 5798SOL    HW118835   1.993   3.856   8.899  0.0377 -0.3382  0.2395
 5798SOL    HW218836   1.908   3.938   8.804 -0.9951  0.1161  1.5214
 5799SOL     OW18837   3.807   7.123   0.689 -0.1315  0.3711 -1.0404
 5799SOL    HW118838   3.716   7.097   0.679  0.1367 -1.0992  0.0937
 5799SOL    HW218839   3.805   7.192   0.756 -0.3699  0.0341 -0.6967
 5800SOL     OW18840   2.120   5.709   4.027 -0.1513 -0.3516  0.6414
 5800SOL    HW118841   2.180   5.774   3.993  1.2795 -2.3968 -1.0132
 5800SOL    HW218842   2.035   5.753   4.030  0.2746  0.9204 -2.7091
 5801SOL     OW18843   6.650   3.286  12.336  0.1781  0.4598  0.1786
 5801SOL    HW118844   6.576   3.259  12.282 -1.0374  1.4459  1.2759
 5801SOL    HW218845   6.704   3.340  12.279  0.0124 -0.1844 -0.6029
 5802SOL     OW18846   5.498   7.268   6.187 -0.5010 -0.7091  0.4538
 5802SOL    HW118847   5.561   7.259   6.258  0.5175 -2.0886 -0.5711
 5802SOL    HW218848   5.546   7.241   6.109 -1.4590  1.1105 -0.8472
 5803SOL     OW18849   6.525   6.633  10.175  0.0744  0.1550  0.3065
 5803SOL    HW118850   6.540   6.725  10.154  0.3029  0.1181  0.3033
 5803SOL    HW218851   6.568   6.585  10.105  1.4147  0.0216  1.1652
 5804SOL     OW18852   0.757   5.422  11.451 -0.0065  0.4202  0.2093
 5804SOL    HW118853   0.700   5.373  11.510 -0.6144  0.0348 -0.6764
 5804SOL    HW218854   0.844   5.384  11.465 -0.0234  0.7645  1.3034
 5805SOL     OW18855   1.739   4.605   8.096  0.6245 -0.1240  0.3691
 5805SOL    HW118856   1.748   4.674   8.030 -0.4893 -0.2937  0.0044
 5805SOL    HW218857   1.825   4.563   8.099  0.7280 -0.0621 -0.9381
 5806SOL     OW18858   6.776   4.345  11.703 -0.1820 -0.2307 -0.0258
 5806SOL    HW118859   6.732   4.286  11.642 -0.1809  0.1024 -0.3499
 5806SOL    HW218860   6.713   4.356  11.774  0.3140 -1.6404  0.6855
 5807SOL     OW18861   2.263   0.765   6.184  0.1310 -0.6295 -0.1966
 5807SOL    HW118862   2.288   0.845   6.137 -3.5690  1.0469  0.3434
 5807SOL    HW218863   2.219   0.711   6.119  0.3474 -1.0643  0.0146
 5808SOL     OW18864   1.828   0.415   8.933  0.1903 -1.0477 -0.0464
 5808SOL    HW118865   1.892   0.474   8.894 -0.3899  0.5333  1.2717
 5808SOL    HW218866   1.834   0.431   9.027 -1.3879 -1.6335  0.1929
 5809SOL     OW18867   3.396   1.955   4.602 -0.4120 -0.2062 -0.0610
 5809SOL    HW118868   3.390   2.011   4.679 -0.4990  0.4258 -0.5177
 5809SOL    HW218869   3.488   1.927   4.600 -0.1185  0.7553 -0.3981
 5810SOL     OW18870   6.876   3.663   9.958  0.5136 -0.4774 -0.1693
 5810SOL    HW118871   6.799   3.687   9.906 -0.4158  0.2538  1.4923
 5810SOL    HW218872   6.860   3.571   9.982  0.6417 -0.6248 -0.6331
 5811SOL     OW18873   5.533   2.875   3.980 -0.4340  0.5585 -0.5806
 5811SOL    HW118874   5.627   2.859   3.973 -0.5727  0.3157 -2.3243
 5811SOL    HW218875   5.497   2.847   3.895 -2.1917 -0.1194  0.3386
 5812SOL     OW18876   6.672   5.727   6.291  0.4218 -0.4234 -0.5904
 5812SOL    HW118877   6.690   5.752   6.382  0.9991  0.9578 -1.0579
 5812SOL    HW218878   6.759   5.715   6.252  0.2354  0.6754 -1.3906
 5813SOL     OW18879   7.679   5.787  10.661 -0.0620  0.1019 -0.6381
 5813SOL    HW118880   7.666   5.881  10.673 -1.1472 -0.1685  0.5138
 5813SOL    HW218881   7.599   5.747  10.695  0.4243 -1.2441 -1.0177
 5814SOL     OW18882   3.949   7.312   7.686 -0.0700 -0.3176  0.0413
 5814SOL    HW118883   3.985   7.389   7.641  0.0409 -0.0097  0.6434
 5814SOL    HW218884   3.861   7.302   7.650  0.9278 -1.6865 -2.2103
 5815SOL     OW18885   0.739   0.345   6.137 -0.1683 -0.9582 -0.2151
 5815SOL    HW118886   0.742   0.403   6.214 -0.5038  0.0443 -0.9260
 5815SOL    HW218887   0.790   0.268   6.163  3.9491  1.3481 -0.6151
 5816SOL     OW18888   6.176   6.961   1.312 -0.8194  0.1175 -0.0916
 5816SOL    HW118889   6.109   6.893   1.304 -0.1434 -0.7786  1.4795
 5816SOL    HW218890   6.251   6.916   1.351  0.0686  1.5050 -0.1465
 5817SOL     OW18891   6.509   3.390   0.182  0.0808 -0.2721 -0.0776
 5817SOL    HW118892   6.562   3.347   0.114 -0.8737 -0.2881 -0.8344
 5817SOL    HW218893   6.552   3.366   0.264 -0.0339 -2.1616 -0.5106
 5818SOL     OW18894   5.452   5.372   0.701 -0.0652  0.4789 -0.2699
 5818SOL    HW118895   5.457   5.456   0.655 -0.5325  1.0416  0.6578
 5818SOL    HW218896   5.393   5.389   0.775 -1.7810 -1.1974 -1.1694
 5819SOL     OW18897   1.506   5.230   4.064 -0.5479  0.0230 -0.9795
 5819SOL    HW118898   1.456   5.308   4.087 -1.3296 -1.0331  1.2208
 5819SOL    HW218899   1.580   5.262   4.013 -2.7461  1.7786 -3.2638
 5820SOL     OW18900   1.595   4.619   5.740  0.2819  0.0188 -0.0805
 5820SOL    HW118901   1.508   4.640   5.772  0.5701  2.7568 -0.8511
 5820SOL    HW218902   1.653   4.632   5.815  0.1902 -0.5597  0.0969
 5821SOL     OW18903   1.180   7.172   9.378  0.2198 -0.5902 -0.2831
 5821SOL    HW118904   1.086   7.155   9.373  0.1837 -0.3698 -0.3696
 5821SOL    HW218905   1.200   7.222   9.298  0.5373 -1.2308 -0.6107
 5822SOL     OW18906   2.556   0.896   2.167 -0.1784  0.3520  0.0220
 5822SOL    HW118907   2.540   0.984   2.133  1.3080  0.1565 -1.3366
 5822SOL    HW218908   2.496   0.887   2.241 -1.2436  2.0310 -0.5819
 5823SOL     OW18909   0.743   5.453   8.474 -0.4083  0.8297 -0.0794
 5823SOL    HW118910   0.767   5.432   8.564 -1.8743  0.9557  0.3647
 5823SOL    HW218911   0.771   5.377   8.423  2.0132  1.4688  0.1592
 5824SOL     OW18912   5.615   1.158   0.507 -0.6294  0.6118  0.2488
 5824SOL    HW118913   5.635   1.251   0.509  1.8530  0.1512 -0.4658
 5824SOL    HW218914   5.617   1.131   0.599  1.1902  0.8137  0.2970
 5825SOL     OW18915   7.690   1.241   4.837 -0.1840 -0.2451  0.2611
 5825SOL    HW118916   7.727   1.306   4.779 -0.1863 -1.7431 -1.5274
 5825SOL    HW218917   7.687   1.161   4.784  0.0620 -1.7683  2.4244
 5826SOL     OW18918   6.074   6.007   4.240 -0.1792  0.3086 -0.5683
 5826SOL    HW118919   6.083   5.913   4.257  1.5486  0.1901 -1.8241
 5826SOL    HW218920   5.994   6.015   4.187  0.1509 -0.5833 -1.2194
 5827SOL     OW18921   0.269   4.720   0.063  0.0871 -0.9496  0.1862
 5827SOL    HW118922   0.299   4.632   0.040  0.4355 -0.5131 -1.1182
 5827SOL    HW218923   0.312   4.777  -0.000 -1.4040 -0.0102 -0.0251
 5828SOL     OW18924   0.529   4.140   8.135  0.2533 -0.1311  0.2312
 5828SOL    HW118925   0.521   4.123   8.229  3.0750  1.7073  0.9304
 5828SOL    HW218926   0.492   4.228   8.123  0.7679  0.0444 -0.1522
 5829SOL     OW18927   6.913   1.928   0.500  0.4185  0.7187 -0.3554
 5829SOL    HW118928   6.955   1.903   0.417 -0.5879  0.2492 -0.7380
 5829SOL    HW218929   6.819   1.930   0.480  0.0869 -0.2780  0.9965
 5830SOL     OW18930   2.866   4.639   6.254  0.4004 -0.1187  0.1538
 5830SOL    HW118931   2.822   4.689   6.185  2.2288  2.7258  0.9139
 5830SOL    HW218932   2.908   4.566   6.207  0.2220  0.7963 -1.5078
 5831SOL     OW18933   7.864   1.521  10.766  0.2432 -0.5275  0.5130
 5831SOL    HW118934   7.776   1.514  10.728  0.7473 -1.7240 -0.5078
 5831SOL    HW218935   7.862   1.603  10.815 -1.1508 -0.0603 -0.2489
 5832SOL     OW18936   3.455   4.286   4.291 -0.3237 -0.2610 -0.0108
 5832SOL    HW118937   3.479   4.194   4.294 -0.3364 -0.2942 -0.8491
 5832SOL    HW218938   3.477   4.319   4.379  0.5450 -0.8414 -0.0012
 5833SOL     OW18939   1.294   4.906   2.774  0.0588  0.0790  0.0757
 5833SOL    HW118940   1.339   4.834   2.818  0.8517  0.8807  0.6192
 5833SOL    HW218941   1.204   4.876   2.765  0.4170 -1.0562  0.1097
 5834SOL     OW18942   5.983   5.897  10.005 -0.0198 -0.8591 -0.1759
 5834SOL    HW118943   6.049   5.935   9.947 -1.1166  1.4617 -0.0385
 5834SOL    HW218944   6.033   5.865  10.080  1.0853 -0.5091 -0.7304
 5835SOL     OW18945   2.407   1.905  11.235  1.1272  0.2097 -0.4157
 5835SOL    HW118946   2.338   1.971  11.245  1.5128  0.4863  0.6264
 5835SOL    HW218947   2.488   1.954  11.248  1.4927 -0.2123 -1.0875
 5836SOL     OW18948   4.273   5.092   4.419 -0.0203 -0.0032 -0.3265
 5836SOL    HW118949   4.358   5.061   4.389 -0.4373  0.0405 -1.5818
 5836SOL    HW218950   4.293   5.143   4.498  0.8652 -1.8884  0.7409
 5837SOL     OW18951   4.416   7.425   0.379 -0.3375 -0.1300  0.3334
 5837SOL    HW118952   4.359   7.469   0.316 -0.5936 -1.4778 -0.4145
 5837SOL    HW218953   4.392   7.333   0.373  0.4541 -0.4404  1.5670
 5838SOL     OW18954   5.441   6.404  10.698 -0.0211 -0.3563 -0.2987
 5838SOL    HW118955   5.465   6.315  10.669  1.8483 -0.0360  0.1316
 5838SOL    HW218956   5.519   6.436  10.743 -0.8335  1.3506 -0.0428
 5839SOL     OW18957   5.693   1.336   2.193 -0.6738 -0.2413  0.0098
 5839SOL    HW118958   5.691   1.381   2.109 -1.8207  0.3738  0.3487
 5839SOL    HW218959   5.784   1.308   2.203 -0.2761  0.6558 -0.9175
 5840SOL     OW18960   1.828   6.678  11.104  0.7544  0.2512 -0.3755
 5840SOL    HW118961   1.854   6.706  11.016  1.1769  0.4951 -0.1717
 5840SOL    HW218962   1.910   6.667  11.152  0.4863  1.7305  0.4840
 5841SOL     OW18963   3.461   1.246   6.536  0.2337  0.3458  0.4132
 5841SOL    HW118964   3.387   1.228   6.594  0.5000 -0.6081  0.4845
 5841SOL    HW218965   3.531   1.190   6.569  1.1226  1.5473  0.5984
 5842SOL     OW18966   5.231   0.335   9.079 -0.4471  0.2897  0.3733
 5842SOL    HW118967   5.227   0.247   9.040 -1.2497  1.2081 -1.7293
 5842SOL    HW218968   5.304   0.329   9.141  1.6130 -1.0302 -1.9853
 5843SOL     OW18969   3.751   0.820   2.557 -0.3762  0.7829  0.0178
 5843SOL    HW118970   3.790   0.817   2.470  1.8686  3.1257  0.8206
 5843SOL    HW218971   3.768   0.733   2.594 -1.0258 -0.1100 -1.6937
 5844SOL     OW18972   4.872   1.372  12.143  0.1190  0.4305  0.0210
 5844SOL    HW118973   4.893   1.301  12.204 -0.8489  0.6241  0.5970
 5844SOL    HW218974   4.924   1.446  12.174  0.6753  0.1464 -0.2207
 5845SOL     OW18975   6.501   3.984   2.967  0.7906  0.2768  0.4122
 5845SOL    HW118976   6.539   3.980   2.879  1.2738  0.3321  0.6195
 5845SOL    HW218977   6.511   3.895   3.001  0.1345  0.1222  0.2192
 5846SOL     OW18978   2.015   7.567   6.062  0.0168 -0.1990  0.2556
 5846SOL    HW118979   2.071   7.509   6.114  0.8106  0.2739 -0.0412
 5846SOL    HW218980   1.944   7.592   6.121  0.8024  0.1845  1.0622
 5847SOL     OW18981   6.190   3.468   6.960  0.2494  0.0801  0.1216
 5847SOL    HW118982   6.270   3.457   6.909 -0.0690  1.4215 -0.7304
 5847SOL    HW218983   6.179   3.385   7.007  0.0467 -1.6110 -2.7185
 5848SOL     OW18984   3.428   6.788  11.941  0.2282  0.3409 -0.4272
 5848SOL    HW118985   3.412   6.801  12.034  0.5108 -1.1565 -0.1510
 5848SOL    HW218986   3.371   6.715  11.916  1.9816 -0.9520 -0.8340
 5849SOL     OW18987   3.080   6.237   8.091  0.4731 -0.0739  0.5850
 5849SOL    HW118988   3.058   6.309   8.033  0.7208 -0.8044 -0.4540
 5849SOL    HW218989   2.999   6.218   8.138 -0.0688 -0.2225 -0.3809
 5850SOL     OW18990   6.413   6.132   8.352 -0.7151 -0.2922  0.0195
 5850SOL    HW118991   6.410   6.207   8.412 -0.4243 -0.5428  0.3543
 5850SOL    HW218992   6.325   6.128   8.315 -0.2644  1.2883 -1.3521
 5851SOL     OW18993   6.089   3.485   4.378 -0.3138 -0.9058  0.3364
 5851SOL    HW118994   6.131   3.555   4.428 -0.8104 -0.8880  0.7424
 5851SOL    HW218995   6.019   3.528   4.329  0.9476 -0.7093 -1.3844
 5852SOL     OW18996   0.430   7.444   4.989  0.0981 -0.6263  0.2182
 5852SOL    HW118997   0.515   7.474   4.958 -0.0206  0.5897  1.0204
 5852SOL    HW218998   0.390   7.521   5.029 -1.2648 -1.2493  0.1133
 5853SOL     OW18999   7.381   4.760   3.452 -0.1944  0.5575  0.2208
 5853SOL    HW119000   7.367   4.696   3.522 -0.3803  2.3859  1.9552
 5853SOL    HW219001   7.297   4.805   3.442 -0.3728 -0.1116 -1.7157
 5854SOL     OW19002   1.337   5.282   1.332  0.1360  0.0419 -0.8277
 5854SOL    HW119003   1.308   5.334   1.257 -1.7691 -0.0388 -0.2198
 5854SOL    HW219004   1.315   5.337   1.408  2.2323  0.2217 -0.3054
 5855SOL     OW19005   7.422   5.882  11.107 -0.2137  0.3328 -0.0484
 5855SOL    HW119006   7.360   5.955  11.105 -0.2123  0.4476  2.2529
 5855SOL    HW219007   7.371   5.808  11.139 -0.4099 -0.9875 -3.0179
 5856SOL     OW19008   7.738   0.359   4.612  0.6097 -0.1276  0.5498
 5856SOL    HW119009   7.790   0.292   4.567  0.3165  0.2249 -0.3409
 5856SOL    HW219010   7.647   0.335   4.593  0.5090  1.1318 -0.7423
 5857SOL     OW19011   4.000   2.184   6.536  0.6849 -0.4485 -0.1628
 5857SOL    HW119012   3.991   2.277   6.514 -1.0084 -0.7943 -1.0977
 5857SOL    HW219013   4.088   2.160   6.505 -0.3543 -0.1135 -3.7806
 5858SOL     OW19014   3.956   1.395   9.342  0.2191  0.4468 -0.0703
 5858SOL    HW119015   3.961   1.300   9.335  0.5731  0.4376  0.2698
 5858SOL    HW219016   4.039   1.420   9.382 -0.4157  0.7760  1.0889
 5859SOL     OW19017   4.723   6.480   9.569 -0.2159 -0.0196  0.1543
 5859SOL    HW119018   4.714   6.509   9.478  0.0494  0.5908  0.3203
 5859SOL    HW219019   4.667   6.402   9.574  1.2527 -1.2270 -1.0458
 5860SOL     OW19020   7.660   0.909   6.550  0.1413 -0.2531  0.1735
 5860SOL    HW119021   7.752   0.885   6.548 -0.4470 -2.7835  0.6280
 5860SOL    HW219022   7.631   0.906   6.459  0.5306  0.8338 -0.0046
 5861SOL     OW19023   4.171   4.129   1.780 -0.7442 -0.3024 -0.1837
 5861SOL    HW119024   4.123   4.161   1.856 -0.3950 -1.4912  0.5581
 5861SOL    HW219025   4.120   4.055   1.748 -0.8097  0.0942 -1.0312
 5862SOL     OW19026   6.670   6.567   3.399 -0.7501  0.0268 -0.3960
 5862SOL    HW119027   6.691   6.500   3.334  0.1022 -0.4573  0.3635
 5862SOL    HW219028   6.725   6.641   3.375 -0.4769 -0.1312 -0.2597
 5863SOL     OW19029   1.531   3.279   8.213 -0.2115  0.0990 -0.4671
 5863SOL    HW119030   1.545   3.354   8.271 -1.9262  0.3350 -0.3197
 5863SOL    HW219031   1.438   3.261   8.219  0.0023 -1.4355 -1.2775
 5864SOL     OW19032   4.023   4.289   7.878 -0.8555 -0.3495 -0.1535
 5864SOL    HW119033   3.942   4.244   7.900  1.1253 -3.0208  2.5911
 5864SOL    HW219034   4.055   4.322   7.962  0.6192  1.1714 -1.2581
 5865SOL     OW19035   1.594   7.412   4.219 -0.9858  0.0884 -0.1674
 5865SOL    HW119036   1.551   7.336   4.180  0.1453  0.3879 -2.1868
 5865SOL    HW219037   1.542   7.487   4.190  0.3439  0.3875 -1.9933
 5866SOL     OW19038   0.468   2.279   6.332  0.2152  0.0858  0.5364
 5866SOL    HW119039   0.432   2.280   6.243  0.4308 -2.0828  0.3799
 5866SOL    HW219040   0.393   2.296   6.388 -0.5447 -1.5145  0.0587
 5867SOL     OW19041   2.997   1.942   1.881  0.1124 -0.1037  0.0014
 5867SOL    HW119042   2.975   2.027   1.841 -1.3318  0.7759  2.4418
 5867SOL    HW219043   2.938   1.880   1.838 -1.7099  0.8840  0.9496
 5868SOL     OW19044   1.663   7.355   5.570  0.0383  0.3417  0.2107
 5868SOL    HW119045   1.668   7.438   5.618  0.8807  0.2329  0.3261
 5868SOL    HW219046   1.573   7.351   5.537  0.2251  1.6973 -0.5136
 5869SOL     OW19047   5.650   5.908  11.803 -0.0146 -0.6229 -0.0673
 5869SOL    HW119048   5.734   5.934  11.842 -0.1974 -1.1532  0.7202
 5869SOL    HW219049   5.648   5.953  11.719  0.8207 -0.1743  0.1315
 5870SOL     OW19050   6.532   5.198   8.970 -0.3754 -0.2061  0.5855
 5870SOL    HW119051   6.477   5.132   8.929 -1.0830  1.5641 -1.4866
 5870SOL    HW219052   6.479   5.232   9.042 -0.6858 -0.7047  0.5960
 5871SOL     OW19053   4.917   2.367   2.015 -0.5878 -0.2472 -0.0960
 5871SOL    HW119054   4.858   2.313   2.068 -0.5781  1.6419  1.9700
 5871SOL    HW219055   4.986   2.394   2.076  0.1583  0.9434 -1.4148
 5872SOL     OW19056   5.118   5.021   6.797  0.0053  0.1243 -0.0882
 5872SOL    HW119057   5.064   4.980   6.730 -0.3300 -0.6832  0.6571
 5872SOL    HW219058   5.200   5.041   6.753  0.1536 -1.3065 -0.4918
 5873SOL     OW19059   7.173   1.406   1.898 -0.3866  0.4433 -0.4432
 5873SOL    HW119060   7.145   1.326   1.942  0.6729 -0.4578 -1.3490
 5873SOL    HW219061   7.092   1.445   1.864 -1.0246  0.2951  0.8433
 5874SOL     OW19062   7.713   7.112   4.895 -0.4878  0.0844  0.0600
 5874SOL    HW119063   7.630   7.133   4.853 -1.1281  1.1408  1.7437
 5874SOL    HW219064   7.727   7.183   4.958  2.0755  0.3312 -0.6656
 5875SOL     OW19065   5.429   0.200  11.039 -0.2626  0.0356 -0.4594
 5875SOL    HW119066   5.420   0.292  11.015 -0.7367  0.7041  1.9496
 5875SOL    HW219067   5.338   0.168  11.047 -0.1041 -0.5772 -0.9818
 5876SOL     OW19068   2.269   3.864   4.994  0.0053  0.0183  0.0817
 5876SOL    HW119069   2.244   3.919   5.069  0.6342  1.6601 -0.8684
 5876SOL    HW219070   2.364   3.867   4.993 -0.0160  0.6715 -1.2488
 5877SOL     OW19071   7.151   2.644   2.432 -0.4380 -0.4570 -0.0620
 5877SOL    HW119072   7.064   2.641   2.470 -0.6209  0.5165 -0.3922
 5877SOL    HW219073   7.165   2.736   2.410  0.8018 -0.5392  0.2941
 5878SOL     OW19074   2.102   5.568   8.170 -0.6315  0.2595 -0.0001
 5878SOL    HW119075   2.060   5.649   8.200 -2.6321 -0.7789  0.1410
 5878SOL    HW219076   2.093   5.508   8.243  0.8079 -0.1367 -0.1225
 5879SOL     OW19077   3.280   3.898  10.214  1.0513 -0.2351  0.3511
 5879SOL    HW119078   3.267   3.806  10.192 -0.9184  0.0014  0.3824
 5879SOL    HW219079   3.247   3.906  10.303 -1.0857  0.9206 -0.4577
 5880SOL     OW19080   1.678   5.674   2.789 -0.3484  0.6842 -0.0721
 5880SOL    HW119081   1.745   5.638   2.847 -0.9876 -0.1352  0.1756
 5880SOL    HW219082   1.604   5.614   2.797 -0.5274  0.6629 -1.5925
 5881SOL     OW19083   7.468   4.050   9.136 -0.1872 -0.5217  0.1811
 5881SOL    HW119084   7.377   4.021   9.133 -0.3955 -0.0485  1.3068
 5881SOL    HW219085   7.472   4.120   9.071  0.0670 -2.2940 -1.8086
 5882SOL     OW19086   6.357   3.229   8.001 -0.6259 -0.3809  0.4118
 5882SOL    HW119087   6.314   3.270   8.076 -0.0718 -1.3462  1.2764
 5882SOL    HW219088   6.409   3.158   8.038  1.3848  0.4458 -0.6389
 5883SOL     OW19089   2.201   6.387   5.445  0.4394  0.5375  0.2099
 5883SOL    HW119090   2.261   6.419   5.512  0.0694  0.4974  0.5659
 5883SOL    HW219091   2.116   6.424   5.470  0.3459  0.7313 -0.3801
 5884SOL     OW19092   1.387   1.882   7.639  0.3025  0.0014  0.5493
 5884SOL    HW119093   1.434   1.895   7.557  0.0705 -0.5984  0.3110
 5884SOL    HW219094   1.401   1.962   7.688 -3.1458  2.3035 -1.7980
 5885SOL     OW19095   0.180   4.682   3.346 -0.0561 -0.1558 -0.1890
 5885SOL    HW119096   0.140   4.713   3.428 -0.8358 -0.3997 -0.4680
 5885SOL    HW219097   0.193   4.588   3.360 -0.8842 -0.3433 -0.6097
 5886SOL     OW19098   6.002   5.862   5.374 -0.5927 -0.0545 -0.5588
 5886SOL    HW119099   6.069   5.904   5.320  0.9769  0.1713  1.4093
 5886SOL    HW219100   6.043   5.780   5.403 -0.8230  0.4279  1.2680
 5887SOL     OW19101   2.869   6.046   0.847  0.4147  0.0696 -0.5263
 5887SOL    HW119102   2.885   6.064   0.754 -0.6089 -1.4975 -1.0320
 5887SOL    HW219103   2.803   5.977   0.848 -0.1590  0.5787  1.3924
 5888SOL     OW19104   6.148   5.959   6.518  0.4428  0.0478  0.5852
 5888SOL    HW119105   6.168   5.888   6.579  0.7808 -0.3717  0.0015
 5888SOL    HW219106   6.175   6.039   6.563  1.5628 -0.3355  0.6130
 5889SOL     OW19107   1.909   2.968   7.767 -0.5586 -0.0834 -0.1541
 5889SOL    HW119108   1.927   3.014   7.685 -0.9786 -0.7558 -0.6339
 5889SOL    HW219109   1.882   3.037   7.828 -0.2133  0.4241 -0.5661
 5890SOL     OW19110   2.503   1.273   5.312 -0.2223  0.2645  0.1147
 5890SOL    HW119111   2.517   1.355   5.266  1.7177  0.3000  0.6814
 5890SOL    HW219112   2.590   1.248   5.345 -1.0844 -1.0423  1.5705
 5891SOL     OW19113   4.242   4.549  11.019  0.3072 -0.1084  0.1494
 5891SOL    HW119114   4.281   4.627  11.061 -0.4847  0.4055 -0.0461
 5891SOL    HW219115   4.285   4.475  11.062 -0.0685  0.4150  1.4817
 5892SOL     OW19116   7.137   3.481   3.490 -0.2201 -0.0907  0.1989
 5892SOL    HW119117   7.108   3.475   3.581  0.0120 -0.3131  0.2606
 5892SOL    HW219118   7.213   3.539   3.493 -0.0273 -0.3406  0.1931
 5893SOL     OW19119   7.703   2.943   6.491  0.1183  0.4470 -0.1979
 5893SOL    HW119120   7.712   2.923   6.584 -0.3848 -2.5418 -0.6861
 5893SOL    HW219121   7.750   2.871   6.447  0.2343  1.7173 -2.2688
 5894SOL     OW19122   4.618   5.971   2.040  0.9055 -0.0608  0.1694
 5894SOL    HW119123   4.593   5.953   2.131  1.4312 -1.1707  0.1208
 5894SOL    HW219124   4.698   6.022   2.047  0.3897  0.7336  0.3248
 5895SOL     OW19125   5.854   5.941   8.554  0.1530 -0.0847 -0.1083
 5895SOL    HW119126   5.833   5.959   8.646  0.1917 -0.4291 -0.0288
 5895SOL    HW219127   5.784   5.983   8.504  0.3361  0.4302  0.0606
 5896SOL     OW19128   4.232   4.779   3.968  0.6489 -0.1182 -0.2623
 5896SOL    HW119129   4.293   4.826   3.912  1.3032 -0.6144  0.0175
 5896SOL    HW219130   4.235   4.825   4.051 -1.6749  1.7261 -1.1048
 5897SOL     OW19131   7.179   1.290   1.505 -0.0905 -0.3447  0.2111
 5897SOL    HW119132   7.148   1.363   1.452  0.3557  0.7245  1.3737
 5897SOL    HW219133   7.270   1.312   1.526  0.4511 -1.8411 -0.4104
 5898SOL     OW19134   0.296   0.336   1.667 -0.0323 -0.5457  0.5047
 5898SOL    HW119135   0.206   0.363   1.648  0.3917  0.3037 -0.3253
 5898SOL    HW219136   0.294   0.240   1.660 -0.3291 -0.4064 -2.0139
 5899SOL     OW19137   4.160   2.368   2.888  0.8146 -0.4446 -0.3686
 5899SOL    HW119138   4.201   2.354   2.973 -0.9708 -0.7328  0.4936
 5899SOL    HW219139   4.074   2.326   2.895 -0.8877  2.6170 -1.0299
 5900SOL     OW19140   5.535   2.069  11.875 -0.5527  0.1546  0.5483
 5900SOL    HW119141   5.535   2.039  11.966 -1.6652 -0.3921  0.3958
 5900SOL    HW219142   5.463   2.132  11.871 -0.4433  0.2497  0.0693
 5901SOL     OW19143   6.165   4.288   9.939 -0.4663 -0.1597  0.6944
 5901SOL    HW119144   6.113   4.221   9.893  0.3994  0.5584 -1.4899
 5901SOL    HW219145   6.250   4.245   9.955 -0.7326 -0.3736  1.5570
 5902SOL     OW19146   5.952   5.137   5.796 -0.0125 -0.0800 -0.9883
 5902SOL    HW119147   6.032   5.085   5.787 -0.5175 -2.1027  3.4426
 5902SOL    HW219148   5.983   5.227   5.812  1.3816 -0.6692 -0.2055
 5903SOL     OW19149   7.440   3.095   5.331 -0.4101  0.1908 -0.1586
 5903SOL    HW119150   7.400   3.120   5.415 -2.3166 -0.4434 -0.8151
 5903SOL    HW219151   7.452   3.000   5.338 -1.6346 -0.0488 -0.9814
 5904SOL     OW19152   1.762   4.156   9.734  0.2083 -0.6300  0.9891
 5904SOL    HW119153   1.822   4.223   9.765 -0.3481 -0.0309  0.7873
 5904SOL    HW219154   1.725   4.118   9.814  0.9977 -1.1508  1.1222
 5905SOL     OW19155   6.380   1.893  10.848  0.2824 -0.2304 -0.3028
 5905SOL    HW119156   6.415   1.862  10.764  2.6555 -1.1594  0.9358
 5905SOL    HW219157   6.286   1.901  10.833  0.7128  0.6168 -3.3424
 5906SOL     OW19158   2.168   5.588   5.558  0.2163  0.4153  0.2411
 5906SOL    HW119159   2.074   5.598   5.569  0.1030 -1.6348  1.9102
 5906SOL    HW219160   2.205   5.671   5.587 -1.1022  2.4526 -3.3354
 5907SOL     OW19161   0.624   6.645   2.753 -0.4975  0.0073 -0.0007
 5907SOL    HW119162   0.681   6.717   2.779 -0.6695  0.1663 -0.0608
 5907SOL    HW219163   0.597   6.604   2.835 -0.8788  0.3823  0.0651
 5908SOL     OW19164   4.418   1.970   6.180  0.2345  0.4316  0.6021
 5908SOL    HW119165   4.419   1.977   6.085  0.6790 -0.2772  0.5479
 5908SOL    HW219166   4.367   1.891   6.197  0.9746  0.0124  0.9127
 5909SOL     OW19167   7.044   3.302   4.738  0.1498 -0.0426  0.3112
 5909SOL    HW119168   7.010   3.386   4.770  0.8053  0.3449  0.0064
 5909SOL    HW219169   6.967   3.245   4.735 -0.4545  0.7740 -0.2217
 5910SOL     OW19170   6.133   1.646   3.910  0.0599  0.2763 -0.2675
 5910SOL    HW119171   6.200   1.580   3.896  0.3792  0.5571 -0.0831
 5910SOL    HW219172   6.174   1.710   3.969 -0.4085  0.3835 -0.0490
 5911SOL     OW19173   7.155   0.624   1.229  0.8198  0.0733  0.0812
 5911SOL    HW119174   7.086   0.675   1.271  0.1774 -0.3300 -0.4573
 5911SOL    HW219175   7.162   0.660   1.140  1.1205 -0.0541  0.0505
 5912SOL     OW19176   2.205   4.276   4.908 -0.0894  0.2305  0.0864
 5912SOL    HW119177   2.281   4.247   4.857  0.6355  0.7933  0.8345
 5912SOL    HW219178   2.225   4.366   4.932  0.1160 -0.3748  2.3601
 5913SOL     OW19179   0.121   7.369   5.547  0.0104 -0.4034  0.3246
 5913SOL    HW119180   0.067   7.448   5.555 -0.6840 -0.6875 -1.1969
 5913SOL    HW219181   0.194   7.396   5.491 -0.2697 -0.8459 -0.2630
 5914SOL     OW19182   5.013   4.286   0.298 -0.1209  0.2189 -0.0469
 5914SOL    HW119183   5.055   4.206   0.267 -0.1573 -0.3077  1.2052
 5914SOL    HW219184   4.928   4.256   0.331 -0.3379  0.8524 -0.0245
 5915SOL     OW19185   5.955   6.266  12.319  0.1217  0.6240 -0.6137
 5915SOL    HW119186   5.950   6.244  12.226 -0.5061 -0.8007 -0.2545
 5915SOL    HW219187   5.864   6.281  12.346  0.3389  1.5346 -0.3221
 5916SOL     OW19188   7.014   4.249   4.565 -0.0589  0.0211 -0.2336
 5916SOL    HW119189   7.102   4.213   4.569  0.8545  1.6938 -2.5582
 5916SOL    HW219190   7.002   4.296   4.648  1.3222 -0.0551  0.0173
 5917SOL     OW19191   2.471   5.444   6.612  0.4681  0.2326 -0.2375
 5917SOL    HW119192   2.376   5.444   6.604  0.3455  0.1196  1.0163
 5917SOL    HW219193   2.496   5.536   6.602  0.0571  0.4988  0.9956
 5918SOL     OW19194   4.884   1.980   7.173 -0.3046  0.0089 -0.7016
 5918SOL    HW119195   4.883   1.905   7.232 -1.1612  0.0199 -0.6949
 5918SOL    HW219196   4.879   2.056   7.231  2.6938  0.2277 -0.5402
 5919SOL     OW19197   0.385   4.889   2.779 -0.4808 -0.2771 -0.5034
 5919SOL    HW119198   0.302   4.876   2.825 -0.6437  0.0849 -0.6809
 5919SOL    HW219199   0.452   4.882   2.847 -0.5081 -2.2669 -0.6252
 5920SOL     OW19200   0.174   2.711   3.161 -0.2341 -0.7593  0.0006
 5920SOL    HW119201   0.110   2.683   3.227 -3.1098 -0.6245 -2.5247
 5920SOL    HW219202   0.123   2.758   3.095  3.0877  3.0948 -0.2697
 5921SOL     OW19203   6.474   5.914  11.948 -0.4177 -0.1483 -0.1377
 5921SOL    HW119204   6.418   5.890  11.874 -1.0025  0.3147  0.1432
 5921SOL    HW219205   6.537   5.976  11.911 -1.1913  0.6811 -0.0935
 5922SOL     OW19206   7.431   2.306   7.339 -0.0468  0.4569 -0.2672
 5922SOL    HW119207   7.355   2.266   7.381 -0.5875  0.3762 -1.2768
 5922SOL    HW219208   7.466   2.237   7.282  0.5356  0.6276 -0.1217
 5923SOL     OW19209   2.279   4.991   1.976 -0.1393  0.4149  0.5834
 5923SOL    HW119210   2.321   4.994   2.062  0.3782  1.1640  0.3210
 5923SOL    HW219211   2.306   4.906   1.940  1.8444  1.1804  0.1123
 5924SOL     OW19212   1.053   7.785   5.983 -0.2424  0.0540  0.2430
 5924SOL    HW119213   1.005   7.866   5.965  0.7021  0.7676  0.7667
 5924SOL    HW219214   1.117   7.811   6.050  3.2100  0.0916 -2.7327
 5925SOL     OW19215   6.139   7.812   5.330  0.1097  0.2919  0.3976
 5925SOL    HW119216   6.118   7.906   5.332 -0.6241  0.1644 -0.3497
 5925SOL    HW219217   6.233   7.808   5.344  0.0039  1.0750  1.4240
 5926SOL     OW19218   2.855   5.242   2.615 -0.7650  0.1212 -0.3929
 5926SOL    HW119219   2.934   5.201   2.651 -1.7114 -1.5254 -0.1385
 5926SOL    HW219220   2.833   5.311   2.678  0.3327  0.4653 -0.3624
 5927SOL     OW19221   2.304   3.807   6.594  0.2017 -0.4955 -0.1136
 5927SOL    HW119222   2.379   3.840   6.644  0.2354  0.3330 -0.6961
 5927SOL    HW219223   2.236   3.872   6.607 -0.4449 -1.2505  0.4193
 5928SOL     OW19224   0.341   7.055   6.678 -0.3736 -0.0201  0.4867
 5928SOL    HW119225   0.404   7.119   6.711 -2.2082  1.4323  1.3700
 5928SOL    HW219226   0.314   7.089   6.592 -1.2409  0.3613  0.8909
 5929SOL     OW19227   0.689   3.359  11.361  0.3063 -0.4096  0.6875
 5929SOL    HW119228   0.754   3.422  11.393  0.2028 -0.0681  0.2247
 5929SOL    HW219229   0.734   3.313  11.290 -0.9119  1.9188 -1.7693
 5930SOL     OW19230   1.108   7.082   4.777  0.4655  0.3824  0.0890
 5930SOL    HW119231   1.199   7.060   4.795  0.7259  1.6510  0.4855
 5930SOL    HW219232   1.080   7.132   4.854 -0.7062 -0.3665  0.1662
 5931SOL     OW19233   3.707   5.107   2.028 -1.1072 -0.3679  0.0607
 5931SOL    HW119234   3.658   5.188   2.041  0.0190  0.2658  0.4800
 5931SOL    HW219235   3.798   5.130   2.047 -0.6676 -1.5709 -0.4589
 5932SOL     OW19236   6.830   2.781   6.572  0.4942 -0.1764  0.0577
 5932SOL    HW119237   6.831   2.806   6.665 -0.0007  0.3945 -0.0869
 5932SOL    HW219238   6.879   2.698   6.569 -1.6359 -1.5816  1.2368
 5933SOL     OW19239   4.091   0.572   3.823 -0.3226 -0.1951  0.1090
 5933SOL    HW119240   4.005   0.542   3.795 -1.1751  2.6104 -0.6255
 5933SOL    HW219241   4.149   0.550   3.749 -0.9063 -0.0524 -0.3994
 5934SOL     OW19242   6.753   7.575   8.765 -0.4155 -0.1632 -0.2140
 5934SOL    HW119243   6.791   7.520   8.833 -0.1290 -2.1204 -1.8780
 5934SOL    HW219244   6.659   7.577   8.786 -0.3620 -0.9140  0.1148
 5935SOL     OW19245   1.046   7.312   2.534  0.7477  0.1853 -0.5398
 5935SOL    HW119246   1.026   7.393   2.580  0.0568  0.0529 -0.6075
 5935SOL    HW219247   1.099   7.262   2.596  0.8111  0.5005 -0.3375
 5936SOL     OW19248   2.988   2.899   1.122 -0.1026  0.1212  0.0576
 5936SOL    HW119249   2.993   2.822   1.065  1.3122  0.3509 -0.1847
 5936SOL    HW219250   2.936   2.962   1.073 -1.5334 -0.7645  0.3878
 5937SOL     OW19251   0.895   0.182   8.829 -0.0962  0.3147 -0.3772
 5937SOL    HW119252   0.859   0.098   8.801 -0.5068  0.2745  0.2604
 5937SOL    HW219253   0.944   0.213   8.753 -0.1306 -0.3919 -0.6954
 5938SOL     OW19254   2.336   2.988   1.999  0.3805 -0.1288  0.2440
 5938SOL    HW119255   2.283   2.915   1.968  0.3961  0.0701 -0.2653
 5938SOL    HW219256   2.278   3.064   1.997  1.4140  0.8091 -3.4423
 5939SOL     OW19257   7.879   7.346   7.380  0.2353  0.2933 -0.5097
 5939SOL    HW119258   7.911   7.370   7.467 -1.0172 -1.3192  0.4473
 5939SOL    HW219259   7.937   7.275   7.352 -1.0996 -1.1477  0.2869
 5940SOL     OW19260   2.689   3.767   8.254  0.3765 -0.4477 -0.2679
 5940SOL    HW119261   2.766   3.714   8.235  0.3247 -0.4838 -0.3739
 5940SOL    HW219262   2.626   3.744   8.186  0.8363  0.7576 -1.1427
 5941SOL     OW19263   0.156   7.811  10.704 -0.2782  0.2447  0.5189
 5941SOL    HW119264   0.138   7.718  10.711  1.7906 -0.2431  0.1062
 5941SOL    HW219265   0.251   7.818  10.713 -0.4512  2.4000  1.3101
 5942SOL     OW19266   5.421   0.590   3.875  0.2326  0.0873 -0.1434
 5942SOL    HW119267   5.333   0.572   3.841  0.6745  0.9422 -1.8718
 5942SOL    HW219268   5.424   0.544   3.959 -1.7998 -0.0887 -0.1071
 5943SOL     OW19269   1.025   4.270   6.643  0.0639  0.3901  0.3902
 5943SOL    HW119270   0.977   4.210   6.586  0.5995  1.3026 -1.0812
 5943SOL    HW219271   0.961   4.296   6.709 -0.3455 -1.3112  0.7217
 5944SOL     OW19272   3.448   6.197   9.007  0.2918 -0.1118  0.0608
 5944SOL    HW119273   3.460   6.150   8.924 -1.4919  0.6767 -0.7143
 5944SOL    HW219274   3.450   6.289   8.982  1.3399  0.1887  1.1774
 5945SOL     OW19275   6.060   1.225   9.164  0.0333  0.0123 -0.2113
 5945SOL    HW119276   6.015   1.153   9.119 -1.0680 -0.2247  1.1980
 5945SOL    HW219277   6.049   1.300   9.106 -0.2819 -0.5658 -0.9144
 5946SOL     OW19278   0.791   7.792   3.562 -0.4156  0.2869 -0.3829
 5946SOL    HW119279   0.707   7.772   3.604 -0.7051  0.8029 -0.6932
 5946SOL    HW219280   0.848   7.820   3.633 -0.7123  0.5638 -0.2493
 5947SOL     OW19281   6.696   0.002   8.498  0.3498  0.8747  0.0639
 5947SOL    HW119282   6.603   0.021   8.510  0.3885  0.1608  1.8466
 5947SOL    HW219283   6.699  -0.092   8.481  0.7238  0.9800 -0.4770
 5948SOL     OW19284   5.666   2.371   2.152 -0.1662 -0.0116  0.3888
 5948SOL    HW119285   5.588   2.360   2.206  0.1956 -0.9167  0.7489
 5948SOL    HW219286   5.703   2.455   2.179 -1.9480  1.2877 -1.0189
 5949SOL     OW19287   3.739   7.501  11.264  0.3194 -0.7101 -0.1283
 5949SOL    HW119288   3.825   7.461  11.278  0.1068 -1.9236 -2.0149
 5949SOL    HW219289   3.757   7.595  11.260  1.5136 -0.9230 -0.1797
 5950SOL     OW19290   1.515   3.434   9.012  0.0819  0.3461  0.9716
 5950SOL    HW119291   1.437   3.479   8.978  0.3821 -0.8541 -1.5727
 5950SOL    HW219292   1.481   3.350   9.044  0.0784  0.6635  1.8243
 5951SOL     OW19293   1.498   3.140  11.996 -0.1106 -0.0489 -0.4182
 5951SOL    HW119294   1.439   3.090  12.052  1.1673 -0.6402  0.4484
 5951SOL    HW219295   1.585   3.127  12.034  0.4515  1.7123 -0.9993
 5952SOL     OW19296   3.641   1.267   9.646  0.0627 -0.0548  0.3163
 5952SOL    HW119297   3.684   1.286   9.563  0.6736  0.4014  0.7292
 5952SOL    HW219298   3.625   1.353   9.685 -0.0347 -0.2707  0.7584
 5953SOL     OW19299   2.797   6.292   3.958 -0.0906 -0.0478  0.0691
 5953SOL    HW119300   2.869   6.253   4.006  0.8008  0.9928 -0.3877
 5953SOL    HW219301   2.775   6.228   3.890  1.2407  0.1398 -0.5670
 5954SOL     OW19302   7.576   0.128   6.856 -0.1313 -0.3014 -0.0976
 5954SOL    HW119303   7.522   0.177   6.794  0.5765 -0.4465 -0.8483
 5954SOL    HW219304   7.544   0.038   6.850 -2.2983  0.2294  2.2271
 5955SOL     OW19305   1.854   5.680   1.864  0.3696  0.3959 -0.5726
 5955SOL    HW119306   1.824   5.637   1.783  1.2179  0.9777 -1.2189
 5955SOL    HW219307   1.949   5.668   1.863  0.4132  0.6279  0.2247
 5956SOL     OW19308   1.660   3.205   6.367 -0.3773 -0.1407 -0.9997
 5956SOL    HW119309   1.572   3.244   6.371 -0.0168  0.7979 -1.6393
 5956SOL    HW219310   1.657   3.148   6.290 -0.7881 -1.0821 -0.2954
 5957SOL     OW19311   2.540   2.044  11.569  0.5101  0.0922  0.1071
 5957SOL    HW119312   2.606   2.002  11.514  1.6931  1.5950  0.3462
 5957SOL    HW219313   2.590   2.088  11.638 -0.7947  0.4823  0.8355
 5958SOL     OW19314   4.316   6.212   7.437 -0.0785  0.5698 -0.2256
 5958SOL    HW119315   4.253   6.233   7.369 -1.5574 -1.7460  0.2770
 5958SOL    HW219316   4.363   6.135   7.404 -1.5839 -1.3089  1.6418
 5959SOL     OW19317   7.557   2.742   2.954  0.1829  0.3149  0.5925
 5959SOL    HW119318   7.543   2.810   2.888 -1.4198 -0.9087 -0.4043
 5959SOL    HW219319   7.511   2.775   3.032  0.4522  0.9075  0.5066
 5960SOL     OW19320   1.011   1.045   2.803 -0.1299 -0.4267  0.4279
 5960SOL    HW119321   0.996   1.031   2.709  0.6724  0.7956  0.0845
 5960SOL    HW219322   1.101   1.019   2.817 -0.9835 -3.1056  1.4547
 5961SOL     OW19323   4.157   4.966   0.620 -0.1474  0.2747 -0.6287
 5961SOL    HW119324   4.199   4.961   0.535  0.2269  0.2348 -0.4447
 5961SOL    HW219325   4.064   4.954   0.602  0.1716 -2.5584 -0.7383
 5962SOL     OW19326   3.410   7.686   2.328  0.0545 -0.3513  0.0857
 5962SOL    HW119327   3.440   7.756   2.386  3.0975  0.3625 -2.1168
 5962SOL    HW219328   3.490   7.639   2.305 -1.0632 -0.9087 -3.0616
 5963SOL     OW19329   0.184   2.014  12.246  0.1708  0.1036  0.2309
 5963SOL    HW119330   0.230   2.097  12.243  1.2640 -0.5156 -1.8161
 5963SOL    HW219331   0.101   2.034  12.288  0.4126  2.2137 -0.2063
 5964SOL     OW19332   3.771   0.749   0.078  0.1652 -0.3550 -0.7436
 5964SOL    HW119333   3.804   0.659   0.083 -0.6078 -0.6624 -1.0226
 5964SOL    HW219334   3.832   0.794   0.019  0.4951 -0.7195 -0.6881
 5965SOL     OW19335   6.497   5.384   6.061 -0.2871  0.1556  0.3947
 5965SOL    HW119336   6.502   5.464   6.008 -0.4890 -0.1963 -0.1638
 5965SOL    HW219337   6.521   5.413   6.149 -0.2298  0.8075  0.1762
 5966SOL     OW19338   3.699   4.327  11.502  0.0874  0.2812 -0.0947
 5966SOL    HW119339   3.644   4.250  11.490  0.9377 -0.1129 -1.6014
 5966SOL    HW219340   3.788   4.295  11.493  0.4422  1.5050 -1.2793
 5967SOL     OW19341   4.495   0.067   9.580  0.2807  0.3319 -0.0144
 5967SOL    HW119342   4.567   0.058   9.518  1.0878 -0.4187  0.9948
 5967SOL    HW219343   4.524   0.134   9.641 -0.2212  0.5922 -0.0594
 5968SOL     OW19344   4.391   3.024   0.415  0.0276 -0.4859 -0.0330
 5968SOL    HW119345   4.479   3.060   0.402 -0.1832  0.7530  1.5493
 5968SOL    HW219346   4.335   3.078   0.359  0.2050 -0.9482 -0.6617
 5969SOL     OW19347   0.558   3.100   4.147 -0.4987 -0.2735  0.1438
 5969SOL    HW119348   0.463   3.101   4.152 -0.4500  0.2205  1.6879
 5969SOL    HW219349   0.586   3.163   4.214  0.8998  0.4919 -1.1185
 5970SOL     OW19350   5.452   4.869  11.288  0.0874 -0.9371 -0.3310
 5970SOL    HW119351   5.491   4.938  11.341  0.0038 -0.6133 -0.6898
 5970SOL    HW219352   5.368   4.851  11.329 -0.5982  0.2817 -1.1459
 5971SOL     OW19353   0.154   2.573   5.961 -0.1016  0.4131 -0.1452
 5971SOL    HW119354   0.198   2.539   6.039  0.8338 -0.6258 -1.0916
 5971SOL    HW219355   0.202   2.653   5.939 -1.3528  1.5961  1.2070
 5972SOL     OW19356   4.033   6.400   4.889 -0.3701  0.2506 -0.3929
 5972SOL    HW119357   4.064   6.450   4.965  1.5759 -1.9145  0.3371
 5972SOL    HW219358   3.993   6.466   4.832 -0.0661  2.2495  1.5626
 5973SOL     OW19359   2.842   6.550   3.817  0.7533 -0.2854 -0.0145
 5973SOL    HW119360   2.830   6.477   3.879 -0.8661  0.4428  0.5781
 5973SOL    HW219361   2.888   6.511   3.743 -0.1737 -1.9663  0.2411
 5974SOL     OW19362   3.647   2.612   3.736  0.3056  0.1797 -0.9516
 5974SOL    HW119363   3.703   2.600   3.659  0.6614 -0.5251 -0.5926
 5974SOL    HW219364   3.621   2.523   3.761  0.4357  0.3751 -0.0786
 5975SOL     OW19365   7.797   4.988   3.631 -0.2100  0.0248  0.0636
 5975SOL    HW119366   7.829   5.003   3.720 -1.3030 -1.7283  0.8106
 5975SOL    HW219367   7.703   4.972   3.642 -0.5823  0.9354 -1.5639
 5976SOL     OW19368   5.296   4.896   4.049  0.4050 -0.1927  0.0235
 5976SOL    HW119369   5.386   4.870   4.070  0.4027  0.1219  0.4593
 5976SOL    HW219370   5.303   4.943   3.966  0.5470 -0.7293 -0.2697
 5977SOL     OW19371   7.872   7.928   5.502 -0.2352  0.8319 -0.3135
 5977SOL    HW119372   7.778   7.941   5.484 -0.5185  0.3970  0.7461
 5977SOL    HW219373   7.875   7.908   5.596  1.1644  3.2720  0.2504
 5978SOL     OW19374   4.903   4.934  11.256 -1.0170  0.2040 -0.7743
 5978SOL    HW119375   4.948   5.013  11.287  0.3832 -0.7239 -0.3460
 5978SOL    HW219376   4.945   4.913  11.173 -2.2912  0.6179 -1.5576
 5979SOL     OW19377   6.577   7.468   5.032  0.0702  0.6064 -0.0539
 5979SOL    HW119378   6.501   7.522   5.055  1.9160  2.8300  1.2888
 5979SOL    HW219379   6.628   7.524   4.973 -0.1852 -1.5781 -2.4809
 5980SOL     OW19380   7.535   4.557  12.245 -0.3018 -0.0837 -0.4822
 5980SOL    HW119381   7.524   4.468  12.277  2.5653 -0.4483 -0.2695
 5980SOL    HW219382   7.559   4.608  12.322  0.7344  0.2943 -1.0366
 5981SOL     OW19383   5.278   1.546   4.490  0.2245  0.1980  0.0788
 5981SOL    HW119384   5.357   1.494   4.475 -0.3538 -0.6685 -0.0169
 5981SOL    HW219385   5.239   1.557   4.403 -0.2034 -0.1115  0.2234
 5982SOL     OW19386   3.515   4.460  11.678 -0.0963 -0.2807  0.1342
 5982SOL    HW119387   3.575   4.387  11.662  1.0314  0.6169  0.1458
 5982SOL    HW219388   3.454   4.426  11.744  0.1466 -1.3406 -0.1563
 5983SOL     OW19389   0.213   3.768   8.895  0.0901 -0.5297 -0.1375
 5983SOL    HW119390   0.216   3.837   8.961  2.6197 -0.1718 -0.5504
 5983SOL    HW219391   0.254   3.692   8.936 -3.2734 -2.1972  0.5708
 5984SOL     OW19392   4.811   1.139   4.199  0.1795 -0.2484 -0.2403
 5984SOL    HW119393   4.727   1.107   4.233 -0.2417  0.9078 -0.1643
 5984SOL    HW219394   4.855   1.060   4.167 -0.4121 -1.0376  0.8269
 5985SOL     OW19395   4.047   1.567  11.421 -0.1876 -0.0918 -0.0160
 5985SOL    HW119396   4.036   1.535  11.332 -0.3813  1.7017 -0.6799
 5985SOL    HW219397   3.963   1.552  11.463 -1.0359  1.5373 -1.0212
 5986SOL     OW19398   4.734   5.500   3.573 -0.0255 -0.2725 -0.1039
 5986SOL    HW119399   4.713   5.587   3.539 -0.3104  0.1357  1.0594
 5986SOL    HW219400   4.649   5.461   3.594  0.0322 -1.2425 -1.5282
 5987SOL     OW19401   0.805   2.347   1.933  0.4366 -0.7947  0.1922
 5987SOL    HW119402   0.804   2.377   2.024 -0.0999 -2.1359  0.6513
 5987SOL    HW219403   0.839   2.257   1.938  1.9175 -0.3544 -1.1277
 5988SOL     OW19404   7.905   0.813   3.723  0.6219  0.5387 -0.1702
 5988SOL    HW119405   7.881   0.905   3.720 -0.6130  0.3357  1.7299
 5988SOL    HW219406   7.976   0.804   3.659  1.2688  2.9329  0.1340
 5989SOL     OW19407   1.149   0.693   2.474 -0.2336  0.1575  0.9728
 5989SOL    HW119408   1.110   0.752   2.538 -2.1861  1.5741 -1.3524
 5989SOL    HW219409   1.102   0.711   2.392  3.4882  0.0471 -1.4528
 5990SOL     OW19410   3.801   0.800   5.092 -0.6380 -0.4228  0.3231
 5990SOL    HW119411   3.864   0.729   5.104 -1.4944 -1.4595 -1.0300
 5990SOL    HW219412   3.814   0.830   5.002  0.1800  1.6552  1.0665
 5991SOL     OW19413   2.666   4.342  11.880 -0.2860  0.5140 -0.4472
 5991SOL    HW119414   2.630   4.257  11.903 -1.6667  1.3639  0.6872
 5991SOL    HW219415   2.660   4.394  11.961  1.9163  1.2625 -0.6677
 5992SOL     OW19416   2.626   5.149   9.153 -0.0605 -0.1597  0.6049
 5992SOL    HW119417   2.674   5.103   9.221  0.6830  0.6832  0.6685
 5992SOL    HW219418   2.539   5.111   9.155  0.6816 -1.9915  0.2393
 5993SOL     OW19419   2.532   0.152  10.898 -0.4039  0.2464  0.3855
 5993SOL    HW119420   2.588   0.097  10.952 -0.4123  0.3595  0.5102
 5993SOL    HW219421   2.562   0.241  10.915  2.0367  0.1296 -2.5138
 5994SOL     OW19422   6.548   3.999   9.435  0.4645 -0.1337 -0.3393
 5994SOL    HW119423   6.517   3.910   9.415 -3.1732  1.1556 -1.2326
 5994SOL    HW219424   6.568   4.037   9.349 -1.5990  0.9798 -0.3943
 5995SOL     OW19425   0.679   1.822   2.414 -0.1366  0.1114 -0.0099
 5995SOL    HW119426   0.611   1.870   2.367  0.0728  0.0589 -0.3644
 5995SOL    HW219427   0.757   1.830   2.360  0.5381  1.4165  1.0871
 5996SOL     OW19428   3.624   4.563   8.540 -0.5063  0.2642 -0.4640
 5996SOL    HW119429   3.573   4.582   8.619 -0.6274  0.4139 -0.5794
 5996SOL    HW219430   3.666   4.479   8.559 -0.2807  0.4529 -0.1098
 5997SOL     OW19431   3.593   6.090   4.802 -0.7399  0.2379 -0.1752
 5997SOL    HW119432   3.634   6.009   4.774 -0.8882  0.6213 -1.5450
 5997SOL    HW219433   3.618   6.099   4.894 -0.1505 -0.9936 -0.2022
 5998SOL     OW19434   7.237   3.624   8.690  0.6416  0.0217  0.4747
 5998SOL    HW119435   7.307   3.558   8.691  1.6652  1.0588  1.8210
 5998SOL    HW219436   7.279   3.704   8.722 -0.4461  1.4877 -1.5636
 5999SOL     OW19437   5.050   5.128   0.692  0.3645  0.0304 -0.3565
 5999SOL    HW119438   5.009   5.093   0.613 -0.2975 -2.7276  1.0995
 5999SOL    HW219439   5.144   5.122   0.675  0.2625  1.3676 -1.6459
 6000SOL     OW19440   1.544   5.916   0.681  0.9239  0.0315 -0.1046
 6000SOL    HW119441   1.566   5.989   0.622 -0.1290 -0.7311 -1.4965
 6000SOL    HW219442   1.464   5.879   0.644 -0.8129  0.5830  2.8194
 6001SOL     OW19443   3.634   7.247  11.822 -0.0038  0.8271  0.1791
 6001SOL    HW119444   3.715   7.201  11.801 -0.0077  1.2141 -0.7097
 6001SOL    HW219445   3.634   7.253  11.918  1.0331  0.8470  0.1895
 6002SOL     OW19446   2.470   4.089  10.819  0.5945 -0.0128  0.5928
 6002SOL    HW119447   2.504   4.164  10.770  0.4309 -0.2617  0.0963
 6002SOL    HW219448   2.419   4.129  10.890 -0.2234  0.3443 -0.1882
 6003SOL     OW19449   0.789   0.213   8.003 -0.6864  0.4052  0.3209
 6003SOL    HW119450   0.859   0.159   7.968 -1.1765 -1.2829  1.7817
 6003SOL    HW219451   0.834   0.273   8.063 -0.1613  1.5381 -1.1581
 6004SOL     OW19452   0.473   2.785   1.045 -0.2193 -0.0613 -0.5521
 6004SOL    HW119453   0.464   2.695   1.077  0.1640  0.1585  0.2063
 6004SOL    HW219454   0.467   2.839   1.124  0.6296  0.5083 -0.8632
 6005SOL     OW19455   0.809   5.709   2.631 -0.3127  0.4468 -0.4403
 6005SOL    HW119456   0.772   5.730   2.717  0.9587  0.0284  0.2357
 6005SOL    HW219457   0.897   5.745   2.633  0.1788 -0.6753 -1.0868
 6006SOL     OW19458   6.300   1.870   9.118  0.5110 -0.8741 -0.8789
 6006SOL    HW119459   6.314   1.785   9.160  1.2727 -0.4686 -0.3011
 6006SOL    HW219460   6.248   1.849   9.040  2.7580 -2.2291 -2.1410
 6007SOL     OW19461   4.459   5.350   3.106  0.0328 -0.2353 -0.3795
 6007SOL    HW119462   4.547   5.314   3.107 -0.4181 -1.3827  0.4344
 6007SOL    HW219463   4.432   5.353   3.198  0.5283  3.5737 -0.1929
 6008SOL     OW19464   7.729   4.655  11.035 -0.0434  0.1348 -0.5840
 6008SOL    HW119465   7.786   4.626  11.105  0.8244  2.2939 -0.3224
 6008SOL    HW219466   7.693   4.738  11.066 -0.3455  0.6880 -2.3132
 6009SOL     OW19467   5.646   7.150   1.586  0.1290 -0.1457  0.0638
 6009SOL    HW119468   5.723   7.138   1.529  0.5056 -0.3374  0.6062
 6009SOL    HW219469   5.641   7.069   1.636 -0.6671 -0.2930 -0.2455
 6010SOL     OW19470   3.177   7.261  11.806 -0.3743  0.2656  0.7417
 6010SOL    HW119471   3.183   7.248  11.901  0.9864 -0.6944  0.5641
 6010SOL    HW219472   3.264   7.291  11.781 -0.5536 -0.0281 -0.2685
 6011SOL     OW19473   0.418   0.929   9.326  0.4414 -0.3284 -0.5141
 6011SOL    HW119474   0.358   0.943   9.399 -0.8744 -1.0176 -1.4266
 6011SOL    HW219475   0.505   0.940   9.364 -0.2467  2.5790  0.4687
 6012SOL     OW19476   1.798   6.391   8.614 -0.2855 -0.0695  0.0351
 6012SOL    HW119477   1.787   6.333   8.689 -1.9281 -1.2731 -1.0508
 6012SOL    HW219478   1.890   6.417   8.617  0.3135 -2.0508  1.0695
 6013SOL     OW19479   1.126   5.094   2.956 -0.2013  0.1792  0.4644
 6013SOL    HW119480   1.070   5.057   2.887  0.5381  0.3532 -0.2484
 6013SOL    HW219481   1.169   5.018   2.995  0.2809  0.1647 -0.0795
 6014SOL     OW19482   7.622   5.083   8.202  0.8028 -0.0458  0.3425
 6014SOL    HW119483   7.660   5.167   8.227  0.2574  0.4759 -0.5329
 6014SOL    HW219484   7.568   5.103   8.125  3.2756 -1.7448 -2.0169
 6015SOL     OW19485   3.517   1.832   6.169 -0.1071  0.4169 -0.2221
 6015SOL    HW119486   3.532   1.918   6.209  2.5176 -0.4542  0.9529
 6015SOL    HW219487   3.427   1.835   6.138 -0.9714  2.6633  2.1066
 6016SOL     OW19488   6.403   2.153   6.519 -0.1436 -0.7050  0.9806
 6016SOL    HW119489   6.355   2.070   6.523  0.6245 -1.1451  1.2707
 6016SOL    HW219490   6.433   2.158   6.428  1.7073 -1.8735  1.4629
 6017SOL     OW19491   7.826   0.951   0.409  0.4200 -0.1376  0.0559
 6017SOL    HW119492   7.794   0.911   0.329  1.2865 -1.0963  0.1705
 6017SOL    HW219493   7.860   0.878   0.461  1.3099  0.6440  0.6133
 6018SOL     OW19494   0.916   7.558   4.192 -0.0760  0.3183 -0.4708
 6018SOL    HW119495   0.963   7.550   4.275 -0.6911 -0.0598 -0.1554
 6018SOL    HW219496   0.935   7.476   4.146 -0.9299 -0.1164 -0.0724
 6019SOL     OW19497   2.806   1.906   1.206 -0.1808  0.0138  0.0507
 6019SOL    HW119498   2.886   1.898   1.259  0.5610 -1.0648 -1.1592
 6019SOL    HW219499   2.795   1.819   1.168 -0.9194  0.6440 -1.2304
 6020SOL     OW19500   5.640   4.895   2.558 -0.3537 -0.1628 -0.5874
 6020SOL    HW119501   5.705   4.949   2.514 -0.7942 -0.2002 -1.2864
 6020SOL    HW219502   5.566   4.891   2.498 -0.2329 -1.7516 -0.6740
 6021SOL     OW19503   2.462   3.020   1.028 -0.2020  0.5439  0.6974
 6021SOL    HW119504   2.408   3.018   0.949 -2.3943  2.4449  2.0136
 6021SOL    HW219505   2.475   2.928   1.051  0.0142 -0.0374 -1.5109
 6022SOL     OW19506   2.773   0.881   6.825 -0.1913 -0.6124 -0.4390
 6022SOL    HW119507   2.836   0.883   6.753  1.3318  1.0264  0.8438
 6022SOL    HW219508   2.688   0.894   6.783  0.7176  1.0979 -1.9139
 6023SOL     OW19509   1.162   4.957  10.241  0.6573 -0.3551  0.2144
 6023SOL    HW119510   1.192   4.989  10.156  1.4729  0.5913  0.8427
 6023SOL    HW219511   1.117   5.031  10.281 -1.5228 -1.3603 -0.1704
 6024SOL     OW19512   1.445   1.578   2.932 -0.2441 -0.1308  0.1520
 6024SOL    HW119513   1.401   1.523   2.868  0.5704  0.9016 -1.3602
 6024SOL    HW219514   1.527   1.602   2.890  0.4934  0.2855  1.7564
 6025SOL     OW19515   2.319   0.013   5.431  0.2090 -0.7834  0.2294
 6025SOL    HW119516   2.291  -0.076   5.411  1.3079 -0.7490 -1.6373
 6025SOL    HW219517   2.342   0.051   5.346  0.6277  0.9881  1.0899
 6026SOL     OW19518   0.477   3.687   5.017  0.1523  0.4603 -0.6674
 6026SOL    HW119519   0.513   3.767   4.978 -0.6848  0.8880 -0.5886
 6026SOL    HW219520   0.424   3.718   5.091  1.5814 -0.3248  0.7541
 6027SOL     OW19521   5.761   2.848   4.440  0.8247  0.0989 -0.3522
 6027SOL    HW119522   5.666   2.856   4.447  0.8162  2.2663 -2.0140
 6027SOL    HW219523   5.793   2.884   4.523  0.2148  0.2499 -0.1744
 6028SOL     OW19524   3.255   0.957  11.085 -0.3572  0.1414 -0.1983
 6028SOL    HW119525   3.230   0.874  11.125  1.9875 -0.8401 -0.6681
 6028SOL    HW219526   3.303   1.003  11.154 -1.6896  1.2088  0.0791
 6029SOL     OW19527   4.913   0.390   8.356  0.4009 -0.2181  0.8133
 6029SOL    HW119528   4.878   0.322   8.298  1.0849 -1.3493  1.6750
 6029SOL    HW219529   4.923   0.467   8.300  0.1978 -1.0114 -0.3472
 6030SOL     OW19530   2.405   3.754   8.795  0.0161 -0.4589 -0.0034
 6030SOL    HW119531   2.375   3.775   8.707  1.0289  1.9940  0.1463
 6030SOL    HW219532   2.489   3.711   8.781  0.0697 -0.2775 -0.2581
 6031SOL     OW19533   4.465   1.449   9.467 -0.5768  0.1936 -0.0432
 6031SOL    HW119534   4.403   1.515   9.435 -1.1339 -0.0721  0.4761
 6031SOL    HW219535   4.417   1.367   9.462  0.5228 -0.3750 -1.8339
 6032SOL     OW19536   4.086   6.883   2.754  0.4416 -0.0195 -0.3329
 6032SOL    HW119537   4.090   6.836   2.837 -1.8878  0.0717 -0.1143
 6032SOL    HW219538   4.013   6.843   2.707  1.2139  0.4532 -2.0359
 6033SOL     OW19539   5.918   4.347   2.997  0.3194 -0.7351 -0.2274
 6033SOL    HW119540   5.951   4.415   3.056  0.6918 -0.9896 -0.1387
 6033SOL    HW219541   5.844   4.388   2.952 -0.3658 -0.7306  0.8528
 6034SOL     OW19542   6.422   6.425   3.022 -0.2943  0.1896 -0.1463
 6034SOL    HW119543   6.502   6.378   2.999  0.2315  0.2996  1.3475
 6034SOL    HW219544   6.436   6.514   2.988  0.2579  0.2276  0.1681
 6035SOL     OW19545   4.143   2.408   6.428 -0.1603  0.2114 -0.4772
 6035SOL    HW119546   4.204   2.475   6.397  1.0352 -0.5647  0.1284
 6035SOL    HW219547   4.117   2.360   6.349  0.4181  0.2250 -0.6800
 6036SOL     OW19548   0.716   6.332  11.568 -0.4656  0.2413  0.3263
 6036SOL    HW119549   0.651   6.275  11.610 -0.0669 -1.0472 -0.7412
 6036SOL    HW219550   0.678   6.353  11.482  0.7488 -1.0137 -0.5591
 6037SOL     OW19551   3.448   4.628  10.760  0.1782 -0.6314 -0.7704
 6037SOL    HW119552   3.387   4.686  10.714  0.7665 -0.1848 -1.0006
 6037SOL    HW219553   3.521   4.617  10.699  0.4006 -1.0289 -0.4359
 6038SOL     OW19554   7.099   1.925   1.663 -0.0742  0.2033 -0.2482
 6038SOL    HW119555   7.069   1.945   1.751  0.8921 -0.3374  0.2185
 6038SOL    HW219556   7.061   1.839   1.643  0.3795 -0.0558 -0.0211
 6039SOL     OW19557   6.165   7.116   9.710 -0.3756 -0.1204  0.3117
 6039SOL    HW119558   6.102   7.102   9.640 -1.1992 -0.2441  1.0606
 6039SOL    HW219559   6.250   7.121   9.666 -0.8272 -0.6544 -0.6337
 6040SOL     OW19560   7.193   1.151   9.498 -0.0806 -0.6042  0.0426
 6040SOL    HW119561   7.152   1.201   9.427 -0.4006 -0.0245  0.6250
 6040SOL    HW219562   7.285   1.143   9.471  0.4481  1.9613  0.7742
 6041SOL     OW19563   5.283   5.682   3.760  0.5073  0.5018  0.9974
 6041SOL    HW119564   5.364   5.728   3.784  1.5781  0.5204 -2.1678
 6041SOL    HW219565   5.304   5.590   3.773  0.9911  0.5178  0.3808
 6042SOL     OW19566   3.284   3.773   9.008 -0.0153  0.2559 -0.4805
 6042SOL    HW119567   3.264   3.782   9.102 -2.3055  0.7711 -0.9576
 6042SOL    HW219568   3.351   3.705   9.005 -0.9012 -0.8142  1.4731
 6043SOL     OW19569   0.889   3.296   8.348 -0.3906 -0.0488  0.0656
 6043SOL    HW119570   0.940   3.375   8.364  1.5247 -1.4429  1.3931
 6043SOL    HW219571   0.810   3.306   8.401  0.7969  0.1424  1.8814
 6044SOL     OW19572   1.841   1.151   6.024 -0.1350 -0.0804  0.5991
 6044SOL    HW119573   1.809   1.108   5.945 -1.4790  2.0149 -0.0989
 6044SOL    HW219574   1.895   1.085   6.068  0.1592 -1.5047 -1.7388
 6045SOL     OW19575   0.488   6.978   1.062  0.1098  0.0168  0.2785
 6045SOL    HW119576   0.475   7.034   0.986  2.7890  0.1791 -0.1700
 6045SOL    HW219577   0.469   6.890   1.031  1.9929 -0.0338 -0.9284
 6046SOL     OW19578   0.232   2.786   4.626  0.1761 -0.1340  0.0924
 6046SOL    HW119579   0.155   2.766   4.572 -1.1457 -1.4905  2.3482
 6046SOL    HW219580   0.297   2.815   4.563 -1.8937  0.2729 -2.0196
 6047SOL     OW19581   1.106   3.531   2.789 -0.3524 -0.0715 -0.2213
 6047SOL    HW119582   1.081   3.441   2.769  0.2668 -0.2324 -0.3009
 6047SOL    HW219583   1.092   3.579   2.707  0.4306 -0.3450 -0.5247
 6048SOL     OW19584   2.031   5.880   0.005 -0.3900  0.4990  0.4543
 6048SOL    HW119585   2.030   5.835  -0.079 -1.6731  1.3423 -0.0019
 6048SOL    HW219586   2.014   5.811   0.069  1.0097 -0.2254  0.0950
 6049SOL     OW19587   3.088   4.442   4.569 -0.4959 -0.1142 -0.3523
 6049SOL    HW119588   3.168   4.487   4.541  0.0285 -0.7248  0.1300
 6049SOL    HW219589   3.061   4.487   4.649  1.7602 -2.4570  1.9393
 6050SOL     OW19590   6.633   6.011   2.740 -0.6939 -0.6285 -1.2720
 6050SOL    HW119591   6.565   6.078   2.737  0.1556  0.5522  1.9384
 6050SOL    HW219592   6.711   6.055   2.707 -0.2960 -0.1800  0.1899
 6051SOL     OW19593   7.037   2.789   8.921 -0.2326  0.4223 -0.2606
 6051SOL    HW119594   7.068   2.869   8.962  1.8746  1.0058 -2.6929
 6051SOL    HW219595   7.095   2.720   8.954 -0.2794  0.3913 -0.2420
 6052SOL     OW19596   5.727   7.726  11.619 -0.6619  0.4933 -0.5922
 6052SOL    HW119597   5.637   7.736  11.587 -1.0962  0.9596  0.7332
 6052SOL    HW219598   5.746   7.633  11.605 -1.4916  0.2987 -0.5387
 6053SOL     OW19599   5.579   0.805  11.878 -0.0981 -0.0551 -0.0473
 6053SOL    HW119600   5.542   0.758  11.952 -0.3087  0.3090  0.0815
 6053SOL    HW219601   5.529   0.887  11.874 -0.8651 -0.5496 -1.2890
 6054SOL     OW19602   0.476   4.543   2.137 -0.8468 -0.8862 -0.0163
 6054SOL    HW119603   0.530   4.501   2.204  1.2797  0.2901 -0.9160
 6054SOL    HW219604   0.482   4.484   2.062 -2.0013 -1.4449  0.3045
 6055SOL     OW19605   1.607   2.450   2.856  0.2273  0.0968  0.1765
 6055SOL    HW119606   1.542   2.467   2.924 -1.5718 -1.5642 -1.0097
 6055SOL    HW219607   1.690   2.447   2.903 -0.9759 -1.4308  2.4406
 6056SOL     OW19608   4.429   1.133   0.063 -0.2647 -0.1531  0.2804
 6056SOL    HW119609   4.448   1.084   0.143  2.4054  0.5315  0.1620
 6056SOL    HW219610   4.491   1.100  -0.002 -1.6197  0.0989 -1.2322
 6057SOL     OW19611   3.402   7.765   8.785 -0.0129  0.1859  0.1120
 6057SOL    HW119612   3.383   7.770   8.878  0.7832  0.2340  0.2781
 6057SOL    HW219613   3.423   7.673   8.769 -0.1176  0.1831 -0.0141
 6058SOL     OW19614   0.407   6.480   8.162 -0.7808  0.1240  0.3798
 6058SOL    HW119615   0.390   6.401   8.111  0.7085  1.1290 -1.8240
 6058SOL    HW219616   0.455   6.449   8.239 -0.8283 -1.1936 -0.1056
 6059SOL     OW19617   0.529   5.629   3.463 -0.2610  0.1712 -0.1381
 6059SOL    HW119618   0.448   5.631   3.514 -0.0465  0.1471  0.2036
 6059SOL    HW219619   0.588   5.687   3.511 -0.0672  0.1657 -0.3723
 6060SOL     OW19620   4.433   5.712  10.433  0.1034 -0.4671 -0.0201
 6060SOL    HW119621   4.477   5.720  10.349  0.4658  1.3784  0.3164
 6060SOL    HW219622   4.473   5.779  10.488 -1.6392 -0.1697  0.9544
 6061SOL     OW19623   2.168   3.310   3.718  0.0243 -0.3964 -0.1215
 6061SOL    HW119624   2.144   3.297   3.626 -0.6953  0.4956 -0.0787
 6061SOL    HW219625   2.224   3.387   3.717 -3.8244  2.7698  0.5949
 6062SOL     OW19626   6.121   2.448   2.745 -0.5320 -0.1007 -0.1249
 6062SOL    HW119627   6.075   2.531   2.762  1.1146  0.8146  0.0107
 6062SOL    HW219628   6.182   2.468   2.674  0.5676 -0.9398  0.5579
 6063SOL     OW19629   1.277   7.619   2.823 -0.3198  0.5600  0.3844
 6063SOL    HW119630   1.322   7.699   2.798  2.1158 -0.6251  0.7157
 6063SOL    HW219631   1.311   7.598   2.910  0.1867 -1.5373 -0.2526
 6064SOL     OW19632   2.752   7.682   4.100 -0.3335  0.3048 -0.0754
 6064SOL    HW119633   2.819   7.705   4.164  0.5958  1.3089 -1.3547
 6064SOL    HW219634   2.675   7.660   4.152  0.4487  0.8953  1.3759
 6065SOL     OW19635   3.537   4.438   2.306 -0.3993 -0.2190 -0.3861
 6065SOL    HW119636   3.574   4.372   2.366 -0.1608  1.1858  1.0667
 6065SOL    HW219637   3.558   4.404   2.219  2.1984 -0.7178  0.3412
 6066SOL     OW19638   2.662   3.001   9.017  0.0775 -0.2470 -0.1853
 6066SOL    HW119639   2.702   3.064   8.958 -0.8226  1.0383  0.5327
 6066SOL    HW219640   2.568   3.007   8.998 -0.4239  1.3469  2.3894
 6067SOL     OW19641   5.617   0.631  11.234 -0.3871  0.0783 -0.9089
 6067SOL    HW119642   5.612   0.682  11.153  0.0082  0.6521 -0.5793
 6067SOL    HW219643   5.708   0.600  11.237  0.5440  2.6335  0.8178
 6068SOL     OW19644   2.887   1.332   2.382 -0.1173 -0.2836 -0.0368
 6068SOL    HW119645   2.864   1.425   2.383  0.1939 -0.1697 -1.3016
 6068SOL    HW219646   2.811   1.288   2.419 -0.7708  0.3947 -0.5397
 6069SOL     OW19647   1.384   3.314   5.052  0.2203  0.0549  0.5664
 6069SOL    HW119648   1.449   3.328   5.121  0.6527  1.3335 -0.0670
 6069SOL    HW219649   1.436   3.309   4.971 -0.4203  0.3533  0.1288
 6070SOL     OW19650   3.083   5.874   8.720  0.2750 -0.0822  0.1867
 6070SOL    HW119651   3.152   5.927   8.760  0.8136 -0.8598  0.3005
 6070SOL    HW219652   3.123   5.789   8.705  0.3782  0.3679 -2.7557
 6071SOL     OW19653   7.026   5.139   5.073 -0.4540 -0.3945  0.0550
 6071SOL    HW119654   7.011   5.075   5.143 -0.5790  0.7493  1.0933
 6071SOL    HW219655   7.023   5.224   5.117  1.0875  0.2771 -1.0752
 6072SOL     OW19656   4.586   2.014   8.665 -0.5742  0.0439 -0.2146
 6072SOL    HW119657   4.552   2.071   8.734  1.4514 -0.1892  1.0440
 6072SOL    HW219658   4.513   2.006   8.603 -1.7342  1.9973  0.7916
 6073SOL     OW19659   6.164   3.330   0.861  0.2133  0.0013  0.0783
 6073SOL    HW119660   6.194   3.338   0.951  1.1705 -2.0952  0.0148
 6073SOL    HW219661   6.177   3.417   0.823 -0.0943  0.8835  1.9085
 6074SOL     OW19662   2.934   0.199   0.277 -0.0950  0.1816 -0.4954
 6074SOL    HW119663   2.880   0.121   0.272 -0.3108  0.2374  0.7682
 6074SOL    HW219664   2.906   0.253   0.202 -1.4983  0.0300 -0.1000
 6075SOL     OW19665   3.671   4.396   3.395  0.1376  0.0550  0.0734
 6075SOL    HW119666   3.716   4.442   3.324  1.5941  0.2900  1.1121
 6075SOL    HW219667   3.731   4.326   3.420 -0.4104 -0.0990  0.9888
 6076SOL     OW19668   1.745   1.508   3.493 -0.0967 -0.1899 -0.7233
 6076SOL    HW119669   1.667   1.453   3.493 -1.3306  1.4202  0.8834
 6076SOL    HW219670   1.805   1.466   3.431 -1.6277 -2.3187 -0.8621
 6077SOL     OW19671   7.713   7.838   6.091 -0.6156  0.9020 -0.0237
 6077SOL    HW119672   7.697   7.777   6.163 -1.1336  2.5091  1.2856
 6077SOL    HW219673   7.780   7.898   6.125 -0.0138  0.9920 -1.3192
 6078SOL     OW19674   5.526   6.187   7.152  0.4930 -0.0363  0.2016
 6078SOL    HW119675   5.586   6.253   7.116  1.1725 -0.2695  0.8834
 6078SOL    HW219676   5.579   6.138   7.214 -0.7969  0.7350  1.9789
 6079SOL     OW19677   0.725   6.377   8.109  0.1489  0.4493  0.2167
 6079SOL    HW119678   0.709   6.283   8.114  0.2630  0.3602 -0.8483
 6079SOL    HW219679   0.699   6.401   8.020  0.5406  1.3413  0.3296
 6080SOL     OW19680   1.747   0.472   6.007 -0.0093  0.2852 -0.4500
 6080SOL    HW119681   1.696   0.442   6.081  0.4486  1.7584  0.5037
 6080SOL    HW219682   1.821   0.411   6.002 -0.2292 -0.0273  0.0903
 6081SOL     OW19683   1.819   0.901  11.417  0.9113  0.1161 -0.2854
 6081SOL    HW119684   1.907   0.922  11.387  0.6342 -1.8851 -2.8524
 6081SOL    HW219685   1.832   0.833  11.483  1.3037 -0.6706 -1.1516
 6082SOL     OW19686   2.970   4.312   6.395  0.5879 -1.0791 -0.1090
 6082SOL    HW119687   2.960   4.217   6.388 -2.2424 -0.7876 -2.0762
 6082SOL    HW219688   2.993   4.340   6.307  1.6102  0.0769  0.4987
 6083SOL     OW19689   7.869   6.271  10.239  0.4219  0.5133  0.0834
 6083SOL    HW119690   7.909   6.267  10.326  0.0975 -2.0664  0.2100
 6083SOL    HW219691   7.781   6.305  10.254  0.3566  0.0576  0.8073
 6084SOL     OW19692   3.493   7.744   5.724 -0.0850 -0.1833 -0.2641
 6084SOL    HW119693   3.550   7.821   5.731  0.3440 -0.2293 -2.5706
 6084SOL    HW219694   3.420   7.773   5.670 -0.7119 -1.0007  0.1176
 6085SOL     OW19695   4.735   0.007   5.569  0.2149  0.4692  0.2437
 6085SOL    HW119696   4.665  -0.046   5.606  0.2278  0.5118  0.3281
 6085SOL    HW219697   4.730   0.090   5.616 -1.1433  1.3149 -1.2787
 6086SOL     OW19698   1.958   3.376   4.634  0.0408 -0.0535  0.5283
 6086SOL    HW119699   2.052   3.369   4.654  0.2904  0.3431 -0.4236
 6086SOL    HW219700   1.940   3.470   4.636 -0.1751 -0.0805  0.0391
 6087SOL     OW19701   0.872   1.439   4.110  0.0699  0.3523  0.3988
 6087SOL    HW119702   0.915   1.524   4.121 -2.0385  1.2999  1.8951
 6087SOL    HW219703   0.812   1.431   4.184 -0.9167 -1.7694 -0.5156
 6088SOL     OW19704   6.900   6.109   4.295 -0.1092  0.6109 -0.1683
 6088SOL    HW119705   6.929   6.187   4.248 -0.8066  1.1130  0.2273
 6088SOL    HW219706   6.940   6.117   4.382 -0.3538  0.6412 -0.0572
 6089SOL     OW19707   0.926   6.168   7.679  0.0332 -0.3544 -0.5458
 6089SOL    HW119708   0.969   6.097   7.631  2.3896  2.1933 -2.4886
 6089SOL    HW219709   0.862   6.203   7.616 -0.8222 -0.4489  0.2520
 6090SOL     OW19710   1.683   2.909  10.181  0.1673 -0.2152 -0.1584
 6090SOL    HW119711   1.658   2.834  10.235  0.2641 -0.8564 -0.9826
 6090SOL    HW219712   1.770   2.888  10.148  0.2669  0.3370 -0.2676
 6091SOL     OW19713   6.832   0.049   1.837  0.1599 -0.3240 -0.0167
 6091SOL    HW119714   6.780   0.097   1.773 -0.4859  0.5674  1.1312
 6091SOL    HW219715   6.893  -0.003   1.785 -1.3207 -0.7627 -1.3780
 6092SOL     OW19716   5.708   6.054   5.163  0.0257 -0.1392  0.3266
 6092SOL    HW119717   5.651   6.115   5.116 -0.7232  2.1708  3.8165
 6092SOL    HW219718   5.771   6.110   5.208  1.9292 -2.3144  0.5248
 6093SOL     OW19719   5.255   1.033   0.664  0.7673 -0.0042 -0.0547
 6093SOL    HW119720   5.226   0.955   0.712  2.0401  0.6366  1.8706
 6093SOL    HW219721   5.350   1.022   0.655  0.6735  0.3007 -1.7492
 6094SOL     OW19722   1.571   1.837   4.436  0.6561  0.8762 -0.2105
 6094SOL    HW119723   1.583   1.742   4.441 -0.2054  0.7457 -0.4140
 6094SOL    HW219724   1.646   1.873   4.482  1.5714  0.1320 -1.0836
 6095SOL     OW19725   3.931   4.498   2.443 -0.3141  0.4355 -0.0299
 6095SOL    HW119726   3.874   4.534   2.375 -0.9975 -1.8503 -0.7635
 6095SOL    HW219727   3.993   4.443   2.396 -0.6551 -1.0155  1.1146
 6096SOL     OW19728   5.249   6.797   0.063 -0.4840  0.2874 -0.0652
 6096SOL    HW119729   5.213   6.754  -0.014 -0.6132  0.6193 -0.1948
 6096SOL    HW219730   5.174   6.841   0.103 -0.3560  0.3890  0.0662
 6097SOL     OW19731   5.274   4.071   5.489 -0.5869  0.2423 -0.0248
 6097SOL    HW119732   5.256   3.995   5.434 -1.6472  0.6167 -0.2282
 6097SOL    HW219733   5.369   4.080   5.488 -0.5777  0.4712 -2.1377
 6098SOL     OW19734   0.511   4.512   0.331 -0.6796 -0.2095  0.7716
 6098SOL    HW119735   0.578   4.464   0.379  1.1648  0.2071 -1.2094
 6098SOL    HW219736   0.502   4.463   0.249 -0.7356  1.2883 -0.1454
 6099SOL     OW19737   5.304   0.727   0.105 -0.4855  0.2409  0.3244
 6099SOL    HW119738   5.241   0.798   0.093 -1.2521 -0.3722  0.6311
 6099SOL    HW219739   5.389   0.770   0.104 -0.9555  1.2363  0.9857
 6100SOL     OW19740   2.159   5.693   6.755  0.4778 -0.4293 -0.2431
 6100SOL    HW119741   2.204   5.710   6.672  0.3202  0.1513 -0.2130
 6100SOL    HW219742   2.104   5.771   6.769  0.6530 -0.4354  0.5047
 6101SOL     OW19743   1.565   5.192   9.083 -0.1270 -0.1066  0.3463
 6101SOL    HW119744   1.651   5.150   9.087 -0.0643 -0.1553 -1.0422
 6101SOL    HW219745   1.509   5.135   9.135  0.4747 -0.6150  0.4530
 6102SOL     OW19746   7.145   3.805   0.591  0.0505  0.0680  0.6219
 6102SOL    HW119747   7.105   3.723   0.561  0.0539 -0.1412  1.1853
 6102SOL    HW219748   7.077   3.847   0.644 -0.1646  0.7173 -0.1485
 6103SOL     OW19749   2.828   2.181   5.643  0.0297 -0.9393 -0.0887
 6103SOL    HW119750   2.799   2.155   5.731 -0.6250  0.8716  0.2598
 6103SOL    HW219751   2.757   2.152   5.585 -0.2587 -0.7532  0.1712
 6104SOL     OW19752   1.946   3.137  11.250  0.2194 -0.1856 -0.4814
 6104SOL    HW119753   1.947   3.213  11.191  1.3552  0.4900  0.3544
 6104SOL    HW219754   2.028   3.091  11.231 -0.5926 -1.4007 -1.1814
 6105SOL     OW19755   5.935   3.166   1.939 -0.2047 -0.0794  0.0277
 6105SOL    HW119756   5.989   3.092   1.967  0.6179  0.6676  0.4281
 6105SOL    HW219757   5.909   3.209   2.020  0.8979  1.1848 -0.2717
 6106SOL     OW19758   4.595   2.675   1.048  0.2462  0.2217 -0.3027
 6106SOL    HW119759   4.509   2.716   1.040  0.1368 -0.0053 -0.2927
 6106SOL    HW219760   4.623   2.697   1.137  0.1098  0.1247 -0.2353
 6107SOL     OW19761   7.683   5.001   4.450  0.1859  0.1146 -0.0890
 6107SOL    HW119762   7.691   4.918   4.496 -1.5192  0.3556  0.7361
 6107SOL    HW219763   7.694   5.068   4.518 -0.6308  0.4993 -0.3077
 6108SOL     OW19764   5.995   1.079   8.449 -0.0436 -0.1540 -0.3773
 6108SOL    HW119765   6.048   1.120   8.381  0.9871 -0.8795 -0.0317
 6108SOL    HW219766   5.982   0.990   8.418 -0.2450 -0.2566  0.0023
 6109SOL     OW19767   7.907   1.601   9.421  0.4696  0.1846  0.2279
 6109SOL    HW119768   7.917   1.693   9.394 -2.2879  0.8630  1.2029
 6109SOL    HW219769   7.837   1.567   9.365 -1.0847 -0.1738  2.2585
 6110SOL     OW19770   3.019   4.232   3.646 -0.0689 -0.1466 -0.4926
 6110SOL    HW119771   3.054   4.157   3.597  1.4015  0.0786  0.1642
 6110SOL    HW219772   2.973   4.192   3.720  2.4674 -0.4838  1.0472
 6111SOL     OW19773   5.432   0.242   9.929  0.1350 -0.2027  0.6511
 6111SOL    HW119774   5.493   0.181   9.970  1.1325 -0.3972 -1.0407
 6111SOL    HW219775   5.378   0.273  10.001  0.1799 -2.3911  1.7232
 6112SOL     OW19776   7.027   4.369   2.067 -0.9389  0.0895  0.0489
 6112SOL    HW119777   7.089   4.388   1.997  0.0718  1.4459  1.2452
 6112SOL    HW219778   7.068   4.299   2.117  0.8831  2.4935  2.1816
 6113SOL     OW19779   2.718   6.117   9.681 -0.3117  0.0597 -0.2508
 6113SOL    HW119780   2.644   6.059   9.660 -0.0595  0.5174 -2.6569
 6113SOL    HW219781   2.758   6.136   9.596  1.7360  0.9594  0.8650
 6114SOL     OW19782   5.990   3.278   6.678  0.1122 -0.2247 -0.2726
 6114SOL    HW119783   5.923   3.320   6.732 -1.0353 -0.1555 -1.6955
 6114SOL    HW219784   6.038   3.351   6.639 -1.4582 -0.1638 -2.2242
 6115SOL     OW19785   0.669   6.399   7.846  0.0411  0.2322 -0.1453
 6115SOL    HW119786   0.744   6.438   7.802  0.7011 -0.2366  0.5266
 6115SOL    HW219787   0.624   6.349   7.778  0.6288  0.1101 -0.4535
 6116SOL     OW19788   6.630   0.378   6.156 -0.6254 -0.3384  0.0803
 6116SOL    HW119789   6.576   0.312   6.113 -0.8816  0.1372 -0.3369
 6116SOL    HW219790   6.660   0.335   6.237 -1.0000 -0.8688 -0.0553
 6117SOL     OW19791   6.411   0.510   5.768  0.0423 -0.8051 -0.0331
 6117SOL    HW119792   6.460   0.482   5.691 -0.6457 -1.1459 -0.3620
 6117SOL    HW219793   6.422   0.605   5.771  0.2039 -0.8078 -0.4620
 6118SOL     OW19794   5.577   3.789   2.119 -0.9667  0.1409 -0.1818
 6118SOL    HW119795   5.627   3.868   2.096  0.0846 -0.6874 -0.8446
 6118SOL    HW219796   5.592   3.778   2.213 -0.8694  0.5661 -0.1456
 6119SOL     OW19797   5.904   2.711   9.518 -0.3907  0.8719  0.8144
 6119SOL    HW119798   5.899   2.630   9.468 -0.6145  0.9039  0.7824
 6119SOL    HW219799   5.818   2.720   9.559 -1.5676  2.7491 -1.7761
 6120SOL     OW19800   6.162   1.207   3.685  0.0467  0.0916 -0.3962
 6120SOL    HW119801   6.160   1.114   3.661 -0.0556 -0.0534  0.1646
 6120SOL    HW219802   6.220   1.247   3.620  1.2243 -0.6050  0.1992
 6121SOL     OW19803   5.425   6.502   9.458  0.5653 -0.0483  0.1987
 6121SOL    HW119804   5.360   6.467   9.519 -0.1089 -0.7841 -0.9051
 6121SOL    HW219805   5.421   6.443   9.382  0.8257  1.2802 -0.8874
 6122SOL     OW19806   5.727   2.247   4.510  0.0952  0.0733 -0.2983
 6122SOL    HW119807   5.654   2.196   4.474 -1.9621  0.1166  3.2946
 6122SOL    HW219808   5.699   2.338   4.501 -0.6463  0.0712  1.5358
 6123SOL     OW19809   2.714   5.226   9.932  0.1714 -0.6260  0.1818
 6123SOL    HW119810   2.808   5.215   9.945  0.5353 -1.0915 -2.2511
 6123SOL    HW219811   2.705   5.317   9.904 -0.5331  0.2895  3.0889
 6124SOL     OW19812   3.403   5.575   3.875 -0.2035 -0.2854  0.9158
 6124SOL    HW119813   3.433   5.484   3.870  1.7797  0.3742 -0.6040
 6124SOL    HW219814   3.313   5.572   3.842  0.5961 -1.4364 -1.3556
 6125SOL     OW19815   0.774   3.870   7.630  0.3761  0.6150  0.4454
 6125SOL    HW119816   0.738   3.925   7.561  0.1619  1.9465  1.5832
 6125SOL    HW219817   0.707   3.803   7.644 -0.4631  1.4665  0.6618
 6126SOL     OW19818   1.276   4.619  12.187 -0.2498  0.0726  0.0299
 6126SOL    HW119819   1.327   4.640  12.265  1.5328  1.0407 -1.3347
 6126SOL    HW219820   1.274   4.700  12.136 -0.6585 -0.7524 -1.3403
 6127SOL     OW19821   7.515   7.919   6.334  0.1672  0.4950 -0.0421
 6127SOL    HW119822   7.563   7.959   6.407 -0.7478  0.6934  0.4618
 6127SOL    HW219823   7.502   7.828   6.361  1.4241  0.0771 -0.7758
 6128SOL     OW19824   0.675   0.561   4.490  0.1843  0.7907 -0.0539
 6128SOL    HW119825   0.708   0.638   4.537  0.3457  0.6574  0.0490
 6128SOL    HW219826   0.604   0.596   4.436  0.0342  0.9579  0.2442
 6129SOL     OW19827   4.198   5.432   6.079 -0.2943 -0.2110 -0.1786
 6129SOL    HW119828   4.127   5.370   6.061  1.3764 -2.2526 -0.1910
 6129SOL    HW219829   4.277   5.378   6.080  0.9378  1.3910  3.0551
 6130SOL     OW19830   3.144   1.216  10.856  0.2611 -0.6037 -0.9373
 6130SOL    HW119831   3.144   1.283  10.787 -1.0378 -0.1311 -0.5179
 6130SOL    HW219832   3.228   1.172  10.847  1.2386  1.1987 -1.1265
 6131SOL     OW19833   4.411   1.351   7.591 -0.2258 -0.1609 -0.2401
 6131SOL    HW119834   4.401   1.256   7.587 -1.7376 -0.0178 -0.3628
 6131SOL    HW219835   4.413   1.379   7.500  0.7273 -0.1088 -0.2108
 6132SOL     OW19836   5.134   5.519  10.630  0.0088 -0.1274  0.1147
 6132SOL    HW119837   5.041   5.526  10.652 -0.4723 -0.5809 -1.5989
 6132SOL    HW219838   5.163   5.440  10.676 -0.6250 -0.3641  0.1259
 6133SOL     OW19839   3.329   1.320   3.150 -0.3311 -0.0476  0.5858
 6133SOL    HW119840   3.257   1.351   3.205  0.3894 -1.1579  2.2340
 6133SOL    HW219841   3.297   1.237   3.113 -0.8122  0.6929 -0.7294
 6134SOL     OW19842   2.745   6.803   6.505  0.0893  0.0548  0.5607
 6134SOL    HW119843   2.815   6.747   6.536 -1.6772 -0.5753  3.8949
 6134SOL    HW219844   2.669   6.745   6.496 -0.6800  1.1402 -0.4583
 6135SOL     OW19845   5.985   5.593   4.606  0.3838 -0.4543  0.0917
 6135SOL    HW119846   5.927   5.666   4.587  0.0685 -0.4217  1.1034
 6135SOL    HW219847   5.997   5.596   4.701  1.4421 -0.9124 -0.0189
 6136SOL     OW19848   2.694   6.804   2.694  0.2551  0.0859 -0.3381
 6136SOL    HW119849   2.695   6.718   2.651 -1.2802 -0.0743 -0.1092
 6136SOL    HW219850   2.723   6.865   2.626 -2.3293 -0.1308 -1.7644
 6137SOL     OW19851   1.097   7.614  10.215  0.4181 -0.4105 -0.1384
 6137SOL    HW119852   1.085   7.606  10.121 -1.9888  0.6858  0.0073
 6137SOL    HW219853   1.090   7.708  10.233 -0.4357 -0.7087  1.2527
 6138SOL     OW19854   5.992   2.154   0.509 -0.5586 -0.2391 -0.1404
 6138SOL    HW119855   5.973   2.247   0.495 -1.7325 -0.2407  1.2611
 6138SOL    HW219856   5.937   2.129   0.583  0.2391 -1.8978 -0.0702
 6139SOL     OW19857   4.980   3.733   0.374  0.5063  0.1105  0.4978
 6139SOL    HW119858   4.906   3.699   0.425 -0.8234 -0.8077 -1.8836
 6139SOL    HW219859   4.954   3.822   0.351 -0.1496 -0.4007 -0.8037
 6140SOL     OW19860   1.010   2.875   1.962 -0.2548 -0.6370  0.5897
 6140SOL    HW119861   0.929   2.824   1.958  0.1149 -1.2430  0.8266
 6140SOL    HW219862   0.992   2.952   1.908 -0.8195 -1.0067  0.2409
 6141SOL     OW19863   3.071   5.767   5.776  0.2994 -0.0585  0.6883
 6141SOL    HW119864   3.058   5.855   5.741  0.8856 -0.5314 -0.7868
 6141SOL    HW219865   3.166   5.761   5.789  0.5336 -1.1492 -1.1878
 6142SOL     OW19866   6.160   4.157  12.159  0.0766  0.0283 -0.3945
 6142SOL    HW119867   6.161   4.063  12.177  1.3243  0.0386 -0.3770
 6142SOL    HW219868   6.103   4.166  12.082  1.1128 -0.9141 -1.3006
 6143SOL     OW19869   7.748   6.679   3.860  0.1468 -0.1014  0.0040
 6143SOL    HW119870   7.726   6.743   3.929 -1.3874 -0.8390  0.2468
 6143SOL    HW219871   7.715   6.719   3.780 -1.7025 -0.9302  0.2828
 6144SOL     OW19872   2.751   5.058   1.419  0.2111 -0.4141  0.1499
 6144SOL    HW119873   2.821   5.074   1.483 -0.1685 -0.5813  0.6085
 6144SOL    HW219874   2.677   5.109   1.451  0.7086  1.3691 -1.3994
 6145SOL     OW19875   4.078   5.162   3.351  0.7826 -0.1746 -0.6337
 6145SOL    HW119876   4.069   5.084   3.405 -0.7197  0.1879 -0.3236
 6145SOL    HW219877   4.145   5.138   3.287  1.1297 -1.3283  0.1188
 6146SOL     OW19878   0.483   5.133  10.485 -0.5136 -0.1062 -0.3927
 6146SOL    HW119879   0.547   5.182  10.536 -0.8056  1.7294 -1.7045
 6146SOL    HW219880   0.535   5.083  10.422 -0.3051  0.0790 -0.3668
 6147SOL     OW19881   3.392   0.014   1.859  0.0273 -0.3572  0.1773
 6147SOL    HW119882   3.394   0.059   1.774  0.5021  0.8761  0.8100
 6147SOL    HW219883   3.454   0.063   1.913  1.3016 -2.3857  0.6479
 6148SOL     OW19884   3.598   6.881   5.024 -0.2619  0.2110  0.4786
 6148SOL    HW119885   3.559   6.846   4.944 -1.5595 -1.1424  1.6393
 6148SOL    HW219886   3.525   6.925   5.068  0.2106  0.1541  1.3324
 6149SOL     OW19887   5.780   1.042   6.790  0.2560  0.1964  0.2515
 6149SOL    HW119888   5.722   0.968   6.772  0.7355 -0.0835 -0.1693
 6149SOL    HW219889   5.779   1.052   6.885 -0.3640  0.1035  0.2572
 6150SOL     OW19890   0.718   5.644   4.020 -0.5602  0.3641 -0.4658
 6150SOL    HW119891   0.741   5.727   3.977  0.6430  0.9091  1.1424
 6150SOL    HW219892   0.802   5.602   4.038 -1.0345 -0.0622  0.8708
 6151SOL     OW19893   1.092   6.088   1.080 -0.2555 -0.3096 -0.4502
 6151SOL    HW119894   1.045   6.033   1.017  2.1735 -0.8164 -1.9876
 6151SOL    HW219895   1.101   6.172   1.036  0.4484 -0.3026 -0.3039
 6152SOL     OW19896   4.427   4.302   2.548  0.2689  0.4510  0.3269
 6152SOL    HW119897   4.436   4.372   2.614 -0.8042 -1.5983  2.8072
 6152SOL    HW219898   4.493   4.237   2.573 -1.6322 -1.3823  0.8468
 6153SOL     OW19899   2.691   5.555   8.388  0.2495 -0.7137 -0.0466
 6153SOL    HW119900   2.730   5.481   8.342  0.5202  0.2211 -1.3941
 6153SOL    HW219901   2.719   5.545   8.479 -1.4352 -3.4041  0.3132
 6154SOL     OW19902   5.421   3.701   4.193  0.3240  0.2562  0.2996
 6154SOL    HW119903   5.373   3.728   4.115  1.0843  1.3941  0.2048
 6154SOL    HW219904   5.398   3.767   4.259  0.3601 -0.2067  0.7790
 6155SOL     OW19905   5.951   3.693   9.572  0.1678  0.5037  0.3496
 6155SOL    HW119906   5.897   3.618   9.597  0.7859  0.1893  0.7673
 6155SOL    HW219907   5.965   3.683   9.478  0.0881  0.2087  0.3689
 6156SOL     OW19908   6.567   7.781   0.365  0.2295 -0.0454  0.7957
 6156SOL    HW119909   6.651   7.740   0.344 -0.4164 -1.2019  0.3573
 6156SOL    HW219910   6.535   7.732   0.440  0.0794  0.5957  1.1528
 6157SOL     OW19911   7.021   3.735   1.239 -0.1066 -0.2777  0.0676
 6157SOL    HW119912   7.074   3.703   1.166  0.2492  0.8055 -0.1623
 6157SOL    HW219913   7.074   3.718   1.317  0.5346  0.6674 -0.1472
 6158SOL     OW19914   0.353   3.069  12.307  0.0078  0.4444 -0.6614
 6158SOL    HW119915   0.379   3.065  12.215 -1.0486  0.2570 -0.9662
 6158SOL    HW219916   0.260   3.090  12.305 -0.4409 -1.2500  0.3027
 6159SOL     OW19917   5.952   2.227   8.601  0.2673 -0.5381 -0.5407
 6159SOL    HW119918   5.994   2.193   8.680 -0.6482  0.7165  0.5288
 6159SOL    HW219919   5.866   2.185   8.600 -0.2236  0.4392 -0.1330
 6160SOL     OW19920   2.259   2.421   2.851 -0.3653 -0.0339  0.2004
 6160SOL    HW119921   2.310   2.371   2.915  1.2847  0.3424 -0.7754
 6160SOL    HW219922   2.216   2.489   2.903 -1.8147 -1.7722  1.3930
 6161SOL     OW19923   5.144   4.023   4.865 -0.0799 -0.1504 -0.5752
 6161SOL    HW119924   5.092   4.009   4.944 -0.0244  2.1157 -0.0729
 6161SOL    HW219925   5.083   4.010   4.793 -0.3873 -1.2195 -0.1348
 6162SOL     OW19926   6.384   1.567   8.286  0.1465 -0.0373  0.1264
 6162SOL    HW119927   6.327   1.567   8.209  1.0605 -0.7770 -0.5673
 6162SOL    HW219928   6.323   1.572   8.360 -0.7805 -0.1112 -0.6067
 6163SOL     OW19929   1.664   1.318   6.243 -0.0042  0.3871  0.6041
 6163SOL    HW119930   1.739   1.307   6.302 -0.7814  0.7394  1.6802
 6163SOL    HW219931   1.698   1.372   6.172  2.2077 -3.4939 -1.6531
 6164SOL     OW19932   5.093   2.189   7.550 -0.3516  0.3876  0.5783
 6164SOL    HW119933   5.136   2.123   7.495  0.4977  2.3722 -1.2514
 6164SOL    HW219934   5.165   2.235   7.594 -1.0023 -1.0927  3.4401
 6165SOL     OW19935   0.277   5.872   5.152  0.0573  0.2885 -0.4999
 6165SOL    HW119936   0.255   5.964   5.137  1.3127  0.6210 -0.4046
 6165SOL    HW219937   0.234   5.825   5.080 -1.2637  0.8385 -0.0904
 6166SOL     OW19938   4.389   2.623   5.025  0.5632  0.1013 -0.8367
 6166SOL    HW119939   4.479   2.589   5.025  1.1718  1.5583 -2.5803
 6166SOL    HW219940   4.400   2.717   5.035 -0.8021  0.2967 -1.0839
 6167SOL     OW19941   5.425   1.553   7.154  0.3968  0.1351 -0.7084
 6167SOL    HW119942   5.370   1.593   7.087 -0.6075 -1.8574 -1.1525
 6167SOL    HW219943   5.401   1.461   7.152  0.1257  0.0182  2.5761
 6168SOL     OW19944   7.693   4.609   4.979 -0.1281  0.0372 -0.2876
 6168SOL    HW119945   7.694   4.547   4.906 -2.2154  0.1007 -0.4354
 6168SOL    HW219946   7.761   4.577   5.038  0.1725 -1.2430 -1.2758
 6169SOL     OW19947   3.708   5.214   6.438  0.0369  0.9579  0.0615
 6169SOL    HW119948   3.693   5.168   6.355 -0.6078  1.1841  0.0476
 6169SOL    HW219949   3.689   5.148   6.505  0.1310  0.9004  0.0309
 6170SOL     OW19950   1.465   0.965   9.781 -0.7562  0.3919 -0.2115
 6170SOL    HW119951   1.377   0.995   9.802 -0.3078  1.3096  0.3819
 6170SOL    HW219952   1.506   0.947   9.866 -0.3604 -0.0266 -0.4819
 6171SOL     OW19953   3.432   6.903   4.715  0.3525  0.3152 -0.1773
 6171SOL    HW119954   3.433   6.825   4.659 -0.4475  1.2750 -1.5631
 6171SOL    HW219955   3.404   6.869   4.801 -1.7128 -0.7045 -1.1601
 6172SOL     OW19956   4.537   6.490   3.917 -0.0022 -0.4968 -0.5737
 6172SOL    HW119957   4.612   6.550   3.920 -0.2978 -0.1624  1.2899
 6172SOL    HW219958   4.509   6.493   3.825  1.3129  0.5467 -0.9902
 6173SOL     OW19959   3.917   2.636   6.453  0.2224  0.0907 -0.1118
 6173SOL    HW119960   3.933   2.560   6.397 -0.8435 -1.2223  1.3125
 6173SOL    HW219961   3.969   2.620   6.531  0.8593  1.3970 -0.2395
 6174SOL     OW19962   1.437   2.071   5.761 -0.0994  0.3233 -0.2424
 6174SOL    HW119963   1.462   2.002   5.822  0.5134 -0.0412 -0.8949
 6174SOL    HW219964   1.346   2.090   5.783  0.2445  0.5227  1.0827
 6175SOL     OW19965   2.018   6.913   4.187 -0.2761 -0.0973  0.7524
 6175SOL    HW119966   2.049   6.919   4.096  0.4947 -1.1350  0.9193
 6175SOL    HW219967   1.926   6.891   4.179 -0.2601  0.0132  0.2116
 6176SOL     OW19968   6.864   0.981   7.995  0.2317 -0.2885  0.3037
 6176SOL    HW119969   6.816   0.918   8.050  0.0241  0.5494  1.1084
 6176SOL    HW219970   6.796   1.038   7.960  0.3891 -0.7051 -0.6951
 6177SOL     OW19971   2.771   0.177   3.661  0.1766 -0.2460  0.5687
 6177SOL    HW119972   2.790   0.085   3.645  0.5176 -0.0451 -0.2155
 6177SOL    HW219973   2.845   0.209   3.712  0.6630 -0.1229 -0.1905
 6178SOL     OW19974   0.270   6.465   6.275 -0.1068 -0.1747  0.3818
 6178SOL    HW119975   0.274   6.489   6.182  0.2821  2.0079  0.9001
 6178SOL    HW219976   0.195   6.514   6.308  0.2478 -0.3022  1.3874
 6179SOL     OW19977   6.476   4.381  11.062 -0.6115  0.0699 -0.4741
 6179SOL    HW119978   6.520   4.458  11.098 -0.4519 -0.2221 -0.0331
 6179SOL    HW219979   6.410   4.358  11.128 -0.6547 -0.1740 -0.6014
 6180SOL     OW19980   3.182   6.017   0.239  0.1995  0.0692  0.3074
 6180SOL    HW119981   3.144   6.084   0.297 -0.0410 -0.4882  0.8136
 6180SOL    HW219982   3.151   5.934   0.276 -0.5754 -0.2808 -1.0602
 6181SOL     OW19983   4.607   7.665   4.011 -0.4933  0.5504 -0.1319
 6181SOL    HW119984   4.678   7.615   4.049 -0.5843  0.1236 -0.5090
 6181SOL    HW219985   4.539   7.600   3.991 -1.2066  1.0111  0.7024
 6182SOL     OW19986   7.081   6.638   3.470 -0.0679  0.3340  0.3443
 6182SOL    HW119987   7.102   6.577   3.400  2.6686  0.4535  0.9490
 6182SOL    HW219988   7.156   6.634   3.529 -1.7905  1.0107  2.7555
 6183SOL     OW19989   3.651   4.341   9.114  0.5488 -0.6177 -0.1135
 6183SOL    HW119990   3.561   4.311   9.125  0.2173 -0.7051 -2.4700
 6183SOL    HW219991   3.690   4.278   9.053  1.4308  0.7800 -1.0584
 6184SOL     OW19992   4.440   6.817   5.016  0.4343 -0.3850  0.8682
 6184SOL    HW119993   4.373   6.750   5.034  0.0040 -0.3580 -0.4847
 6184SOL    HW219994   4.393   6.884   4.966  0.9825  0.6953  1.7714
 6185SOL     OW19995   0.098   7.226   1.891 -0.5081 -0.1003  0.3038
 6185SOL    HW119996   0.133   7.315   1.889 -2.7421  0.8564  0.6598
 6185SOL    HW219997   0.044   7.219   1.812 -0.6198 -1.0054  0.4512
 6186SOL     OW19998   4.608   0.375  11.398 -0.0104  0.1975  0.2628
 6186SOL    HW119999   4.554   0.374  11.319  2.0701  0.2647 -1.2328
 6186SOL    HW220000   4.581   0.454  11.444 -1.4970 -0.0114 -0.1778
 6187SOL     OW20001   4.040   5.800   9.912 -0.7486  0.1768  0.0608
 6187SOL    HW120002   4.099   5.740   9.957  0.1628 -0.0781 -1.4108
 6187SOL    HW220003   4.058   5.885   9.953  0.6389  0.1036 -0.3351
 6188SOL     OW20004   2.006   2.308   3.566 -0.8751  0.2404 -0.4214
 6188SOL    HW120005   2.091   2.267   3.582 -1.2833  0.0573  1.5033
 6188SOL    HW220006   1.949   2.236   3.539 -0.4149  0.3805 -1.8158
 6189SOL     OW20007   7.545   0.854  10.946  0.1653 -0.0822 -0.0689
 6189SOL    HW120008   7.506   0.816  11.024 -1.1654 -0.1491 -0.7422
 6189SOL    HW220009   7.582   0.779  10.899  0.9047 -0.0506  0.4481
 6190SOL     OW20010   6.319   1.339   4.359 -0.2755 -0.1486  0.0180
 6190SOL    HW120011   6.310   1.247   4.383 -1.8091  0.4285  1.9208
 6190SOL    HW220012   6.413   1.358   4.368 -0.2120 -1.0645  1.5003
 6191SOL     OW20013   5.865   0.099   2.551 -0.2479 -0.2491  0.3760
 6191SOL    HW120014   5.772   0.085   2.571 -1.1123  1.5409 -1.9335
 6191SOL    HW220015   5.882   0.188   2.582  0.7564 -0.5923  0.8471
 6192SOL     OW20016   2.243   6.380  10.551 -0.5949  0.1704  0.1335
 6192SOL    HW120017   2.160   6.347  10.586 -0.6415  0.2143  0.0627
 6192SOL    HW220018   2.305   6.371  10.624 -0.7250  0.3881  0.2697
 6193SOL     OW20019   7.168   5.045  11.282  0.2177 -0.7606 -0.5826
 6193SOL    HW120020   7.099   5.052  11.216 -0.7787  2.3892  0.5761
 6193SOL    HW220021   7.128   4.996  11.354 -0.4928  0.1469 -0.3423
 6194SOL     OW20022   1.599   2.880   5.382 -0.1472 -0.1153 -0.2697
 6194SOL    HW120023   1.519   2.927   5.406 -1.4434 -1.0404 -2.4741
 6194SOL    HW220024   1.616   2.821   5.455 -0.4946  1.2818  0.9750
 6195SOL     OW20025   1.692   0.553  11.581  0.1240  0.1629  0.4725
 6195SOL    HW120026   1.602   0.534  11.609  0.1961 -0.9337 -0.0105
 6195SOL    HW220027   1.722   0.473  11.539  0.6594  1.1591 -1.1184
 6196SOL     OW20028   6.340   1.910   5.532  0.0408  0.5024  0.4707
 6196SOL    HW120029   6.420   1.913   5.584  2.0263 -1.6058 -2.1470
 6196SOL    HW220030   6.302   1.997   5.540  2.9545  1.8059  1.3023
 6197SOL     OW20031   4.522   1.087   9.719  0.2112  0.7516  0.0361
 6197SOL    HW120032   4.445   1.031   9.725  1.4388 -0.9870  0.5558
 6197SOL    HW220033   4.587   1.044   9.775  1.8190  1.7027 -1.0107
 6198SOL     OW20034   6.156   4.954   0.378  0.1595  0.0148 -0.2307
 6198SOL    HW120035   6.236   4.938   0.429  0.6944 -2.4278 -1.6846
 6198SOL    HW220036   6.173   5.036   0.333  1.2369  0.2908  0.6076
 6199SOL     OW20037   1.000   5.245   5.012  0.1276  0.3303 -0.6706
 6199SOL    HW120038   0.959   5.326   5.042 -0.2559  0.0843 -0.5148
 6199SOL    HW220039   0.963   5.177   5.068  2.3434  0.3401  0.9321
 6200SOL     OW20040   3.643   6.860   7.080  0.0485 -0.1284  0.8543
 6200SOL    HW120041   3.634   6.771   7.114 -0.3109 -0.5120 -0.2009
 6200SOL    HW220042   3.726   6.891   7.117  0.0104 -0.7651  1.5113
 6201SOL     OW20043   4.888   0.004   9.018  0.4043  0.2891 -0.3735
 6201SOL    HW120044   4.883  -0.085   9.051 -1.1717  0.7748  0.8643
 6201SOL    HW220045   4.952   0.001   8.947  1.3575 -1.5307  0.5143
 6202SOL     OW20046   3.406   2.096   4.268  0.5105 -0.4240 -0.2573
 6202SOL    HW120047   3.347   2.115   4.341  0.3233  3.0166 -1.1194
 6202SOL    HW220048   3.488   2.140   4.291  1.5021 -1.9144 -0.7810
 6203SOL     OW20049   1.707   1.171   2.487  0.5718 -0.5527  0.3527
 6203SOL    HW120050   1.734   1.184   2.578  0.4858 -0.3562  0.3519
 6203SOL    HW220051   1.706   1.076   2.476  0.3391 -0.5859  0.6332
 6204SOL     OW20052   6.999   7.280   2.947 -0.2385 -0.6929 -0.0321
 6204SOL    HW120053   7.083   7.255   2.909 -0.4564  0.3991 -1.3083
 6204SOL    HW220054   6.991   7.226   3.026  1.3454 -1.2805 -0.2432
 6205SOL     OW20055   0.073   1.738   3.820  0.0046 -0.2967 -0.1569
 6205SOL    HW120056   0.006   1.730   3.887  0.7751 -1.4313  0.5247
 6205SOL    HW220057   0.095   1.831   3.819  1.8143 -0.5301  3.0893
 6206SOL     OW20058   3.147   6.067   7.517 -0.5664  0.0908 -0.2111
 6206SOL    HW120059   3.172   6.013   7.442  1.5037  2.0890 -1.0662
 6206SOL    HW220060   3.133   6.154   7.480  2.1832  1.5417  1.8660
 6207SOL     OW20061   2.613   1.918   3.508  0.1534 -0.1654 -0.6207
 6207SOL    HW120062   2.533   1.951   3.466  0.3046  0.1592 -0.6514
 6207SOL    HW220063   2.581   1.860   3.578 -0.1612  1.4354  0.6110
 6208SOL     OW20064   2.731   5.110   4.321  0.4070 -0.5055  0.1261
 6208SOL    HW120065   2.796   5.168   4.280  0.7953 -0.7739  0.3607
 6208SOL    HW220066   2.759   5.022   4.295  0.9970 -0.7226  1.4415
 6209SOL     OW20067   5.532   0.368  11.314 -0.0239  0.7017 -0.2273
 6209SOL    HW120068   5.474   0.444  11.313  0.6991  1.2870 -2.5278
 6209SOL    HW220069   5.475   0.294  11.294 -0.2596  1.0584 -0.9050
 6210SOL     OW20070   2.964   2.578   6.605 -0.2662  0.4463  0.7383
 6210SOL    HW120071   3.006   2.502   6.646 -0.1053 -0.0822 -0.3797
 6210SOL    HW220072   3.037   2.631   6.573 -0.3775 -0.9970 -2.1646
 6211SOL     OW20073   1.082   7.066   4.122 -0.1064 -0.4831 -0.8805
 6211SOL    HW120074   1.049   7.155   4.120 -0.6571 -0.6289  0.6006
 6211SOL    HW220075   1.032   7.020   4.054 -1.3400 -0.1525 -0.2248
 6212SOL     OW20076   6.945   0.141   6.348  0.2879 -0.1926  0.0363
 6212SOL    HW120077   6.936   0.050   6.319  0.9651 -0.4246  0.5208
 6212SOL    HW220078   7.001   0.182   6.282  1.9002 -0.7427  1.0161
 6213SOL     OW20079   7.881   0.266   7.978 -0.2095  0.1988  0.0815
 6213SOL    HW120080   7.874   0.223   8.063 -1.1384  0.8235  0.3377
 6213SOL    HW220081   7.962   0.233   7.941 -1.4034 -2.6947 -0.2519
 6214SOL     OW20082   7.110   0.170   8.986 -0.0546  0.1709  0.2775
 6214SOL    HW120083   7.129   0.132   8.900  1.0842 -1.0919  1.0536
 6214SOL    HW220084   7.159   0.252   8.987 -0.0106  0.1568 -0.2489
 6215SOL     OW20085   3.041   0.847   0.500  0.5994  0.3313 -0.3379
 6215SOL    HW120086   3.023   0.915   0.565  0.0019  0.3304 -0.4914
 6215SOL    HW220087   2.959   0.839   0.451  0.6509 -0.5138 -0.3089
 6216SOL     OW20088   3.231   3.631   2.359  0.3288 -0.2291 -0.1594
 6216SOL    HW120089   3.173   3.599   2.290  0.4659  0.6256 -0.6780
 6216SOL    HW220090   3.278   3.704   2.319  0.3276  0.3529  0.8744
 6217SOL     OW20091   2.839   6.024  12.090  0.0302 -0.1294 -0.0142
 6217SOL    HW120092   2.916   5.968  12.101 -0.2919 -0.4751  0.5341
 6217SOL    HW220093   2.783   5.975  12.030  0.8077  0.7390 -1.5258
 6218SOL     OW20094   7.110   5.169   4.819  0.3212  0.5288  0.0217
 6218SOL    HW120095   7.041   5.221   4.778  0.0290 -0.8454 -1.3224
 6218SOL    HW220096   7.090   5.171   4.913 -2.2115 -0.7297 -0.4211
 6219SOL     OW20097   2.892   7.862  11.097  0.2707  0.1076 -0.3927
 6219SOL    HW120098   2.806   7.879  11.135  0.7502  2.2177 -0.1244
 6219SOL    HW220099   2.919   7.779  11.136 -0.9181  0.2677  0.8675
 6220SOL     OW20100   2.978   7.184   1.211  0.0976  0.5192 -0.0365
 6220SOL    HW120101   2.919   7.238   1.158  0.9715  0.9138 -0.6178
 6220SOL    HW220102   3.063   7.193   1.169  0.0135 -2.5709 -1.1693
 6221SOL     OW20103   4.954   0.216  11.829  0.8908 -0.1982 -0.3280
 6221SOL    HW120104   5.035   0.244  11.786 -0.0966  1.4455 -1.2014
 6221SOL    HW220105   4.925   0.292  11.878 -0.2101 -0.7286 -0.1300
 6222SOL     OW20106   3.889   4.340   5.826 -0.4397  0.2230  0.5307
 6222SOL    HW120107   3.913   4.368   5.914 -1.7251 -0.4625  1.1253
 6222SOL    HW220108   3.955   4.275   5.803 -0.0625  0.4438  0.9734
 6223SOL     OW20109   6.687   4.697  11.114 -0.1663 -0.0427  0.0394
 6223SOL    HW120110   6.604   4.744  11.123  0.7604  1.7545 -0.2724
 6223SOL    HW220111   6.742   4.732  11.183  1.2590  0.9428 -1.5209
 6224SOL     OW20112   2.630   1.398   5.816  0.2926  0.5234 -0.3895
 6224SOL    HW120113   2.698   1.449   5.861  0.6166  0.2965 -0.6130
 6224SOL    HW220114   2.562   1.461   5.796  0.5229  0.7947 -0.3285
 6225SOL     OW20115   1.699   6.123   2.022  0.2860 -0.0638  1.2424
 6225SOL    HW120116   1.642   6.178   2.077 -0.3899  0.3714  0.1412
 6225SOL    HW220117   1.639   6.064   1.977  0.6860  0.4467  0.0078
 6226SOL     OW20118   6.321   6.429   0.392 -0.0381  0.5000  0.0776
 6226SOL    HW120119   6.403   6.407   0.435 -1.2325 -2.6411  1.0075
 6226SOL    HW220120   6.267   6.466   0.461  0.1900  1.5698 -0.2954
 6227SOL     OW20121   2.090   2.034   5.698 -0.3563 -0.1215  0.1531
 6227SOL    HW120122   2.161   2.086   5.660 -0.6754 -0.9406 -1.6907
 6227SOL    HW220123   2.027   2.023   5.627 -1.0829 -1.6178  0.9670
 6228SOL     OW20124   0.410   4.154   3.665  0.1611 -0.7157  0.7489
 6228SOL    HW120125   0.350   4.123   3.732  0.2261 -2.2275  0.1495
 6228SOL    HW220126   0.398   4.249   3.663 -0.1246 -0.6884  2.5992
 6229SOL     OW20127   0.162   1.527   9.633 -0.7922  0.2968  0.0284
 6229SOL    HW120128   0.088   1.559   9.685 -0.4698  1.3122 -0.1027
 6229SOL    HW220129   0.220   1.485   9.697 -1.4707 -0.5107  0.1307
 6230SOL     OW20130   0.515   4.320   7.029 -0.5569  0.1900 -0.2974
 6230SOL    HW120131   0.569   4.374   7.086 -0.5990 -0.8274  0.7383
 6230SOL    HW220132   0.430   4.364   7.027 -1.1283 -0.6885  1.9209
 6231SOL     OW20133   5.081   3.769   2.775  0.2666  0.6420 -0.3513
 6231SOL    HW120134   5.127   3.840   2.730 -0.2351  0.4713 -1.1479
 6231SOL    HW220135   5.043   3.812   2.853  0.0775  1.2250 -0.7535
 6232SOL     OW20136   4.102   3.493   2.599 -0.4373  0.6327  0.0313
 6232SOL    HW120137   4.061   3.575   2.572 -0.5771  1.4326  2.3713
 6232SOL    HW220138   4.099   3.496   2.695 -0.9147 -2.3810  0.1994
 6233SOL     OW20139   2.958   6.641  10.102  0.1379  0.3151  0.1753
 6233SOL    HW120140   2.953   6.693  10.022 -1.1678  0.0911  0.0847
 6233SOL    HW220141   2.885   6.673  10.156  0.1740 -0.4584  0.7022
 6234SOL     OW20142   2.043   3.451   3.427 -0.5026  0.3252  0.7133
 6234SOL    HW120143   2.101   3.375   3.419  0.1941  0.5452  2.9860
 6234SOL    HW220144   1.997   3.455   3.343 -0.1533 -2.2505  0.3240
 6235SOL     OW20145   0.065   5.949   0.267  0.4158 -0.4145 -0.2379
 6235SOL    HW120146   0.024   6.035   0.275  1.8874  0.2819  0.3761
 6235SOL    HW220147   0.153   5.968   0.233  1.1940 -1.5307  1.0405
 6236SOL     OW20148   3.815   7.642   0.788  0.8399  1.0509 -1.1088
 6236SOL    HW120149   3.750   7.574   0.809  2.4244  0.3793  2.4187
 6236SOL    HW220150   3.887   7.595   0.746  1.7715  0.4923  0.9862
 6237SOL     OW20151   3.799   6.129   7.042  0.3184 -0.0078 -0.2379
 6237SOL    HW120152   3.789   6.224   7.049  0.5773 -0.0374  0.6803
 6237SOL    HW220153   3.718   6.099   7.001  0.0148  0.5547 -0.0634
 6238SOL     OW20154   2.202   2.844  11.529  0.1216 -0.0134 -0.3045
 6238SOL    HW120155   2.287   2.811  11.556  0.5265  0.4808 -0.9491
 6238SOL    HW220156   2.163   2.879  11.609  0.9761  0.7330 -0.1988
 6239SOL     OW20157   5.760   3.706   3.502 -0.0190  0.4044  0.2402
 6239SOL    HW120158   5.672   3.725   3.469 -0.1608  0.2239  0.5090
 6239SOL    HW220159   5.799   3.792   3.519  0.0443  0.4994 -0.3589
 6240SOL     OW20160   0.628   0.800   2.219 -0.7804 -0.1388  0.0664
 6240SOL    HW120161   0.664   0.887   2.207 -0.7231 -0.0552  0.7983
 6240SOL    HW220162   0.622   0.789   2.314  0.3774 -1.4077  0.0231
 6241SOL     OW20163   0.471   4.983   7.351  0.2346  0.3221 -0.3566
 6241SOL    HW120164   0.536   4.987   7.281  0.7924 -3.2321 -0.2381
 6241SOL    HW220165   0.451   4.890   7.359 -1.7318  0.8783  2.4954
 6242SOL     OW20166   4.270   1.632   7.743  0.0821  0.1507  0.0485
 6242SOL    HW120167   4.194   1.582   7.710  0.3834 -0.2407 -0.0620
 6242SOL    HW220168   4.231   1.709   7.785 -0.3536  0.2377 -0.4892
 6243SOL     OW20169   0.452   3.083   0.527  0.6882  0.3773  0.0053
 6243SOL    HW120170   0.538   3.118   0.551  0.3173  1.4296 -0.1304
 6243SOL    HW220171   0.390   3.151   0.555  0.0027  0.2070 -1.0256
 6244SOL     OW20172   5.233   5.848   1.164 -0.1714 -0.2160  0.1630
 6244SOL    HW120173   5.144   5.815   1.156 -1.0082  1.6996  0.9356
 6244SOL    HW220174   5.274   5.828   1.080 -1.3978 -0.8884 -0.2992
 6245SOL     OW20175   5.765   5.217   6.828  0.4345  0.3575 -0.7182
 6245SOL    HW120176   5.821   5.155   6.781 -0.5288  0.7207 -2.4176
 6245SOL    HW220177   5.803   5.222   6.916  1.5075 -1.3649 -1.0442
 6246SOL     OW20178   6.853   2.911   7.713  0.3115 -0.1275 -0.3153
 6246SOL    HW120179   6.906   2.841   7.751  2.1473  1.3187 -0.0384
 6246SOL    HW220180   6.888   2.991   7.753 -2.8386  0.8839  0.7098
 6247SOL     OW20181   1.161   3.444   5.143  0.1228 -0.4610  0.2931
 6247SOL    HW120182   1.232   3.416   5.085  0.4998  1.4355 -0.2510
 6247SOL    HW220183   1.180   3.537   5.160 -1.2326 -0.3941  1.6265
 6248SOL     OW20184   2.038   2.081   1.071 -0.2541 -0.3159  0.2965
 6248SOL    HW120185   2.041   2.067   1.166 -1.5040  0.2867  0.4424
 6248SOL    HW220186   2.068   1.997   1.034  1.2796 -0.2155  1.2016
 6249SOL     OW20187   2.695   4.031   6.655  0.0510  0.3471 -0.1708
 6249SOL    HW120188   2.770   3.999   6.604  0.2749 -0.1923  0.4738
 6249SOL    HW220189   2.710   4.125   6.662  0.8332  0.2065  0.1904
 6250SOL     OW20190   6.729   5.544   0.374  0.0484 -0.2289  0.2672
 6250SOL    HW120191   6.821   5.527   0.354  0.2514  0.5418  0.5070
 6250SOL    HW220192   6.680   5.480   0.322  0.7424 -1.0912  0.6652
 6251SOL     OW20193   0.954   1.841   8.684 -0.3489  0.2504  0.9072
 6251SOL    HW120194   1.005   1.920   8.667  1.0201 -0.4989  1.3234
 6251SOL    HW220195   0.937   1.803   8.598  0.6483  0.0152  0.8038
 6252SOL     OW20196   6.925   6.248  10.036 -0.4383 -0.3334  0.0818
 6252SOL    HW120197   6.871   6.269  10.112 -1.0633  0.6345 -0.5878
 6252SOL    HW220198   6.991   6.188  10.068 -0.2407  0.6211  1.5500
 6253SOL     OW20199   2.231   1.950   9.244 -0.2513  0.6243  0.1999
 6253SOL    HW120200   2.294   1.993   9.301  0.9366  0.1264 -0.6918
 6253SOL    HW220201   2.241   1.856   9.263 -2.4829  0.6212  1.7962
 6254SOL     OW20202   2.764   4.018   8.323  0.3440 -0.2800 -0.4673
 6254SOL    HW120203   2.687   4.059   8.361  1.3326  1.6043 -0.3741
 6254SOL    HW220204   2.735   3.930   8.299 -1.4125 -0.1354  0.8935
 6255SOL     OW20205   6.507   7.919  11.637 -0.1266 -0.2228  0.2370
 6255SOL    HW120206   6.413   7.937  11.638  0.0507  0.7827  0.2867
 6255SOL    HW220207   6.546   8.001  11.608  0.6295 -1.2366 -1.7892
 6256SOL     OW20208   5.095   5.461   7.445  0.1204 -0.2612  0.0950
 6256SOL    HW120209   5.184   5.428   7.429  0.0409  0.5324 -2.3679
 6256SOL    HW220210   5.046   5.439   7.366 -0.9832  2.1726  0.0073
 6257SOL     OW20211   7.756   2.226   6.678  0.2131 -0.1182 -0.4007
 6257SOL    HW120212   7.780   2.134   6.681 -1.0561 -0.4827 -0.7344
 6257SOL    HW220213   7.836   2.272   6.652  0.4514 -1.2893 -1.7887
 6258SOL     OW20214   7.734   6.794   3.398  0.2227  0.2808  0.0311
 6258SOL    HW120215   7.711   6.795   3.305  1.3704  1.8721 -0.2870
 6258SOL    HW220216   7.658   6.755   3.442 -1.2233  1.4021 -1.3683
 6259SOL     OW20217   0.685   7.264   0.123 -0.0597 -0.7555 -0.0180
 6259SOL    HW120218   0.757   7.327   0.123 -0.7689  0.1125  1.7330
 6259SOL    HW220219   0.621   7.299   0.185 -2.2091 -1.3029 -1.7766
 6260SOL     OW20220   0.924   6.642   4.754 -0.0516 -0.1747 -0.2877
 6260SOL    HW120221   0.957   6.557   4.782 -0.5418 -0.4127 -0.4306
 6260SOL    HW220222   0.927   6.696   4.833  0.4657 -0.2576 -0.2476
 6261SOL     OW20223   4.826   4.438   0.545 -0.0797 -0.0605 -0.1277
 6261SOL    HW120224   4.756   4.454   0.609  0.5097  1.2392  0.2411
 6261SOL    HW220225   4.899   4.405   0.598  0.9720  2.5663  0.2145
 6262SOL     OW20226   1.166   5.420  11.915  0.1783 -0.2092 -0.2182
 6262SOL    HW120227   1.092   5.479  11.900  0.3532 -0.0188 -0.3460
 6262SOL    HW220228   1.133   5.355  11.977  0.1592  0.3766  0.4015
 6263SOL     OW20229   3.348   2.056   5.447 -0.6753 -0.2519 -0.6387
 6263SOL    HW120230   3.264   2.016   5.471 -0.2419 -0.9615 -0.2878
 6263SOL    HW220231   3.405   1.982   5.427  0.5399  0.1048  1.2535
 6264SOL     OW20232   1.894   4.572   0.536 -0.6480  0.2908 -0.2284
 6264SOL    HW120233   1.879   4.521   0.457 -1.0950  0.2267 -0.1060
 6264SOL    HW220234   1.952   4.518   0.590  0.1498  0.5997 -0.7703
 6265SOL     OW20235   3.188   6.981   2.464 -0.0585 -0.0247 -0.3736
 6265SOL    HW120236   3.243   7.004   2.539 -0.1436  2.4571 -0.9840
 6265SOL    HW220237   3.140   6.904   2.493  0.5008  0.3757  1.8401
 6266SOL     OW20238   3.204   3.753   7.089  0.1297  0.5611 -0.0173
 6266SOL    HW120239   3.132   3.721   7.143  1.9780  0.4793  2.5966
 6266SOL    HW220240   3.229   3.678   7.036 -0.3124 -0.0801  0.6532
 6267SOL     OW20241   1.918   1.775   8.748  0.1571 -0.0985  0.0910
 6267SOL    HW120242   1.883   1.843   8.806  0.4781  0.8106 -0.7455
 6267SOL    HW220243   2.003   1.753   8.785 -0.1666 -0.4288  0.6563
 6268SOL     OW20244   4.337   0.649   6.672  0.2089  0.0142  0.1533
 6268SOL    HW120245   4.282   0.586   6.718 -0.4647  0.7297  0.3592
 6268SOL    HW220246   4.313   0.640   6.580  0.8518 -0.7317  0.0473
 6269SOL     OW20247   4.197   2.714   5.626 -0.2820 -0.2687 -0.4233
 6269SOL    HW120248   4.235   2.627   5.628  0.2755 -0.0409  1.2558
 6269SOL    HW220249   4.218   2.749   5.540  2.2575 -0.6456 -0.0286
 6270SOL     OW20250   1.058   5.020   7.842 -1.0417 -0.2652 -0.8368
 6270SOL    HW120251   0.983   5.078   7.832 -0.6891  0.0982 -1.4766
 6270SOL    HW220252   1.027   4.949   7.898 -1.2905  0.8870  0.5359
 6271SOL     OW20253   2.046   6.289   8.335 -0.2518 -0.4663  0.4313
 6271SOL    HW120254   2.112   6.357   8.324 -1.1274  0.6645  1.8180
 6271SOL    HW220255   1.993   6.294   8.256 -0.0040  0.1072  0.2989
 6272SOL     OW20256   3.718   2.653   8.887  0.3213  0.2750 -0.0829
 6272SOL    HW120257   3.623   2.640   8.895  0.5223 -0.2971  1.5570
 6272SOL    HW220258   3.751   2.569   8.857  0.3246  0.4843 -0.6853
 6273SOL     OW20259   7.192   4.679  11.347  0.0036 -0.2758 -0.1322
 6273SOL    HW120260   7.172   4.696  11.255  1.2584 -1.5536 -0.6882
 6273SOL    HW220261   7.249   4.751  11.373  1.4186 -1.0176 -1.0375
 6274SOL     OW20262   7.301   2.254   9.635 -0.3214 -0.2683 -0.4333
 6274SOL    HW120263   7.220   2.206   9.619 -0.5610 -0.4155  1.0501
 6274SOL    HW220264   7.370   2.188   9.626 -0.3762 -0.1899 -1.4863
 6275SOL     OW20265   4.658   7.891   6.527 -0.2658  0.3890  0.0722
 6275SOL    HW120266   4.713   7.850   6.459 -0.3808 -0.6174  0.5801
 6275SOL    HW220267   4.683   7.984   6.524  1.1009  0.0416 -0.0624
 6276SOL     OW20268   5.995   1.751   5.048 -0.3046  0.5232 -0.2901
 6276SOL    HW120269   5.960   1.837   5.026  2.0937  1.4491 -0.7774
 6276SOL    HW220270   6.044   1.724   4.970  1.9596  0.3920  1.0848
 6277SOL     OW20271   6.769   4.617   9.309 -0.6025  0.6215 -0.0325
 6277SOL    HW120272   6.843   4.678   9.312 -0.9483  1.3060 -2.6372
 6277SOL    HW220273   6.795   4.551   9.246 -0.8081 -1.2226  1.7276
 6278SOL     OW20274   2.184   3.983   2.160 -0.4627  0.0683 -0.2880
 6278SOL    HW120275   2.250   4.040   2.202  1.3742 -0.9155 -1.6826
 6278SOL    HW220276   2.103   4.004   2.206  1.0583  0.2408  2.6341
 6279SOL     OW20277   4.288   7.430   8.245 -0.0173  0.1551  0.6890
 6279SOL    HW120278   4.238   7.505   8.212  1.2045  0.5597 -0.3204
 6279SOL    HW220279   4.281   7.437   8.340 -2.3139 -0.1364  0.5965
 6280SOL     OW20280   1.613   1.426   9.050 -0.1702 -0.3185 -0.1765
 6280SOL    HW120281   1.640   1.346   9.096  1.2899  0.6567  0.7491
 6280SOL    HW220282   1.686   1.487   9.063 -1.6129  1.4720 -0.1001
 6281SOL     OW20283   1.971   4.577   9.607 -0.3155 -0.6519 -0.0278
 6281SOL    HW120284   1.881   4.569   9.639 -0.3109  0.4936  0.2942
 6281SOL    HW220285   2.023   4.523   9.666 -0.8399 -1.6949 -0.4914
 6282SOL     OW20286   7.151   5.767   0.856 -0.0203 -0.2025  0.3188
 6282SOL    HW120287   7.173   5.840   0.799  0.6793 -1.2065 -0.7428
 6282SOL    HW220288   7.235   5.742   0.896 -0.3930  0.0883  1.3284
 6283SOL     OW20289   4.257   7.267  12.176  0.2308  0.2497  0.4560
 6283SOL    HW120290   4.351   7.249  12.169  0.0590 -0.3077 -0.5523
 6283SOL    HW220291   4.252   7.353  12.219  1.1518 -0.3766  1.9031
 6284SOL     OW20292   7.001   4.173   0.877 -0.0287  0.0759  0.1286
 6284SOL    HW120293   7.079   4.220   0.848 -1.6910  2.1277 -1.3522
 6284SOL    HW220294   6.999   4.094   0.824  0.5461  0.4857 -0.5199
 6285SOL     OW20295   5.984   4.466   6.889  0.0047  0.4830 -0.4335
 6285SOL    HW120296   5.911   4.467   6.828 -1.5186 -1.6744  1.2005
 6285SOL    HW220297   6.048   4.407   6.850 -0.7017 -0.4235 -0.2464
 6286SOL     OW20298   6.728   0.298  11.168  0.4419  0.3770 -0.1150
 6286SOL    HW120299   6.736   0.358  11.242 -0.3601 -0.6938  0.8869
 6286SOL    HW220300   6.752   0.212  11.204  1.2125  0.0153 -1.4117
 6287SOL     OW20301   5.146   0.678  11.218 -0.1237  0.0169 -0.5115
 6287SOL    HW120302   5.108   0.735  11.151  1.7100  0.8490 -0.9029
 6287SOL    HW220303   5.238   0.704  11.223  0.1214 -1.0197  1.3215
 6288SOL     OW20304   0.695   0.858   6.273  0.0039 -0.1136  0.6038
 6288SOL    HW120305   0.728   0.797   6.338 -1.5514 -0.5460  1.0238
 6288SOL    HW220306   0.601   0.842   6.270  0.1491 -1.2234 -2.8939
 6289SOL     OW20307   3.498   5.997   0.102  0.5282 -0.3449  0.0937
 6289SOL    HW120308   3.484   5.958   0.189 -1.0812 -2.3087 -0.9600
 6289SOL    HW220309   3.543   5.929   0.053  0.0557  0.1553 -1.0579
 6290SOL     OW20310   3.637   4.458   7.950 -0.2602  0.3786 -0.1414
 6290SOL    HW120311   3.678   4.414   8.024 -0.4358  1.4914  0.6515
 6290SOL    HW220312   3.701   4.452   7.879  1.0035  1.4568  0.8574
 6291SOL     OW20313   6.442   1.068   6.284 -0.1001  0.2092  0.0851
 6291SOL    HW120314   6.528   1.026   6.274 -0.7095 -1.0791  0.0409
 6291SOL    HW220315   6.460   1.147   6.334  1.1727  0.1669 -0.2634
 6292SOL     OW20316   1.240   4.581   7.436  0.4605 -0.0210  0.1168
 6292SOL    HW120317   1.212   4.503   7.389 -0.4255 -1.2408  2.4861
 6292SOL    HW220318   1.162   4.638   7.437  0.5619  0.1199 -0.1430
 6293SOL     OW20319   5.534   3.380   5.334  0.1187 -0.5983 -0.2929
 6293SOL    HW120320   5.600   3.432   5.289  0.7853 -1.6845 -0.5913
 6293SOL    HW220321   5.567   3.373   5.424  0.6544 -1.5094 -0.5473
 6294SOL     OW20322   5.937   1.230   2.283  0.2257 -0.1926  0.2675
 6294SOL    HW120323   5.904   1.259   2.368  1.5502 -0.6963  0.9871
 6294SOL    HW220324   5.987   1.305   2.251 -0.2459 -0.0150 -0.0570
 6295SOL     OW20325   5.646   4.745   9.566  0.0170  0.2963 -0.5039
 6295SOL    HW120326   5.604   4.660   9.573  0.9161 -0.1017  0.2027
 6295SOL    HW220327   5.658   4.759   9.472  0.8476 -0.8557 -0.5900
 6296SOL     OW20328   0.242   0.638  10.021 -0.3321  0.0963 -0.3174
 6296SOL    HW120329   0.292   0.616  10.100  0.0715  2.1329  0.0674
 6296SOL    HW220330   0.263   0.569   9.959 -0.6201 -1.5503  1.3206
 6297SOL     OW20331   0.567   5.013   4.765  0.2373  0.7138 -0.5255
 6297SOL    HW120332   0.634   5.007   4.832  0.5458 -0.3264 -0.9147
 6297SOL    HW220333   0.562   5.106   4.744 -0.2866  1.1523  1.3435
 6298SOL     OW20334   0.797   6.437   8.362 -0.4434 -0.5905 -0.4478
 6298SOL    HW120335   0.785   6.407   8.271 -0.4398  0.0453 -0.6682
 6298SOL    HW220336   0.873   6.495   8.358 -0.5267 -0.4538 -0.0632
 6299SOL     OW20337   3.408   7.768   7.340 -0.1828  0.3877  0.0013
 6299SOL    HW120338   3.503   7.776   7.325  0.7048 -2.4375  2.9559
 6299SOL    HW220339   3.384   7.851   7.381  0.9271  1.2499 -1.0115
 6300SOL     OW20340   1.531   7.702   8.626 -0.0940  0.0806 -0.7105
 6300SOL    HW120341   1.568   7.731   8.710 -1.2458 -1.5253  0.4315
 6300SOL    HW220342   1.597   7.725   8.561  1.0848  0.8894  0.7074
 6301SOL     OW20343   7.133   3.408   2.600  0.0300 -0.0046  0.1860
 6301SOL    HW120344   7.073   3.345   2.641  0.6927 -0.9836 -0.3047
 6301SOL    HW220345   7.196   3.429   2.669 -0.5760  0.6636  0.5565
 6302SOL     OW20346   2.377   5.072   9.344  0.0715 -0.1235  0.1942
 6302SOL    HW120347   2.336   5.077   9.257 -0.8165  2.1329  0.6774
 6302SOL    HW220348   2.303   5.063   9.404  0.5721 -0.0366  0.8286
 6303SOL     OW20349   1.431   1.674   3.212  0.7208 -0.3190  0.4953
 6303SOL    HW120350   1.525   1.692   3.216  0.7438  0.5444 -1.9049
 6303SOL    HW220351   1.418   1.640   3.123 -1.0301 -1.8904  1.3137
 6304SOL     OW20352   1.867   1.769   1.664 -0.1045  0.2453  0.0995
 6304SOL    HW120353   1.781   1.755   1.625 -0.9407  2.8679  0.7869
 6304SOL    HW220354   1.896   1.682   1.690 -1.6038 -0.9706 -2.0101
 6305SOL     OW20355   6.317   2.944  11.847  0.1527 -0.4883  0.2282
 6305SOL    HW120356   6.341   2.869  11.792  0.1983 -1.0994  1.0515
 6305SOL    HW220357   6.296   3.014  11.785  2.6424 -0.3468 -0.5543
 6306SOL     OW20358   2.226   2.105  11.309  0.5385 -0.0966 -0.3138
 6306SOL    HW120359   2.154   2.164  11.287  0.5595 -0.1602 -0.5639
 6306SOL    HW220360   2.276   2.151  11.376 -0.4906 -0.6224  0.8364
 6307SOL     OW20361   1.597   1.021  11.554 -0.0919 -0.8140  0.0038
 6307SOL    HW120362   1.667   0.989  11.497 -1.3683 -0.3507 -1.9129
 6307SOL    HW220363   1.586   0.952  11.619  2.7338 -0.4809  0.9480
 6308SOL     OW20364   2.611   2.045   5.487 -0.0871 -0.0241 -0.2604
 6308SOL    HW120365   2.518   2.024   5.477  0.2406 -1.6612 -0.2018
 6308SOL    HW220366   2.656   1.981   5.431  1.0295  0.3949  0.1363
 6309SOL     OW20367   6.349   1.254   4.048  0.0630  0.5376 -0.7444
 6309SOL    HW120368   6.278   1.308   4.013 -0.2495 -0.0667 -1.0429
 6309SOL    HW220369   6.334   1.254   4.143 -1.1345 -0.6921 -0.9059
 6310SOL     OW20370   4.615   6.512  12.377 -0.3039  0.2086  0.2066
 6310SOL    HW120371   4.701   6.488  12.413 -0.2818  0.2072  0.1521
 6310SOL    HW220372   4.592   6.438  12.321  0.0461  0.6026 -0.4615
 6311SOL     OW20373   6.221   5.193   2.265 -0.5583  0.3077  0.2035
 6311SOL    HW120374   6.191   5.176   2.176  1.6155  3.0697 -1.1990
 6311SOL    HW220375   6.298   5.138   2.276 -2.3023 -2.0561  1.4959
 6312SOL     OW20376   7.202   0.355   7.572  0.2161 -0.3819 -0.0692
 6312SOL    HW120377   7.208   0.347   7.667  0.3726  0.0418 -0.0379
 6312SOL    HW220378   7.215   0.449   7.556 -1.9729 -0.0684 -0.3245
 6313SOL     OW20379   7.022   4.857   9.065 -0.4029 -0.4430 -0.4107
 6313SOL    HW120380   6.991   4.852   9.155  0.4506  1.8188  0.0671
 6313SOL    HW220381   7.113   4.826   9.069 -0.3488 -0.2939 -0.4751
 6314SOL     OW20382   6.903   2.976  10.480  0.6686 -0.4779 -0.3926
 6314SOL    HW120383   6.990   2.976  10.441  0.9216 -1.9133  0.0977
 6314SOL    HW220384   6.867   2.890  10.458 -0.5050 -0.0293 -0.3119
 6315SOL     OW20385   0.024   0.324   3.362 -0.3361 -0.5246 -0.1881
 6315SOL    HW120386   0.092   0.391   3.354 -0.3966 -0.4501 -0.0799
 6315SOL    HW220387  -0.023   0.327   3.278 -0.6582 -0.0823  0.0068
 6316SOL     OW20388   5.008   2.924  10.944 -0.4778 -0.3679  0.2198
 6316SOL    HW120389   4.957   2.843  10.934 -0.2107 -0.7005  1.4183
 6316SOL    HW220390   5.015   2.936  11.038 -0.8231  1.2693  0.0520
 6317SOL     OW20391   3.594   5.230   6.723 -0.0385  0.1804  0.3974
 6317SOL    HW120392   3.643   5.150   6.702 -2.5492 -2.0926  2.5588
 6317SOL    HW220393   3.662   5.292   6.750  1.9831 -1.3103 -0.8883
 6318SOL     OW20394   4.709   5.675   5.494  0.3933  0.2752 -0.2793
 6318SOL    HW120395   4.729   5.655   5.402  0.1844  0.1990 -0.3077
 6318SOL    HW220396   4.698   5.590   5.535 -0.5351  0.3257 -0.4089
 6319SOL     OW20397   4.747   0.210   6.455 -0.1338 -0.1831  0.6048
 6319SOL    HW120398   4.821   0.204   6.394 -0.7500 -0.8484 -0.1012
 6319SOL    HW220399   4.702   0.291   6.429 -0.3458 -0.4206  0.2260
 6320SOL     OW20400   1.401   3.727  11.425 -0.1902  0.0553 -0.0688
 6320SOL    HW120401   1.370   3.655  11.481 -1.0521  0.0107 -0.5841
 6320SOL    HW220402   1.330   3.792  11.429  0.2761  0.5732 -0.1596
 6321SOL     OW20403   1.328   0.525   5.102  0.1355  0.5287 -0.1816
 6321SOL    HW120404   1.239   0.505   5.131 -0.3886  2.7179 -0.0831
 6321SOL    HW220405   1.384   0.476   5.162 -1.0065  0.7208  1.0954
 6322SOL     OW20406   0.283   2.203   2.737 -0.3546 -0.1563  0.4515
 6322SOL    HW120407   0.241   2.287   2.757  0.6214  0.0168  1.8487
 6322SOL    HW220408   0.368   2.207   2.781  0.6765 -0.9696 -1.3515
 6323SOL     OW20409   7.303   2.009   1.477  0.0823 -0.1115  0.3135
 6323SOL    HW120410   7.266   1.974   1.558 -1.6195  1.1394  0.1192
 6323SOL    HW220411   7.366   2.075   1.506 -1.2098  1.0138  0.6577
 6324SOL     OW20412   7.349   1.199   6.543  0.2140  0.2258  0.5810
 6324SOL    HW120413   7.339   1.137   6.616  1.2239 -1.0460 -0.3066
 6324SOL    HW220414   7.441   1.222   6.543  0.0109  1.0623  0.3592
 6325SOL     OW20415   4.763   2.279   5.318  0.3585 -0.3049  0.3459
 6325SOL    HW120416   4.690   2.278   5.257 -1.9584 -1.1181  2.9116
 6325SOL    HW220417   4.813   2.199   5.298 -1.7358 -1.8579  0.9735
 6326SOL     OW20418   0.524   0.993   3.907 -0.3089 -0.1543  0.5435
 6326SOL    HW120419   0.568   0.958   3.984  0.1371 -0.6072  0.0962
 6326SOL    HW220420   0.572   1.073   3.885  0.8231 -1.0530 -0.3987
 6327SOL     OW20421   1.999   2.632   5.990  0.1689  0.2287  0.1668
 6327SOL    HW120422   1.985   2.547   6.032  0.1614  0.0442 -0.2069
 6327SOL    HW220423   2.094   2.646   5.995  0.0969  0.5053  0.8163
 6328SOL     OW20424   7.158   5.756   7.481  0.1487 -0.0220 -0.1239
 6328SOL    HW120425   7.163   5.814   7.404  1.1662  2.0063  1.3692
 6328SOL    HW220426   7.098   5.801   7.540  0.5715 -0.7554  0.8869
 6329SOL     OW20427   5.131   3.239   6.515 -0.4908 -0.3924 -0.3038
 6329SOL    HW120428   5.120   3.316   6.571 -2.7963 -0.9280  0.0904
 6329SOL    HW220429   5.087   3.261   6.433 -0.0450 -0.8177 -0.6644
 6330SOL     OW20430   1.611   7.461   5.995 -0.1207  0.2236 -0.3166
 6330SOL    HW120431   1.557   7.540   6.001  0.5595  0.8174 -1.6193
 6330SOL    HW220432   1.679   7.483   5.932  0.5828 -1.1315 -0.0705
 6331SOL     OW20433   0.867   5.331   2.173 -0.8036  0.3017 -0.8033
 6331SOL    HW120434   0.931   5.262   2.155 -0.4789  0.1608  0.7560
 6331SOL    HW220435   0.793   5.285   2.214 -2.7053  0.1991 -4.0367
 6332SOL     OW20436   5.041   5.123  11.436  0.8544 -0.5086  0.3966
 6332SOL    HW120437   5.119   5.125  11.381  0.5487  0.0265 -0.0261
 6332SOL    HW220438   5.058   5.054  11.500  2.0967  0.2512  0.9168
 6333SOL     OW20439   6.931   0.942  12.042 -0.1038  1.0289  0.2387
 6333SOL    HW120440   6.840   0.956  12.015  0.0020  2.4936  0.5687
 6333SOL    HW220441   6.925   0.912  12.133 -0.2511  1.3043  0.3203
 6334SOL     OW20442   2.571   2.058   4.574  0.6131  0.4712 -0.0836
 6334SOL    HW120443   2.521   1.984   4.538  0.1219  0.7423  0.0355
 6334SOL    HW220444   2.610   2.023   4.654 -2.6369  1.3136  2.0702
 6335SOL     OW20445   5.622   2.266   4.770 -0.1728 -0.1347 -0.4935
 6335SOL    HW120446   5.573   2.338   4.730  0.0536  0.0589 -0.4243
 6335SOL    HW220447   5.669   2.226   4.697 -1.0326 -0.8152 -0.6990
 6336SOL     OW20448   5.901   5.481   5.530 -0.5400 -0.3936  0.5354
 6336SOL    HW120449   5.971   5.530   5.487 -0.5627 -0.8718 -0.0547
 6336SOL    HW220450   5.944   5.440   5.606 -0.7364  1.3151  1.6147
 6337SOL     OW20451   7.861   3.912   5.414 -0.6167 -0.5839  0.1911
 6337SOL    HW120452   7.907   3.899   5.331 -0.6781 -0.9590  0.2162
 6337SOL    HW220453   7.893   3.842   5.471 -1.4087 -1.0169  0.1221
 6338SOL     OW20454   2.489   1.967   0.294  0.0557  0.1685  0.6564
 6338SOL    HW120455   2.496   1.977   0.389  0.5478 -2.1538  0.9329
 6338SOL    HW220456   2.494   1.872   0.279 -2.2279  0.2591 -1.5218
 6339SOL     OW20457   1.846   5.038   2.945 -0.0410 -0.4913 -0.2464
 6339SOL    HW120458   1.848   5.118   2.893  1.3345 -1.4752 -1.8265
 6339SOL    HW220459   1.760   5.000   2.928 -1.1847  1.1888  1.4735
 6340SOL     OW20460   7.302   7.407   2.025 -0.5084 -0.3378  0.3815
 6340SOL    HW120461   7.209   7.383   2.029 -1.3081  1.9025 -2.0189
 6340SOL    HW220462   7.303   7.500   2.047  1.5070 -0.7288  2.2844
 6341SOL     OW20463   2.920   1.558   4.852 -0.0736  0.0299  0.7681
 6341SOL    HW120464   3.006   1.526   4.825  0.0631  0.8066  0.2474
 6341SOL    HW220465   2.880   1.484   4.897  0.0742 -0.9977 -0.7237
 6342SOL     OW20466   3.061   4.720   6.434  0.0128 -0.1716 -0.1531
 6342SOL    HW120467   3.131   4.660   6.409  2.7836  2.6733  0.1445
 6342SOL    HW220468   2.989   4.699   6.375  1.8708 -1.9026 -1.9492
 6343SOL     OW20469   5.146   6.920   9.210  0.3479  0.4444  0.2461
 6343SOL    HW120470   5.059   6.879   9.207  0.2511  0.5340  1.2438
 6343SOL    HW220471   5.205   6.847   9.230  0.0643  0.8460  2.9573
 6344SOL     OW20472   1.862   5.678   5.933 -0.1224  0.0879  0.0572
 6344SOL    HW120473   1.838   5.602   5.987 -2.3518  0.1948 -0.6994
 6344SOL    HW220474   1.807   5.670   5.855  1.2703  1.2655 -1.0940
 6345SOL     OW20475   7.685   1.537  10.067 -0.2778  0.1790  0.7547
 6345SOL    HW120476   7.727   1.537  10.153  1.5524  2.8032 -0.0019
 6345SOL    HW220477   7.745   1.587  10.011 -1.8741 -0.5841 -1.8171
 6346SOL     OW20478   4.534   2.895  10.515  0.6292 -0.4548 -0.2847
 6346SOL    HW120479   4.509   2.987  10.518  1.7550 -0.1638  1.4345
 6346SOL    HW220480   4.624   2.896  10.483  1.1890 -0.8093  1.2243
 6347SOL     OW20481   0.962   3.022   4.039  0.5802  0.0677  0.0231
 6347SOL    HW120482   1.031   3.077   4.002 -0.7572  2.5387  0.9820
 6347SOL    HW220483   0.962   3.044   4.132 -1.5744  0.2791  0.0083
 6348SOL     OW20484   1.876   1.187   9.587 -0.1503 -0.2002 -0.3134
 6348SOL    HW120485   1.794   1.216   9.625 -0.7432 -0.4903 -1.3309
 6348SOL    HW220486   1.940   1.195   9.658 -1.1508 -0.4451  0.6427
 6349SOL     OW20487   1.462   2.575   1.019  0.0413 -0.7441  0.3682
 6349SOL    HW120488   1.428   2.514   0.953 -0.0715 -0.1164 -0.1689
 6349SOL    HW220489   1.385   2.601   1.070 -0.2275  0.2916 -0.5284
 6350SOL     OW20490   5.627   2.365   6.997 -0.4518 -0.2941 -0.5092
 6350SOL    HW120491   5.537   2.333   6.996 -0.1894 -1.0445 -0.4144
 6350SOL    HW220492   5.651   2.365   7.090 -0.6855  0.8678 -0.4370
 6351SOL     OW20493   3.958   2.266   4.037  0.2211  0.3520  0.0308
 6351SOL    HW120494   3.977   2.346   3.987  0.2079 -0.9311 -2.1735
 6351SOL    HW220495   3.900   2.216   3.979 -0.4005 -0.9356  1.6917
 6352SOL     OW20496   7.819   4.116  10.991 -0.6274 -0.2264 -0.2948
 6352SOL    HW120497   7.756   4.126  10.919  1.4020  0.4604 -2.0786
 6352SOL    HW220498   7.839   4.206  11.017  0.0339 -0.4195 -0.1320
 6353SOL     OW20499   0.800   1.407   0.350 -0.1051 -0.5951  0.1167
 6353SOL    HW120500   0.799   1.441   0.260 -0.2397  0.0804  0.3707
 6353SOL    HW220501   0.797   1.312   0.339 -0.1196 -0.5200 -0.5955
 6354SOL     OW20502   1.849   3.765   1.988  0.2593  0.1299 -0.6342
 6354SOL    HW120503   1.873   3.731   1.902  2.0005  1.0904 -0.5639
 6354SOL    HW220504   1.930   3.762   2.039 -0.3864  0.9942  0.4991
 6355SOL     OW20505   4.897   4.344   5.398  0.0360 -0.3765 -0.1523
 6355SOL    HW120506   4.840   4.288   5.346  1.6964 -1.6937 -0.6420
 6355SOL    HW220507   4.837   4.404   5.443 -1.8722 -2.6645  0.5675
 6356SOL     OW20508   6.890   0.029   0.374  0.0808 -0.3622  0.6523
 6356SOL    HW120509   6.982   0.054   0.380  0.6945 -2.0251 -0.8110
 6356SOL    HW220510   6.889  -0.063   0.402 -0.7530 -0.9875 -1.2500
 6357SOL     OW20511   3.428   7.452  12.213 -0.5133  0.0091  0.1218
 6357SOL    HW120512   3.439   7.546  12.224  0.4804 -0.2110  1.2579
 6357SOL    HW220513   3.512   7.422  12.178  0.1102 -0.7552  2.1256
 6358SOL     OW20514   5.272   1.569   7.534  0.3237  0.1218 -0.0560
 6358SOL    HW120515   5.365   1.562   7.554  0.8043 -1.2925 -2.3869
 6358SOL    HW220516   5.231   1.498   7.583  0.2752  1.3351  1.7324
 6359SOL     OW20517   4.878   3.154   3.937 -0.3698 -0.0972 -0.0048
 6359SOL    HW120518   4.798   3.135   3.889  0.0064  2.0368 -1.5911
 6359SOL    HW220519   4.887   3.249   3.934  2.1706 -0.2595  0.1646
 6360SOL     OW20520   4.417   0.200   6.347 -0.2121 -0.7272  0.1222
 6360SOL    HW120521   4.455   0.279   6.309 -0.0755 -0.3151  1.0916
 6360SOL    HW220522   4.476   0.178   6.419 -0.0587 -1.9167 -0.3500
 6361SOL     OW20523   6.519   4.732  10.154  0.1303 -0.0216  0.1217
 6361SOL    HW120524   6.538   4.820  10.187 -1.1027  0.4501 -0.3956
 6361SOL    HW220525   6.424   4.724  10.158  0.2035 -1.2431 -0.0935
 6362SOL     OW20526   3.874   4.868   6.084  0.0315  0.3042 -0.2202
 6362SOL    HW120527   3.846   4.867   5.992  0.8492  0.9281 -0.4860
 6362SOL    HW220528   3.962   4.905   6.083  0.4249 -0.5446  0.7334
 6363SOL     OW20529   5.078   6.473   5.549 -0.3142  0.4206  0.9514
 6363SOL    HW120530   5.096   6.454   5.640  2.0481  1.4254  0.7569
 6363SOL    HW220531   5.156   6.519   5.517 -0.0133 -1.9165 -2.2089
 6364SOL     OW20532   1.466   0.359   5.972  0.2930 -0.4106  0.7717
 6364SOL    HW120533   1.417   0.430   5.932  0.8826 -0.4184  0.0066
 6364SOL    HW220534   1.504   0.397   6.051 -1.2203 -0.5079  1.5782
 6365SOL     OW20535   7.756   6.829   6.950 -0.2188  0.3123  0.3633
 6365SOL    HW120536   7.710   6.745   6.952 -0.9838  0.5244 -3.1092
 6365SOL    HW220537   7.839   6.811   6.907  0.0940  1.1603  0.5824
 6366SOL     OW20538   7.196   1.497   1.042  0.5776 -0.7660 -0.5390
 6366SOL    HW120539   7.168   1.525   1.129 -1.0664 -1.0034 -0.9496
 6366SOL    HW220540   7.260   1.427   1.058  3.0579  1.5556  0.4704
 6367SOL     OW20541   3.398   6.264   0.134 -0.2173  0.2081 -0.0496
 6367SOL    HW120542   3.431   6.175   0.146 -0.7379  0.2146  1.6604
 6367SOL    HW220543   3.303   6.254   0.126 -0.4856  0.6932  1.9238
 6368SOL     OW20544   2.400   2.419   8.242 -0.5489 -0.4001 -0.2234
 6368SOL    HW120545   2.437   2.382   8.322  2.5368 -1.0456 -1.8203
 6368SOL    HW220546   2.379   2.343   8.188 -0.6148  0.0567 -0.8472
 6369SOL     OW20547   0.912   2.372  10.362  0.2374  0.1884  0.0729
 6369SOL    HW120548   0.992   2.412  10.396  0.3909 -0.1354  0.1006
 6369SOL    HW220549   0.879   2.318  10.435  0.7400 -0.7651 -0.3838
 6370SOL     OW20550   0.559   5.560  11.774  0.4378 -0.3146  0.0473
 6370SOL    HW120551   0.572   5.585  11.865  0.9618 -1.0128  0.1664
 6370SOL    HW220552   0.636   5.596  11.729 -1.0582  2.3501 -0.6128
 6371SOL     OW20553   5.989   6.944   0.474 -0.0756 -0.2117  0.2297
 6371SOL    HW120554   6.076   6.926   0.510 -1.2080 -1.1512  2.7588
 6371SOL    HW220555   5.967   6.864   0.425  0.5037  0.0746 -0.5165
 6372SOL     OW20556   4.158   2.014   8.349 -0.8241  0.3653 -0.4205
 6372SOL    HW120557   4.185   2.105   8.336 -0.2681  0.5607  1.6561
 6372SOL    HW220558   4.227   1.976   8.405 -2.9733 -0.1371  2.1103
 6373SOL     OW20559   3.258   2.733   2.263 -0.2574 -0.2372  0.1950
 6373SOL    HW120560   3.344   2.743   2.221 -0.5555 -0.9347 -0.6045
 6373SOL    HW220561   3.275   2.750   2.356  0.3474  1.7946 -0.2227
 6374SOL     OW20562   0.318   4.424   7.524 -0.3508 -0.4389  0.1013
 6374SOL    HW120563   0.352   4.425   7.613 -2.2333  0.1762  0.8649
 6374SOL    HW220564   0.247   4.360   7.526 -0.2852 -0.5614 -1.0056
 6375SOL     OW20565   7.594   0.040   0.104  0.1664  0.2222 -0.1744
 6375SOL    HW120566   7.555   0.115   0.149 -0.8811 -0.4526  0.0649
 6375SOL    HW220567   7.536   0.022   0.030  0.9148  0.2172 -0.7718
 6376SOL     OW20568   3.006   2.025   8.790 -0.0263  0.4528  0.3004
 6376SOL    HW120569   3.057   2.011   8.869  0.6784  1.5385  0.0522
 6376SOL    HW220570   3.059   2.085   8.737 -0.7932  0.2786 -0.6959
 6377SOL     OW20571   2.448   7.616  10.217  0.1947 -0.3457 -0.1301
 6377SOL    HW120572   2.372   7.609  10.159 -1.1889 -0.1857  1.6062
 6377SOL    HW220573   2.470   7.709  10.215 -0.5006 -0.1655  0.3945
 6378SOL     OW20574   2.606   5.834   4.455  0.2638  0.6111 -0.2179
 6378SOL    HW120575   2.547   5.901   4.490 -1.2844 -1.4356  1.3153
 6378SOL    HW220576   2.554   5.754   4.455  2.4583 -0.8955 -0.6850
 6379SOL     OW20577   1.448   5.755   5.473 -0.2725 -0.1935  0.4077
 6379SOL    HW120578   1.496   5.723   5.396  1.3891  0.0398  1.3140
 6379SOL    HW220579   1.509   5.815   5.516 -1.6592  0.6807  1.2306
 6380SOL     OW20580   6.874   2.475   4.797 -0.7500  0.3452 -0.0391
 6380SOL    HW120581   6.780   2.468   4.811 -0.4791  0.6371  2.3289
 6380SOL    HW220582   6.882   2.517   4.711 -2.7383  0.0849 -0.4111
 6381SOL     OW20583   2.267   7.897   8.798 -0.3941 -0.5076  0.0440
 6381SOL    HW120584   2.228   7.834   8.858 -0.5133  0.1757  0.7001
 6381SOL    HW220585   2.346   7.927   8.843 -1.5410  1.5277  0.8116
 6382SOL     OW20586   0.327   0.516   9.424 -0.2707  0.1049 -0.1060
 6382SOL    HW120587   0.369   0.491   9.341 -1.3573 -0.6797 -0.4595
 6382SOL    HW220588   0.368   0.460   9.489 -1.1143 -1.0650 -0.5390
 6383SOL     OW20589   2.239   3.876   2.663 -0.1238 -0.0577 -0.0943
 6383SOL    HW120590   2.253   3.801   2.720 -2.0166 -1.4901 -1.3763
 6383SOL    HW220591   2.149   3.866   2.632 -0.4710  2.8175 -0.2554
 6384SOL     OW20592   1.824   0.897   7.552 -0.1432  0.1004  0.1221
 6384SOL    HW120593   1.848   0.964   7.488 -1.1382  1.8720  1.5066
 6384SOL    HW220594   1.748   0.853   7.514 -1.3255  1.7843  0.4267
 6385SOL     OW20595   1.536   4.792  10.146  0.4030  0.0359  0.4008
 6385SOL    HW120596   1.510   4.745  10.068  0.8496  0.1925  0.1506
 6385SOL    HW220597   1.510   4.735  10.219 -1.8651  0.7801  0.2519
 6386SOL     OW20598   5.839   0.257   9.982  0.0638  0.1211  0.5264
 6386SOL    HW120599   5.797   0.178  10.016  0.9406 -0.9147 -0.7053
 6386SOL    HW220600   5.779   0.328  10.004 -0.9420 -0.9460  1.2966
 6387SOL     OW20601   6.683   0.738  10.721  0.2609 -0.7438  0.0879
 6387SOL    HW120602   6.753   0.691  10.766  1.5309 -1.7914 -2.6952
 6387SOL    HW220603   6.614   0.673  10.708  0.5908 -0.9402 -0.8017
 6388SOL     OW20604   7.033   0.747   0.959 -0.0614 -0.3325 -0.2974
 6388SOL    HW120605   7.111   0.700   0.930 -0.0953 -0.3660 -0.3365
 6388SOL    HW220606   7.040   0.833   0.919 -0.8268 -0.8542 -1.6326
 6389SOL     OW20607   6.965   5.029   6.220  0.1868  0.5778  0.3992
 6389SOL    HW120608   6.880   4.999   6.254  1.3279 -0.9090  2.0743
 6389SOL    HW220609   7.029   5.001   6.285  2.2813 -0.6174 -1.9799
 6390SOL     OW20610   5.016   0.088   0.793 -0.0490 -0.1227 -0.7221
 6390SOL    HW120611   4.995   0.009   0.843  0.1194  1.2426  1.6597
 6390SOL    HW220612   5.080   0.059   0.728  0.1481 -1.8958  0.1941
 6391SOL     OW20613   4.287   1.473  10.438  0.4383 -0.7785 -0.2134
 6391SOL    HW120614   4.262   1.448  10.349 -0.6058 -0.4561 -0.0246
 6391SOL    HW220615   4.315   1.564  10.431 -0.1624 -0.5795 -0.1375
 6392SOL     OW20616   6.610   3.571   3.635 -0.6169  0.1565 -0.9386
 6392SOL    HW120617   6.518   3.578   3.659 -0.5247  0.8142 -0.7530
 6392SOL    HW220618   6.626   3.477   3.626 -1.3658  0.0537 -1.2148
 6393SOL     OW20619   5.027   7.659   1.315  0.6453 -0.6282 -0.1871
 6393SOL    HW120620   5.090   7.641   1.245  0.5637 -0.9916 -0.1676
 6393SOL    HW220621   5.004   7.573   1.349 -0.4329 -0.5622 -0.6951
 6394SOL     OW20622   3.949   3.953   1.756 -0.1450 -0.0047 -0.1232
 6394SOL    HW120623   3.868   3.990   1.793  0.2507 -1.7821  2.8468
 6394SOL    HW220624   3.930   3.859   1.746  0.6294  0.0049 -2.3345
 6395SOL     OW20625   6.822   4.829   0.479 -0.3007  0.0687  0.2578
 6395SOL    HW120626   6.782   4.825   0.392 -0.3338 -0.7247  0.3061
 6395SOL    HW220627   6.915   4.808   0.464 -0.4585 -0.8579  0.5069
 6396SOL     OW20628   6.529   2.519  11.922  0.2577 -0.0846 -0.0868
 6396SOL    HW120629   6.490   2.602  11.948 -0.2536 -1.1450  2.8686
 6396SOL    HW220630   6.456   2.468  11.886 -0.2408 -0.4747  1.3909
 6397SOL     OW20631   5.008   1.557   1.088 -0.2112 -0.0180 -0.4557
 6397SOL    HW120632   5.022   1.607   1.168 -0.1131  0.8353 -0.9917
 6397SOL    HW220633   5.000   1.623   1.020 -1.9846 -0.6625 -0.9123
 6398SOL     OW20634   2.524   2.252   4.029 -0.2893  0.2547 -0.2381
 6398SOL    HW120635   2.471   2.208   4.096 -0.2390  1.7175  0.8096
 6398SOL    HW220636   2.609   2.208   4.031 -0.1418  0.5764  1.0001
 6399SOL     OW20637   4.415   3.741   1.836  0.4759 -0.2706  0.2958
 6399SOL    HW120638   4.422   3.834   1.814  0.7486 -0.4603 -0.4279
 6399SOL    HW220639   4.367   3.703   1.763 -0.9795 -0.4442  1.3034
 6400SOL     OW20640   2.343   3.942   9.617 -0.0724  0.4472 -0.1674
 6400SOL    HW120641   2.431   3.913   9.639 -1.2789 -1.5674  2.5377
 6400SOL    HW220642   2.341   3.939   9.521  2.3286 -0.9150 -0.2712
 6401SOL     OW20643   4.493   7.494   3.569 -0.0310 -0.5929 -0.3330
 6401SOL    HW120644   4.462   7.569   3.621  2.5625 -0.3446  1.0223
 6401SOL    HW220645   4.532   7.533   3.492  0.8757 -0.5599  0.1337
 6402SOL     OW20646   0.521   5.393   4.295  0.4980 -0.3124 -0.7670
 6402SOL    HW120647   0.495   5.381   4.386  1.3050 -0.8697 -0.6004
 6402SOL    HW220648   0.571   5.315   4.274  0.6792  0.0088 -1.5668
 6403SOL     OW20649   1.736   7.130   4.382 -0.2296  0.6414 -0.4088
 6403SOL    HW120650   1.686   7.164   4.457 -0.4093 -0.9396  0.2343
 6403SOL    HW220651   1.800   7.071   4.421  0.4283  0.6539 -1.4344
 6404SOL     OW20652   3.049   4.212   2.925 -0.0674  0.1281 -0.2385
 6404SOL    HW120653   2.979   4.149   2.912 -0.2232  0.6453 -2.1025
 6404SOL    HW220654   3.127   4.159   2.938 -0.4870 -0.4458 -0.0256
 6405SOL     OW20655   7.064   1.906   1.332  0.4922  0.5048  0.0782
 6405SOL    HW120656   7.154   1.928   1.309  0.7472 -0.7257 -0.1906
 6405SOL    HW220657   7.052   1.939   1.421  1.0772  1.0073 -0.0265
 6406SOL     OW20658   0.527   3.170  10.124 -0.2158  0.5463 -0.2834
 6406SOL    HW120659   0.600   3.184  10.064 -1.7397  1.9521 -1.8924
 6406SOL    HW220660   0.523   3.251  10.175  0.7760 -0.4546  1.5079
 6407SOL     OW20661   3.205   4.471   7.747 -0.2824 -0.1175 -0.0769
 6407SOL    HW120662   3.163   4.391   7.778  0.4925 -1.8861 -3.1280
 6407SOL    HW220663   3.273   4.440   7.687  2.0233  2.7851  0.8167
 6408SOL     OW20664   5.781   7.920   5.569  0.1590 -0.2462 -0.2792
 6408SOL    HW120665   5.871   7.949   5.558  0.3413 -0.6615  0.0641
 6408SOL    HW220666   5.738   7.940   5.486  0.4301  0.4328 -0.2647
 6409SOL     OW20667   3.139   5.251   7.143  0.1677  0.3056 -0.1055
 6409SOL    HW120668   3.190   5.310   7.088 -0.9690  1.9748  0.5404
 6409SOL    HW220669   3.065   5.225   7.088 -1.2801  2.4313  0.7156
 6410SOL     OW20670   1.743   0.670   2.267  0.0089 -0.0142 -0.3219
 6410SOL    HW120671   1.674   0.615   2.231  1.6179 -1.6371 -1.1046
 6410SOL    HW220672   1.777   0.718   2.192  1.6916 -1.5141 -0.5891
 6411SOL     OW20673   0.067   0.255  10.506 -0.5387 -0.1500 -0.8092
 6411SOL    HW120674   0.157   0.249  10.539 -0.3057  2.1204 -0.8939
 6411SOL    HW220675   0.013   0.226  10.580  0.2278 -1.1008 -0.6019
 6412SOL     OW20676   7.820   2.655   9.046 -0.0424  0.0713 -0.3557
 6412SOL    HW120677   7.870   2.731   9.017 -0.1659  0.1289 -0.4177
 6412SOL    HW220678   7.887   2.592   9.075  0.0202  0.5500  0.5481
 6413SOL     OW20679   3.693   7.245   7.542  0.3667 -0.0574 -0.4353
 6413SOL    HW120680   3.644   7.216   7.620 -0.2880  2.4390  0.1823
 6413SOL    HW220681   3.735   7.165   7.510  0.3102 -1.2923  2.2094
 6414SOL     OW20682   4.749   2.362  11.583 -0.7017  0.2420  0.5104
 6414SOL    HW120683   4.734   2.453  11.609  1.6072  1.5367 -2.1304
 6414SOL    HW220684   4.798   2.324  11.656 -0.2464  1.6628  0.9851
 6415SOL     OW20685   3.718   4.528  10.916  0.2445  0.9086  0.2974
 6415SOL    HW120686   3.725   4.496  10.826  1.2931  1.1183  0.2906
 6415SOL    HW220687   3.808   4.553  10.939  0.7725 -2.3494  2.5938
 6416SOL     OW20688   4.299   6.281   5.567 -0.1602 -0.3436 -0.0814
 6416SOL    HW120689   4.379   6.326   5.539  0.3961  0.0614  1.9834
 6416SOL    HW220690   4.240   6.351   5.592  0.4047 -0.6324  2.3525
 6417SOL     OW20691   0.653   0.350  11.171  0.4479 -0.5814  0.5640
 6417SOL    HW120692   0.690   0.271  11.132  2.2122  0.9474 -1.0645
 6417SOL    HW220693   0.728   0.407  11.187 -0.7419  0.7339  1.8825
 6418SOL     OW20694   1.247   4.924   4.478 -0.0896 -0.3229 -0.0089
 6418SOL    HW120695   1.281   4.835   4.469  0.8593  0.0057  0.1959
 6418SOL    HW220696   1.152   4.914   4.475 -0.0122 -1.0197 -3.0492
 6419SOL     OW20697   3.116   7.509   4.819  0.2640  0.0126  0.4521
 6419SOL    HW120698   3.058   7.585   4.809  0.3190 -0.1407 -1.2602
 6419SOL    HW220699   3.060   7.441   4.856 -0.7944 -0.2390 -1.4988
 6420SOL     OW20700   3.252   0.769  11.878 -0.3260  0.6304  0.2930
 6420SOL    HW120701   3.184   0.829  11.909 -0.3855  0.8415 -0.2441
 6420SOL    HW220702   3.280   0.805  11.794  0.4004  0.5074  0.4700
 6421SOL     OW20703   3.680   2.969   6.301  0.0184  0.3453  0.5626
 6421SOL    HW120704   3.608   2.966   6.239  0.2518  0.0443  0.2957
 6421SOL    HW220705   3.643   2.935   6.383 -0.1660  0.2817  0.4538
 6422SOL     OW20706   4.815   4.795   2.496 -0.2597  0.3811 -0.0080
 6422SOL    HW120707   4.902   4.836   2.497 -0.1436  0.1611  1.3092
 6422SOL    HW220708   4.764   4.849   2.436  0.6919  0.7181 -0.5357
 6423SOL     OW20709   3.452   4.408   6.384 -0.5815  0.3566  0.0023
 6423SOL    HW120710   3.499   4.482   6.344 -0.4300  0.7540  0.8868
 6423SOL    HW220711   3.365   4.443   6.404 -0.2639  0.5437  1.1248
 6424SOL     OW20712   7.008   1.650   6.440  0.1335 -0.1801 -0.5585
 6424SOL    HW120713   7.070   1.590   6.400 -0.7458 -0.9875 -0.7505
 6424SOL    HW220714   7.006   1.625   6.532 -0.8822 -1.0590 -0.7975
 6425SOL     OW20715   3.961   0.295   5.264  0.9379 -0.2386  0.4282
 6425SOL    HW120716   3.971   0.346   5.344  1.4554 -1.4575  1.1684
 6425SOL    HW220717   3.993   0.352   5.195 -1.3811  1.6074  0.7672
 6426SOL     OW20718   7.075   5.496   7.405  0.3152  0.4303 -0.0299
 6426SOL    HW120719   7.027   5.524   7.327 -0.6006  1.9126  1.0097
 6426SOL    HW220720   7.123   5.574   7.434 -0.4472  0.3426  1.6357
 6427SOL     OW20721   3.505   1.401   4.348 -0.1411 -0.5252  0.4495
 6427SOL    HW120722   3.558   1.450   4.412  0.9732  0.9555 -1.4871
 6427SOL    HW220723   3.416   1.434   4.360  0.1753  0.2373  0.7728
 6428SOL     OW20724   0.056   1.669   5.499 -0.4075 -0.4878 -0.0958
 6428SOL    HW120725   0.104   1.620   5.433  1.9347  1.7771 -0.2221
 6428SOL    HW220726  -0.006   1.723   5.448  0.1373 -0.0671 -0.3226
 6429SOL     OW20727   4.290   0.699   5.963  0.1221 -0.0920 -0.0366
 6429SOL    HW120728   4.232   0.658   6.027 -0.3853  0.4162 -0.1596
 6429SOL    HW220729   4.302   0.789   5.996 -0.6918  0.3858 -0.9962
 6430SOL     OW20730   3.849   5.078   1.660  0.3110 -0.2402  0.2052
 6430SOL    HW120731   3.833   5.158   1.710  0.0500 -0.5820  0.6812
 6430SOL    HW220732   3.802   5.090   1.578  1.3919  0.6597 -0.2980
 6431SOL     OW20733   6.077   0.227   1.117 -0.2551  0.3470 -0.3782
 6431SOL    HW120734   6.124   0.144   1.109 -0.3949  0.3382 -1.1827
 6431SOL    HW220735   6.123   0.274   1.186 -0.1723 -0.3939  0.0898
 6432SOL     OW20736   3.333   7.773   3.589 -0.3843 -0.2952 -0.3359
 6432SOL    HW120737   3.297   7.715   3.521  0.1057  0.3584 -1.1709
 6432SOL    HW220738   3.351   7.855   3.544  0.2558  0.0520  0.5194
 6433SOL     OW20739   3.880   5.431  11.350  0.3645  0.8032  0.5114
 6433SOL    HW120740   3.870   5.418  11.445 -0.3524 -0.4467  0.2900
 6433SOL    HW220741   3.968   5.397  11.331  0.2851  0.5131  0.6473
 6434SOL     OW20742   3.449   5.351   6.958  0.1276 -0.1779 -0.0551
 6434SOL    HW120743   3.467   5.302   6.878 -0.8688  1.3330 -1.2671
 6434SOL    HW220744   3.361   5.386   6.944  0.5668  1.4312  1.0106
 6435SOL     OW20745   4.798   2.402   4.656  0.5844  0.1927 -0.1023
 6435SOL    HW120746   4.772   2.346   4.583  1.6957  0.7738 -0.9793
 6435SOL    HW220747   4.757   2.486   4.638  0.8309  0.3280 -0.0463
 6436SOL     OW20748   7.461   6.180  11.942  0.0438  0.6756 -0.2048
 6436SOL    HW120749   7.482   6.096  11.903  1.1830  0.7728  0.1397
 6436SOL    HW220750   7.421   6.159  12.026  0.1254  0.4797 -0.2156
 6437SOL     OW20751   2.959   5.496  10.881 -0.4041 -0.2208  0.5851
 6437SOL    HW120752   2.927   5.549  10.808  0.5356 -1.2682 -0.6501
 6437SOL    HW220753   3.052   5.483  10.862  0.1612  0.5126  2.6594
 6438SOL     OW20754   6.544   1.882   4.201  0.0089  0.0702 -0.4048
 6438SOL    HW120755   6.537   1.823   4.276  2.2114  0.5678  0.2918
 6438SOL    HW220756   6.462   1.930   4.200 -0.3583 -0.4621  1.2529
 6439SOL     OW20757   0.109   0.415   4.710 -0.2978 -0.1690 -0.0892
 6439SOL    HW120758   0.130   0.322   4.703 -1.6562 -0.5351  0.4142
 6439SOL    HW220759   0.039   0.420   4.775 -0.8876  1.0987 -0.7724
 6440SOL     OW20760   0.098   0.636   8.538 -0.1322  0.1710 -0.5093
 6440SOL    HW120761   0.008   0.624   8.509 -0.5350  1.3523  0.1771
 6440SOL    HW220762   0.129   0.712   8.489  0.5045 -0.2426 -0.7578
 6441SOL     OW20763   1.091   5.540   4.863 -0.1013  0.3530  0.2748
 6441SOL    HW120764   1.141   5.458   4.863 -1.3235 -0.4460  1.8690
 6441SOL    HW220765   1.048   5.541   4.948 -1.1992  1.9992 -0.2694
 6442SOL     OW20766   7.612   0.778   0.509 -0.1685  0.3847  0.0768
 6442SOL    HW120767   7.574   0.866   0.512 -1.1991 -0.0328 -0.1013
 6442SOL    HW220768   7.640   0.761   0.599 -0.3905  0.7207  0.2133
 6443SOL     OW20769   2.736   3.331   1.038  0.0852 -0.3040  0.1630
 6443SOL    HW120770   2.797   3.382   1.091 -0.2988 -0.4508  0.7509
 6443SOL    HW220771   2.696   3.269   1.099 -1.4267  0.4760  0.0167
 6444SOL     OW20772   6.351   3.086   3.805 -0.1275  0.3706  0.4651
 6444SOL    HW120773   6.267   3.077   3.850 -1.5413  2.8934 -1.3864
 6444SOL    HW220774   6.343   3.031   3.727 -0.4990  1.3378 -0.2019
 6445SOL     OW20775   7.382   2.791   8.596 -0.1997  0.4118  0.1352
 6445SOL    HW120776   7.287   2.800   8.588 -0.0935  0.8978 -0.7542
 6445SOL    HW220777   7.396   2.762   8.686 -1.2159 -0.0660  0.1584
 6446SOL     OW20778   3.828   2.168   1.663  0.1131 -0.1703  0.0856
 6446SOL    HW120779   3.779   2.208   1.592  2.0195  0.1758 -1.1129
 6446SOL    HW220780   3.920   2.187   1.643  0.7845 -1.0204  2.0578
 6447SOL     OW20781   5.497   4.146   6.853 -0.0945 -0.2724  0.1944
 6447SOL    HW120782   5.484   4.116   6.943 -0.8890 -1.5611 -0.3365
 6447SOL    HW220783   5.529   4.236   6.863  0.7505 -0.7140  1.7784
 6448SOL     OW20784   3.135   5.145   0.730 -0.0400  0.0467 -0.1182
 6448SOL    HW120785   3.080   5.132   0.807 -0.6306 -0.6798 -0.6450
 6448SOL    HW220786   3.182   5.063   0.719  1.8347  0.9279  0.8039
 6449SOL     OW20787   2.693   3.119   9.629  0.2590  0.3604  0.4677
 6449SOL    HW120788   2.607   3.096   9.665  0.6387  0.1342  1.2549
 6449SOL    HW220789   2.688   3.213   9.614  0.1703  0.5017  1.3573
 6450SOL     OW20790   6.602   0.632  10.444 -0.1709 -0.2493  0.5003
 6450SOL    HW120791   6.665   0.562  10.427  1.2197  0.8484  0.9172
 6450SOL    HW220792   6.654   0.701  10.484 -1.4997  1.0341  0.0906
 6451SOL     OW20793   3.759   6.451   8.011 -1.0892 -0.1039  0.4359
 6451SOL    HW120794   3.839   6.403   8.033 -0.2162  1.2179  0.3007
 6451SOL    HW220795   3.699   6.385   7.977 -0.5564 -1.3498  1.8159
 6452SOL     OW20796   7.357   0.410   6.042 -0.0823  0.0911 -1.1248
 6452SOL    HW120797   7.451   0.398   6.051 -0.2382 -0.5233 -0.2044
 6452SOL    HW220798   7.348   0.486   5.984  0.9755  1.7473  0.7736
 6453SOL     OW20799   6.102   6.657   8.564  0.1163  0.3509  0.5025
 6453SOL    HW120800   6.082   6.731   8.622 -0.5141  0.8753 -0.3608
 6453SOL    HW220801   6.191   6.674   8.534  0.5494 -0.0697  1.5234
 6454SOL     OW20802   2.301   0.867  10.393 -0.0972 -0.3882  0.7365
 6454SOL    HW120803   2.364   0.935  10.370 -0.0647 -0.1331  1.5447
 6454SOL    HW220804   2.332   0.789  10.347  1.7596 -0.6881  2.3829
 6455SOL     OW20805   0.547   1.424   3.631 -0.3009 -0.3617 -0.2573
 6455SOL    HW120806   0.475   1.381   3.585 -0.4741 -0.7603  0.3753
 6455SOL    HW220807   0.506   1.463   3.709  0.2286 -0.9326  0.3147
 6456SOL     OW20808   6.711   1.364   0.403  0.2981 -0.1700 -0.2030
 6456SOL    HW120809   6.656   1.438   0.428  0.3957 -0.4312  0.8739
 6456SOL    HW220810   6.654   1.287   0.413  0.8124 -0.4392  0.9038
 6457SOL     OW20811   1.919   7.556   4.236 -0.4409 -0.0012 -0.0921
 6457SOL    HW120812   1.935   7.618   4.307 -0.0183  0.9782 -1.0113
 6457SOL    HW220813   2.003   7.512   4.223 -0.1836  0.6887 -0.7853
 6458SOL     OW20814   1.892   6.989  11.151 -0.3296 -0.0597 -0.4341
 6458SOL    HW120815   1.904   6.923  11.220  1.2612  0.7370  0.0973
 6458SOL    HW220816   1.923   6.945  11.071  3.5524  0.8363  0.3627
 6459SOL     OW20817   0.174   5.707   4.954  0.1562  0.1249 -0.8624
 6459SOL    HW120818   0.144   5.617   4.939  2.7424 -0.6941 -1.5596
 6459SOL    HW220819   0.208   5.735   4.869  0.7641  1.2060 -0.2883
 6460SOL     OW20820   5.525   6.422   7.958  0.0915  0.2352  0.2892
 6460SOL    HW120821   5.503   6.369   7.882  0.7767 -1.4241  1.2064
 6460SOL    HW220822   5.598   6.477   7.928  0.4147 -0.4632 -0.2444
 6461SOL     OW20823   3.207   6.675   4.355  0.3493 -0.1290 -0.0844
 6461SOL    HW120824   3.186   6.681   4.262 -1.1174  0.3504  0.2484
 6461SOL    HW220825   3.292   6.719   4.363 -1.0954  3.0762 -0.7092
 6462SOL     OW20826   7.765   7.653   3.538  0.4527  0.5350  0.0130
 6462SOL    HW120827   7.853   7.679   3.509  0.0409  1.5714 -0.3550
 6462SOL    HW220828   7.731   7.731   3.582  0.3921 -0.4401  1.7830
 6463SOL     OW20829   6.937   7.211   5.801  0.1027  0.0338 -0.7305
 6463SOL    HW120830   6.938   7.224   5.895 -1.6874 -3.0725 -0.1310
 6463SOL    HW220831   7.008   7.266   5.768  1.8407  0.0331  2.6018
 6464SOL     OW20832   4.839   6.222   8.193 -0.2068 -0.6958 -0.1223
 6464SOL    HW120833   4.916   6.230   8.250 -0.6273  3.1582  0.1847
 6464SOL    HW220834   4.875   6.226   8.105  0.1761 -3.0155 -0.1124
 6465SOL     OW20835   3.955   1.660   7.262  0.0055  0.2812 -0.7608
 6465SOL    HW120836   3.898   1.664   7.185 -0.7966  0.4828 -0.1599
 6465SOL    HW220837   3.950   1.747   7.300 -0.2637 -0.0634 -0.0022
 6466SOL     OW20838   2.495   3.869   6.766  0.0401  0.0994 -0.3577
 6466SOL    HW120839   2.565   3.919   6.723  1.1329  0.3268  1.5961
 6466SOL    HW220840   2.465   3.927   6.836 -2.8106  0.4013 -1.6888
 6467SOL     OW20841   4.006   4.980   3.530  0.1066  1.1093 -0.5328
 6467SOL    HW120842   4.058   4.900   3.524 -0.5816  0.7567 -2.1100
 6467SOL    HW220843   3.972   4.980   3.620 -0.1764 -0.5506 -0.6131
 6468SOL     OW20844   3.700   1.311  10.644 -0.0878  0.2953 -0.4865
 6468SOL    HW120845   3.620   1.337  10.598 -0.5692 -0.8352 -0.3258
 6468SOL    HW220846   3.669   1.261  10.720  0.7541  0.4747 -0.0110
 6469SOL     OW20847   5.690   1.874   7.453  0.2633  0.1820  0.1126
 6469SOL    HW120848   5.668   1.790   7.413  0.5560 -0.1017  0.5366
 6469SOL    HW220849   5.629   1.936   7.414  0.8085 -0.0069 -1.0859
 6470SOL     OW20850   1.365   6.179   1.739  0.0684 -0.8808  0.2250
 6470SOL    HW120851   1.336   6.243   1.803 -0.3253 -1.6531  0.8403
 6470SOL    HW220852   1.321   6.098   1.765 -0.4993 -1.1019 -1.3109
 6471SOL     OW20853   7.661   0.754  11.711 -0.2287 -0.0480  0.4055
 6471SOL    HW120854   7.607   0.769  11.788  0.5779 -2.0314  1.4361
 6471SOL    HW220855   7.654   0.660  11.695  0.5748  0.1382 -1.2331
 6472SOL     OW20856   7.005   2.708   0.547 -0.3606 -0.0742 -0.8643
 6472SOL    HW120857   7.013   2.629   0.492  1.5635  0.7206 -1.8380
 6472SOL    HW220858   7.072   2.696   0.615 -1.0029  0.1023 -0.1940
 6473SOL     OW20859   1.093   0.436   1.966  0.7134 -0.2506 -0.4541
 6473SOL    HW120860   1.143   0.452   1.887  1.6541 -1.6933 -0.1884
 6473SOL    HW220861   1.087   0.341   1.972  0.0005 -0.1563  0.7997
 6474SOL     OW20862   3.308   6.981   6.520 -0.5165 -0.1526  0.6609
 6474SOL    HW120863   3.369   7.034   6.469 -2.2367  1.0524 -0.2164
 6474SOL    HW220864   3.222   7.016   6.499 -1.6255 -2.4665  1.0757
 6475SOL     OW20865   1.776   5.984   4.695 -0.2162 -0.0579 -0.2080
 6475SOL    HW120866   1.696   5.938   4.723 -1.4292  1.6852 -0.6023
 6475SOL    HW220867   1.755   6.017   4.608  0.5553  1.2622  0.0777
 6476SOL     OW20868   1.326   5.987   2.000 -0.0476  0.1383 -0.4206
 6476SOL    HW120869   1.289   5.942   2.076  1.0156  0.7344  0.4865
 6476SOL    HW220870   1.299   5.934   1.925 -2.3954  0.3376  0.1972
 6477SOL     OW20871   1.828   1.323   5.231 -0.0352  0.1091  0.9207
 6477SOL    HW120872   1.901   1.332   5.170 -1.5113  0.1834 -0.9044
 6477SOL    HW220873   1.812   1.412   5.263 -0.0777  0.2747  0.4356
 6478SOL     OW20874   4.348   7.853   3.301  0.2401  0.2276 -0.0716
 6478SOL    HW120875   4.390   7.797   3.366  0.1813 -0.3923 -0.5583
 6478SOL    HW220876   4.368   7.943   3.329 -0.6050 -0.0060  1.3462
 6479SOL     OW20877   5.378   3.650   9.709 -0.0998 -0.0344 -0.5319
 6479SOL    HW120878   5.395   3.613   9.795 -1.9014  1.5116  0.5692
 6479SOL    HW220879   5.462   3.648   9.664  0.9257 -0.6809  1.3350
 6480SOL     OW20880   4.227   5.305   2.073  0.1294 -0.4083  0.3566
 6480SOL    HW120881   4.185   5.383   2.036 -1.6085 -2.1314 -1.5901
 6480SOL    HW220882   4.318   5.312   2.044 -0.1808  0.5139 -0.4818
 6481SOL     OW20883   2.996   3.024   2.844  0.4470 -0.3294  0.0503
 6481SOL    HW120884   3.040   3.033   2.929  1.1013  1.6547 -0.4434
 6481SOL    HW220885   3.043   3.084   2.786 -2.3368  1.3025 -0.7390
 6482SOL     OW20886   0.067   5.675   2.991  0.5653 -0.0427 -0.1287
 6482SOL    HW120887  -0.002   5.608   2.999  0.1196  0.5175  1.0023
 6482SOL    HW220888   0.020   5.758   2.987  1.1625  0.4258  1.6406
 6483SOL     OW20889   4.196   5.821  11.593 -0.7654 -0.4097 -0.9367
 6483SOL    HW120890   4.160   5.890  11.536 -0.5892  1.6823  1.2988
 6483SOL    HW220891   4.243   5.869  11.661  0.1529 -2.8301  0.2376
 6484SOL     OW20892   0.460   0.687   3.955 -0.1167 -0.0720 -0.6832
 6484SOL    HW120893   0.388   0.750   3.959 -1.4124 -1.5135 -0.0296
 6484SOL    HW220894   0.417   0.601   3.962  1.7411 -0.9524  1.0493
 6485SOL     OW20895   5.352   5.063   6.388 -0.2555  0.3214  0.8969
 6485SOL    HW120896   5.295   5.021   6.325 -2.2543 -0.3758  3.0054
 6485SOL    HW220897   5.339   5.157   6.373  1.0355  0.2308 -1.1049
 6486SOL     OW20898   7.207   4.623   7.016  0.0709 -0.5316 -0.6086
 6486SOL    HW120899   7.285   4.633   6.961  0.8523  1.4335  0.7394
 6486SOL    HW220900   7.219   4.538   7.059  2.2446  0.2876  0.6060
 6487SOL     OW20901   4.493   6.287  10.672  0.1144 -0.6729 -0.4491
 6487SOL    HW120902   4.442   6.264  10.750  0.3360 -0.8042 -0.3412
 6487SOL    HW220903   4.462   6.373  10.647  0.1579 -0.5598 -0.1141
 6488SOL     OW20904   5.773   1.946   7.809  0.4117 -0.1735  0.4480
 6488SOL    HW120905   5.695   1.965   7.862 -1.1909 -1.0304 -1.4861
 6488SOL    HW220906   5.800   2.031   7.775 -0.5624 -0.0143  0.0203
 6489SOL     OW20907   1.526   0.202   3.371  0.1685  0.0934 -0.9122
 6489SOL    HW120908   1.610   0.208   3.324  0.8267  1.2176  0.3416
 6489SOL    HW220909   1.471   0.147   3.315  0.5822  2.0898 -3.4564
 6490SOL     OW20910   6.674   7.807   5.589  0.6021 -0.7386  0.4530
 6490SOL    HW120911   6.758   7.834   5.624  0.2826  0.5264  0.2828
 6490SOL    HW220912   6.621   7.887   5.587  0.4679 -0.7855 -2.5036
 6491SOL     OW20913   4.075   7.728   9.626 -0.0281 -0.1517  0.0193
 6491SOL    HW120914   4.054   7.689   9.541 -1.3377 -0.1902  0.3340
 6491SOL    HW220915   4.130   7.803   9.605  2.1949 -1.8593 -0.6244
 6492SOL     OW20916   6.975   1.417  11.667  0.2410 -0.3371 -0.2171
 6492SOL    HW120917   7.054   1.471  11.671 -0.6117  1.1020 -1.8400
 6492SOL    HW220918   6.998   1.345  11.608  0.9432 -1.0431  0.8839
 6493SOL     OW20919   6.281   6.516  11.729 -0.0137 -0.3272 -0.4510
 6493SOL    HW120920   6.196   6.471  11.735 -0.9259  1.4254  0.3837
 6493SOL    HW220921   6.276   6.586  11.793  2.6286 -0.9917  0.5998
 6494SOL     OW20922   5.379   4.815   2.011 -0.2774 -0.2012  0.1390
 6494SOL    HW120923   5.326   4.746   1.970  0.2929  0.8803 -2.6372
 6494SOL    HW220924   5.326   4.894   2.001  0.1030  0.1980  1.1576
 6495SOL     OW20925   1.787   3.862   4.427  0.3623 -0.3838  0.3587
 6495SOL    HW120926   1.777   3.768   4.442  0.8739 -0.8024 -1.5901
 6495SOL    HW220927   1.711   3.885   4.373  0.5940  0.1744  0.2719
 6496SOL     OW20928   2.906   6.934   7.514  0.0429 -0.1263 -0.7463
 6496SOL    HW120929   2.861   7.014   7.486  0.5511  0.4594  0.0766
 6496SOL    HW220930   2.836   6.876   7.544 -0.2470  0.4400 -0.3046
 6497SOL     OW20931   0.187   7.314   4.544  1.1887 -0.1662 -0.4822
 6497SOL    HW120932   0.265   7.367   4.558  1.3179 -0.7253  1.0936
 6497SOL    HW220933   0.135   7.326   4.623 -0.1744 -0.0795 -1.3619
 6498SOL     OW20934   3.901   7.318   0.268 -0.1459  0.4308  0.4234
 6498SOL    HW120935   3.817   7.364   0.262 -0.0110  0.8752  1.6463
 6498SOL    HW220936   3.930   7.309   0.177 -1.2465  0.7693  0.0222
 6499SOL     OW20937   1.260   0.740   9.341  0.0295  0.0875  0.2723
 6499SOL    HW120938   1.166   0.759   9.336 -0.5285 -2.2645  0.5820
 6499SOL    HW220939   1.275   0.713   9.431  0.8878 -0.0742  0.0922
 6500SOL     OW20940   3.076   6.839   2.201 -0.0523 -0.0941 -0.2374
 6500SOL    HW120941   2.990   6.826   2.160  0.6749 -1.7403 -1.2964
 6500SOL    HW220942   3.075   6.780   2.276  0.2808 -0.3754 -0.4542
 6501SOL     OW20943   2.382   4.803   5.157  0.3531  0.0267  0.1033
 6501SOL    HW120944   2.374   4.898   5.163 -0.7626 -0.0284 -0.1857
 6501SOL    HW220945   2.295   4.774   5.130  0.5342 -1.1209  0.6822
 6502SOL     OW20946   7.525   1.144   6.860 -0.2662  0.1903  0.4624
 6502SOL    HW120947   7.486   1.226   6.888 -1.2368 -0.1436  0.1581
 6502SOL    HW220948   7.516   1.144   6.764 -0.1183 -0.1912  0.4427
 6503SOL     OW20949   2.248   0.988  10.737  0.0106  0.3207 -0.5147
 6503SOL    HW120950   2.298   0.923  10.786  0.4156  0.3645 -0.8638
 6503SOL    HW220951   2.288   1.072  10.761  0.2983  0.3317 -1.0155
 6504SOL     OW20952   1.561   4.396   7.166  0.0388 -0.0525 -0.2280
 6504SOL    HW120953   1.548   4.490   7.178  0.9086  0.0300  0.2008
 6504SOL    HW220954   1.559   4.360   7.254 -1.1022 -0.5613 -0.4544
 6505SOL     OW20955   7.053   6.088   3.366  0.3472  0.5859  0.4636
 6505SOL    HW120956   7.056   5.994   3.353  0.2630  0.4533  1.3479
 6505SOL    HW220957   7.037   6.124   3.279 -2.1746 -0.3539  0.4602
 6506SOL     OW20958   6.389   4.755   9.627 -0.3820 -0.0022  0.0656
 6506SOL    HW120959   6.448   4.700   9.679 -0.4267  0.4494  0.6058
 6506SOL    HW220960   6.423   4.748   9.537  0.4060  0.1273  0.3426
 6507SOL     OW20961   1.465   0.659  10.576 -0.0646  0.1518  0.0152
 6507SOL    HW120962   1.413   0.720  10.628 -1.6777  0.0079 -1.3660
 6507SOL    HW220963   1.555   0.693  10.583 -0.2047  0.1650  2.7719
 6508SOL     OW20964   3.618   0.144   4.683 -0.1734 -1.1356 -0.3828
 6508SOL    HW120965   3.621   0.200   4.605  1.9438 -0.6895 -0.0427
 6508SOL    HW220966   3.709   0.120   4.698 -0.6441 -1.8589  1.5069
 6509SOL     OW20967   1.865   6.186   2.579 -0.0086  0.7930  0.1454
 6509SOL    HW120968   1.817   6.249   2.526 -0.8665  0.1497  0.1351
 6509SOL    HW220969   1.803   6.158   2.647  0.1971 -0.3381 -0.1013
 6510SOL     OW20970   5.591   3.033  10.401 -0.3221 -0.2828  0.0219
 6510SOL    HW120971   5.670   3.086  10.415 -0.7229 -0.1723  2.2018
 6510SOL    HW220972   5.556   3.018  10.489 -1.3719 -2.4496 -0.6927
 6511SOL     OW20973   6.391   2.839   2.557 -0.6777 -0.3702 -0.3472
 6511SOL    HW120974   6.329   2.912   2.554 -0.8263 -0.5303 -1.9714
 6511SOL    HW220975   6.430   2.845   2.644  0.1604  2.3495 -0.8057
 6512SOL     OW20976   7.115   6.090   2.355  0.3516  0.0632 -0.2610
 6512SOL    HW120977   7.187   6.147   2.382 -0.9939  1.3972  0.6849
 6512SOL    HW220978   7.043   6.150   2.338 -0.8500 -1.3103 -0.1520
 6513SOL     OW20979   5.628   7.408  12.240 -0.2275  0.5407 -0.0552
 6513SOL    HW120980   5.567   7.353  12.290  1.0720 -0.3122  0.6454
 6513SOL    HW220981   5.661   7.350  12.171  2.0834 -0.0031  1.4290
 6514SOL     OW20982   4.281   7.290   1.090  0.0406 -0.2705 -0.3829
 6514SOL    HW120983   4.281   7.249   1.004  1.2575 -0.1838 -0.4380
 6514SOL    HW220984   4.207   7.250   1.136  0.8908 -2.2035 -0.5914
 6515SOL     OW20985   0.903   6.131   9.187 -0.0588  0.6249 -0.6425
 6515SOL    HW120986   0.900   6.226   9.196 -0.4543  0.4945  0.8896
 6515SOL    HW220987   0.938   6.100   9.270 -1.7891 -0.6677 -0.3314
 6516SOL     OW20988   6.644   0.983  10.901  0.7332 -0.1633 -0.1912
 6516SOL    HW120989   6.651   0.918  10.831  1.4417 -0.6447  0.3040
 6516SOL    HW220990   6.645   0.932  10.981 -0.9462  0.3215  0.1782
 6517SOL     OW20991   4.698   4.425   7.908  0.1323  0.2042 -0.2284
 6517SOL    HW120992   4.775   4.397   7.858  1.9845  3.1721  0.7191
 6517SOL    HW220993   4.658   4.493   7.854 -2.5237 -1.9042 -1.1390
 6518SOL     OW20994   2.959   5.940   2.084  0.0393  0.0918 -0.4030
 6518SOL    HW120995   2.950   5.872   2.151 -1.1109 -1.6888 -2.2635
 6518SOL    HW220996   3.053   5.961   2.084  0.4761 -1.6966  0.0664
 6519SOL     OW20997   4.039   7.496   6.585  0.2259  0.4623  0.0224
 6519SOL    HW120998   4.100   7.521   6.655 -0.5247  1.7521  0.2306
 6519SOL    HW220999   3.999   7.578   6.557  0.2019 -0.0841 -1.6529
 6520SOL     OW21000   2.522   2.062   6.512  0.2489 -0.0322  0.5229
 6520SOL    HW121001   2.454   1.999   6.489  0.7909  0.0098 -1.4616
 6520SOL    HW221002   2.477   2.146   6.514  0.1976  0.0010 -0.8145
 6521SOL     OW21003   7.422   1.413   8.664  0.1248 -0.2764  0.3747
 6521SOL    HW121004   7.357   1.426   8.595 -1.6303 -2.5622  1.4659
 6521SOL    HW221005   7.501   1.456   8.631 -1.0741  0.0611 -2.3322
 6522SOL     OW21006   3.120   0.222  11.820  0.7328 -0.3831  0.2886
 6522SOL    HW121007   3.122   0.158  11.748 -1.2530 -1.0390  0.7453
 6522SOL    HW221008   3.047   0.279  11.798  1.3668  0.6393  0.8043
 6523SOL     OW21009   5.110   6.953  10.225  0.1339  0.2483  0.0983
 6523SOL    HW121010   5.103   6.948  10.129  2.2572 -1.2428 -0.0534
 6523SOL    HW221011   5.086   7.043  10.246  0.6282  0.9194 -1.9740
 6524SOL     OW21012   6.447   6.099   1.841  0.3034  0.3212 -0.1901
 6524SOL    HW121013   6.420   6.053   1.921 -1.1353  1.2766 -0.0760
 6524SOL    HW221014   6.539   6.076   1.830  0.2206 -0.7795  1.0842
 6525SOL     OW21015   6.928   4.442   6.545  0.5687  0.6494  0.0441
 6525SOL    HW121016   6.833   4.449   6.551  0.5104  0.1180 -0.2017
 6525SOL    HW221017   6.959   4.459   6.634 -0.0504 -3.2391  1.1882
 6526SOL     OW21018   4.592   4.421   0.183 -0.3398 -0.4051  0.4220
 6526SOL    HW121019   4.543   4.367   0.121 -2.6278  0.9123  0.9401
 6526SOL    HW221020   4.564   4.511   0.162  3.1125  0.6591 -0.2684
 6527SOL     OW21021   1.087   4.835   2.602  0.6877 -0.0322  0.5066
 6527SOL    HW121022   1.046   4.775   2.540 -0.5383  0.1017  1.1588
 6527SOL    HW221023   1.140   4.893   2.547 -0.3681  0.0854 -0.4342
 6528SOL     OW21024   2.456   1.243   7.445  0.0190 -0.2995  0.3107
 6528SOL    HW121025   2.389   1.196   7.494  0.3908 -0.1020  1.0118
 6528SOL    HW221026   2.412   1.268   7.364 -1.0398  0.6150  1.1427
 6529SOL     OW21027   0.055   6.386   5.076  0.5684 -0.3980 -0.3054
 6529SOL    HW121028   0.009   6.445   5.136  0.0984  0.4174 -1.4357
 6529SOL    HW221029   0.129   6.437   5.044  0.6021 -0.6912 -0.7017
 6530SOL     OW21030   5.292   2.171   9.345 -0.0798  0.6883 -0.2146
 6530SOL    HW121031   5.380   2.146   9.315  0.9332  0.3395  2.6814
 6530SOL    HW221032   5.266   2.241   9.285  1.0660 -0.8479 -2.6879
 6531SOL     OW21033   7.119   5.683   2.812  0.6001  0.4614 -0.3233
 6531SOL    HW121034   7.136   5.694   2.719  0.6826 -1.0392 -0.5134
 6531SOL    HW221035   7.028   5.653   2.816  1.6089 -3.0608 -0.2866
 6532SOL     OW21036   1.072   0.505   7.696 -0.0877  0.5225  0.4828
 6532SOL    HW121037   1.106   0.424   7.733  0.5777  0.6597  0.1878
 6532SOL    HW221038   1.004   0.532   7.757 -0.7009 -0.5393  0.2945
 6533SOL     OW21039   0.296   0.729   5.579  0.2999 -0.0378 -0.7684
 6533SOL    HW121040   0.315   0.755   5.669 -0.8961  1.2148 -0.8578
 6533SOL    HW221041   0.299   0.633   5.581 -0.0301 -0.0354  0.6689
 6534SOL     OW21042   7.827   3.680   0.943 -0.3835  0.2024  0.2276
 6534SOL    HW121043   7.737   3.710   0.930 -1.0631 -0.6306  2.6161
 6534SOL    HW221044   7.826   3.634   1.026  2.0233 -0.8900 -0.2558
 6535SOL     OW21045   0.779   1.789   1.211  0.5812  0.0485  0.0967
 6535SOL    HW121046   0.845   1.731   1.248 -0.1382 -0.1040  1.1799
 6535SOL    HW221047   0.761   1.853   1.281 -0.2497  0.2190 -0.2586
 6536SOL     OW21048   3.667   6.546   7.771 -0.4252  0.0793 -0.3571
 6536SOL    HW121049   3.697   6.509   7.854  0.4611  0.1348 -0.6403
 6536SOL    HW221050   3.667   6.472   7.711  0.4214  0.3235 -0.6819
 6537SOL     OW21051   0.370   1.307  10.256  0.2328 -0.2986 -0.2841
 6537SOL    HW121052   0.402   1.245  10.191 -0.1231 -0.8018  0.0151
 6537SOL    HW221053   0.276   1.312  10.241  0.3322  0.6358 -0.6971
 6538SOL     OW21054   5.765   6.852  10.932 -0.7897  0.1598 -0.2537
 6538SOL    HW121055   5.818   6.913  10.880  0.2474  0.1952  0.8256
 6538SOL    HW221056   5.782   6.877  11.023 -0.7242 -1.4484  0.1904
 6539SOL     OW21057   4.124   7.146   8.301 -0.4032  0.1265  0.3657
 6539SOL    HW121058   4.058   7.216   8.299  0.7197  1.2164 -0.9309
 6539SOL    HW221059   4.184   7.168   8.229 -0.0389 -2.2231 -0.1258
 6540SOL     OW21060   4.546   2.947   9.483  0.2618 -0.5752 -0.2377
 6540SOL    HW121061   4.631   2.969   9.445  0.5680 -0.6801  0.3685
 6540SOL    HW221062   4.502   2.893   9.417  0.2800  0.2668 -0.9396
 6541SOL     OW21063   6.487   6.413   9.493 -0.4081  0.1562  0.0861
 6541SOL    HW121064   6.546   6.441   9.423 -0.7745  1.2091  0.1781
 6541SOL    HW221065   6.423   6.356   9.449  0.2030 -0.3559 -0.1546
 6542SOL     OW21066   1.410   4.211   1.566  0.2030  0.7886 -0.3184
 6542SOL    HW121067   1.327   4.167   1.579  1.2156 -1.2485 -0.3837
 6542SOL    HW221068   1.386   4.297   1.530 -1.8323  0.1743 -0.5635
 6543SOL     OW21069   1.017   1.540   5.557  0.4188  0.1513 -0.1730
 6543SOL    HW121070   0.972   1.618   5.526 -0.6121 -0.2491  0.2619
 6543SOL    HW221071   1.088   1.573   5.611 -0.0543  0.7961  0.0720
 6544SOL     OW21072   1.218   6.706   9.495  0.0362  0.9157 -0.3021
 6544SOL    HW121073   1.279   6.768   9.534  0.0090  1.6182 -1.3387
 6544SOL    HW221074   1.263   6.672   9.418 -1.3416  2.5087 -1.9210
 6545SOL     OW21075   7.098   3.538   7.759 -0.1531  0.3459 -0.1601
 6545SOL    HW121076   7.142   3.585   7.688  0.8861 -0.8893 -0.3602
 6545SOL    HW221077   7.010   3.519   7.725  0.1841  0.1500 -0.9377
 6546SOL     OW21078   6.794   3.212   4.775 -0.2890 -0.5944  0.1975
 6546SOL    HW121079   6.776   3.306   4.778  0.7692 -0.2920 -1.3183
 6546SOL    HW221080   6.735   3.174   4.840 -2.1300  0.8974 -0.4939
 6547SOL     OW21081   2.342   6.368   1.122  0.5112 -0.0281  0.3432
 6547SOL    HW121082   2.327   6.399   1.033  2.6763 -1.5521 -0.6522
 6547SOL    HW221083   2.278   6.299   1.136 -0.2383  0.6339  0.2284
 6548SOL     OW21084   0.448   6.788   8.230 -0.0944  0.3304  0.1113
 6548SOL    HW121085   0.485   6.762   8.315  0.0851  3.1701  0.9890
 6548SOL    HW221086   0.507   6.749   8.166 -0.2307 -1.8860  1.2362
 6549SOL     OW21087   1.631   6.576   0.832 -0.1270  0.6573 -0.2764
 6549SOL    HW121088   1.552   6.616   0.795  0.4641  0.0485 -2.3793
 6549SOL    HW221089   1.610   6.484   0.842  0.4106  0.4160 -1.2276
 6550SOL     OW21090   3.504   7.890   5.292 -0.6116 -0.2281 -0.0910
 6550SOL    HW121091   3.509   7.884   5.197 -0.2896 -1.4059 -0.0184
 6550SOL    HW221092   3.417   7.858   5.314 -0.2325 -1.1968  0.0740
 6551SOL     OW21093   1.533   1.571   5.458  0.0537  0.4282  0.2010
 6551SOL    HW121094   1.602   1.612   5.406  2.2187 -1.1074  1.6509
 6551SOL    HW221095   1.457   1.568   5.399  1.7367  0.5922 -2.1442
 6552SOL     OW21096   1.829   2.689  11.686 -0.5241 -0.1330  0.0940
 6552SOL    HW121097   1.817   2.597  11.664 -0.7661  0.0192 -0.4502
 6552SOL    HW221098   1.869   2.728  11.608  4.1160 -0.6630  1.9412
 6553SOL     OW21099   3.962   3.444  11.488 -0.2035 -0.5612 -0.8339
 6553SOL    HW121100   3.936   3.536  11.479 -0.7498 -0.7258 -0.9808
 6553SOL    HW221101   3.900   3.408  11.552 -0.4670 -1.0045 -1.3225
 6554SOL     OW21102   3.760   2.268   2.415 -0.1094  0.3368  0.0608
 6554SOL    HW121103   3.710   2.349   2.411  0.9103  0.9888  0.2124
 6554SOL    HW221104   3.703   2.202   2.374 -1.2679  0.9506  0.6634
 6555SOL     OW21105   3.558   6.064   6.949 -0.5700  0.0589 -0.2967
 6555SOL    HW121106   3.488   6.070   7.014  1.1994  1.6500  1.5505
 6555SOL    HW221107   3.573   5.970   6.939 -2.0020 -0.2583  0.2970
 6556SOL     OW21108   4.433   6.103   0.196  0.3592 -0.4795 -0.0821
 6556SOL    HW121109   4.493   6.165   0.237  1.4090 -1.1494 -0.5577
 6556SOL    HW221110   4.490   6.041   0.151 -0.7253 -0.2008 -1.9417
 6557SOL     OW21111   1.973   4.690  12.223  0.8446  0.6348  0.0256
 6557SOL    HW121112   2.010   4.717  12.307  0.2202 -1.6878  1.1073
 6557SOL    HW221113   2.046   4.696  12.162  1.8354  0.4538  1.1467
 6558SOL     OW21114   0.197   0.706   4.247  0.3480  0.6890 -0.4120
 6558SOL    HW121115   0.169   0.725   4.158 -1.8196  1.0938  0.2879
 6558SOL    HW221116   0.215   0.791   4.285  0.8550  0.5497 -0.3388
 6559SOL     OW21117   4.721   2.086   6.522 -0.2470  0.4777  0.1633
 6559SOL    HW121118   4.785   2.023   6.554  0.5303  1.3008  0.2793
 6559SOL    HW221119   4.756   2.171   6.549 -0.0830  1.1449 -1.9362
 6560SOL     OW21120   2.049   4.493  10.732  0.2757  0.5009  0.0175
 6560SOL    HW121121   2.126   4.483  10.788  0.8548 -2.1525 -1.1160
 6560SOL    HW221122   2.005   4.571  10.766  1.5331  0.0452  3.0035
 6561SOL     OW21123   6.275   6.916  11.069  0.8843  0.0204  0.4465
 6561SOL    HW121124   6.335   6.937  10.997 -0.2205  0.2063 -0.4422
 6561SOL    HW221125   6.269   6.821  11.067  0.0879  0.0683 -0.3829
 6562SOL     OW21126   6.185   4.701   6.630 -0.2048 -0.2560  0.7059
 6562SOL    HW121127   6.270   4.687   6.672 -0.0306 -1.6807 -0.0713
 6562SOL    HW221128   6.121   4.671   6.695  0.0081 -1.2705  0.4675
 6563SOL     OW21129   0.949   5.473   9.238 -0.4869 -0.0098  0.1530
 6563SOL    HW121130   0.880   5.536   9.260  0.6157  1.2018  0.3080
 6563SOL    HW221131   1.027   5.527   9.224  0.6933 -1.3986  1.0204
 6564SOL     OW21132   7.267   0.259  11.536  0.0265  0.0451 -0.0909
 6564SOL    HW121133   7.229   0.173  11.519  2.1429 -0.9129 -0.3300
 6564SOL    HW221134   7.333   0.243  11.603  0.6556  1.4231 -0.3444
 6565SOL     OW21135   2.966   5.581   8.626 -0.7503 -0.4033 -0.0259
 6565SOL    HW121136   3.057   5.552   8.637 -0.6598 -0.7027 -1.3804
 6565SOL    HW221137   2.914   5.512   8.669 -0.3160  0.4480  1.9491
 6566SOL     OW21138   0.557   5.091   3.179  0.2980  0.0507 -0.5021
 6566SOL    HW121139   0.646   5.123   3.165  0.2120 -0.1896 -1.7443
 6566SOL    HW221140   0.506   5.171   3.195  0.4778  0.3363 -1.3028
 6567SOL     OW21141   5.341   5.792   5.085 -0.4966 -0.1424  0.5512
 6567SOL    HW121142   5.397   5.805   5.162 -0.0343  1.8961 -0.0567
 6567SOL    HW221143   5.362   5.703   5.055  4.1599  1.1339 -0.8750
 6568SOL     OW21144   2.832   5.793   4.257 -0.3271 -0.0301 -0.4367
 6568SOL    HW121145   2.779   5.830   4.186  0.5278  0.1977 -0.9727
 6568SOL    HW221146   2.921   5.823   4.238 -0.3063  1.3622  1.6300
 6569SOL     OW21147   6.051   6.576   0.866 -0.0420  0.3074  0.2908
 6569SOL    HW121148   6.135   6.592   0.910  0.2681  2.2634 -0.8832
 6569SOL    HW221149   5.993   6.644   0.900 -1.2442 -1.1013  1.1845
 6570SOL     OW21150   1.804   0.195   5.361  0.0653 -0.0460 -0.8248
 6570SOL    HW121151   1.826   0.261   5.427 -1.5301 -1.1428  0.9142
 6570SOL    HW221152   1.720   0.160   5.390  0.5397 -2.3910 -2.0599
 6571SOL     OW21153   0.442   0.367  11.542  0.1063  0.1880  0.0199
 6571SOL    HW121154   0.536   0.383  11.533  0.1554  0.5343  0.9768
 6571SOL    HW221155   0.408   0.373  11.453  1.0566 -0.4114 -0.4030
 6572SOL     OW21156   2.661   3.309  11.888  0.0102 -0.6485 -0.4086
 6572SOL    HW121157   2.631   3.312  11.979  0.0282 -0.5889 -0.4041
 6572SOL    HW221158   2.756   3.318  11.893 -0.0372 -0.0984 -0.4648
 6573SOL     OW21159   1.367   4.327   4.819  0.1632  0.3133 -0.7259
 6573SOL    HW121160   1.320   4.392   4.870 -0.5318  0.0095 -0.9724
 6573SOL    HW221161   1.457   4.362   4.813 -0.2278  1.3127 -0.9731
 6574SOL     OW21162   5.053   4.746   0.938 -0.0498 -0.3278 -0.2019
 6574SOL    HW121163   5.036   4.736   0.845 -1.2682 -0.2275 -0.0095
 6574SOL    HW221164   4.966   4.748   0.978  0.4399  0.1027  0.8865
 6575SOL     OW21165   2.386   5.392   8.307 -0.0628  0.4129 -0.0263
 6575SOL    HW121166   2.427   5.469   8.349  1.8389  0.5132 -1.8976
 6575SOL    HW221167   2.303   5.381   8.354  0.3780  2.5634  1.4370
 6576SOL     OW21168   3.118   2.054   6.116 -0.4667  0.3027  0.8373
 6576SOL    HW121169   3.136   1.963   6.141 -0.5340  0.6529  2.2300
 6576SOL    HW221170   3.159   2.106   6.186  0.1008  1.3721 -0.2632
 6577SOL     OW21171   6.207   7.653   6.976 -0.2474  0.3916 -0.6880
 6577SOL    HW121172   6.177   7.686   7.060 -0.3984 -0.0476 -0.5675
 6577SOL    HW221173   6.167   7.566   6.968  1.4685 -0.4675 -0.2544
 6578SOL     OW21174   2.799   4.862   4.249  0.1488 -0.4950 -0.2319
 6578SOL    HW121175   2.830   4.803   4.317  0.9683  1.8132  1.5109
 6578SOL    HW221176   2.875   4.872   4.190  0.1416 -0.8546 -0.3025
 6579SOL     OW21177   7.735   6.268   3.095  0.0048 -0.3079  0.9534
 6579SOL    HW121178   7.669   6.201   3.117  0.3233 -0.7990  0.4331
 6579SOL    HW221179   7.809   6.249   3.153 -0.1798  0.0421  1.3083
 6580SOL     OW21180   7.623   2.899   4.355 -0.3775 -0.6613  0.8185
 6580SOL    HW121181   7.611   2.993   4.364  0.8176 -0.5694  1.8748
 6580SOL    HW221182   7.635   2.868   4.445  2.3253 -1.3127  0.3409
 6581SOL     OW21183   0.342   5.718   1.375 -0.0200  0.2898  0.0990
 6581SOL    HW121184   0.336   5.630   1.338 -0.3085 -0.5025  1.9326
 6581SOL    HW221185   0.290   5.773   1.316  0.5158 -0.6684 -1.3033
 6582SOL     OW21186   1.610   3.910   1.989  0.5016  0.0627 -0.2402
 6582SOL    HW121187   1.700   3.878   1.985  0.6309  0.0012  2.1339
 6582SOL    HW221188   1.556   3.831   1.987  0.4766  0.0836 -1.2353
 6583SOL     OW21189   3.306   0.480   2.515 -0.2700 -0.3550  0.0660
 6583SOL    HW121190   3.233   0.529   2.477  1.1185  1.0335 -0.9512
 6583SOL    HW221191   3.353   0.545   2.567  1.2315 -0.7442 -0.7437
 6584SOL     OW21192   0.537   0.333   6.470  0.2068 -0.1688 -0.2505
 6584SOL    HW121193   0.558   0.281   6.393  0.4233 -1.5385  0.6947
 6584SOL    HW221194   0.490   0.409   6.436 -0.6401 -1.2715 -1.6324
 6585SOL     OW21195   3.536   0.022  12.071  0.2532 -1.1333  0.2634
 6585SOL    HW121196   3.567  -0.005  11.985  0.4111 -0.0393 -0.0328
 6585SOL    HW221197   3.514   0.115  12.061  1.4841 -0.6453  1.7207
 6586SOL     OW21198   0.642   5.678   4.751 -0.4411 -0.5713 -0.2657
 6586SOL    HW121199   0.671   5.667   4.660 -0.5325  1.2367 -0.5523
 6586SOL    HW221200   0.551   5.707   4.744  0.0295  1.1750  0.2978
 6587SOL     OW21201   7.439   3.461   4.331  0.0593 -0.2530 -0.6257
 6587SOL    HW121202   7.367   3.514   4.365 -0.4892  0.0019 -2.1412
 6587SOL    HW221203   7.513   3.522   4.325 -0.3106  0.1213 -1.4801
 6588SOL     OW21204   0.526   3.384  10.292 -0.2351 -0.1333  0.0463
 6588SOL    HW121205   0.585   3.411  10.362  0.8033  0.2637 -0.9504
 6588SOL    HW221206   0.483   3.465  10.265 -0.2609 -0.1972 -0.1058
 6589SOL     OW21207   0.442   1.312  11.717  0.4944  0.6304 -0.2471
 6589SOL    HW121208   0.537   1.314  11.729  0.7124 -0.3726 -1.5459
 6589SOL    HW221209   0.430   1.316  11.622 -0.7474  0.3644 -0.1198
 6590SOL     OW21210   5.653   2.655  11.968  0.2685  0.3535  0.0956
 6590SOL    HW121211   5.592   2.695  11.905  2.1339  0.1647 -1.9750
 6590SOL    HW221212   5.641   2.561  11.956  0.7413  0.3164 -0.1312
 6591SOL     OW21213   4.106   1.630   1.130  0.4851 -0.2306  0.2910
 6591SOL    HW121214   4.016   1.605   1.109  0.3564  1.3598 -1.2617
 6591SOL    HW221215   4.097   1.709   1.183  0.9638 -1.0850  1.7024
 6592SOL     OW21216   6.672   2.857   9.083 -0.5679 -0.3906  0.0974
 6592SOL    HW121217   6.619   2.909   9.143  0.4986  0.3501  0.4163
 6592SOL    HW221218   6.657   2.897   8.997  3.0860  3.0722  0.7457
 6593SOL     OW21219   2.750   0.387   8.068  0.7754  0.7661 -0.2195
 6593SOL    HW121220   2.837   0.348   8.073 -0.4147 -2.7986 -2.9720
 6593SOL    HW221221   2.701   0.344   8.138  0.4041  0.1289 -0.8599
 6594SOL     OW21222   0.469   3.046   3.510  0.0620 -0.5857  0.0422
 6594SOL    HW121223   0.388   3.026   3.556 -0.7249 -0.8853 -1.4178
 6594SOL    HW221224   0.480   2.975   3.447  0.5921  0.2773 -0.8871
 6595SOL     OW21225   6.807   5.432   5.151 -0.0498  0.0630 -0.5804
 6595SOL    HW121226   6.896   5.428   5.187 -0.3808 -0.0322  0.2645
 6595SOL    HW221227   6.751   5.408   5.225 -0.9054  1.8748 -0.6051
 6596SOL     OW21228   1.159   2.034  10.482  0.3217  0.2027 -0.0393
 6596SOL    HW121229   1.083   2.050  10.426  0.0705  0.1222  0.2768
 6596SOL    HW221230   1.134   1.958  10.536  1.5410 -1.4344 -1.6379
 6597SOL     OW21231   2.744   1.199  11.141 -0.2094  0.0095 -0.0430
 6597SOL    HW121232   2.725   1.156  11.224  1.0193 -0.3124  0.0876
 6597SOL    HW221233   2.836   1.223  11.147  0.6780 -2.3366 -2.2931
 6598SOL     OW21234   4.699   5.842   5.726  0.1539  0.0458  0.8148
 6598SOL    HW121235   4.716   5.792   5.647  0.8009  1.6314 -0.0996
 6598SOL    HW221236   4.619   5.804   5.762 -1.0485  0.2784 -1.4545
 6599SOL     OW21237   1.058   3.917   6.169  0.3450 -0.2787 -0.0076
 6599SOL    HW121238   1.129   3.887   6.112 -0.1584  0.6563 -1.1811
 6599SOL    HW221239   1.087   4.004   6.199  1.4021 -1.4448  2.6427
 6600SOL     OW21240   3.797   0.974   3.456  0.1976  0.1978 -0.4119
 6600SOL    HW121241   3.810   1.063   3.425  0.8471  0.1668 -0.2429
 6600SOL    HW221242   3.731   0.937   3.396  0.3268  0.6151 -0.8184
 6601SOL     OW21243   2.449   5.329  10.605 -0.3491 -0.5728  0.0375
 6601SOL    HW121244   2.409   5.291  10.683  0.8727 -2.6652 -0.2889
 6601SOL    HW221245   2.382   5.319  10.537 -0.2693 -1.6398  0.1020
 6602SOL     OW21246   7.231   1.082  10.839 -0.2472 -0.3150  0.1758
 6602SOL    HW121247   7.137   1.091  10.826 -0.3789 -1.2222  0.4733
 6602SOL    HW221248   7.249   1.131  10.919 -0.7689 -1.6300  1.1295
 6603SOL     OW21249   6.683   4.634   6.188 -0.5917 -0.2861  1.0332
 6603SOL    HW121250   6.635   4.680   6.119  0.4022 -0.4361  0.2131
 6603SOL    HW221251   6.745   4.699   6.222 -1.5557  0.0033  2.3063
 6604SOL     OW21252   2.932   0.019   2.148 -0.3673  0.2576 -0.1362
 6604SOL    HW121253   2.940  -0.000   2.055 -1.2497  1.1909 -0.4298
 6604SOL    HW221254   2.863  -0.041   2.179  2.9426 -3.3498  1.0094
 6605SOL     OW21255   0.039   6.900   0.525 -0.2896 -0.3906  0.3806
 6605SOL    HW121256  -0.016   6.823   0.511 -1.4901  0.5059  0.0131
 6605SOL    HW221257  -0.020   6.967   0.559  1.1233 -0.1922  2.6619
 6606SOL     OW21258   2.811   7.918   0.220 -0.4204  0.1539 -0.0794
 6606SOL    HW121259   2.719   7.944   0.212 -0.2867  0.7587  0.2881
 6606SOL    HW221260   2.826   7.861   0.144 -1.2831 -0.5225  0.2317
 6607SOL     OW21261   1.020   7.602   9.949 -0.4694  0.4261  0.3034
 6607SOL    HW121262   0.955   7.534   9.967  0.9383 -0.9595  0.3588
 6607SOL    HW221263   0.969   7.676   9.918 -2.2464  0.0531  2.1224
 6608SOL     OW21264   0.837   2.594   1.645 -0.5859 -0.0162  0.0052
 6608SOL    HW121265   0.857   2.565   1.556 -0.8862 -0.1497 -0.0177
 6608SOL    HW221266   0.916   2.572   1.695 -0.4422  0.0007 -0.2134
 6609SOL     OW21267   0.115   1.915   9.907 -0.2500 -0.8991  0.6845
 6609SOL    HW121268   0.108   1.925  10.001 -0.1846  1.9768  0.4793
 6609SOL    HW221269   0.063   1.838   9.886 -2.2142 -0.2371  2.8288
 6610SOL     OW21270   6.277   4.574   0.939 -0.1338 -0.4806 -0.1702
 6610SOL    HW121271   6.319   4.644   0.889  0.3692 -1.0430 -0.5559
 6610SOL    HW221272   6.186   4.602   0.948  0.3827  0.9249  0.9828
 6611SOL     OW21273   4.196   5.143   9.603 -0.3013 -0.4041 -0.0042
 6611SOL    HW121274   4.237   5.112   9.683 -0.7207 -1.1903 -0.0851
 6611SOL    HW221275   4.142   5.070   9.573 -0.1373 -0.1398 -1.0143
 6612SOL     OW21276   5.546   7.527   3.283 -0.4743 -0.1562 -0.1711
 6612SOL    HW121277   5.537   7.622   3.297  2.3280  0.2706 -0.8028
 6612SOL    HW221278   5.548   7.517   3.188  0.4830 -0.6891 -0.1033
 6613SOL     OW21279   4.414   5.522   1.348 -0.2546 -0.0353 -0.1229
 6613SOL    HW121280   4.489   5.470   1.321 -1.7124 -1.4815 -1.5591
 6613SOL    HW221281   4.373   5.550   1.266 -2.1583 -0.6140  0.5828
 6614SOL     OW21282   7.580   6.931   8.359 -0.2188 -0.0150 -0.1315
 6614SOL    HW121283   7.518   6.860   8.373 -1.2700  1.1213  1.2572
 6614SOL    HW221284   7.615   6.950   8.446  1.1421  0.2138 -0.7017
 6615SOL     OW21285   1.515   5.610   4.067  0.2566 -0.0680 -0.7100
 6615SOL    HW121286   1.487   5.602   4.158  0.6522  1.2972 -0.4411
 6615SOL    HW221287   1.439   5.648   4.022  0.4813  0.4016 -0.6946
 6616SOL     OW21288   4.095   0.530   2.139  0.0519 -0.8484  0.1501
 6616SOL    HW121289   4.020   0.491   2.095  0.2092 -0.8687 -0.1041
 6616SOL    HW221290   4.062   0.557   2.225 -0.3397 -0.5084 -0.1066
 6617SOL     OW21291   0.882   2.446   2.164 -0.4253  0.8638  0.0625
 6617SOL    HW121292   0.825   2.433   2.240 -1.3920 -0.7861 -0.8873
 6617SOL    HW221293   0.931   2.365   2.157 -1.9582  0.0584 -2.3414
 6618SOL     OW21294   6.720   7.914   7.845  0.4548 -0.3287  0.0396
 6618SOL    HW121295   6.763   7.988   7.888  0.4747  0.3730 -1.1324
 6618SOL    HW221296   6.631   7.913   7.881  0.0679  1.0493 -0.8189
 6619SOL     OW21297   7.373   3.139   8.582 -0.1369  0.3422 -0.2108
 6619SOL    HW121298   7.310   3.151   8.511  0.0086 -0.5132 -0.4979
 6619SOL    HW221299   7.431   3.069   8.551 -0.7068 -0.8010  1.1626
 6620SOL     OW21300   5.018   7.565   5.186 -0.2629 -0.1084  0.0925
 6620SOL    HW121301   5.059   7.485   5.153  1.1818 -0.0061  1.4957
 6620SOL    HW221302   5.064   7.635   5.141  1.1742  0.0075  1.6631
 6621SOL     OW21303   5.925   2.542   5.521 -0.0119 -0.7098 -0.1217
 6621SOL    HW121304   5.872   2.577   5.450  1.4523 -1.7499 -1.8057
 6621SOL    HW221305   5.949   2.454   5.493  1.1447 -0.9259  1.3839
 6622SOL     OW21306   0.498   7.210   6.821 -0.3534  0.0397 -0.5341
 6622SOL    HW121307   0.481   7.178   6.910  0.1754 -1.5672 -0.9840
 6622SOL    HW221308   0.577   7.263   6.829  1.4983 -2.5516 -0.4872
 6623SOL     OW21309   5.504   0.781   7.446  0.5776 -0.0939  0.0207
 6623SOL    HW121310   5.531   0.839   7.517  2.0464  0.2778 -0.7835
 6623SOL    HW221311   5.446   0.835   7.392  0.1709 -0.0954  0.4492
 6624SOL     OW21312   2.502   6.958   9.641  0.3392  0.0216  0.2718
 6624SOL    HW121313   2.568   6.910   9.690 -0.5740 -0.8111  0.7422
 6624SOL    HW221314   2.427   6.898   9.638  0.4366 -0.0688 -2.3544
 6625SOL     OW21315   5.773   4.676   7.761 -0.3670  0.3101  0.3750
 6625SOL    HW121316   5.849   4.688   7.704 -0.4832 -0.2259  0.1074
 6625SOL    HW221317   5.725   4.759   7.754 -0.8119 -0.0268 -0.9527
 6626SOL     OW21318   3.561   7.581  10.740 -0.2281 -0.0779  0.1923
 6626SOL    HW121319   3.572   7.530  10.820  0.1057 -0.4465 -0.0885
 6626SOL    HW221320   3.504   7.528  10.685  0.5024 -0.3687 -0.2909
 6627SOL     OW21321   1.663   6.207   4.929 -0.0136 -0.3956 -0.7756
 6627SOL    HW121322   1.597   6.165   4.874  0.1720 -1.6934 -0.0553
 6627SOL    HW221323   1.743   6.202   4.878  0.0698 -1.2101 -0.5803
 6628SOL     OW21324   1.902   1.100   9.153  0.0047  0.0774 -0.1057
 6628SOL    HW121325   1.824   1.143   9.188  0.7507  2.1554 -0.8893
 6628SOL    HW221326   1.885   1.092   9.059  0.8379  0.8296 -0.3337
 6629SOL     OW21327   1.194   4.658   8.842 -0.1896  0.4310  0.6122
 6629SOL    HW121328   1.152   4.581   8.880  0.2246 -1.2190 -2.0160
 6629SOL    HW221329   1.127   4.727   8.844 -1.2187 -0.5697  1.2906
 6630SOL     OW21330   4.913   0.790   3.544 -0.2633  0.1048  0.1865
 6630SOL    HW121331   4.835   0.779   3.598 -1.0128  0.3854 -0.8147
 6630SOL    HW221332   4.986   0.779   3.605 -1.0789  1.5632  1.4789
 6631SOL     OW21333   7.219   0.927  12.332  0.2083  0.2154 -0.7431
 6631SOL    HW121334   7.196   0.974  12.412 -0.9127 -3.0421  1.0276
 6631SOL    HW221335   7.315   0.927  12.331  0.2327  1.4682 -0.1914
 6632SOL     OW21336   6.273   7.719   0.706  0.3609  0.6701  0.5216
 6632SOL    HW121337   6.249   7.750   0.794 -2.4170  0.0297  0.0835
 6632SOL    HW221338   6.213   7.766   0.647 -0.3967 -1.6124 -0.6332
 6633SOL     OW21339   1.845   4.097  11.454  0.2075 -0.0194  0.5214
 6633SOL    HW121340   1.936   4.096  11.483  0.6644  0.7207 -0.7870
 6633SOL    HW221341   1.795   4.122  11.531  1.5131  3.5180  0.3977
 6634SOL     OW21342   1.039   7.378   7.935  0.3816 -0.6090  0.1590
 6634SOL    HW121343   1.005   7.442   7.872  1.2022 -0.1362  0.1835
 6634SOL    HW221344   1.074   7.431   8.006  2.4648 -0.9892 -0.5107
 6635SOL     OW21345   2.487   7.398   1.323 -0.1412 -0.0221 -0.3575
 6635SOL    HW121346   2.534   7.474   1.288  0.5696 -0.6624 -0.8192
 6635SOL    HW221347   2.544   7.364   1.391 -1.1396  0.7171  0.8971
 6636SOL     OW21348   3.615   2.604   4.397 -0.1025 -0.0103  0.2105
 6636SOL    HW121349   3.654   2.592   4.483  0.7439  4.0084  0.6074
 6636SOL    HW221350   3.677   2.565   4.336  0.5764 -0.6415  1.2745
 6637SOL     OW21351   2.076   4.119   0.505  0.2497 -0.9375 -0.0986
 6637SOL    HW121352   2.061   4.077   0.420  0.5839 -2.3361  0.4994
 6637SOL    HW221353   2.150   4.070   0.542  0.4091 -0.0345  0.8007
 6638SOL     OW21354   5.133   4.373   6.423  0.0455 -0.2639 -0.0545
 6638SOL    HW121355   5.202   4.308   6.411 -0.2096 -0.6061  0.3166
 6638SOL    HW221356   5.140   4.399   6.515 -1.3518 -1.4983  0.4342
 6639SOL     OW21357   0.026   0.214   9.633  0.7835  0.0656  0.4118
 6639SOL    HW121358   0.023   0.149   9.704 -1.3394 -0.0784  0.2613
 6639SOL    HW221359   0.057   0.294   9.675  0.3689 -0.2357  1.3273
 6640SOL     OW21360   5.569   0.812   4.969  0.9934 -0.5551  0.4632
 6640SOL    HW121361   5.481   0.839   4.997  0.9956 -0.3413  0.2659
 6640SOL    HW221362   5.625   0.831   5.044  1.0169  0.1155  0.2815
 6641SOL     OW21363   6.572   5.879   3.839 -0.0851  0.2227 -0.3161
 6641SOL    HW121364   6.607   5.950   3.894 -0.3511  0.4602 -0.4524
 6641SOL    HW221365   6.527   5.821   3.901  0.6777 -0.1700 -0.1148
 6642SOL     OW21366   3.211   4.075   8.983 -0.1745 -0.9065 -0.0535
 6642SOL    HW121367   3.307   4.081   8.975 -0.1664 -1.5108 -0.5436
 6642SOL    HW221368   3.182   4.165   8.992  0.3407 -0.5994 -1.2676
 6643SOL     OW21369   6.510   2.809   6.850  0.0325 -0.3121 -0.1713
 6643SOL    HW121370   6.445   2.740   6.837 -2.1980  1.8497 -1.2601
 6643SOL    HW221371   6.559   2.812   6.768 -0.4941 -0.0306 -0.4839
 6644SOL     OW21372   7.080   3.896   7.210  0.1363 -0.2956 -0.0008
 6644SOL    HW121373   7.037   3.811   7.214  0.3968 -0.5737 -2.1979
 6644SOL    HW221374   7.008   3.959   7.203 -0.0454 -0.6787 -2.4493
 6645SOL     OW21375   4.079   4.592   3.566  0.1737 -0.2541  0.1961
 6645SOL    HW121376   4.034   4.644   3.632 -1.8712 -0.5124 -0.9342
 6645SOL    HW221377   4.052   4.502   3.584 -0.2120 -0.3512 -0.8519
 6646SOL     OW21378   7.597   7.336   5.379 -0.5970  0.0246 -0.0834
 6646SOL    HW121379   7.639   7.379   5.304 -2.6380  1.7820 -0.3089
 6646SOL    HW221380   7.517   7.298   5.343 -0.1238 -1.8235  0.6581
 6647SOL     OW21381   7.677   4.110   1.421 -0.1243 -0.1520  0.7864
 6647SOL    HW121382   7.609   4.079   1.362 -0.4238  0.9091  0.5481
 6647SOL    HW221383   7.637   4.185   1.466  0.3764 -0.4351  1.7369
 6648SOL     OW21384   2.308   0.234   0.954  0.0600 -0.1825 -0.2162
 6648SOL    HW121385   2.275   0.322   0.972 -0.1662 -0.5590  1.3016
 6648SOL    HW221386   2.331   0.236   0.861  0.7228  1.6897 -0.0550
 6649SOL     OW21387   1.245   1.874   4.780  0.1566  0.0076 -0.1970
 6649SOL    HW121388   1.278   1.954   4.819 -0.3381 -0.3579  1.0053
 6649SOL    HW221389   1.159   1.897   4.746 -0.8198 -0.4367  1.8364
 6650SOL     OW21390   1.327   0.527   4.828  0.5231 -0.1533 -0.4345
 6650SOL    HW121391   1.316   0.549   4.920  0.5969 -2.0127  0.0712
 6650SOL    HW221392   1.420   0.537   4.811  0.2256  2.3101 -0.9528
 6651SOL     OW21393   0.839   5.583  10.991  0.0725  0.0184  0.1671
 6651SOL    HW121394   0.885   5.627  10.920 -1.4785  1.6965  0.1259
 6651SOL    HW221395   0.883   5.614  11.071  1.3017 -1.2454  0.0115
 6652SOL     OW21396   7.273   5.356  10.596 -0.0092 -0.4422  0.5125
 6652SOL    HW121397   7.267   5.349  10.692  0.1291 -1.7363  0.4443
 6652SOL    HW221398   7.239   5.272  10.564  0.0700 -0.0731 -0.5784
 6653SOL     OW21399   3.351   4.299   5.231 -0.1845 -0.4710  0.3942
 6653SOL    HW121400   3.426   4.335   5.279 -0.7288  2.4296 -0.6928
 6653SOL    HW221401   3.286   4.280   5.298  0.0694  0.9028  1.0765
 6654SOL     OW21402   2.515   0.955   9.140  0.2179  0.2750  0.2558
 6654SOL    HW121403   2.533   0.919   9.053 -0.7487 -1.1239  0.6076
 6654SOL    HW221404   2.420   0.950   9.150  0.3906 -0.4988  1.7614
 6655SOL     OW21405   7.696   2.052   3.129 -0.2296  0.1508 -0.1970
 6655SOL    HW121406   7.767   2.097   3.084 -0.5665  0.5864 -0.2984
 6655SOL    HW221407   7.630   2.037   3.062 -0.9827  1.3194  0.2574
 6656SOL     OW21408   4.519   2.582   1.906  0.0472  0.3018 -0.4162
 6656SOL    HW121409   4.534   2.674   1.884 -0.4971  0.2292 -1.1270
 6656SOL    HW221410   4.430   2.564   1.876 -1.3185  0.5381  3.1204
 6657SOL     OW21411   4.285   0.712   3.192 -0.1285  0.2577 -0.2483
 6657SOL    HW121412   4.270   0.766   3.269  0.5059 -1.9553  1.5359
 6657SOL    HW221413   4.211   0.651   3.191  1.5635 -1.9928  0.7696
 6658SOL     OW21414   5.566   5.093   0.917  0.0449  0.1459 -0.3462
 6658SOL    HW121415   5.568   5.027   0.987 -1.4138  0.8191  0.3777
 6658SOL    HW221416   5.547   5.175   0.962  0.8338  0.9073 -1.3512
 6659SOL     OW21417   7.575   1.005   9.125 -0.1009 -0.2093 -0.2800
 6659SOL    HW121418   7.646   0.942   9.113 -1.5503 -1.8817 -0.5098
 6659SOL    HW221419   7.534   1.012   9.040 -1.5290 -0.9655  0.3139
 6660SOL     OW21420   1.498   1.333   8.802 -0.0767  0.2167 -0.2821
 6660SOL    HW121421   1.525   1.351   8.893 -0.9305  1.2368 -0.2075
 6660SOL    HW221422   1.512   1.239   8.791 -0.6187 -0.0626  1.1428
 6661SOL     OW21423   5.540   1.487   2.891 -0.5014 -0.5793  0.1410
 6661SOL    HW121424   5.521   1.494   2.798 -0.8599  0.2816  0.2649
 6661SOL    HW221425   5.579   1.401   2.902  1.8220  0.2012 -1.2313
 6662SOL     OW21426   1.772   6.245   8.849  0.1123 -0.2810 -0.1060
 6662SOL    HW121427   1.746   6.297   8.925  0.3082  1.0755 -0.9463
 6662SOL    HW221428   1.867   6.236   8.856  0.7506  3.1390 -2.1006
 6663SOL     OW21429   0.827   3.301   1.045 -0.2673  0.0617 -0.2386
 6663SOL    HW121430   0.833   3.215   1.003  0.4617  0.4111 -0.8767
 6663SOL    HW221431   0.916   3.318   1.077 -0.8118 -0.2327  1.5627
 6664SOL     OW21432   6.417   3.672   7.740  0.0168 -0.5114  0.0667
 6664SOL    HW121433   6.441   3.581   7.759 -0.7134 -0.8220 -0.4636
 6664SOL    HW221434   6.325   3.678   7.767  0.0982  0.1049  0.2148
 6665SOL     OW21435   2.682   6.160   7.506 -0.1707  0.3910 -0.0918
 6665SOL    HW121436   2.723   6.218   7.441  0.5179 -0.9837 -0.9187
 6665SOL    HW221437   2.594   6.145   7.472  0.0831 -0.0750 -0.5510
 6666SOL     OW21438   0.140   2.001   0.216  0.6185 -0.1387  0.2449
 6666SOL    HW121439   0.197   2.035   0.147  0.1750  0.9575  0.4009
 6666SOL    HW221440   0.181   1.919   0.243  0.8815 -0.5158 -1.2152
 6667SOL     OW21441   3.810   2.537   5.335  0.6514  0.0240 -0.3576
 6667SOL    HW121442   3.823   2.558   5.428  0.4107 -0.1661 -0.2814
 6667SOL    HW221443   3.769   2.616   5.298 -1.0198 -0.5816  0.1039
 6668SOL     OW21444   6.961   0.676   6.436  0.2285  0.3948  0.1875
 6668SOL    HW121445   7.016   0.614   6.483  1.5141  0.2586 -1.3940
 6668SOL    HW221446   7.022   0.741   6.402 -0.5745  0.3912 -1.3885
 6669SOL     OW21447   2.233   6.057   1.875  0.0118  0.0545  0.7202
 6669SOL    HW121448   2.315   6.026   1.912  0.6433  0.2121 -0.4856
 6669SOL    HW221449   2.237   6.152   1.886  0.1509  0.0916  0.3849
 6670SOL     OW21450   7.409   1.156   9.810 -0.1297  0.2149 -0.1434
 6670SOL    HW121451   7.403   1.241   9.765  0.2042 -0.3975 -1.3766
 6670SOL    HW221452   7.436   1.179   9.899  0.3942  1.3813 -0.5692
 6671SOL     OW21453   2.907   6.948  11.422  0.3274  0.2296 -0.2849
 6671SOL    HW121454   2.985   6.904  11.386 -0.4653 -0.2426 -1.5122
 6671SOL    HW221455   2.849   6.959  11.346 -1.2279 -0.3535  0.7677
 6672SOL     OW21456   6.141   4.146   4.522 -0.3177  0.3592  0.2610
 6672SOL    HW121457   6.189   4.139   4.605 -0.1209 -0.1222  0.1140
 6672SOL    HW221458   6.050   4.126   4.546 -0.2894  0.3792  0.3872
 6673SOL     OW21459   6.243   3.443   2.006  0.4174 -0.2479 -0.7563
 6673SOL    HW121460   6.158   3.413   1.975  0.0876 -0.4142  0.2733
 6673SOL    HW221461   6.248   3.535   1.980  0.0403 -0.3066 -1.0445
 6674SOL     OW21462   5.410   2.949   7.356 -0.1039 -0.2145  0.1307
 6674SOL    HW121463   5.379   2.975   7.269 -2.5417 -0.5412  0.8145
 6674SOL    HW221464   5.493   2.904   7.340  1.5081  3.0457 -1.6222
 6675SOL     OW21465   6.467   2.171   3.882  0.2914 -0.5411 -0.6167
 6675SOL    HW121466   6.423   2.093   3.847  1.4710 -0.5862 -2.0990
 6675SOL    HW221467   6.534   2.137   3.941  0.9337 -0.6694 -1.4127
 6676SOL     OW21468   4.015   3.712   4.164 -0.1819 -0.5377 -0.5780
 6676SOL    HW121469   4.042   3.664   4.085  1.6778  0.5593 -0.6750
 6676SOL    HW221470   4.083   3.694   4.228  0.4977  1.7276 -0.5540
 6677SOL     OW21471   2.005   2.114   1.952 -0.6605  0.3342 -0.1908
 6677SOL    HW121472   2.032   2.029   1.988 -0.5929  0.1244 -0.7316
 6677SOL    HW221473   1.960   2.092   1.871 -1.1092  0.7881 -0.0683
 6678SOL     OW21474   5.205   0.534   9.370 -0.3303  0.3539 -0.5042
 6678SOL    HW121475   5.275   0.469   9.373 -0.2528  0.3430 -1.8970
 6678SOL    HW221476   5.239   0.604   9.314 -0.4045  1.6332  0.9971
 6679SOL     OW21477   0.956   3.919   8.635 -0.0530  0.3885 -0.1337
 6679SOL    HW121478   0.895   3.952   8.701 -1.2760 -0.6797 -0.6679
 6679SOL    HW221479   0.973   3.828   8.662  0.9539  0.5265 -0.2585
 6680SOL     OW21480   4.264   0.037   3.686  0.4693 -0.4692  0.5591
 6680SOL    HW121481   4.295   0.122   3.657  0.7763 -0.3097  1.3505
 6680SOL    HW221482   4.202   0.056   3.757 -0.6706 -0.8320 -0.2919
 6681SOL     OW21483   0.187   0.522  12.297 -0.1195  0.0966  0.4511
 6681SOL    HW121484   0.225   0.445  12.339  1.6853 -0.2586 -1.6395
 6681SOL    HW221485   0.093   0.503  12.293  0.1814 -1.6675  0.6882
 6682SOL     OW21486   5.441   5.514   7.998  0.0877 -0.6901  0.1960
 6682SOL    HW121487   5.420   5.596   8.042  2.8447 -0.4202  1.1928
 6682SOL    HW221488   5.390   5.517   7.916  0.8638  2.4975 -0.3077
 6683SOL     OW21489   6.194   5.368   4.008 -0.6606  0.2948 -0.1000
 6683SOL    HW121490   6.125   5.314   3.969 -0.8860  0.4096  0.1401
 6683SOL    HW221491   6.161   5.457   4.003 -1.5642  0.1413  2.1110
 6684SOL     OW21492   1.234   1.738   9.453 -0.0461 -0.3181  0.6302
 6684SOL    HW121493   1.207   1.769   9.539  1.6085  0.4437  0.9121
 6684SOL    HW221494   1.241   1.643   9.462  0.3715 -0.2196  1.4152
 6685SOL     OW21495   5.380   6.479  11.244  0.3195 -0.2525  0.1868
 6685SOL    HW121496   5.359   6.427  11.166 -0.5092  0.9828 -0.4426
 6685SOL    HW221497   5.397   6.414  11.312  0.4472 -1.3508 -0.8656
 6686SOL     OW21498   4.886   2.327   9.814  0.0244 -0.1062  0.1204
 6686SOL    HW121499   4.949   2.264   9.850  0.9163  0.0019 -1.1856
 6686SOL    HW221500   4.814   2.272   9.782  0.7542 -0.4905 -0.9266
 6687SOL     OW21501   4.511   2.680   1.328 -0.0350 -0.8462  0.0015
 6687SOL    HW121502   4.550   2.606   1.374  1.4307 -0.3548 -0.3997
 6687SOL    HW221503   4.418   2.660   1.325  0.0803 -1.7628  1.5506
 6688SOL     OW21504   4.959   2.811   2.253  0.6193  0.7009 -0.0664
 6688SOL    HW121505   5.036   2.819   2.197 -0.4338 -1.8236 -2.0291
 6688SOL    HW221506   4.914   2.895   2.243  0.7046  0.5213 -2.7437
 6689SOL     OW21507   4.442   5.279   7.771  0.3311 -0.1280 -0.2038
 6689SOL    HW121508   4.422   5.185   7.772  0.6224 -0.2028  1.5283
 6689SOL    HW221509   4.537   5.283   7.760  0.4091 -0.0600  0.4997
 6690SOL     OW21510   0.844   0.972   8.599 -0.3863  0.6648  0.1997
 6690SOL    HW121511   0.766   1.027   8.600 -0.7042  0.2119  0.8530
 6690SOL    HW221512   0.917   1.034   8.592 -0.8041  1.0743 -0.7178
 6691SOL     OW21513   5.583   7.905   6.951 -0.2334  0.0323 -0.4862
 6691SOL    HW121514   5.528   7.944   6.883 -0.3701  0.3246 -0.2095
 6691SOL    HW221515   5.640   7.844   6.903 -1.4730 -1.0279 -0.6768
 6692SOL     OW21516   5.099   4.709   3.623  0.9707 -0.1449  1.7176
 6692SOL    HW121517   5.008   4.736   3.630  1.3173  1.0905  1.6356
 6692SOL    HW221518   5.102   4.655   3.544  0.2716 -0.3681  1.8371
 6693SOL     OW21519   6.548   7.703   8.462 -0.0330 -0.2405  0.3999
 6693SOL    HW121520   6.513   7.720   8.549 -0.9661  2.1170 -0.3351
 6693SOL    HW221521   6.634   7.665   8.477 -1.1891 -2.3045  2.2965
 6694SOL     OW21522   0.301   7.170   3.298 -0.3808 -0.3111 -0.4768
 6694SOL    HW121523   0.214   7.198   3.327  0.0241  0.4657  0.0352
 6694SOL    HW221524   0.298   7.074   3.303 -1.0620 -0.2785 -0.0223
 6695SOL     OW21525   4.003   0.501   5.812 -0.4940 -0.0575 -0.2853
 6695SOL    HW121526   3.966   0.588   5.827 -1.6442 -0.4726 -0.5683
 6695SOL    HW221527   3.929   0.441   5.824 -0.2999 -0.8122 -2.3843
 6696SOL     OW21528   1.682   6.938   5.477  0.1575  0.1920 -0.3760
 6696SOL    HW121529   1.649   6.963   5.391 -0.2771  3.1455  0.5381
 6696SOL    HW221530   1.776   6.953   5.473  0.3489 -0.9653 -0.6895
 6697SOL     OW21531   2.860   4.138   1.913  0.2685 -0.3480 -0.3688
 6697SOL    HW121532   2.935   4.126   1.855  0.4120 -2.2740  0.1123
 6697SOL    HW221533   2.899   4.157   1.998  0.3941 -2.8171  0.2270
 6698SOL     OW21534   7.823   2.285   4.882  0.0687 -0.3147 -0.1869
 6698SOL    HW121535   7.836   2.190   4.888 -2.3406 -0.7703 -1.1047
 6698SOL    HW221536   7.734   2.299   4.914  0.1217  1.5480 -0.7631
 6699SOL     OW21537   0.389   2.156   2.024 -0.4773 -0.5980 -0.1854
 6699SOL    HW121538   0.355   2.162   2.113 -1.2494  1.3624 -0.5436
 6699SOL    HW221539   0.312   2.140   1.969 -0.3366  0.3017 -0.6739
 6700SOL     OW21540   7.714   0.029  11.736  0.0134  0.6808 -0.3022
 6700SOL    HW121541   7.781   0.036  11.804 -0.2401  1.4307 -0.1134
 6700SOL    HW221542   7.699  -0.065  11.726  0.2890  0.5530  0.4447
 6701SOL     OW21543   7.547   2.003  11.757 -0.6541  0.2766  0.2463
 6701SOL    HW121544   7.471   2.013  11.701 -0.4858 -0.4348 -0.1276
 6701SOL    HW221545   7.532   1.921  11.805  0.0430 -0.0789 -0.1195
 6702SOL     OW21546   0.296   0.234  11.175  0.1556  0.4242  0.3272
 6702SOL    HW121547   0.334   0.305  11.123  0.1354 -0.5511 -1.1025
 6702SOL    HW221548   0.372   0.187  11.209  0.1754  0.8403  0.8571
 6703SOL     OW21549   0.104   0.664  10.271  0.1282  0.6590 -0.2131
 6703SOL    HW121550   0.138   0.667  10.182  0.4451  0.7439 -0.0887
 6703SOL    HW221551   0.031   0.727  10.271  0.0877  0.6113 -0.4278
 6704SOL     OW21552   4.090   3.535   2.195 -0.0673  0.1491 -0.3002
 6704SOL    HW121553   4.011   3.510   2.243  0.3050 -1.1133 -0.2994
 6704SOL    HW221554   4.150   3.460   2.207  0.5055  0.3574 -1.6697
 6705SOL     OW21555   4.421   3.698  10.475  0.0108  0.1160  0.1596
 6705SOL    HW121556   4.391   3.632  10.413 -0.2800  0.4379 -0.0477
 6705SOL    HW221557   4.341   3.733  10.514  0.2451 -1.3468  2.0658
 6706SOL     OW21558   1.471   3.479   9.761 -0.1704 -0.6946 -0.5241
 6706SOL    HW121559   1.379   3.457   9.743  0.0181 -1.1465 -0.9614
 6706SOL    HW221560   1.494   3.425   9.837 -0.8779  0.9906  0.9488
 6707SOL     OW21561   6.789   3.871   1.181  0.2657 -0.5338 -0.0233
 6707SOL    HW121562   6.797   3.899   1.090  0.9451  0.9992  0.4717
 6707SOL    HW221563   6.858   3.805   1.191  0.8668  0.0200 -0.3723
 6708SOL     OW21564   1.736   1.617  12.133 -0.2495  0.3788 -0.2778
 6708SOL    HW121565   1.801   1.668  12.182 -0.6575  1.1877 -0.5669
 6708SOL    HW221566   1.772   1.528  12.131  0.9879  0.8700 -0.6807
 6709SOL     OW21567   2.939   0.613   5.922  0.2290 -0.0431  0.4165
 6709SOL    HW121568   3.010   0.673   5.945 -1.4744  1.8738  0.9674
 6709SOL    HW221569   2.976   0.557   5.853  1.8966  1.6413 -0.1318
 6710SOL     OW21570   0.850   0.077   0.460  0.4152  0.0075 -0.2839
 6710SOL    HW121571   0.893   0.151   0.502 -1.4767  0.8102  0.3648
 6710SOL    HW221572   0.906   0.002   0.480  0.5639  0.6733  2.1231
 6711SOL     OW21573   2.802   5.141   2.938  0.3753 -0.0932 -0.4725
 6711SOL    HW121574   2.794   5.235   2.955 -1.0904 -0.3906  0.5958
 6711SOL    HW221575   2.721   5.103   2.972  0.6725 -1.6786 -1.4500
 6712SOL     OW21576   4.019   4.068   3.525  0.1014  0.1351  0.4589
 6712SOL    HW121577   4.035   3.983   3.567  1.0635  0.7347  1.3529
 6712SOL    HW221578   4.022   4.049   3.431  1.1512 -0.6885  0.6329
 6713SOL     OW21579   5.869   7.339  12.128  0.2623  0.1974 -0.5644
 6713SOL    HW121580   5.941   7.288  12.166  0.6690 -0.0054 -1.5502
 6713SOL    HW221581   5.906   7.426  12.114  0.5032 -0.0536 -1.5662
 6714SOL     OW21582   0.458   5.629  10.558  0.2777  0.7499 -0.1836
 6714SOL    HW121583   0.449   5.571  10.633 -1.1198  0.5839 -0.4648
 6714SOL    HW221584   0.544   5.670  10.570  0.8419 -0.5825  0.5652
 6715SOL     OW21585   6.604   6.491   5.042 -0.0108  0.6879 -0.0709
 6715SOL    HW121586   6.546   6.528   5.109  0.7656  0.4702  0.7415
 6715SOL    HW221587   6.591   6.397   5.048  1.1196  0.5661  0.7931
 6716SOL     OW21588   3.208   6.719   4.751  0.0165  0.2901 -0.2517
 6716SOL    HW121589   3.156   6.799   4.763 -1.3976 -0.7484  0.8810
 6716SOL    HW221590   3.156   6.665   4.691 -0.5635 -0.9960  1.3287
 6717SOL     OW21591   1.579   0.572  11.057  0.8804  0.0585  0.0153
 6717SOL    HW121592   1.563   0.595  11.148  0.2409 -0.5018  0.0549
 6717SOL    HW221593   1.570   0.654  11.009  0.5706  0.2368  0.3787
 6718SOL     OW21594   7.830   5.147   0.361 -0.1621 -0.5600  1.0581
 6718SOL    HW121595   7.743   5.176   0.390  0.3877  1.5816  0.7517
 6718SOL    HW221596   7.835   5.175   0.270  0.9175 -0.4939  1.1268
 6719SOL     OW21597   5.878   5.319   4.666 -0.1052 -0.1266  0.1138
 6719SOL    HW121598   5.970   5.343   4.655 -0.1625  0.2954  0.5604
 6719SOL    HW221599   5.864   5.251   4.600  0.1297  0.8341 -0.9366
 6720SOL     OW21600   7.471   4.321   5.845 -0.2243  0.2107  0.6562
 6720SOL    HW121601   7.389   4.331   5.895  0.0503 -0.1865  1.2018
 6720SOL    HW221602   7.529   4.273   5.904 -0.4961 -1.9276 -0.7197
 6721SOL     OW21603   2.465   5.242   7.341 -0.3652 -0.4751 -0.4711
 6721SOL    HW121604   2.496   5.252   7.251 -1.6224 -0.3372 -0.9097
 6721SOL    HW221605   2.483   5.151   7.363  1.5196 -0.0921 -0.2174
 6722SOL     OW21606   2.984   7.365   7.240  0.1398  0.4261 -0.7863
 6722SOL    HW121607   2.969   7.283   7.288 -0.1367 -0.0494 -1.6465
 6722SOL    HW221608   3.000   7.430   7.308  0.5452 -0.3755 -0.0857
 6723SOL     OW21609   3.219   6.296   3.055  0.1903  0.1621  0.0805
 6723SOL    HW121610   3.281   6.298   3.128 -0.6419  2.7221  0.8239
 6723SOL    HW221611   3.136   6.326   3.093 -0.7370 -0.2472 -1.5376
 6724SOL     OW21612   0.524   4.741  10.008 -0.0508 -0.2375  0.1896
 6724SOL    HW121613   0.450   4.720   9.950  0.6209 -1.1986 -0.3483
 6724SOL    HW221614   0.602   4.721   9.956  0.6226  1.3586  0.5222
 6725SOL     OW21615   5.463   1.737   9.704 -0.6847 -0.4495  0.7475
 6725SOL    HW121616   5.507   1.762   9.786  0.2526 -0.9957  0.4219
 6725SOL    HW221617   5.400   1.807   9.689 -0.8774 -0.3339  1.9401
 6726SOL     OW21618   0.493   0.403   2.192  0.0984 -0.2644  0.2404
 6726SOL    HW121619   0.565   0.342   2.204 -0.4998 -1.4206 -1.5871
 6726SOL    HW221620   0.429   0.379   2.258  1.0249  0.2405  1.3439
 6727SOL     OW21621   5.625   0.398  10.894 -0.4445 -0.1220 -0.0979
 6727SOL    HW121622   5.571   0.417  10.817  0.0011 -0.2837 -0.4601
 6727SOL    HW221623   5.652   0.484  10.926 -0.0022 -0.0686 -0.5899
 6728SOL     OW21624   3.976   5.661   6.782  0.0586  0.1624  0.5055
 6728SOL    HW121625   3.906   5.653   6.847  0.0041  0.4044  0.4777
 6728SOL    HW221626   4.011   5.749   6.796  0.3454  0.0488  0.5074
 6729SOL     OW21627   6.553   2.287   8.930 -0.0444 -0.0699  0.2305
 6729SOL    HW121628   6.469   2.247   8.951 -0.1158  0.2415  0.5673
 6729SOL    HW221629   6.548   2.374   8.969  0.3418  0.0388  0.0437
 6730SOL     OW21630   6.909   1.869   2.872  0.0173 -0.4494 -0.3836
 6730SOL    HW121631   6.949   1.929   2.935 -1.5983 -0.7114  0.9316
 6730SOL    HW221632   6.902   1.786   2.919 -2.4371 -0.3031 -0.3984
 6731SOL     OW21633   1.196   6.469   6.103 -0.4008  0.3256 -0.4144
 6731SOL    HW121634   1.291   6.480   6.101 -0.4126  0.3908 -0.8606
 6731SOL    HW221635   1.162   6.557   6.119 -0.4017  0.4231 -0.9208
 6732SOL     OW21636   6.449   6.093   5.549 -0.4034 -0.4292  0.1594
 6732SOL    HW121637   6.484   6.088   5.638  0.2938  1.6215  0.0521
 6732SOL    HW221638   6.401   6.011   5.537  0.6263 -1.3439  1.9294
 6733SOL     OW21639   2.874   0.657  10.705 -0.0517 -0.3429  0.3510
 6733SOL    HW121640   2.848   0.700  10.786  1.0481  1.6403 -0.2780
 6733SOL    HW221641   2.797   0.606  10.680  0.0454 -2.1350  3.2900
 6734SOL     OW21642   3.881   0.731   9.264 -0.0515  0.3709  0.6579
 6734SOL    HW121643   3.847   0.650   9.301 -1.2373  0.5526  0.0351
 6734SOL    HW221644   3.806   0.791   9.265 -0.3194  0.2598 -2.3327
 6735SOL     OW21645   3.543   3.750   5.111 -0.6656  0.1105  0.0666
 6735SOL    HW121646   3.517   3.827   5.061 -1.0231  0.5010  0.8299
 6735SOL    HW221647   3.461   3.713   5.144 -0.6838 -1.6853 -1.7936
 6736SOL     OW21648   2.689   7.730   9.441 -0.3822  0.1587  0.4077
 6736SOL    HW121649   2.784   7.721   9.432 -0.4539  0.4104 -0.8096
 6736SOL    HW221650   2.677   7.776   9.524  0.7754  3.3507 -1.0267
 6737SOL     OW21651   0.424   5.168  10.995 -0.2245 -0.3171  0.0686
 6737SOL    HW121652   0.482   5.221  11.050 -1.7501  0.6377  0.8289
 6737SOL    HW221653   0.374   5.115  11.058 -0.9975 -0.2572 -0.4837
 6738SOL     OW21654   5.407   4.571   4.050 -0.1885  0.0259 -0.2817
 6738SOL    HW121655   5.441   4.482   4.055  0.0186  0.1802  1.8492
 6738SOL    HW221656   5.482   4.624   4.026 -0.1694 -0.2781 -0.9179
 6739SOL     OW21657   7.235   4.863   7.197  0.1234  0.6365 -0.0996
 6739SOL    HW121658   7.266   4.792   7.141 -0.5618  0.8904 -0.8267
 6739SOL    HW221659   7.275   4.942   7.159 -0.1015  0.7735 -0.0531
 6740SOL     OW21660   7.216   0.151   8.467 -0.4011 -0.3338 -0.7836
 6740SOL    HW121661   7.147   0.103   8.422 -1.1699  0.0967 -0.1139
 6740SOL    HW221662   7.287   0.088   8.479 -1.2285 -1.1838 -0.2828
 6741SOL     OW21663   2.791   2.470  10.108  0.2060 -0.1191  0.8242
 6741SOL    HW121664   2.783   2.565  10.097 -0.3216  0.1894  3.2618
 6741SOL    HW221665   2.703   2.441  10.132  0.2543 -1.3209 -0.3800
 6742SOL     OW21666   7.433   5.659   5.528  0.3830 -0.5283 -0.3275
 6742SOL    HW121667   7.369   5.592   5.502  0.6923 -0.9141 -0.0947
 6742SOL    HW221668   7.472   5.626   5.609 -0.4963  0.6173  0.6033
 6743SOL     OW21669   3.829   5.671   6.191  0.6271  0.1448  0.5596
 6743SOL    HW121670   3.853   5.696   6.280  2.0341  0.7268  0.0470
 6743SOL    HW221671   3.808   5.578   6.197 -2.4936  0.7869  2.0747
 6744SOL     OW21672   2.010   7.328   9.386 -0.2612 -0.0060 -0.9876
 6744SOL    HW121673   2.083   7.309   9.444 -0.3131  0.5972 -0.7134
 6744SOL    HW221674   1.941   7.267   9.413  0.3010 -0.9097 -1.5720
 6745SOL     OW21675   7.364   7.218  11.019  0.2621 -0.3813  0.0840
 6745SOL    HW121676   7.304   7.290  11.038  0.8666  0.2204 -0.2474
 6745SOL    HW221677   7.373   7.172  11.103 -3.3728 -2.6533 -0.5423
 6746SOL     OW21678   0.476   6.590   6.391 -0.0734  0.3574 -0.3557
 6746SOL    HW121679   0.514   6.610   6.305  0.4063  1.7861  0.1517
 6746SOL    HW221680   0.398   6.538   6.371  0.2718  0.2745 -1.6233
 6747SOL     OW21681   2.757   4.376   4.023 -0.2538 -0.0654  0.3233
 6747SOL    HW121682   2.804   4.307   3.975 -2.2097 -0.3983 -1.2377
 6747SOL    HW221683   2.746   4.446   3.959 -2.1127 -0.1355  0.5267
 6748SOL     OW21684   0.286   1.345   5.503  0.3623 -0.7202 -0.5501
 6748SOL    HW121685   0.226   1.293   5.556  0.8372 -0.8384 -0.1152
 6748SOL    HW221686   0.309   1.419   5.559  0.3600 -0.4984 -0.8414
 6749SOL     OW21687   5.541   3.141   4.542 -0.0544  0.0235  0.7232
 6749SOL    HW121688   5.500   3.055   4.543  0.5346 -0.3212 -0.9215
 6749SOL    HW221689   5.506   3.186   4.619 -0.3554 -1.6821  1.6265
 6750SOL     OW21690   7.539   6.579   3.198 -0.5355  0.2045  0.1457
 6750SOL    HW121691   7.527   6.672   3.180 -0.0055  0.2734  0.1087
 6750SOL    HW221692   7.452   6.545   3.216 -0.6349  0.8929  1.0053
 6751SOL     OW21693   6.770   6.810  10.686 -0.0531  0.0605  1.0881
 6751SOL    HW121694   6.775   6.886  10.744 -0.7660  0.6742  0.3650
 6751SOL    HW221695   6.855   6.809  10.642  0.8933 -1.0246  2.8632
 6752SOL     OW21696   7.218   1.674   3.141  0.4691 -0.3205 -0.1002
 6752SOL    HW121697   7.136   1.650   3.097 -0.3002  2.4726 -0.4083
 6752SOL    HW221698   7.190   1.699   3.229  0.8499  1.1858 -0.3768
 6753SOL     OW21699   5.631   1.776   9.002 -0.5940 -0.6161  0.0948
 6753SOL    HW121700   5.642   1.856   8.950 -0.0042 -0.4252  0.5073
 6753SOL    HW221701   5.589   1.805   9.083  0.6702 -0.5277  0.7430
 6754SOL     OW21702   2.831   6.997   4.980 -0.1792  0.0154  0.3938
 6754SOL    HW121703   2.765   6.956   5.035 -0.0937 -1.5023 -0.5764
 6754SOL    HW221704   2.783   7.028   4.903 -0.3095  2.1750  1.2665
 6755SOL     OW21705   0.683   6.638  11.384  0.1302 -0.6333 -0.1206
 6755SOL    HW121706   0.632   6.674  11.311 -1.4793  0.0447  1.2603
 6755SOL    HW221707   0.644   6.552  11.399 -0.5860 -0.1574  0.8688
 6756SOL     OW21708   0.528   3.934   4.894 -0.1153 -0.1495  0.0348
 6756SOL    HW121709   0.602   3.941   4.833 -0.2970 -1.7616 -0.4134
 6756SOL    HW221710   0.468   4.003   4.866  1.2291  1.2732  0.4814
 6757SOL     OW21711   3.836   7.801   2.368  0.2226  0.2759  0.3699
 6757SOL    HW121712   3.843   7.759   2.454  0.9995  0.2903  0.3218
 6757SOL    HW221713   3.800   7.733   2.311 -1.2809  0.5781  0.9133
 6758SOL     OW21714   3.550   3.769   9.011  0.5077 -0.1961 -0.1425
 6758SOL    HW121715   3.630   3.820   9.003 -1.0879  2.3747 -1.2117
 6758SOL    HW221716   3.481   3.835   9.023 -1.4643 -2.2780  0.7712
 6759SOL     OW21717   6.348   0.150   3.352 -0.6167 -0.0700  0.5779
 6759SOL    HW121718   6.261   0.184   3.331 -0.1251  1.6371  1.1347
 6759SOL    HW221719   6.390   0.220   3.402  1.7352 -0.1070 -1.1915
 6760SOL     OW21720   1.766   2.522   4.747  0.2744 -0.0379  0.5619
 6760SOL    HW121721   1.715   2.585   4.697  0.0272  1.4130  2.4828
 6760SOL    HW221722   1.806   2.465   4.682 -0.5591  1.2996 -1.1984
 6761SOL     OW21723   2.413   7.520   9.465 -0.4360 -0.4349  0.3223
 6761SOL    HW121724   2.414   7.613   9.488 -0.1930 -0.0336 -1.2307
 6761SOL    HW221725   2.345   7.482   9.521 -0.0505  0.5272  1.4731
 6762SOL     OW21726   7.186   6.476   8.504 -0.3609  0.2746 -0.3343
 6762SOL    HW121727   7.272   6.464   8.465 -0.1031 -0.8304  0.5192
 6762SOL    HW221728   7.203   6.492   8.597 -1.0758 -0.2999 -0.0903
 6763SOL     OW21729   4.925   0.756   3.919 -0.2879  0.0365 -0.4855
 6763SOL    HW121730   4.867   0.823   3.955 -0.8734 -0.5518 -0.3319
 6763SOL    HW221731   4.915   0.764   3.824  1.1616  1.5023 -0.5672
 6764SOL     OW21732   5.633   3.844  10.340 -0.6476 -0.0583  0.1717
 6764SOL    HW121733   5.682   3.839  10.258  0.0355  1.3960  0.4518
 6764SOL    HW221734   5.543   3.822  10.316 -0.7817  1.7872 -1.3140
 6765SOL     OW21735   5.978   7.670   7.994 -0.0043 -0.4976 -0.1837
 6765SOL    HW121736   5.890   7.662   8.029 -0.4973  0.6007 -1.0878
 6765SOL    HW221737   6.021   7.588   8.017 -1.1438 -0.9014  0.5837
 6766SOL     OW21738   0.920   3.461   8.063  0.3135  0.1255 -0.3073
 6766SOL    HW121739   0.910   3.531   7.998 -1.4918  0.0843 -0.1281
 6766SOL    HW221740   0.849   3.476   8.126 -2.8899 -4.0617 -2.3839
 6767SOL     OW21741   6.816   3.133   1.844  0.4340 -0.2142 -0.4395
 6767SOL    HW121742   6.816   3.229   1.854  0.7793 -0.2685  0.1142
 6767SOL    HW221743   6.754   3.102   1.910  2.5554 -0.5626  1.5079
 6768SOL     OW21744   6.135   1.170   8.165 -0.1431  0.4417 -0.2221
 6768SOL    HW121745   6.090   1.233   8.109  0.5076  0.8819 -0.2670
 6768SOL    HW221746   6.224   1.206   8.175 -0.6070  1.1473  2.2160
 6769SOL     OW21747   4.619   1.938   9.769  0.7638  0.0586 -0.1053
 6769SOL    HW121748   4.566   1.859   9.760  0.6122  0.1020  0.3935
 6769SOL    HW221749   4.699   1.919   9.721  1.4238 -1.0190  1.3606
 6770SOL     OW21750   6.028   1.624   2.881 -0.2411 -0.0218 -0.1540
 6770SOL    HW121751   6.035   1.566   2.957  0.3181 -1.1753 -1.0730
 6770SOL    HW221752   5.946   1.671   2.894  0.4666  0.7954  1.8417
 6771SOL     OW21753   1.107   5.150   4.243  0.0333  0.3238  0.2205
 6771SOL    HW121754   1.049   5.186   4.176 -0.2578 -0.6357 -0.0533
 6771SOL    HW221755   1.124   5.061   4.215  1.1230  0.3821  0.6459
 6772SOL     OW21756   7.658   1.286   7.052  0.0121 -0.2068  0.4370
 6772SOL    HW121757   7.647   1.198   7.016  2.3205 -0.6844  0.7580
 6772SOL    HW221758   7.619   1.280   7.140 -1.9770 -0.1777 -0.3882
 6773SOL     OW21759   0.733   2.848  10.705  0.5563 -0.3610 -0.0308
 6773SOL    HW121760   0.795   2.802  10.762 -0.7903 -1.6295  0.4520
 6773SOL    HW221761   0.656   2.862  10.760  0.0838  0.4455 -0.8756
 6774SOL     OW21762   1.785   4.220   3.731  0.2376 -0.6494 -0.3167
 6774SOL    HW121763   1.844   4.149   3.759  1.5462  0.0414 -1.2300
 6774SOL    HW221764   1.843   4.294   3.716 -1.1361  0.6979  0.8074
 6775SOL     OW21765   2.423   0.546   6.030  0.3705 -0.2979 -0.5182
 6775SOL    HW121766   2.379   0.593   5.958  2.2592 -1.7270 -2.7449
 6775SOL    HW221767   2.506   0.592   6.041  1.7653 -2.3324 -1.9691
 6776SOL     OW21768   3.757   2.186   8.235 -0.1459  0.7807  0.2067
 6776SOL    HW121769   3.794   2.156   8.318 -1.7243  1.7246  1.2954
 6776SOL    HW221770   3.695   2.118   8.210  1.4113 -0.2498 -1.0383
 6777SOL     OW21771   1.241   6.532   9.720 -0.3249  0.5490  0.0517
 6777SOL    HW121772   1.324   6.515   9.675  0.4596 -1.2084  1.9590
 6777SOL    HW221773   1.201   6.604   9.671  0.9677 -0.4297 -2.6736
 6778SOL     OW21774   5.826   0.808   3.326 -0.3357 -0.5444  0.2225
 6778SOL    HW121775   5.907   0.782   3.370 -1.4399 -3.3139  0.8264
 6778SOL    HW221776   5.852   0.826   3.236  0.9434 -1.7082  0.3276
 6779SOL     OW21777   4.459   2.118  11.477 -0.0742  0.2919 -0.2310
 6779SOL    HW121778   4.365   2.125  11.490 -0.0726 -0.4481  0.2939
 6779SOL    HW221779   4.490   2.208  11.468 -0.8063  0.5446 -0.2241
 6780SOL     OW21780   4.381   6.263   0.910 -0.0943 -0.2780 -0.3076
 6780SOL    HW121781   4.322   6.287   0.982 -0.2072 -0.7585 -0.2361
 6780SOL    HW221782   4.363   6.328   0.842 -2.0824 -1.5077 -1.0376
 6781SOL     OW21783   2.005   5.231   7.767  0.0054  0.2920 -0.5112
 6781SOL    HW121784   2.024   5.217   7.859 -0.8755 -0.1846 -0.3838
 6781SOL    HW221785   1.924   5.181   7.752  0.7233 -0.5393 -1.7995
 6782SOL     OW21786   0.260   1.683   9.051 -0.0015  0.4787  0.1688
 6782SOL    HW121787   0.201   1.618   9.013  1.4768 -1.3504  0.8545
 6782SOL    HW221788   0.202   1.745   9.095 -1.5975  1.1046 -2.6093
 6783SOL     OW21789   2.260   4.864   4.123  0.0064 -0.0365  0.7463
 6783SOL    HW121790   2.253   4.771   4.144 -0.4774 -0.0570  0.4938
 6783SOL    HW221791   2.346   4.872   4.081  0.3295 -0.2544  1.3349
 6784SOL     OW21792   2.713   6.398   4.186  0.1719  0.4705  0.4720
 6784SOL    HW121793   2.753   6.363   4.106 -0.0257  2.5250 -0.5759
 6784SOL    HW221794   2.647   6.333   4.209  0.7862 -0.5639 -0.5653
 6785SOL     OW21795   7.345   7.677   1.031  0.0253 -0.5761 -0.3362
 6785SOL    HW121796   7.306   7.760   1.005 -0.7286 -0.6222  0.6126
 6785SOL    HW221797   7.278   7.634   1.084  1.4671 -0.4426  1.7629
 6786SOL     OW21798   3.374   1.033  10.047 -0.6057  0.1734  0.1401
 6786SOL    HW121799   3.461   1.004  10.018 -0.6739 -1.5285  1.5118
 6786SOL    HW221800   3.324   0.953  10.059 -2.1159  1.0828  0.2120
 6787SOL     OW21801   1.735   7.522   8.796 -0.7916 -0.1485  0.6234
 6787SOL    HW121802   1.737   7.607   8.839 -1.6408  0.3413 -0.2970
 6787SOL    HW221803   1.738   7.459   8.869 -1.8501  0.6611  1.3996
 6788SOL     OW21804   0.659   4.829   1.418 -0.5339  0.2392 -0.3137
 6788SOL    HW121805   0.612   4.879   1.485 -0.1617 -1.1496  1.0133
 6788SOL    HW221806   0.591   4.775   1.377 -0.2228 -1.4727  1.3337
 6789SOL     OW21807   6.953   1.247   5.120 -0.2231  0.0287 -0.0976
 6789SOL    HW121808   6.929   1.241   5.213  3.0506  1.0566  0.9535
 6789SOL    HW221809   6.903   1.321   5.086 -3.7923 -2.1412 -0.1324
 6790SOL     OW21810   0.826   1.741   9.570  0.3475 -0.4083  0.2634
 6790SOL    HW121811   0.868   1.827   9.560 -1.0413  0.3928  0.9034
 6790SOL    HW221812   0.747   1.747   9.516 -0.1601 -1.0038  0.9230
 6791SOL     OW21813   1.202   2.347  12.291 -0.4404 -0.4455 -0.1467
 6791SOL    HW121814   1.241   2.303  12.366 -2.0223  0.5329  1.3471
 6791SOL    HW221815   1.114   2.309  12.284  0.4016 -2.1378 -2.9864
 6792SOL     OW21816   4.769   4.347   4.700  0.3182  0.1492  0.2476
 6792SOL    HW121817   4.677   4.376   4.701 -0.5471 -2.3103  0.7976
 6792SOL    HW221818   4.794   4.344   4.793  1.7570  2.8734  0.0339
 6793SOL     OW21819   0.404   2.132   9.436 -0.2232 -0.0524  0.3470
 6793SOL    HW121820   0.330   2.115   9.494 -0.7909  1.3125  0.0633
 6793SOL    HW221821   0.368   2.123   9.347  0.0264  0.3000  0.2069
 6794SOL     OW21822   6.849   0.603   0.166  0.1294 -0.6561  0.0948
 6794SOL    HW121823   6.940   0.616   0.189 -0.4371  0.4248  1.9082
 6794SOL    HW221824   6.840   0.642   0.079  1.4896 -1.3262 -0.3770
 6795SOL     OW21825   1.251   6.241   0.624  0.6580 -0.2239 -0.5656
 6795SOL    HW121826   1.275   6.235   0.532  0.4435 -1.0755 -0.5724
 6795SOL    HW221827   1.232   6.151   0.650 -0.8171  0.1866 -0.1144
 6796SOL     OW21828   4.423   7.101   4.627 -0.0668 -0.2686 -0.0694
 6796SOL    HW121829   4.414   7.036   4.557  0.6829  0.2684 -0.6846
 6796SOL    HW221830   4.334   7.133   4.641 -0.3138 -0.8171 -0.3600
 6797SOL     OW21831   4.243   2.999   6.792  0.3126  0.0290  0.1882
 6797SOL    HW121832   4.224   2.908   6.814 -0.3675 -0.1855 -1.1789
 6797SOL    HW221833   4.299   2.993   6.715 -0.4494  0.7632 -0.4377
 6798SOL     OW21834   2.499   4.532   3.076  0.2452  0.2840  0.4095
 6798SOL    HW121835   2.480   4.533   3.170 -0.4497  0.6918  0.2698
 6798SOL    HW221836   2.549   4.451   3.063  0.3970  0.2511  1.1380
 6799SOL     OW21837   7.159   5.346  12.068 -0.2429 -0.0617  0.3343
 6799SOL    HW121838   7.226   5.384  12.126 -0.7007 -0.6563  1.2898
 6799SOL    HW221839   7.188   5.369  11.980  1.1231 -0.1296  0.7308
 6800SOL     OW21840   3.446   5.287   9.705  0.6346 -0.0299 -0.5088
 6800SOL    HW121841   3.445   5.336   9.788  1.7941  0.9278 -1.0259
 6800SOL    HW221842   3.460   5.354   9.638 -0.4243 -0.7768 -1.5023
 6801SOL     OW21843   4.971   6.103   5.722 -0.1726  0.2931 -0.5155
 6801SOL    HW121844   4.986   6.037   5.653  0.3514 -1.1770  0.9379
 6801SOL    HW221845   5.059   6.121   5.756 -0.4704  0.7131  0.0252
 6802SOL     OW21846   5.203   6.706   7.025  0.3677  0.5828  0.0320
 6802SOL    HW121847   5.200   6.611   7.022 -1.0659  0.4693  2.3102
 6802SOL    HW221848   5.168   6.735   6.941 -1.1400 -0.9531  0.0802
 6803SOL     OW21849   7.495   3.708   6.785  0.0143 -0.0125  0.3478
 6803SOL    HW121850   7.582   3.738   6.813  0.2626 -1.5209  1.2729
 6803SOL    HW221851   7.513   3.638   6.723 -0.5647  0.4932 -0.4123
 6804SOL     OW21852   1.609   5.898  11.363  0.2106  0.2459 -0.2686
 6804SOL    HW121853   1.571   5.971  11.412 -2.0868 -1.9001  1.4199
 6804SOL    HW221854   1.603   5.925  11.271  0.1003  2.4266  0.3202
 6805SOL     OW21855   0.801   1.935   9.339 -0.6177  0.4537 -0.1975
 6805SOL    HW121856   0.760   1.981   9.266 -1.0765  1.2331  0.5279
 6805SOL    HW221857   0.737   1.868   9.364  0.3012 -1.0172 -1.6315
 6806SOL     OW21858   5.454   4.577   5.953  0.0947 -0.2381 -0.7426
 6806SOL    HW121859   5.517   4.607   5.887  0.2461  0.5450 -0.2571
 6806SOL    HW221860   5.488   4.612   6.036 -0.3171 -0.8619 -0.3057
 6807SOL     OW21861   6.970   6.044   0.374  0.4720  0.0272  0.3555
 6807SOL    HW121862   7.061   6.011   0.372  0.5431  0.2302 -1.3558
 6807SOL    HW221863   6.978   6.133   0.409  0.9586  0.1122  0.0447
 6808SOL     OW21864   0.461   1.255   7.114 -0.0348  0.3200  0.0372
 6808SOL    HW121865   0.406   1.307   7.172  0.9783  1.2362  0.2269
 6808SOL    HW221866   0.517   1.204   7.173 -0.5040 -0.4256 -0.1497
 6809SOL     OW21867   5.579   0.201   1.929 -0.3995 -0.1884  0.5378
 6809SOL    HW121868   5.657   0.155   1.960  0.0283 -1.4219 -2.0626
 6809SOL    HW221869   5.585   0.195   1.833 -2.9924  0.8705  0.2403
 6810SOL     OW21870   6.138   4.475   1.206  0.0514  0.4313  0.2758
 6810SOL    HW121871   6.204   4.500   1.141 -1.1816  0.8504 -0.8419
 6810SOL    HW221872   6.073   4.545   1.202  0.8577  1.5079  3.3335
 6811SOL     OW21873   1.001   0.070  12.087  0.2060  0.6763  0.2443
 6811SOL    HW121874   0.932   0.005  12.098  1.1393 -0.8917 -2.3786
 6811SOL    HW221875   1.079   0.030  12.127  0.5757  0.5337 -0.5975
 6812SOL     OW21876   6.236   4.066   5.552 -0.6653 -0.3105  0.0660
 6812SOL    HW121877   6.321   4.105   5.574 -0.7508  0.7260 -1.3042
 6812SOL    HW221878   6.214   4.013   5.628 -0.0300  1.4793  1.5830
 6813SOL     OW21879   4.287   5.823   0.793 -0.1625  0.6583 -0.4643
 6813SOL    HW121880   4.356   5.767   0.757  1.3020  1.8472  0.3841
 6813SOL    HW221881   4.333   5.882   0.852 -1.9338  1.5024  0.1183
 6814SOL     OW21882   6.546   1.686   6.839  0.5529  0.2003 -0.0525
 6814SOL    HW121883   6.534   1.591   6.844 -2.2134  0.4062 -1.2905
 6814SOL    HW221884   6.638   1.696   6.812  0.5025 -2.1921 -1.4111
 6815SOL     OW21885   0.342   0.107   0.181 -0.4354 -0.0401  0.2348
 6815SOL    HW121886   0.376   0.021   0.155  0.0557  0.0347  0.6171
 6815SOL    HW221887   0.254   0.090   0.212  0.0037 -0.5597  1.2358
 6816SOL     OW21888   0.915   5.765  11.164 -0.0662  0.8974  0.1139
 6816SOL    HW121889   0.840   5.811  11.127 -0.7134  1.0095  1.5004
 6816SOL    HW221890   0.962   5.832  11.214  0.7013  0.7149 -0.3425
 6817SOL     OW21891   7.270   2.570   9.995 -0.2065 -0.1744 -0.5271
 6817SOL    HW121892   7.309   2.592   9.910  2.6253  0.3144  0.7837
 6817SOL    HW221893   7.323   2.498  10.028 -2.1704 -1.3367  0.2757
 6818SOL     OW21894   5.853   0.047   9.778 -0.5899 -0.1543 -0.0912
 6818SOL    HW121895   5.854   0.142   9.784 -0.0828 -0.2491  2.1327
 6818SOL    HW221896   5.784   0.019   9.839 -1.0694 -1.2067 -1.0710
 6819SOL     OW21897   2.465   7.256   2.150 -0.2818 -0.1885  0.0644
 6819SOL    HW121898   2.452   7.172   2.107  1.7645  0.1942 -1.4646
 6819SOL    HW221899   2.560   7.268   2.151 -0.5004  1.8690  0.6875
 6820SOL     OW21900   3.848   4.981  10.191 -0.2038 -0.5151 -0.0409
 6820SOL    HW121901   3.848   4.926  10.269 -0.6823 -0.5735 -0.0796
 6820SOL    HW221902   3.893   4.929  10.125  1.7057  0.1868  0.6410
 6821SOL     OW21903   6.058   2.608   7.709  0.7180 -0.4978 -0.0401
 6821SOL    HW121904   6.101   2.533   7.667  2.1292  0.7886 -0.9860
 6821SOL    HW221905   5.970   2.576   7.729  1.5201 -2.6725  0.3590
 6822SOL     OW21906   0.914   5.798   3.676 -0.1145  0.7245 -0.2683
 6822SOL    HW121907   0.820   5.809   3.663 -0.1003  0.9171 -0.2076
 6822SOL    HW221908   0.932   5.843   3.758  0.0676  0.8699 -0.3889
 6823SOL     OW21909   0.761   2.064   8.474  0.5696  0.0615  0.0864
 6823SOL    HW121910   0.796   2.149   8.449  1.6762  0.3489  2.3877
 6823SOL    HW221911   0.723   2.078   8.561  0.4659 -1.7185  0.3616
 6824SOL     OW21912   6.134   1.838   4.119 -0.2801  0.2724  0.3998
 6824SOL    HW121913   6.110   1.793   4.200 -0.1641  0.0661  0.3217
 6824SOL    HW221914   6.205   1.896   4.144 -0.3780  0.3561  0.4860
 6825SOL     OW21915   3.778   5.525  10.608 -0.4518  0.2143  0.0866
 6825SOL    HW121916   3.736   5.597  10.656 -1.0163  0.5112 -0.8146
 6825SOL    HW221917   3.707   5.487  10.556 -0.3184 -1.4705  1.0599
 6826SOL     OW21918   5.199   3.783  10.463 -0.2031  0.0147  0.5025
 6826SOL    HW121919   5.269   3.789  10.398 -1.3132 -1.2822 -0.8871
 6826SOL    HW221920   5.243   3.756  10.543  0.6480 -4.7769 -1.2063
 6827SOL     OW21921   5.499   0.709   1.546 -0.0814 -0.1080 -0.8103
 6827SOL    HW121922   5.556   0.643   1.586 -0.2271 -0.0574 -0.5146
 6827SOL    HW221923   5.528   0.714   1.455  0.1384 -0.3531 -0.7552
 6828SOL     OW21924   5.019   5.339   6.483 -0.4390  0.4588 -0.0480
 6828SOL    HW121925   5.009   5.423   6.527 -1.8338  1.1212 -1.5245
 6828SOL    HW221926   5.110   5.314   6.498  0.0528  2.3239  0.2656
 6829SOL     OW21927   4.728   6.967   2.705 -0.1417  0.3308 -0.4857
 6829SOL    HW121928   4.640   6.952   2.671 -0.8778 -0.4482  1.6307
 6829SOL    HW221929   4.729   7.060   2.729 -0.2671  0.4204 -0.8265
 6830SOL     OW21930   0.105   4.528   6.020  0.4767  0.6427  0.2417
 6830SOL    HW121931   0.081   4.546   6.111  1.3919  1.2699  0.3682
 6830SOL    HW221932   0.195   4.496   6.025  0.2860 -0.0139 -0.3867
 6831SOL     OW21933   0.718   4.958   2.352 -0.3453 -0.2511  0.2775
 6831SOL    HW121934   0.630   4.958   2.315 -0.9958  1.0553  1.7520
 6831SOL    HW221935   0.758   4.878   2.317 -0.7323  0.9790 -3.5352
 6832SOL     OW21936   7.606   2.423   9.894 -0.1651 -0.1745 -0.2974
 6832SOL    HW121937   7.631   2.342   9.849  0.0761 -1.0697  1.3318
 6832SOL    HW221938   7.658   2.421   9.975 -0.5997  1.3266  0.0416
 6833SOL     OW21939   7.917   4.823   0.141 -0.0065 -0.6063  0.2117
 6833SOL    HW121940   7.892   4.848   0.230  0.3350  2.4272 -0.4190
 6833SOL    HW221941   7.961   4.739   0.152  1.5261  0.4136  3.2007
 6834SOL     OW21942   6.061   3.785  11.843 -0.5967 -0.3080  0.6967
 6834SOL    HW121943   6.001   3.796  11.770  0.7343 -0.0977 -0.4202
 6834SOL    HW221944   6.099   3.698  11.831  0.4506  0.1574  0.4645
 6835SOL     OW21945   7.174   5.837   7.204  0.0709 -0.1480  0.0766
 6835SOL    HW121946   7.119   5.915   7.213 -0.2584 -0.5161  1.5098
 6835SOL    HW221947   7.119   5.776   7.154 -0.6787 -0.3505  1.1110
 6836SOL     OW21948   3.809   4.024  11.648 -0.0834 -0.0960  0.2702
 6836SOL    HW121949   3.718   4.010  11.624 -0.1613 -1.9972  1.4207
 6836SOL    HW221950   3.858   3.998  11.569 -0.4894  3.0002 -1.1511
 6837SOL     OW21951   7.768   7.300   3.238  0.2531 -0.2035 -0.2259
 6837SOL    HW121952   7.725   7.216   3.256 -1.4423  0.8537  0.9918
 6837SOL    HW221953   7.695   7.361   3.220  1.4004  1.1253 -0.5418
 6838SOL     OW21954   2.105   2.903   8.778  0.2884  0.2296  0.0892
 6838SOL    HW121955   2.142   2.991   8.771 -0.7111  0.6052 -0.6913
 6838SOL    HW221956   2.171   2.846   8.738  0.4929  0.7486 -0.3197
 6839SOL     OW21957   2.195   7.605   1.256 -0.0697 -0.3921  0.4650
 6839SOL    HW121958   2.233   7.554   1.184 -1.2062 -0.8136  0.1400
 6839SOL    HW221959   2.222   7.558   1.335  2.5914  0.9983  0.4733
 6840SOL     OW21960   1.901   1.375   0.305  0.1634 -0.4233  0.3198
 6840SOL    HW121961   1.961   1.441   0.339  0.6577 -1.0918  0.7538
 6840SOL    HW221962   1.868   1.330   0.383 -0.4480 -0.4648  0.0483
 6841SOL     OW21963   1.411   1.001   9.419  0.6039 -0.4248  0.4171
 6841SOL    HW121964   1.506   0.989   9.419  0.9799  1.9702 -0.2931
 6841SOL    HW221965   1.387   1.007   9.327 -0.2288 -0.9417  0.5924
 6842SOL     OW21966   6.767   0.618   2.743  0.0260 -0.0178  0.6297
 6842SOL    HW121967   6.742   0.700   2.785 -1.1791 -0.2438  0.4004
 6842SOL    HW221968   6.816   0.645   2.666 -1.2491  0.5522 -0.0155
 6843SOL     OW21969   2.526   5.166   4.079 -0.0294 -0.4889  0.0062
 6843SOL    HW121970   2.483   5.251   4.093 -2.4548 -1.2026 -2.2807
 6843SOL    HW221971   2.607   5.187   4.033  0.9332  0.7203  2.1068
 6844SOL     OW21972   4.040   7.521   9.855  0.2041  0.2407  0.3109
 6844SOL    HW121973   3.962   7.568   9.882 -0.1593  0.6541 -1.3658
 6844SOL    HW221974   4.072   7.568   9.778  1.0634 -0.9833 -0.1210
 6845SOL     OW21975   6.972   6.452   2.610  0.2960 -0.2051  0.2248
 6845SOL    HW121976   6.964   6.435   2.516 -1.0268 -2.3952  0.6724
 6845SOL    HW221977   6.908   6.522   2.626 -0.7354 -1.0184 -0.2400
 6846SOL     OW21978   1.172   7.028   5.697  0.0621  0.4497  0.2976
 6846SOL    HW121979   1.090   7.074   5.711  0.7563  1.4028  1.5143
 6846SOL    HW221980   1.239   7.096   5.699  0.8168 -0.1389 -1.9057
 6847SOL     OW21981   6.246   7.294   5.580 -0.6546  0.3544  0.0172
 6847SOL    HW121982   6.171   7.317   5.635 -1.3634  1.2732 -1.2838
 6847SOL    HW221983   6.216   7.219   5.529  1.0711 -2.7102  3.0060
 6848SOL     OW21984   5.362   4.301   0.944  0.2867  0.4714 -0.1624
 6848SOL    HW121985   5.377   4.347   0.862 -0.6248 -0.0849 -0.6583
 6848SOL    HW221986   5.443   4.312   0.993  1.4658 -0.5307 -1.7811
 6849SOL     OW21987   0.095   5.141   4.179 -0.1347  0.1616  0.2851
 6849SOL    HW121988   0.091   5.237   4.179 -0.7950  0.1357 -0.0951
 6849SOL    HW221989   0.020   5.114   4.231 -1.9610 -0.2046 -2.3669
 6850SOL     OW21990   1.927   0.244   4.493  0.0133 -0.7299  0.3698
 6850SOL    HW121991   1.997   0.302   4.464  0.5172 -1.1178  0.7810
 6850SOL    HW221992   1.847   0.286   4.463  0.4780 -0.8624 -1.1158
 6851SOL     OW21993   7.152   5.659   1.624  0.1444  0.5499 -0.0059
 6851SOL    HW121994   7.083   5.711   1.666  0.6557  0.8547  0.4692
 6851SOL    HW221995   7.174   5.592   1.689  0.9785  1.0554  0.2448
 6852SOL     OW21996   3.849   7.898   1.493 -0.1005  1.3363 -0.1619
 6852SOL    HW121997   3.805   7.831   1.442 -0.7282  0.4434  1.4688
 6852SOL    HW221998   3.896   7.951   1.428  0.9655 -1.0471 -1.4970
 6853SOL     OW21999   1.746   2.882  10.618  0.1850  0.2858  0.1465
 6853SOL    HW122000   1.682   2.818  10.649 -1.6305  1.6064 -0.6958
 6853SOL    HW222001   1.757   2.942  10.692  0.3253  0.1604  0.2291
 6854SOL     OW22002   5.191   3.758   4.432  0.4105  0.0637 -0.3420
 6854SOL    HW122003   5.120   3.724   4.486  0.5688 -0.4830 -0.4805
 6854SOL    HW222004   5.154   3.836   4.389 -0.2489 -0.4829 -0.7755
 6855SOL     OW22005   3.052   0.755   8.450  0.3226 -0.0087  0.3446
 6855SOL    HW122006   3.073   0.666   8.479  0.5699 -0.2201 -0.4660
 6855SOL    HW222007   3.126   0.808   8.480 -0.2337  0.0958  1.5966
 6856SOL     OW22008   1.056   0.096   0.087 -0.1434 -0.1347  0.4754
 6856SOL    HW122009   1.084   0.050   0.007 -0.1014 -0.5081  0.7015
 6856SOL    HW222010   1.138   0.112   0.134 -0.3965 -3.4101  2.3246
 6857SOL     OW22011   5.722   5.196  12.006  0.5161 -0.1959  0.6422
 6857SOL    HW122012   5.709   5.162  12.094  0.6096  0.9902  1.1233
 6857SOL    HW222013   5.717   5.291  12.015  0.2146 -0.0646 -0.6823
 6858SOL     OW22014   0.316   2.124   6.818 -0.3794 -0.1303  0.0656
 6858SOL    HW122015   0.316   2.210   6.777  0.1260 -0.0127  0.3023
 6858SOL    HW222016   0.252   2.131   6.889  0.9090  0.6209  1.2144
 6859SOL     OW22017   6.184   2.357   0.704 -0.1358  0.0720 -0.0736
 6859SOL    HW122018   6.236   2.426   0.744 -1.4745  0.7881  0.4804
 6859SOL    HW222019   6.243   2.282   0.699  1.8462  1.6269 -2.0347
 6860SOL     OW22020   4.749   4.377   6.623  0.2347 -0.1586 -0.0641
 6860SOL    HW122021   4.747   4.283   6.642 -1.9072 -0.3245 -0.8567
 6860SOL    HW222022   4.788   4.416   6.701  2.4286 -1.7871 -0.2588
 6861SOL     OW22023   4.104   4.608   0.351  0.2088  0.5231  0.1494
 6861SOL    HW122024   4.187   4.611   0.398 -0.4696  2.0602  1.3083
 6861SOL    HW222025   4.109   4.680   0.288 -0.4333  0.9215  0.5497
 6862SOL     OW22026   2.535   3.622   4.501 -0.0992  0.1732  0.5748
 6862SOL    HW122027   2.529   3.629   4.596 -1.0181 -1.8091  0.7238
 6862SOL    HW222028   2.558   3.530   4.486 -0.9047  0.2220 -1.1427
 6863SOL     OW22029   0.099   0.952   1.634  0.2787 -0.2062  0.3357
 6863SOL    HW122030   0.021   1.006   1.646 -0.3561 -1.1890  0.7467
 6863SOL    HW222031   0.102   0.935   1.540  0.1420  0.0299  0.2862
 6864SOL     OW22032   5.763   5.087   7.824 -0.5465  0.3277  0.3808
 6864SOL    HW122033   5.788   5.070   7.915 -1.6936 -0.3867  0.5836
 6864SOL    HW222034   5.706   5.164   7.830 -0.9410  0.0428  0.3227
 6865SOL     OW22035   4.636   5.099   7.579  0.3278  0.6536  0.1444
 6865SOL    HW122036   4.704   5.126   7.516  0.7566 -2.2081 -0.7544
 6865SOL    HW222037   4.685   5.071   7.656 -0.0146  0.9703  0.4830
 6866SOL     OW22038   3.412   4.897  10.393 -0.2021 -0.2895 -0.0945
 6866SOL    HW122039   3.477   4.832  10.365 -0.3009 -1.0100  1.2963
 6866SOL    HW222040   3.462   4.978  10.403  0.6960 -1.0103  1.7211
 6867SOL     OW22041   2.568   5.251   5.599  0.1587 -0.2606  0.0344
 6867SOL    HW122042   2.486   5.296   5.617 -0.3361 -1.4351  0.8773
 6867SOL    HW222043   2.627   5.282   5.669  0.4823  0.6448 -0.6183
 6868SOL     OW22044   6.899   2.782   7.185  0.0460 -0.2032 -0.1113
 6868SOL    HW122045   6.828   2.839   7.214  1.6922  1.1239  1.4698
 6868SOL    HW222046   6.924   2.732   7.263  2.1950  0.8489 -0.0661
 6869SOL     OW22047   3.738   1.006   5.881  0.5151  0.2973 -0.0104
 6869SOL    HW122048   3.793   1.065   5.932  0.7625  0.7576 -0.7909
 6869SOL    HW222049   3.689   1.063   5.821 -0.7064 -0.1235  0.5588
 6870SOL     OW22050   6.145   5.402   3.603 -0.3569 -0.2337 -0.2251
 6870SOL    HW122051   6.145   5.451   3.685 -0.2765  2.0950 -1.5226
 6870SOL    HW222052   6.207   5.331   3.618 -0.0022  0.3987  1.5774
 6871SOL     OW22053   5.509   4.581  12.105 -0.3024 -0.0563  0.0863
 6871SOL    HW122054   5.429   4.623  12.135 -1.2557 -0.1376 -2.1258
 6871SOL    HW222055   5.547   4.643  12.043  1.6122  0.1591  1.3685
 6872SOL     OW22056   5.844   3.572  10.531  0.7265 -0.3564 -0.3343
 6872SOL    HW122057   5.766   3.613  10.569  0.4577 -0.1479 -1.1125
 6872SOL    HW222058   5.810   3.499  10.479  1.1861 -1.5516  0.9412
 6873SOL     OW22059   4.315   0.802   3.528  0.0647  0.2360 -0.0102
 6873SOL    HW122060   4.223   0.780   3.516 -0.2656  1.0818  0.7646
 6873SOL    HW222061   4.313   0.895   3.554  1.1949  0.5029 -0.8249
 6874SOL     OW22062   6.907   5.493   8.581 -0.1133  0.0061 -0.1413
 6874SOL    HW122063   6.957   5.412   8.582  0.5992  0.4394  0.0805
 6874SOL    HW222064   6.970   5.561   8.605 -0.7904  0.5751  0.0689
 6875SOL     OW22065   5.519   4.766   2.785 -0.3429 -0.2028 -0.0589
 6875SOL    HW122066   5.574   4.793   2.859 -1.2947  1.0804  0.2254
 6875SOL    HW222067   5.561   4.806   2.709  0.1739 -0.8365 -0.1189
 6876SOL     OW22068   5.700   6.568  10.702  0.5186 -0.8453 -0.3304
 6876SOL    HW122069   5.737   6.484  10.675  3.1974  0.2341 -0.3312
 6876SOL    HW222070   5.693   6.618  10.621  1.8771 -0.0571 -0.0039
 6877SOL     OW22071   6.620   2.522   9.090  0.2569 -0.4042  0.3403
 6877SOL    HW122072   6.715   2.529   9.087  0.1790  0.6693 -1.1449
 6877SOL    HW222073   6.590   2.613   9.086 -0.8237 -0.7932 -1.9488
 6878SOL     OW22074   7.472   2.226  11.475 -0.6179  0.0535 -0.6892
 6878SOL    HW122075   7.416   2.297  11.443  0.9243  1.4357 -0.4412
 6878SOL    HW222076   7.559   2.246  11.440 -0.3586 -2.4178 -1.6320
 6879SOL     OW22077   3.724   6.816   0.245 -0.2570 -0.6156  0.0931
 6879SOL    HW122078   3.817   6.830   0.230 -0.4138 -0.6135 -0.9221
 6879SOL    HW222079   3.701   6.741   0.191 -1.1295  0.2229 -0.7530
 6880SOL     OW22080   1.178   1.330   3.103 -0.0962  0.8862  0.0444
 6880SOL    HW122081   1.213   1.368   3.023 -1.2921 -0.0496 -0.9754
 6880SOL    HW222082   1.255   1.297   3.150  0.6154  1.4101 -0.7289
 6881SOL     OW22083   2.128   0.343   5.723  0.3807  0.0979  0.2660
 6881SOL    HW122084   2.081   0.319   5.643  1.7219 -0.8675 -0.2664
 6881SOL    HW222085   2.073   0.409   5.764 -0.4663  0.4166 -1.3107
 6882SOL     OW22086   4.412   0.415   8.569  0.3219  0.2291 -0.3533
 6882SOL    HW122087   4.389   0.326   8.596  0.8543  1.0976  3.6919
 6882SOL    HW222088   4.331   0.452   8.536 -0.5827 -0.9850  0.4288
 6883SOL     OW22089   1.915   6.996   7.545 -0.2182 -0.1291 -0.3533
 6883SOL    HW122090   1.871   7.010   7.630 -1.3617 -1.9420 -0.5847
 6883SOL    HW222091   1.859   7.042   7.482 -0.3234 -0.2114 -0.3214
 6884SOL     OW22092   7.525   5.071   1.470  0.0152 -0.4326  0.0154
 6884SOL    HW122093   7.595   5.133   1.450  0.3939 -1.0312 -0.5552
 6884SOL    HW222094   7.456   5.090   1.406 -0.8421  0.9038  1.2793
 6885SOL     OW22095   5.001   2.884  10.513 -0.2771  0.1954  0.4568
 6885SOL    HW122096   5.091   2.914  10.526 -0.7152  2.2081 -0.5856
 6885SOL    HW222097   5.002   2.843  10.426 -0.4778  0.9063  0.1041
 6886SOL     OW22098   5.292   2.264   2.891 -0.6857  0.3357 -0.0646
 6886SOL    HW122099   5.359   2.332   2.887 -0.8824  0.5110 -0.3529
 6886SOL    HW222100   5.329   2.198   2.950  0.5711 -0.4924 -1.7065
 6887SOL     OW22101   1.604   3.753  10.559 -0.4369 -0.0811 -0.0632
 6887SOL    HW122102   1.598   3.736  10.465 -1.6906  1.3097 -0.2755
 6887SOL    HW222103   1.616   3.848  10.565 -0.9594 -0.0819  1.1883
 6888SOL     OW22104   0.561   1.460   9.511  0.2139  0.1154 -0.1239
 6888SOL    HW122105   0.547   1.544   9.467  2.0744  0.8551  0.6147
 6888SOL    HW222106   0.502   1.399   9.466 -1.2278  1.8053 -0.6274
 6889SOL     OW22107   4.049   0.997   7.071 -0.2757  0.1741  0.3134
 6889SOL    HW122108   4.116   0.988   7.004 -0.5193 -1.0342  0.2052
 6889SOL    HW222109   4.057   0.918   7.124 -2.8597 -1.0192 -0.8982
 6890SOL     OW22110   6.107   3.402  10.672 -0.4878  0.4213  0.0871
 6890SOL    HW122111   6.080   3.321  10.716  0.7228  0.1387  0.3548
 6890SOL    HW222112   6.139   3.458  10.743  1.0358  0.1468 -0.3444
 6891SOL     OW22113   6.446   7.283  10.038  0.1123 -0.4002 -0.6780
 6891SOL    HW122114   6.495   7.230   9.975  0.0423 -1.1429 -0.1230
 6891SOL    HW222115   6.357   7.284  10.004  0.2831  0.0501 -1.1200
 6892SOL     OW22116   6.512   2.829  10.353  0.7746 -0.2646  0.0866
 6892SOL    HW122117   6.526   2.828  10.448 -1.2358 -1.8345  0.4378
 6892SOL    HW222118   6.437   2.770  10.339 -0.9863  2.2512 -2.1421
 6893SOL     OW22119   6.954   5.575   6.474  0.1125 -0.6564 -0.1852
 6893SOL    HW122120   7.025   5.609   6.529 -0.6777  1.3249 -0.3086
 6893SOL    HW222121   6.874   5.598   6.521 -0.5059 -1.1709 -0.9638
 6894SOL     OW22122   6.322   6.492   6.316  0.0660 -0.2372 -0.0418
 6894SOL    HW122123   6.342   6.487   6.223  1.7484  0.4183  0.2391
 6894SOL    HW222124   6.318   6.586   6.335 -0.2949 -0.3606  0.5266
 6895SOL     OW22125   1.648   4.143   2.763  0.1771  0.4458 -0.2821
 6895SOL    HW122126   1.738   4.158   2.732 -0.4120  0.4160 -2.1575
 6895SOL    HW222127   1.611   4.082   2.699 -1.2484  0.6506  0.3119
 6896SOL     OW22128   0.658   0.341   7.285 -0.3119 -0.3183 -0.0013
 6896SOL    HW122129   0.652   0.429   7.322  0.7784  0.6547 -1.9511
 6896SOL    HW222130   0.737   0.303   7.324 -0.2997 -0.0989  0.1886
 6897SOL     OW22131   1.625   4.505  10.964 -0.0177 -0.5529 -0.4472
 6897SOL    HW122132   1.568   4.582  10.974  0.1127 -0.5353  0.1811
 6897SOL    HW222133   1.600   4.469  10.879  1.6324  1.6122 -1.9675
 6898SOL     OW22134   4.562   6.376   7.380  0.1039  0.6622  0.3083
 6898SOL    HW122135   4.656   6.390   7.395  0.7196  0.8893 -2.9330
 6898SOL    HW222136   4.533   6.326   7.456  2.8956  0.3553  1.3067
 6899SOL     OW22137   4.169   6.875   9.889 -0.2690  0.0310  0.4890
 6899SOL    HW122138   4.123   6.844   9.812 -0.5361 -0.2012  0.7400
 6899SOL    HW222139   4.260   6.849   9.875 -0.0903  1.0246 -0.2888
 6900SOL     OW22140   5.043   0.766  11.869  0.3183 -0.6979  0.3296
 6900SOL    HW122141   5.083   0.815  11.941 -0.9061  0.6762  0.1329
 6900SOL    HW222142   4.961   0.813  11.851  0.4275 -1.1922 -1.7381
 6901SOL     OW22143   2.868   1.867   8.501  0.1293 -0.0823 -0.5766
 6901SOL    HW122144   2.917   1.826   8.573  0.2338 -0.1153 -0.6666
 6901SOL    HW222145   2.777   1.865   8.531  0.3785  1.6602  0.4196
 6902SOL     OW22146   6.665   2.181   7.905 -0.3918 -0.4292  0.1444
 6902SOL    HW122147   6.622   2.229   7.835 -0.4957  1.7428  1.5762
 6902SOL    HW222148   6.613   2.200   7.983 -0.2000 -2.6365  0.8891
 6903SOL     OW22149   2.591   6.112   2.784  0.1075  0.1127 -0.2956
 6903SOL    HW122150   2.587   6.208   2.792  3.6143  0.4430 -0.9832
 6903SOL    HW222151   2.640   6.097   2.704  0.6083 -2.2574  0.3965
 6904SOL     OW22152   6.589   3.831   4.773  0.3647 -0.1578  0.0838
 6904SOL    HW122153   6.682   3.829   4.750  0.5488 -1.8397  0.8178
 6904SOL    HW222154   6.551   3.760   4.722 -0.6690  0.9130 -0.6900
 6905SOL     OW22155   2.213   2.661   5.676  0.2219 -0.1917 -0.0093
 6905SOL    HW122156   2.239   2.680   5.586  0.6275  2.1952  0.5434
 6905SOL    HW222157   2.169   2.741   5.706 -1.0872 -1.4211  1.5004
 6906SOL     OW22158   2.159   3.214   3.466 -0.1813 -0.6892  0.4269
 6906SOL    HW122159   2.161   3.120   3.481 -0.2884 -0.9027 -0.8078
 6906SOL    HW222160   2.217   3.228   3.391  2.1105  0.6059  2.3304
 6907SOL     OW22161   7.573   6.718  11.807 -0.2512  0.2036 -0.6779
 6907SOL    HW122162   7.582   6.626  11.784  0.8576 -0.0759  0.7260
 6907SOL    HW222163   7.583   6.764  11.724  0.0737 -0.9038 -1.2775
 6908SOL     OW22164   6.211   5.175   7.274 -0.0335  0.4102 -0.2638
 6908SOL    HW122165   6.209   5.192   7.179 -0.1936 -1.4870 -0.6396
 6908SOL    HW222166   6.136   5.118   7.289  1.3316 -1.2493  0.5662
 6909SOL     OW22167   5.820   4.694   8.573 -0.2350 -0.3799  0.3103
 6909SOL    HW122168   5.913   4.670   8.580 -0.4799 -1.9734 -1.2953
 6909SOL    HW222169   5.780   4.620   8.528 -1.9189  1.1988 -0.8891
 6910SOL     OW22170   0.389   3.710   6.603 -0.0729  0.2492 -0.1986
 6910SOL    HW122171   0.299   3.743   6.602 -0.7744 -1.5779 -1.6898
 6910SOL    HW222172   0.442   3.787   6.580 -1.2041  1.3881  0.8378
 6911SOL     OW22173   1.693   7.062   8.372 -0.2584  0.0704 -0.4095
 6911SOL    HW122174   1.613   7.113   8.383  0.7477  1.6118  0.1080
 6911SOL    HW222175   1.682   7.019   8.288 -1.2633  0.9465 -0.7531
 6912SOL     OW22176   4.756   7.322   9.547 -0.1491 -0.2513 -0.6017
 6912SOL    HW122177   4.736   7.416   9.540  0.0045 -0.0326  1.2675
 6912SOL    HW222178   4.695   7.290   9.614 -0.3150 -1.5521 -1.3407
 6913SOL     OW22179   2.773   7.291   0.208  0.1075 -0.1511  0.0258
 6913SOL    HW122180   2.758   7.383   0.230  0.4720  0.0135 -0.3977
 6913SOL    HW222181   2.743   7.283   0.117 -0.9164 -0.7050  0.3877
 6914SOL     OW22182   4.975   0.508   8.882 -0.0363  0.6115  0.4791
 6914SOL    HW122183   4.921   0.449   8.934 -0.8317  1.2359  0.3880
 6914SOL    HW222184   5.034   0.550   8.945  1.7668 -1.5076  0.3332
 6915SOL     OW22185   7.771   7.139   7.635  0.1075 -0.4296 -0.2047
 6915SOL    HW122186   7.704   7.189   7.590 -0.7134 -0.3168  1.0739
 6915SOL    HW222187   7.829   7.205   7.673 -0.6467 -0.4133  0.9915
 6916SOL     OW22188   2.635   6.918   3.682  0.2366 -0.3628  0.3117
 6916SOL    HW122189   2.624   7.012   3.694  1.4165 -0.2981  1.0455
 6916SOL    HW222190   2.615   6.903   3.589 -1.1523  0.4021  0.4666
 6917SOL     OW22191   7.585   0.361   9.288 -0.4490 -0.3176 -0.2144
 6917SOL    HW122192   7.520   0.430   9.272 -0.3641 -0.7179 -2.5885
 6917SOL    HW222193   7.561   0.291   9.227  2.1405 -0.5124 -1.0984
 6918SOL     OW22194   2.971   7.742   8.233  0.1073  0.5061  0.4717
 6918SOL    HW122195   3.001   7.691   8.308  1.5044  0.1275 -0.3030
 6918SOL    HW222196   3.045   7.741   8.172 -1.5960 -0.8435 -1.7659
 6919SOL     OW22197   7.051   3.048   5.002  0.4209  0.2563  0.3359
 6919SOL    HW122198   7.095   3.018   5.082 -0.3843  0.6280  0.9352
 6919SOL    HW222199   6.968   3.085   5.033  0.3866  1.0087 -0.6063
 6920SOL     OW22200   2.469   3.640   7.756 -0.0085  0.2626 -0.1403
 6920SOL    HW122201   2.431   3.673   7.837 -0.6120  0.4207 -0.4772
 6920SOL    HW222202   2.396   3.642   7.693  0.0637 -1.2135 -0.3102
 6921SOL     OW22203   2.345   2.808   7.379 -0.3042 -0.5939  0.3792
 6921SOL    HW122204   2.404   2.764   7.317  0.2789 -0.8714  1.1189
 6921SOL    HW222205   2.258   2.799   7.340  0.0719 -0.6535 -0.4628
 6922SOL     OW22206   3.915   4.294  10.833 -0.0692 -0.1743  0.4956
 6922SOL    HW122207   3.844   4.250  10.880 -0.2028  0.1330  0.5832
 6922SOL    HW222208   3.871   4.349  10.768  0.1371 -1.3263 -0.6571
 6923SOL     OW22209   5.467   5.254   2.822 -0.0617  0.3089 -0.0173
 6923SOL    HW122210   5.470   5.235   2.728 -1.0425  0.4247 -0.0767
 6923SOL    HW222211   5.548   5.302   2.839  0.8856 -1.0486 -0.4971
 6924SOL     OW22212   5.482   7.517   3.012  0.5485  0.1574  0.2308
 6924SOL    HW122213   5.391   7.493   3.029  0.5616  0.3670  0.6069
 6924SOL    HW222214   5.481   7.557   2.925 -0.6431  4.9283  2.1441
 6925SOL     OW22215   6.786   0.298   7.901 -0.2551  0.1006 -0.1924
 6925SOL    HW122216   6.692   0.310   7.906 -0.5107 -0.6343 -2.2334
 6925SOL    HW222217   6.816   0.366   7.841  0.6900  0.9139  1.1357
 6926SOL     OW22218   7.749   5.181   4.262  0.0318 -0.5806  0.2741
 6926SOL    HW122219   7.707   5.123   4.326  1.4681 -0.3056  1.5254
 6926SOL    HW222220   7.718   5.268   4.286 -0.3264 -0.5816 -0.1604
 6927SOL     OW22221   1.170   0.928   0.203 -0.5245 -0.0098 -0.8280
 6927SOL    HW122222   1.149   1.003   0.258  2.1615 -0.4267  0.9911
 6927SOL    HW222223   1.164   0.853   0.262  0.9325 -0.6649 -1.4554
 6928SOL     OW22224   0.561   6.799   4.910  0.3183 -0.4001  0.1111
 6928SOL    HW122225   0.651   6.819   4.882  0.9441 -1.4510  1.2536
 6928SOL    HW222226   0.569   6.779   5.003 -1.1873 -0.1039  0.3300
 6929SOL     OW22227   7.082   1.829  10.981 -0.2428 -0.1282 -0.4263
 6929SOL    HW122228   6.994   1.828  11.020 -0.5431  0.2609 -1.0706
 6929SOL    HW222229   7.140   1.807  11.053 -0.8628 -0.2859  0.0388
 6930SOL     OW22230   1.562   5.982  12.135 -0.0771  0.2971 -1.0649
 6930SOL    HW122231   1.479   5.935  12.137  1.8646 -3.8968  3.8055
 6930SOL    HW222232   1.617   5.932  12.075  0.5910 -0.9860  0.5221
 6931SOL     OW22233   6.320   5.642  12.387  0.5325  0.1495  0.3654
 6931SOL    HW122234   6.311   5.649  12.482  2.4773 -0.1840  0.6140
 6931SOL    HW222235   6.385   5.708  12.364 -1.4492  1.7403 -1.0843
 6932SOL     OW22236   5.384   5.053  10.685  0.0718  0.1337  0.1416
 6932SOL    HW122237   5.444   4.978  10.692 -0.4911 -1.0345 -4.2808
 6932SOL    HW222238   5.375   5.085  10.775  2.7539 -3.1672  1.8367
 6933SOL     OW22239   0.357   0.929  11.628 -0.5711 -0.1074  0.5233
 6933SOL    HW122240   0.365   0.834  11.630 -0.7960 -0.1777 -0.7997
 6933SOL    HW222241   0.356   0.955  11.720 -0.8099 -1.4057  0.9111
 6934SOL     OW22242   6.834   2.609   4.541  0.3315  0.1033  0.1137
 6934SOL    HW122243   6.921   2.634   4.511  0.0825  0.6286 -0.1925
 6934SOL    HW222244   6.793   2.567   4.466 -0.6295  2.2598 -0.6518
 6935SOL     OW22245   5.648   0.670   3.475 -0.1064  0.4774  0.6071
 6935SOL    HW122246   5.591   0.614   3.423 -0.6566  0.6707  0.9902
 6935SOL    HW222247   5.723   0.688   3.418 -0.3642  0.1126  0.1480
 6936SOL     OW22248   1.601   3.863   0.270 -0.1130 -0.3130 -0.2493
 6936SOL    HW122249   1.630   3.936   0.214  2.1746  0.5728  1.8725
 6936SOL    HW222250   1.534   3.902   0.326  1.0974  0.2521  0.8735
 6937SOL     OW22251   1.334   6.655   9.942 -0.5746  0.0658 -0.4397
 6937SOL    HW122252   1.424   6.621   9.949 -0.7577 -0.2717  0.4606
 6937SOL    HW222253   1.295   6.605   9.870 -0.4638 -0.7819  0.0799
 6938SOL     OW22254   4.295   6.745   4.539  0.1023  0.1106  0.4911
 6938SOL    HW122255   4.218   6.778   4.585 -0.0370 -1.0760  1.1551
 6938SOL    HW222256   4.307   6.805   4.466 -2.1293 -0.3053 -0.2959
 6939SOL     OW22257   6.982   6.841   1.025  0.5135  0.9372  0.0623
 6939SOL    HW122258   7.055   6.816   0.968  0.2939  0.7728 -0.1481
 6939SOL    HW222259   6.938   6.912   0.978 -1.0301 -0.6813 -1.0953
 6940SOL     OW22260   2.384   1.342   3.606 -0.0107 -0.1358  0.1663
 6940SOL    HW122261   2.299   1.376   3.576 -0.5139 -0.2215  1.4132
 6940SOL    HW222262   2.447   1.376   3.543 -0.8501  0.7898 -0.2066
 6941SOL     OW22263   6.667   6.760   1.489  0.8029  0.2237 -0.5164
 6941SOL    HW122264   6.712   6.760   1.404  0.3790 -0.7574 -0.7580
 6941SOL    HW222265   6.663   6.667   1.514  1.0762  0.5143  0.6660
 6942SOL     OW22266   5.465   0.630   2.432 -0.2205  0.1311  0.2123
 6942SOL    HW122267   5.440   0.705   2.378  0.5378  1.3590  1.4999
 6942SOL    HW222268   5.424   0.648   2.517  1.4182 -0.0077  1.0572
 6943SOL     OW22269   7.813   0.094  10.118  0.4189  0.3171 -0.0258
 6943SOL    HW122270   7.779   0.127  10.201  1.0611 -1.2385  0.9004
 6943SOL    HW222271   7.830   0.001  10.134 -0.4039 -0.2765 -2.2252
 6944SOL     OW22272   0.964   3.191   9.782 -0.1416  0.1936  0.4362
 6944SOL    HW122273   1.009   3.155   9.706 -1.6642 -1.3629  0.1953
 6944SOL    HW222274   1.028   3.188   9.853  1.2759  1.5802 -0.7104
 6945SOL     OW22275   3.159   0.081   8.104 -0.4615 -0.3629  0.4653
 6945SOL    HW122276   3.228   0.145   8.086 -2.4899  1.4644 -1.1670
 6945SOL    HW222277   3.200  -0.004   8.086  1.5548  0.5975  0.2710
 6946SOL     OW22278   0.743   5.456   2.494 -0.1403 -0.0130  0.2207
 6946SOL    HW122279   0.741   5.537   2.546  0.1359 -0.0152  0.2378
 6946SOL    HW222280   0.835   5.446   2.469 -0.3583  0.2682 -0.7144
 6947SOL     OW22281   4.454   2.328   4.316 -0.1934 -0.1157  0.4371
 6947SOL    HW122282   4.436   2.398   4.379  3.3949  0.2765  1.2796
 6947SOL    HW222283   4.399   2.256   4.344 -1.5600  1.3012  1.5941
 6948SOL     OW22284   1.809   6.678  10.171 -0.2670 -0.0421 -0.1849
 6948SOL    HW122285   1.816   6.624  10.250  0.0905  1.1296  0.6048
 6948SOL    HW222286   1.737   6.738  10.189  0.1315  0.5525 -0.5519
 6949SOL     OW22287   4.532   6.531   1.972 -0.2333 -0.3763 -0.0542
 6949SOL    HW122288   4.441   6.556   1.987  0.1433  0.2026  1.4375
 6949SOL    HW222289   4.532   6.435   1.981 -0.2577 -0.1937  2.9678
 6950SOL     OW22290   4.896   1.770   7.372  0.0527 -0.0962 -0.4304
 6950SOL    HW122291   4.902   1.779   7.467 -0.0302 -1.8118 -0.2387
 6950SOL    HW222292   4.982   1.740   7.345 -0.3662 -1.1222 -0.6824
 6951SOL     OW22293   7.268   1.025   2.860  0.0340  0.3712  0.6188
 6951SOL    HW122294   7.211   1.079   2.915 -2.2884  0.4071 -1.6828
 6951SOL    HW222295   7.340   1.084   2.836  0.7228  0.5684  2.9149
 6952SOL     OW22296   1.033   5.864   2.595  0.3281  0.1239 -0.3012
 6952SOL    HW122297   1.017   5.887   2.503 -1.2540  1.3079  0.2205
 6952SOL    HW222298   1.025   5.947   2.642  1.1697 -0.4583  0.9056
 6953SOL     OW22299   5.590   4.848   6.619  0.1528  0.0269  0.3694
 6953SOL    HW122300   5.519   4.913   6.623 -0.3298 -0.3179 -1.3814
 6953SOL    HW222301   5.657   4.890   6.565  0.3250 -0.4813  0.1819
 6954SOL     OW22302   6.491   5.772   8.905 -0.3668  0.7649 -0.9186
 6954SOL    HW122303   6.466   5.680   8.920  0.5932  0.7582  0.9539
 6954SOL    HW222304   6.581   5.767   8.873  0.4582  1.0586  1.1769
 6955SOL     OW22305   0.638   3.992   8.582  0.9371 -0.3580 -0.4565
 6955SOL    HW122306   0.559   4.011   8.633  0.7615 -0.6647 -0.6142
 6955SOL    HW222307   0.698   3.952   8.644  0.8833 -0.3373 -0.3909
 6956SOL     OW22308   1.756   7.875  10.606 -0.1708 -0.1511  0.2171
 6956SOL    HW122309   1.847   7.860  10.632  0.4273 -0.7842 -1.9763
 6956SOL    HW222310   1.706   7.806  10.651  0.7534 -1.0548 -0.0883
 6957SOL     OW22311   7.338   7.344  10.019 -0.1912 -0.2959  0.2812
 6957SOL    HW122312   7.326   7.411   9.952  2.9361 -1.2197 -1.4122
 6957SOL    HW222313   7.257   7.294  10.019 -0.8544  0.6848 -1.7237
 6958SOL     OW22314   0.336   2.752  11.261  0.5115 -0.8483  0.3324
 6958SOL    HW122315   0.399   2.680  11.270 -0.0115 -1.2436  0.9171
 6958SOL    HW222316   0.253   2.715  11.290 -0.4899 -0.9806 -2.4295
 6959SOL     OW22317   5.496   5.981  12.048 -0.1833  0.0818 -0.3504
 6959SOL    HW122318   5.550   5.965  12.125 -2.9244 -1.8789  1.3204
 6959SOL    HW222319   5.557   5.974  11.974  2.1791  0.1156  1.4845
 6960SOL     OW22320   7.054   1.156   6.571 -0.1851 -0.6051  0.1579
 6960SOL    HW122321   7.141   1.194   6.566 -0.3803 -0.2968 -1.2026
 6960SOL    HW222322   7.027   1.143   6.480 -0.1920 -3.9218  0.5123
 6961SOL     OW22323   4.823   4.554   5.766 -0.1902 -0.0296  0.2072
 6961SOL    HW122324   4.896   4.544   5.827 -1.0320 -1.8101  0.9937
 6961SOL    HW222325   4.745   4.546   5.821 -0.9919  0.5194 -0.8143
 6962SOL     OW22326   3.489   2.620   7.742 -0.1416  0.3304 -0.1018
 6962SOL    HW122327   3.527   2.704   7.768  0.0799 -0.0572  0.8731
 6962SOL    HW222328   3.437   2.640   7.664 -0.5171  1.4665  0.4239
 6963SOL     OW22329   0.447   1.929  10.372 -0.3582 -0.0366 -0.4338
 6963SOL    HW122330   0.527   1.938  10.423 -1.3450  0.6906  1.0823
 6963SOL    HW222331   0.466   1.971  10.288  0.8463  0.0751 -0.1165
 6964SOL     OW22332   0.622   7.754   5.644 -0.1906 -0.4583 -0.0539
 6964SOL    HW122333   0.678   7.740   5.568 -0.0667 -1.5964  0.2308
 6964SOL    HW222334   0.558   7.819   5.615  0.2629 -0.3837 -0.9106
 6965SOL     OW22335   5.425   2.560  10.335 -0.1026 -0.3717  0.0568
 6965SOL    HW122336   5.394   2.477  10.298  0.3318 -1.1845  1.4122
 6965SOL    HW222337   5.460   2.608  10.260  0.8244 -1.9723 -0.6090
 6966SOL     OW22338   1.878   3.340  11.821 -0.4867  0.4511 -0.3466
 6966SOL    HW122339   1.937   3.292  11.879  0.2701  1.5822 -0.1353
 6966SOL    HW222340   1.845   3.412  11.874  0.4846  1.7116 -1.3639
 6967SOL     OW22341   6.524   1.438   3.719 -0.0332 -0.0573  0.0665
 6967SOL    HW122342   6.556   1.367   3.663  1.9061  0.7594  0.0576
 6967SOL    HW222343   6.490   1.503   3.657  1.7446  0.6705 -0.2024
 6968SOL     OW22344   7.649   5.803  10.954  0.7888 -0.0695 -0.0470
 6968SOL    HW122345   7.577   5.816  11.016  4.0500  1.5380  3.8431
 6968SOL    HW222346   7.686   5.718  10.977  0.9702 -0.2901 -1.0940
 6969SOL     OW22347   2.997   3.693   9.246  0.9684  0.3052  0.3955
 6969SOL    HW122348   3.091   3.705   9.249  0.6817  3.0965  1.2887
 6969SOL    HW222349   2.968   3.705   9.337 -0.3236  0.4692 -0.0105
 6970SOL     OW22350   7.919   0.022   9.876 -0.2778  0.8344  0.2943
 6970SOL    HW122351   7.834   0.018   9.920  0.0462  1.5367  0.9976
 6970SOL    HW222352   7.969   0.086   9.926 -0.3639  2.7789 -1.9226
 6971SOL     OW22353   7.393   7.100  12.212  0.5401  0.3931  0.0714
 6971SOL    HW122354   7.399   7.039  12.138  2.7172 -0.2940  0.7423
 6971SOL    HW222355   7.465   7.161  12.199  0.1266  1.0961  0.9379
 6972SOL     OW22356   0.838   6.722   5.807 -0.4873  0.3613 -0.3028
 6972SOL    HW122357   0.837   6.705   5.901 -0.6352  1.1571 -0.1521
 6972SOL    HW222358   0.860   6.815   5.800  2.3035 -0.2583 -1.1440
 6973SOL     OW22359   5.218   7.113  10.493 -0.5353  0.0297  0.8427
 6973SOL    HW122360   5.141   7.057  10.499  0.2736 -0.9110  3.8801
 6973SOL    HW222361   5.185   7.196  10.460 -2.2565 -1.2943 -0.9819
 6974SOL     OW22362   4.350   6.529   9.254  0.5576 -0.3918 -0.0258
 6974SOL    HW122363   4.347   6.474   9.332  0.2977 -0.1103  0.1637
 6974SOL    HW222364   4.298   6.482   9.189 -1.5966  0.6914  0.8206
 6975SOL     OW22365   3.423   4.525   5.053 -0.1601  0.4631  0.0980
 6975SOL    HW122366   3.490   4.477   5.005  0.9192  2.2801 -0.3044
 6975SOL    HW222367   3.379   4.459   5.106  2.0716 -0.7584  0.5214
 6976SOL     OW22368   2.056   6.699   2.217  0.3296  0.2430 -0.2946
 6976SOL    HW122369   2.054   6.683   2.123 -0.4801 -0.5548 -0.1536
 6976SOL    HW222370   2.080   6.614   2.255 -0.0643  0.3752  0.2597
 6977SOL     OW22371   5.688   0.842   3.946  0.4278  0.1925  0.4967
 6977SOL    HW122372   5.732   0.831   4.030 -1.4955 -0.1930  1.5233
 6977SOL    HW222373   5.707   0.932   3.920  1.3315  0.2017  1.1632
 6978SOL     OW22374   2.105   5.596   1.922 -0.2459  0.1316  0.5143
 6978SOL    HW122375   2.184   5.551   1.890 -0.3932 -0.1477  0.5451
 6978SOL    HW222376   2.139   5.663   1.981 -0.0359 -0.0435  0.5966
 6979SOL     OW22377   2.768   2.471  11.559  0.6329 -0.4555 -0.1219
 6979SOL    HW122378   2.796   2.386  11.527  2.0274 -0.2135  0.3812
 6979SOL    HW222379   2.818   2.534  11.506  0.5035  0.0101  0.2995
 6980SOL     OW22380   4.350   4.073   4.306  0.1998  0.6738  0.3554
 6980SOL    HW122381   4.279   4.081   4.241  0.2877  1.0358  0.3016
 6980SOL    HW222382   4.421   4.127   4.271  0.5291  0.2550  0.3755
 6981SOL     OW22383   2.900   2.446  10.890 -0.3819 -0.0691  0.4231
 6981SOL    HW122384   2.861   2.517  10.839  1.6915 -0.6394 -2.2040
 6981SOL    HW222385   2.994   2.451  10.870  0.2018 -1.9486  2.2664
 6982SOL     OW22386   3.454   3.028  12.040  0.4358  0.0949 -0.7437
 6982SOL    HW122387   3.370   2.988  12.017 -1.7369  2.3463  2.3353
 6982SOL    HW222388   3.492   2.969  12.105 -0.5847  0.7216  0.4736
 6983SOL     OW22389   1.018   5.225   1.521  0.3176 -0.4617  0.1008
 6983SOL    HW122390   1.090   5.283   1.546 -1.3283  0.6681  2.7518
 6983SOL    HW222391   0.942   5.283   1.514 -0.5966 -1.7748 -1.3418
 6984SOL     OW22392   5.734   6.571   8.735 -0.3888 -1.1317  0.3272
 6984SOL    HW122393   5.797   6.634   8.771  0.7682 -1.1552 -1.5380
 6984SOL    HW222394   5.784   6.522   8.669 -2.5804 -0.4783 -1.9826
 6985SOL     OW22395   0.054   1.864   3.535 -0.0285 -0.0663  0.2036
 6985SOL    HW122396   0.149   1.855   3.537  0.1408  1.3781  0.0924
 6985SOL    HW222397   0.034   1.925   3.606 -0.7213  0.6238 -0.5615
 6986SOL     OW22398   0.683   1.857   1.490  0.6919  0.1519  0.1525
 6986SOL    HW122399   0.623   1.931   1.500  0.2811 -0.0063 -0.9850
 6986SOL    HW222400   0.646   1.789   1.545  0.4995  0.4591  0.4068
 6987SOL     OW22401   4.627   7.581   7.297 -0.0015 -0.2649 -0.0803
 6987SOL    HW122402   4.619   7.549   7.207  0.1974 -1.1043  0.1908
 6987SOL    HW222403   4.699   7.644   7.294 -0.6368  0.4601 -0.6941
 6988SOL     OW22404   4.576   7.789  11.725  0.2924  0.0373 -0.4218
 6988SOL    HW122405   4.602   7.773  11.634  2.2024 -1.5058  0.3189
 6988SOL    HW222406   4.657   7.778  11.775 -0.8205  0.3560  1.5270
 6989SOL     OW22407   2.131   0.972  12.280  0.2636 -0.1649  0.2753
 6989SOL    HW122408   2.069   0.906  12.249 -1.1668  1.0715  0.4253
 6989SOL    HW222409   2.216   0.929  12.272 -0.6684 -2.4123  1.2952
 6990SOL     OW22410   0.884   2.765   2.866 -0.0749 -0.2335 -0.3195
 6990SOL    HW122411   0.834   2.702   2.919  2.0548 -1.6052  0.1977
 6990SOL    HW222412   0.865   2.740   2.776  0.4965 -1.4567 -0.1223
 6991SOL     OW22413   2.428   0.957  12.364 -0.2707  0.2423 -0.0204
 6991SOL    HW122414   2.413   1.051  12.366  0.9021  0.4518 -0.2249
 6991SOL    HW222415   2.418   0.929  12.455  0.1243  0.6902  0.1621
 6992SOL     OW22416   5.638   7.224   6.427 -0.0819  0.6730 -0.1640
 6992SOL    HW122417   5.569   7.203   6.490 -0.7661 -1.9245 -1.6245
 6992SOL    HW222418   5.717   7.184   6.463  0.5310  2.6847  0.9419
 6993SOL     OW22419   5.722   5.884  11.248  0.4203  0.1444  0.5390
 6993SOL    HW122420   5.780   5.872  11.173 -0.1113 -2.7030  0.4748
 6993SOL    HW222421   5.658   5.950  11.219  0.7113 -0.3073 -1.2232
 6994SOL     OW22422   4.484   2.972   1.272  0.1110  0.0363  0.9379
 6994SOL    HW122423   4.510   2.884   1.302 -1.5364 -0.5439  0.7605
 6994SOL    HW222424   4.451   2.958   1.183 -0.6554  0.7410  1.1001
 6995SOL     OW22425   2.508   2.621   0.404  0.0022 -0.0170  0.4499
 6995SOL    HW122426   2.554   2.612   0.321 -0.9792 -1.4377  0.0186
 6995SOL    HW222427   2.553   2.562   0.464  1.8052  2.2864  1.4937
 6996SOL     OW22428   0.662   7.506   4.871  0.0016  0.6842 -0.1375
 6996SOL    HW122429   0.680   7.566   4.944 -0.3685  0.2078  0.3514
 6996SOL    HW222430   0.728   7.437   4.881  0.2889  0.8897 -0.5734
 6997SOL     OW22431   1.983   0.526   9.423  0.2101 -0.3263 -0.3938
 6997SOL    HW122432   1.902   0.555   9.463 -0.4283 -2.5413  0.0628
 6997SOL    HW222433   1.990   0.576   9.341 -0.4822  1.4106  0.5722
 6998SOL     OW22434   6.814   3.397  12.117  0.2181  0.3905  0.1484
 6998SOL    HW122435   6.905   3.415  12.094 -0.0335  1.3777 -0.1236
 6998SOL    HW222436   6.769   3.392  12.032  0.0341 -0.1722  0.2780
 6999SOL     OW22437   2.223   4.904   3.261  0.5369 -0.1178 -0.2689
 6999SOL    HW122438   2.156   4.863   3.315  2.4932 -2.4329  0.5776
 6999SOL    HW222439   2.230   4.993   3.295 -0.4163 -0.5884  1.2394
 7000SOL     OW22440   4.209   0.028   9.579  0.1027 -0.4546  0.0273
 7000SOL    HW122441   4.212   0.083   9.500  0.3164 -0.6279 -0.0897
 7000SOL    HW222442   4.295   0.041   9.620 -0.7506  1.3000  1.3928
 7001SOL     OW22443   6.964   3.870   5.517 -0.1568 -0.4942 -0.0456
 7001SOL    HW122444   7.016   3.874   5.597 -0.5505 -0.6197  0.2221
 7001SOL    HW222445   6.951   3.777   5.502 -0.9159 -0.4515  0.2988
 7002SOL     OW22446   4.253   4.402   8.561 -0.2489 -0.1957 -0.3184
 7002SOL    HW122447   4.286   4.353   8.636  0.5626 -0.4688 -0.8451
 7002SOL    HW222448   4.256   4.340   8.488  0.5754  0.5470 -0.9419
 7003SOL     OW22449   6.824   2.183   8.596  0.3914  0.3438 -0.0924
 7003SOL    HW122450   6.898   2.136   8.559 -1.2634 -1.7331 -0.9541
 7003SOL    HW222451   6.812   2.144   8.683  0.7049  1.1840  0.3464
 7004SOL     OW22452   6.090   1.602   9.610  0.6587  0.3159 -0.2737
 7004SOL    HW122453   6.183   1.583   9.625  0.6752  0.0579 -0.6733
 7004SOL    HW222454   6.090   1.686   9.565  0.4945  2.3586  3.2061
 7005SOL     OW22455   1.581   2.926  11.413  0.4371 -0.3339 -0.2409
 7005SOL    HW122456   1.565   2.847  11.363  1.8820 -0.1027 -1.1148
 7005SOL    HW222457   1.642   2.977  11.360  1.4155  0.2698  1.3869
 7006SOL     OW22458   1.137   7.261   2.955  0.2830 -0.0831  0.4978
 7006SOL    HW122459   1.175   7.261   2.867  1.3261  1.6558  0.9062
 7006SOL    HW222460   1.102   7.349   2.966  0.1809 -0.2738  1.8337
 7007SOL     OW22461   3.341   7.783   0.218  0.4920  0.4611 -0.1721
 7007SOL    HW122462   3.385   7.868   0.218  0.2255  0.6008 -0.5540
 7007SOL    HW222463   3.394   7.729   0.276  1.4818  0.4699 -1.0560
 7008SOL     OW22464   1.623   1.905   1.807 -0.5431 -0.1503  0.1108
 7008SOL    HW122465   1.700   1.854   1.783 -1.4100 -1.6904  0.4879
 7008SOL    HW222466   1.597   1.870   1.892 -1.0602  1.0746  0.4739
 7009SOL     OW22467   5.657   4.998  10.319  0.7030  0.0683 -0.6755
 7009SOL    HW122468   5.615   4.964  10.241  2.2429 -0.7200 -1.2181
 7009SOL    HW222469   5.667   4.921  10.376  0.0960  0.5276  0.0707
 7010SOL     OW22470   4.379   6.770  11.146  0.1449  0.1737 -0.4905
 7010SOL    HW122471   4.388   6.786  11.052  2.0555  0.5043 -0.3061
 7010SOL    HW222472   4.314   6.834  11.175 -0.6676 -0.1131 -1.6138
 7011SOL     OW22473   7.852   0.395   8.851 -0.0609  0.0985  0.4622
 7011SOL    HW122474   7.847   0.303   8.878 -1.2432 -0.0298 -0.1410
 7011SOL    HW222475   7.799   0.399   8.771 -0.6444  1.4633  0.9012
 7012SOL     OW22476   0.319   0.621   0.543 -0.1040 -0.1975 -0.2523
 7012SOL    HW122477   0.276   0.604   0.627  2.1346 -0.6091  0.8925
 7012SOL    HW222478   0.407   0.652   0.567 -0.1184  1.8684 -2.4412
 7013SOL     OW22479   2.942   7.536   6.886 -0.2694  0.1066  0.4235
 7013SOL    HW122480   2.896   7.613   6.852  0.2098  1.3149  2.2980
 7013SOL    HW222481   3.032   7.566   6.898  0.5265 -1.5388 -1.0909
 7014SOL     OW22482   1.227   0.201   5.727  0.0946  0.0906 -0.3117
 7014SOL    HW122483   1.194   0.163   5.809 -1.4317 -1.1681 -1.4408
 7014SOL    HW222484   1.166   0.272   5.708  1.5981  1.6943  0.5960
 7015SOL     OW22485   6.465   6.535  12.117 -0.4070  0.0218  0.2262
 7015SOL    HW122486   6.536   6.496  12.066 -1.1649 -0.1305 -0.7435
 7015SOL    HW222487   6.489   6.518  12.208  1.7537  1.6413  0.0198
 7016SOL     OW22488   4.541   3.116  10.260  0.2515 -0.6340 -0.5634
 7016SOL    HW122489   4.589   3.198  10.246 -0.1790 -0.4748 -1.1354
 7016SOL    HW222490   4.609   3.052  10.281  0.8751 -0.6879 -2.5445
 7017SOL     OW22491   5.539   6.814   5.272 -0.2327  0.1375  0.0061
 7017SOL    HW122492   5.573   6.727   5.254  0.7362  0.6783 -0.9600
 7017SOL    HW222493   5.616   6.872   5.262 -0.9241  1.1274  0.2632
 7018SOL     OW22494   1.198   1.793   2.110  0.2385  0.2813  0.0799
 7018SOL    HW122495   1.226   1.702   2.103 -1.5713 -0.1770 -3.3647
 7018SOL    HW222496   1.185   1.807   2.204  1.5091 -2.6642  0.8059
 7019SOL     OW22497   6.009   5.764   8.855  0.6129 -1.1122 -0.3476
 7019SOL    HW122498   6.021   5.692   8.917 -1.6584 -1.6222 -0.4044
 7019SOL    HW222499   6.046   5.732   8.773 -0.6291 -2.4029 -0.4453
 7020SOL     OW22500   5.024   6.592   9.047 -0.1726 -0.1837  0.2010
 7020SOL    HW122501   5.117   6.590   9.025 -0.0674 -1.1371  0.7102
 7020SOL    HW222502   5.020   6.634   9.133 -0.3154  0.7653 -0.2533
 7021SOL     OW22503   7.529   6.765   6.548  0.1031 -0.3209  0.0828
 7021SOL    HW122504   7.439   6.762   6.581 -0.0644  0.9406 -0.2321
 7021SOL    HW222505   7.568   6.682   6.578 -0.5859 -0.0520  1.8391
 7022SOL     OW22506   6.269   0.779   4.127  0.2123 -0.4055 -0.6698
 7022SOL    HW122507   6.318   0.791   4.045  1.0634  1.5621  0.0794
 7022SOL    HW222508   6.180   0.808   4.106  0.2838 -0.4361 -1.0211
 7023SOL     OW22509   4.987   6.428   6.061  0.1499 -0.3325 -0.1980
 7023SOL    HW122510   4.996   6.487   5.986  0.0910 -0.4336 -0.2852
 7023SOL    HW222511   4.981   6.487   6.137 -0.3453 -0.2120 -0.3274
 7024SOL     OW22512   5.036   1.301   6.880  0.0369 -0.2487  0.3160
 7024SOL    HW122513   5.018   1.387   6.843  0.9986  0.1156  0.6710
 7024SOL    HW222514   4.959   1.281   6.933  0.9909  1.6988  2.6134
 7025SOL     OW22515   1.194   5.587   9.129 -0.3137 -0.2731  0.0139
 7025SOL    HW122516   1.200   5.648   9.203  1.4149 -0.3073 -0.0626
 7025SOL    HW222517   1.271   5.606   9.076 -0.7174 -1.2962 -0.9751
 7026SOL     OW22518   3.711   3.842   2.589  0.4351 -0.0970 -0.3421
 7026SOL    HW122519   3.674   3.803   2.510  1.2935 -0.7804 -0.4164
 7026SOL    HW222520   3.720   3.769   2.650  3.2084 -0.3108 -0.9122
 7027SOL     OW22521   5.167   6.855   8.285  0.3530  0.2572 -0.0800
 7027SOL    HW122522   5.104   6.903   8.340 -0.9114  0.0681 -1.2846
 7027SOL    HW222523   5.234   6.825   8.346 -0.8004  0.3432  1.2985
 7028SOL     OW22524   0.592   3.833   7.009  0.1677 -0.7077 -0.3859
 7028SOL    HW122525   0.654   3.900   6.981  0.8550 -1.5945 -1.0487
 7028SOL    HW222526   0.514   3.882   7.033  0.8491  0.3769 -0.2872
 7029SOL     OW22527   2.326   5.172   6.834 -0.4498  0.1524 -0.2472
 7029SOL    HW122528   2.231   5.172   6.845 -0.3171  1.7505  1.2749
 7029SOL    HW222529   2.343   5.244   6.773 -0.2069 -0.2103 -0.6154
 7030SOL     OW22530   7.409   6.330   4.522  0.1291  0.3081  0.1159
 7030SOL    HW122531   7.328   6.295   4.559  1.0821 -3.1589 -0.6722
 7030SOL    HW222532   7.478   6.283   4.568  1.6740  1.9426 -0.4092
 7031SOL     OW22533   2.001   5.347   0.872  0.3946  0.1955  0.3960
 7031SOL    HW122534   2.055   5.281   0.828  0.6401  1.2654 -0.9726
 7031SOL    HW222535   2.057   5.381   0.942 -0.0141 -1.5575  1.6321
 7032SOL     OW22536   1.546   3.326   4.826  0.3000 -0.3133  0.0847
 7032SOL    HW122537   1.583   3.288   4.747 -1.3911 -1.0592 -0.3990
 7032SOL    HW222538   1.565   3.419   4.820 -0.8773 -0.1490 -1.8673
 7033SOL     OW22539   0.232   5.738   6.552 -0.0269 -0.2244  0.0699
 7033SOL    HW122540   0.170   5.665   6.560 -1.1627  0.7930  0.8359
 7033SOL    HW222541   0.232   5.779   6.638  0.2496  0.9492 -0.4716
 7034SOL     OW22542   0.706   0.556   2.761  1.1381 -0.4331 -0.6706
 7034SOL    HW122543   0.775   0.552   2.695  1.5545 -0.8720 -0.2239
 7034SOL    HW222544   0.745   0.514   2.838  0.6150 -0.0486 -0.1917
 7035SOL     OW22545   1.508   3.295   7.636  0.3532 -0.2513 -0.2902
 7035SOL    HW122546   1.502   3.200   7.639 -0.9316 -0.2495 -1.8347
 7035SOL    HW222547   1.573   3.314   7.569  0.9830 -0.0181  0.3668
 7036SOL     OW22548   6.552   7.756   8.143  0.2262  0.0755 -0.4208
 7036SOL    HW122549   6.574   7.812   8.068  2.1411 -1.3444 -1.0184
 7036SOL    HW222550   6.593   7.671   8.122 -1.5359 -1.2060  0.9768
 7037SOL     OW22551   2.504   4.082   8.855  0.6028 -0.0938  0.1734
 7037SOL    HW122552   2.424   4.094   8.804  0.6280 -1.0193 -0.1047
 7037SOL    HW222553   2.564   4.149   8.823  0.4989 -0.4373 -0.7782
 7038SOL     OW22554   4.611   0.259  10.167 -0.4853 -0.2938  0.1285
 7038SOL    HW122555   4.632   0.246  10.075 -1.3464  1.5295 -0.3499
 7038SOL    HW222556   4.640   0.177  10.209  2.4792 -0.1117 -1.2771
 7039SOL     OW22557   2.278   5.576   7.627 -0.2830 -0.2136  0.2576
 7039SOL    HW122558   2.297   5.524   7.705 -1.1029  0.4220  0.9052
 7039SOL    HW222559   2.272   5.666   7.659  0.4406  0.2114 -0.7285
 7040SOL     OW22560   6.519   2.757   9.899  0.2985  0.1483  0.6392
 7040SOL    HW122561   6.442   2.780   9.847 -0.9679  0.9189  2.7061
 7040SOL    HW222562   6.510   2.662   9.913  0.2319  0.0743  0.1325
 7041SOL     OW22563   3.229   5.966   2.709  0.3562 -0.1452 -0.1173
 7041SOL    HW122564   3.284   6.037   2.743  1.4560 -0.5436 -0.9997
 7041SOL    HW222565   3.220   5.906   2.782  0.6468  0.1880  0.2005
 7042SOL     OW22566   5.371   1.130   5.174 -0.2876  0.2120 -0.2396
 7042SOL    HW122567   5.304   1.198   5.182 -0.8630 -0.1828 -1.4674
 7042SOL    HW222568   5.349   1.084   5.093 -0.7277 -2.3307  1.2154
 7043SOL     OW22569   1.125   0.038  11.622 -0.0641 -0.4436  0.0949
 7043SOL    HW122570   1.037   0.053  11.657 -0.4463 -1.8294 -0.2182
 7043SOL    HW222571   1.184   0.070  11.691 -0.7086  3.2113 -0.8411
 7044SOL     OW22572   6.797   1.925  11.953  0.1902 -0.1944  0.0450
 7044SOL    HW122573   6.729   1.864  11.923 -0.2656  0.2552  0.1552
 7044SOL    HW222574   6.778   2.007  11.908  1.7023 -0.5170 -1.2919
 7045SOL     OW22575   6.024   4.004   1.898  0.6782 -0.4426  0.5663
 7045SOL    HW122576   5.941   4.033   1.936 -0.1220  1.2915 -2.2629
 7045SOL    HW222577   6.002   3.925   1.849  1.0837 -0.9669  1.2139
 7046SOL     OW22578   5.248   7.862   3.930  0.0807  0.1006 -0.1670
 7046SOL    HW122579   5.344   7.861   3.926  0.0611 -0.4690 -0.5121
 7046SOL    HW222580   5.220   7.829   3.845 -0.4209 -0.7822  0.3247
 7047SOL     OW22581   4.860   1.449   2.209  0.6526  0.6967  0.0230
 7047SOL    HW122582   4.863   1.428   2.302  1.3600 -0.1667 -0.1765
 7047SOL    HW222583   4.911   1.530   2.201 -0.9443  1.8325  0.6104
 7048SOL     OW22584   6.509   2.720   5.322 -0.0263 -0.5426  0.8760
 7048SOL    HW122585   6.457   2.689   5.396 -1.3099 -0.8967 -0.1399
 7048SOL    HW222586   6.566   2.646   5.301  1.7155  0.2087  2.6483
 7049SOL     OW22587   5.089   1.315  10.118 -0.6067 -0.0234  0.0700
 7049SOL    HW122588   5.033   1.314  10.196 -1.4291  1.5106 -0.4443
 7049SOL    HW222589   5.171   1.353  10.148 -0.2407 -1.2135  0.5890
 7050SOL     OW22590   5.586   3.200   4.273 -0.4872 -0.5429  0.4182
 7050SOL    HW122591   5.592   3.196   4.368  0.4739  0.2774  0.4205
 7050SOL    HW222592   5.546   3.286   4.256  0.8840  0.0646  0.0813
 7051SOL     OW22593   6.893   7.186  11.176  0.0326 -0.1727 -0.0603
 7051SOL    HW122594   6.904   7.091  11.168  0.5935 -0.0539 -0.7402
 7051SOL    HW222595   6.974   7.215  11.217 -0.3594 -0.0401  0.6451
 7052SOL     OW22596   4.037   0.238   3.634 -0.6477  0.1000 -0.3011
 7052SOL    HW122597   4.114   0.269   3.682 -0.4129 -1.4986  0.4152
 7052SOL    HW222598   3.969   0.303   3.654  0.4227  1.4038 -0.7547
 7053SOL     OW22599   1.332   5.521   8.477 -0.4295  0.4152 -0.0134
 7053SOL    HW122600   1.404   5.571   8.438 -0.5807  0.4854 -0.2060
 7053SOL    HW222601   1.254   5.571   8.453 -0.5685  0.1596 -0.0896
 7054SOL     OW22602   3.575   2.840   4.988 -0.1727  0.2288 -0.7262
 7054SOL    HW122603   3.481   2.822   4.993 -0.1150 -0.3213 -1.4007
 7054SOL    HW222604   3.587   2.921   5.036 -0.6281 -0.9742  1.5439
 7055SOL     OW22605   7.549   5.426  10.789 -0.3335 -0.3070 -0.1767
 7055SOL    HW122606   7.531   5.492  10.722 -0.0976  1.7516  1.6528
 7055SOL    HW222607   7.464   5.410  10.830 -0.5831 -1.9761 -1.2479
 7056SOL     OW22608   0.992   7.047   2.320  0.3740  0.2508 -0.1459
 7056SOL    HW122609   0.941   6.966   2.324 -0.8577  1.0178  0.3744
 7056SOL    HW222610   1.082   7.020   2.340  0.1315 -1.0879 -0.7463
 7057SOL     OW22611   5.591   4.898   8.947  0.3311 -0.3501  0.8021
 7057SOL    HW122612   5.588   4.812   8.905 -0.4873  0.3945 -0.7553
 7057SOL    HW222613   5.684   4.919   8.953  0.4907 -0.3422 -1.0245
 7058SOL     OW22614   5.136   5.603   3.526 -0.0410 -0.6310  0.2732
 7058SOL    HW122615   5.172   5.671   3.469  0.3488 -0.8263  0.2774
 7058SOL    HW222616   5.169   5.624   3.613  0.9973 -1.4318  0.0956
 7059SOL     OW22617   3.111   2.161   0.452 -0.0286 -0.0714  0.3498
 7059SOL    HW122618   3.151   2.185   0.368  1.1404 -0.4120  0.7981
 7059SOL    HW222619   3.169   2.095   0.489 -1.0365 -0.6196  1.0119
 7060SOL     OW22620   0.556   1.968   9.188 -0.0156  0.1123 -0.1943
 7060SOL    HW122621   0.554   2.028   9.263  0.7724  0.7347 -0.6576
 7060SOL    HW222622   0.568   1.882   9.227 -2.7028  0.0043  0.5952
 7061SOL     OW22623   2.887   7.642   5.466  0.3393 -0.2249 -0.0662
 7061SOL    HW122624   2.923   7.730   5.475 -0.3986  0.0144  0.7541
 7061SOL    HW222625   2.871   7.632   5.372 -0.1241  0.7532 -0.1059
 7062SOL     OW22626   3.744   5.545   4.029  0.3339  0.3161  0.1456
 7062SOL    HW122627   3.757   5.566   3.936 -0.4427 -0.1977 -0.0813
 7062SOL    HW222628   3.730   5.630   4.071 -0.2351  0.4748 -0.3564
 7063SOL     OW22629   1.947   7.868   6.970  0.1721  0.0370  0.4263
 7063SOL    HW122630   2.004   7.872   6.894  0.2055 -1.0891  0.3657
 7063SOL    HW222631   2.007   7.852   7.044  0.2642  2.2422  0.8910
 7064SOL     OW22632   5.149   4.427   6.702 -0.4138 -0.2188 -0.1273
 7064SOL    HW122633   5.112   4.512   6.681 -2.2037 -0.7667  0.6391
 7064SOL    HW222634   5.088   4.388   6.764  0.6377 -1.8533 -0.0375
 7065SOL     OW22635   2.170   5.003   8.498  0.0188  0.5780  0.4418
 7065SOL    HW122636   2.152   5.092   8.467 -0.2281  0.6641  0.8274
 7065SOL    HW222637   2.147   5.005   8.590  0.3385  0.2044  0.5333
 7066SOL     OW22638   1.636   4.805  10.767  0.1100 -0.0862 -0.0481
 7066SOL    HW122639   1.592   4.883  10.803  2.0095  0.8212  0.4288
 7066SOL    HW222640   1.622   4.812  10.673 -1.0345 -0.0182  0.1078
 7067SOL     OW22641   0.910   3.605   2.406  0.0502  0.0266 -0.5186
 7067SOL    HW122642   0.829   3.563   2.434  0.9824 -0.9598  0.8634
 7067SOL    HW222643   0.882   3.682   2.357 -1.7036 -0.8653 -0.9950
 7068SOL     OW22644   7.110   7.206   7.965  0.0466  0.1687 -0.0195
 7068SOL    HW122645   7.140   7.290   7.931  2.4935  0.1784  1.9264
 7068SOL    HW222646   7.118   7.214   8.060  2.1753 -2.8219  0.1892
 7069SOL     OW22647   2.001   5.886   5.816 -0.0313 -0.2329 -0.4481
 7069SOL    HW122648   1.963   5.811   5.861 -0.4252 -0.7151 -1.5275
 7069SOL    HW222649   2.063   5.848   5.753  1.7503  0.5141  0.7959
 7070SOL     OW22650   1.041   0.884  10.767 -0.0922  0.0949 -0.1273
 7070SOL    HW122651   1.089   0.947  10.821 -0.8525  2.2892 -1.8702
 7070SOL    HW222652   0.954   0.880  10.807 -0.3165  0.8822 -0.5083
 7071SOL     OW22653   7.042   6.473   4.727  0.3874  0.4134  0.6245
 7071SOL    HW122654   6.966   6.433   4.768  1.0368 -1.1462  0.3837
 7071SOL    HW222655   7.024   6.470   4.633  0.3498  0.8724  0.6174
 7072SOL     OW22656   0.563   1.183   0.998 -0.8149 -0.2148 -0.0295
 7072SOL    HW122657   0.574   1.135   0.917 -0.1714 -0.3559  0.1382
 7072SOL    HW222658   0.641   1.238   1.005 -1.4266  0.6796 -0.1008
 7073SOL     OW22659   2.353   1.571  10.804  0.0667  0.1006 -0.4729
 7073SOL    HW122660   2.262   1.544  10.793  0.3643 -0.3494 -2.0432
 7073SOL    HW222661   2.350   1.643  10.866 -1.2429 -0.5758  0.2830
 7074SOL     OW22662   2.125   0.474   4.381  0.4593  0.4930  0.4198
 7074SOL    HW122663   2.129   0.457   4.287 -0.6316 -0.5278  0.5316
 7074SOL    HW222664   2.164   0.561   4.392 -0.4367  1.1189 -1.1185
 7075SOL     OW22665   3.467   7.343   5.555 -0.1333  0.0412  0.5790
 7075SOL    HW122666   3.506   7.430   5.551 -0.7599  0.3261  0.6532
 7075SOL    HW222667   3.509   7.295   5.483 -1.3106  1.0355 -0.8513
 7076SOL     OW22668   3.113   4.365   2.720 -0.0759  0.1545 -0.3928
 7076SOL    HW122669   3.047   4.385   2.654 -0.3523 -2.4122 -0.9966
 7076SOL    HW222670   3.064   4.324   2.792  0.5759  0.3772  0.1931
 7077SOL     OW22671   5.611   7.750   0.306 -0.0183 -0.2402 -0.3889
 7077SOL    HW122672   5.550   7.823   0.318 -0.3936 -0.9041  2.5517
 7077SOL    HW222673   5.560   7.683   0.260 -1.7340 -0.8813  2.2408
 7078SOL     OW22674   2.300   1.546   6.998 -0.2815  0.2539  0.3010
 7078SOL    HW122675   2.320   1.547   7.092 -1.0275  0.5303  0.4675
 7078SOL    HW222676   2.383   1.568   6.955  0.1487 -0.2143  0.8749
 7079SOL     OW22677   6.235   1.892   2.381  0.6389  0.6252 -0.1976
 7079SOL    HW122678   6.191   1.814   2.349  0.7342  0.7293 -0.5812
 7079SOL    HW222679   6.266   1.868   2.469  0.7135  0.2180 -0.3353
 7080SOL     OW22680   2.052   2.078   4.458  0.1878  0.1433 -0.2049
 7080SOL    HW122681   2.129   2.135   4.450  2.9569 -2.5982  3.2826
 7080SOL    HW222682   2.024   2.088   4.549 -2.7296 -0.1335 -0.9655
 7081SOL     OW22683   2.964   6.437   3.269  0.0336 -0.2054 -0.5169
 7081SOL    HW122684   3.024   6.507   3.294 -0.1382  0.4687 -1.8967
 7081SOL    HW222685   2.933   6.462   3.182 -0.0950 -1.9514 -1.0212
 7082SOL     OW22686   6.241   2.456   9.187  0.1904  0.7695  0.1785
 7082SOL    HW122687   6.279   2.544   9.189 -1.1584  1.3713  1.4665
 7082SOL    HW222688   6.275   2.413   9.266  0.5809  0.2478 -0.2680
 7083SOL     OW22689   5.208   6.931  11.648 -0.0646  0.6159  0.2831
 7083SOL    HW122690   5.264   6.853  11.646 -0.6983  0.1525 -1.3853
 7083SOL    HW222691   5.203   6.959  11.557  0.7828  3.1270  0.9296
 7084SOL     OW22692   1.043   3.175   8.705  0.5241 -0.1653 -0.5048
 7084SOL    HW122693   0.957   3.202   8.673  1.9795  3.4043 -1.9721
 7084SOL    HW222694   1.064   3.097   8.655 -0.1926  1.3297 -3.3738
 7085SOL     OW22695   0.871   6.090   5.789  0.1269 -0.0183 -0.3043
 7085SOL    HW122696   0.961   6.058   5.791  0.7496  1.4109 -1.8346
 7085SOL    HW222697   0.876   6.175   5.833 -0.9291 -0.7881  1.3775
 7086SOL     OW22698   0.683   2.938   5.301 -0.3428  0.3374  0.1344
 7086SOL    HW122699   0.720   2.974   5.381  1.9126 -0.4964 -0.4406
 7086SOL    HW222700   0.668   3.013   5.244  2.4838  0.6779 -0.3363
 7087SOL     OW22701   0.950   1.120   6.434  0.0364  0.1775 -0.5791
 7087SOL    HW122702   0.982   1.181   6.368 -0.1008  0.7833 -0.0964
 7087SOL    HW222703   0.856   1.135   6.437  0.0642  0.2720 -0.1338
 7088SOL     OW22704   0.492   3.716  10.618 -0.0240  0.9349 -0.4024
 7088SOL    HW122705   0.577   3.756  10.600  0.0006  1.0045 -0.1241
 7088SOL    HW222706   0.429   3.776  10.579  0.0902  0.5032 -1.2836
 7089SOL     OW22707   4.546   5.757   3.558 -0.0934  0.3980 -0.3865
 7089SOL    HW122708   4.462   5.797   3.582 -0.1556 -0.2475  0.5084
 7089SOL    HW222709   4.524   5.697   3.487 -0.5121 -0.2333  0.2578
 7090SOL     OW22710   2.539   0.350   7.524  0.0949  0.1933  0.2038
 7090SOL    HW122711   2.503   0.317   7.442  2.0782  0.3364 -0.7858
 7090SOL    HW222712   2.597   0.280   7.554 -0.0149  0.4666  1.0785
 7091SOL     OW22713   0.804   0.099   0.189 -0.6364 -0.1144  0.1683
 7091SOL    HW122714   0.831   0.092   0.280  0.3269 -2.4548 -0.2226
 7091SOL    HW222715   0.880   0.135   0.144 -0.7907  0.1893  0.1480
 7092SOL     OW22716   1.760   4.268   9.167 -0.4790 -0.1670  0.1772
 7092SOL    HW122717   1.819   4.228   9.103 -1.6327 -2.5501  0.4880
 7092SOL    HW222718   1.780   4.223   9.249 -1.3891  0.3978  0.7242
 7093SOL     OW22719   4.272   7.784  10.811  0.1100 -0.1940 -0.0606
 7093SOL    HW122720   4.265   7.755  10.720  2.2176  0.4113 -0.4509
 7093SOL    HW222721   4.304   7.708  10.859  0.0640 -0.1903 -0.0235
 7094SOL     OW22722   6.911   0.368   0.431  0.3774  0.1027  0.2309
 7094SOL    HW122723   6.936   0.300   0.494  0.8438  0.9177  0.9365
 7094SOL    HW222724   6.895   0.446   0.484  0.1774  0.6396 -0.6041
 7095SOL     OW22725   4.946   4.910   5.086  0.0152  0.3962  0.3929
 7095SOL    HW122726   4.950   4.989   5.139  0.4104  1.5212 -1.2163
 7095SOL    HW222727   4.970   4.839   5.146  1.5975  1.7353  1.4267
 7096SOL     OW22728   2.404   1.804   6.630  0.1563 -0.3114 -0.1088
 7096SOL    HW122729   2.472   1.781   6.567  1.3822 -0.6287  1.2861
 7096SOL    HW222730   2.326   1.757   6.600  0.6073 -0.1947 -1.5495
 7097SOL     OW22731   0.300   6.444   5.680 -0.4706  0.1498 -0.4615
 7097SOL    HW122732   0.332   6.356   5.662 -0.7263  0.5265 -3.3078
 7097SOL    HW222733   0.263   6.473   5.596 -1.8800  2.3534  0.8287
 7098SOL     OW22734   2.997   5.852   4.935  0.0403 -0.1539  0.3686
 7098SOL    HW122735   2.997   5.758   4.956  0.8573 -0.4071 -0.6517
 7098SOL    HW222736   3.063   5.861   4.867  0.1896  1.2303  0.6653
 7099SOL     OW22737   2.073   7.654   4.849 -0.2573 -0.2821  0.1306
 7099SOL    HW122738   2.120   7.598   4.787 -0.4117 -1.4772  1.0672
 7099SOL    HW222739   1.995   7.604   4.872 -1.2454  1.0357 -0.2515
 7100SOL     OW22740   4.356   4.737   9.590 -0.0930 -0.0015 -0.1327
 7100SOL    HW122741   4.381   4.777   9.506 -0.8617 -0.7991 -0.7587
 7100SOL    HW222742   4.263   4.718   9.580 -0.0309 -0.7480  0.6497
 7101SOL     OW22743   2.844   4.601   3.842  0.4539  0.0549  0.0096
 7101SOL    HW122744   2.932   4.637   3.854 -0.1373  1.3525  0.6649
 7101SOL    HW222745   2.786   4.675   3.858 -0.8807 -1.3545  2.2453
 7102SOL     OW22746   1.784   1.935   7.887  0.0426  0.4317 -0.2676
 7102SOL    HW122747   1.775   1.950   7.981  1.1084 -0.0880 -0.0746
 7102SOL    HW222748   1.852   1.995   7.859 -2.2359  2.7293 -1.3009
 7103SOL     OW22749   4.178   3.156   4.179 -0.0252  0.4565 -0.4958
 7103SOL    HW122750   4.146   3.241   4.150 -0.6287  0.1694 -0.6827
 7103SOL    HW222751   4.218   3.174   4.264 -1.4426  0.6917  0.1521
 7104SOL     OW22752   3.505   0.088  10.630  0.0257 -0.7845  0.3864
 7104SOL    HW122753   3.549   0.161  10.673  0.1273 -0.0029 -0.9969
 7104SOL    HW222754   3.415   0.117  10.617 -0.4239 -1.6206  1.4228
 7105SOL     OW22755   6.421   2.104  11.215  0.6738 -0.9038  0.4156
 7105SOL    HW122756   6.387   2.020  11.243  0.8157 -0.9421  0.4760
 7105SOL    HW222757   6.384   2.167  11.276  1.4655 -1.0585  1.0781
 7106SOL     OW22758   1.322   0.921   6.829  0.2144  0.1552  0.1646
 7106SOL    HW122759   1.294   1.012   6.816 -0.4639 -0.3131 -1.9991
 7106SOL    HW222760   1.299   0.877   6.748 -0.3819 -2.2141  1.5388
 7107SOL     OW22761   1.183   2.829   2.921 -0.2890  0.1873 -0.0591
 7107SOL    HW122762   1.097   2.792   2.901 -0.3673 -0.2452  1.0456
 7107SOL    HW222763   1.177   2.857   3.012  1.0969 -0.8590  0.3744
 7108SOL     OW22764   6.976   3.303  10.333 -0.2164 -0.1579 -0.9613
 7108SOL    HW122765   6.955   3.298  10.426  0.5732 -1.9554 -0.8410
 7108SOL    HW222766   6.903   3.351  10.295 -1.5059 -1.0198  0.3239
 7109SOL     OW22767   5.412   7.120   6.648 -0.4216 -0.1345  0.0370
 7109SOL    HW122768   5.404   7.067   6.569 -1.3280 -0.1214  0.1090
 7109SOL    HW222769   5.488   7.083   6.694  1.1710  0.9181 -1.6137
 7110SOL     OW22770   2.656   5.625  10.403 -0.6795 -0.3648  0.0159
 7110SOL    HW122771   2.748   5.634  10.379 -0.4067 -1.8613  0.3707
 7110SOL    HW222772   2.620   5.563  10.339 -1.7940  1.2021 -0.9246
 7111SOL     OW22773   6.790   1.591  11.974  0.4326  0.3670  0.1921
 7111SOL    HW122774   6.781   1.588  12.070 -0.3755  1.0224  0.1439
 7111SOL    HW222775   6.719   1.647  11.945  1.6120  1.4885 -0.6745
 7112SOL     OW22776   5.225   0.271   6.773  0.3356 -0.2258 -0.2468
 7112SOL    HW122777   5.148   0.263   6.717  0.2689 -0.8066 -0.0736
 7112SOL    HW222778   5.246   0.365   6.772 -1.3969  0.2244  1.0619
 7113SOL     OW22779   5.400   6.598   9.978 -0.1937 -0.2053  0.1978
 7113SOL    HW122780   5.341   6.672   9.992  0.0253 -0.0164  0.1297
 7113SOL    HW222781   5.423   6.569  10.067  0.4551  0.3994  0.2317
 7114SOL     OW22782   6.752   7.460   5.244  1.0334 -0.6913 -0.3194
 7114SOL    HW122783   6.738   7.387   5.305 -0.1823  2.0548  3.0153
 7114SOL    HW222784   6.678   7.455   5.183  1.2241 -2.4469 -0.4568
 7115SOL     OW22785   7.836   0.386   3.721  0.1244  0.5782  0.5045
 7115SOL    HW122786   7.772   0.450   3.753 -2.1412 -1.9733  1.3981
 7115SOL    HW222787   7.801   0.358   3.636  0.1189 -0.6990  0.9087
 7116SOL     OW22788   3.860   0.789   2.301 -0.0222 -0.0589  0.1787
 7116SOL    HW122789   3.897   0.702   2.312  0.8676  0.5366  2.5712
 7116SOL    HW222790   3.935   0.846   2.282 -0.5121  0.2850 -0.7777
 7117SOL     OW22791   3.305   0.149   0.866  0.2655  0.2976 -0.1919
 7117SOL    HW122792   3.381   0.092   0.881  0.0044 -0.0990 -0.3595
 7117SOL    HW222793   3.241   0.093   0.823 -0.2595  0.5377  0.2573
 7118SOL     OW22794   6.277   0.819  12.047 -0.9235  0.3170  0.4684
 7118SOL    HW122795   6.185   0.831  12.025 -1.2681 -3.3453 -0.7718
 7118SOL    HW222796   6.277   0.784  12.136 -0.6421  0.9485  0.7248
 7119SOL     OW22797   2.445   1.659   3.488  0.0875 -0.0187 -0.1269
 7119SOL    HW122798   2.473   1.681   3.576 -0.6528  1.6827 -0.2780
 7119SOL    HW222799   2.484   1.573   3.471  2.7772  0.9317  0.7106
 7120SOL     OW22800   4.464   2.807   9.779  0.6985 -0.1217  0.0313
 7120SOL    HW122801   4.389   2.833   9.832  0.7965  0.9671 -0.3336
 7120SOL    HW222802   4.498   2.728   9.822  0.1605  0.1432  0.9776
 7121SOL     OW22803   4.662   7.663   5.457 -0.1585 -0.5737  0.6006
 7121SOL    HW122804   4.635   7.577   5.424 -1.2816 -0.4008  1.0030
 7121SOL    HW222805   4.614   7.674   5.539 -0.4382  0.6381  0.3066
 7122SOL     OW22806   3.884   7.854   7.830 -0.4731 -0.1663 -0.0015
 7122SOL    HW122807   3.937   7.928   7.861  1.2344 -1.2335 -0.2570
 7122SOL    HW222808   3.929   7.826   7.750 -2.2879 -0.2103 -1.0485
 7123SOL     OW22809   4.369   5.027   7.737 -0.0934 -0.1947  0.2579
 7123SOL    HW122810   4.296   5.010   7.678 -0.8685  1.1489  0.7848
 7123SOL    HW222811   4.433   4.959   7.716 -0.3528  0.1921 -2.0823
 7124SOL     OW22812   4.663   6.688  10.954  0.3629 -0.1809  0.3882
 7124SOL    HW122813   4.580   6.724  10.923  1.5791  0.8026 -1.9235
 7124SOL    HW222814   4.695   6.752  11.018 -0.0727  0.0577  0.3692
 7125SOL     OW22815   7.477   0.199  11.696  0.2195 -0.3894  0.2994
 7125SOL    HW122816   7.437   0.220  11.780  1.0361  0.3781  0.5229
 7125SOL    HW222817   7.554   0.147  11.719  0.6694  0.1612  0.0717
 7126SOL     OW22818   6.251   0.692   6.773 -0.2528 -0.0445 -0.1151
 7126SOL    HW122819   6.336   0.737   6.763 -0.7387  1.3621  1.5449
 7126SOL    HW222820   6.192   0.740   6.715 -0.6591  1.2684  1.3013
 7127SOL     OW22821   5.702   5.800   1.820 -0.1656 -0.0230 -0.4648
 7127SOL    HW122822   5.748   5.745   1.757 -1.2174  0.2803 -1.5188
 7127SOL    HW222823   5.733   5.769   1.906  2.4324  0.5521 -1.1039
 7128SOL     OW22824   0.238   4.415   0.234 -0.5959 -0.1772  0.1102
 7128SOL    HW122825   0.154   4.444   0.199 -1.3885 -0.6850  1.4986
 7128SOL    HW222826   0.261   4.480   0.300  0.0874 -0.0581 -0.2366
 7129SOL     OW22827   3.393   2.827   4.072 -0.2161  0.4902  0.1400
 7129SOL    HW122828   3.343   2.762   4.022 -1.6015  1.2589  0.4691
 7129SOL    HW222829   3.401   2.901   4.012  0.0148  0.6067  0.3133
 7130SOL     OW22830   7.160   2.433  10.249  0.3486  0.2336  0.3473
 7130SOL    HW122831   7.226   2.373  10.216  0.2841  0.8212 -0.9147
 7130SOL    HW222832   7.183   2.445  10.341  1.3415 -0.4293  0.2042
 7131SOL     OW22833   2.802   7.763   8.735 -0.0379  0.3020  0.1064
 7131SOL    HW122834   2.726   7.790   8.683  1.4552  0.7297 -2.0099
 7131SOL    HW222835   2.872   7.822   8.706  1.0389  0.1813  2.2743
 7132SOL     OW22836   2.285   2.540  10.805 -0.0771 -0.1277  0.0118
 7132SOL    HW122837   2.207   2.546  10.749  1.5241 -0.6712 -2.4422
 7132SOL    HW222838   2.304   2.447  10.810  0.6195  0.0229  0.2558
 7133SOL     OW22839   6.995   4.314   0.034 -0.4481  0.3289  0.5397
 7133SOL    HW122840   7.035   4.231   0.059  0.6610  1.0608  1.2771
 7133SOL    HW222841   6.907   4.310   0.072 -0.8274 -0.9534 -0.3988
 7134SOL     OW22842   2.555   1.785   3.747  0.5907 -0.1155 -0.0802
 7134SOL    HW122843   2.563   1.809   3.840 -0.2099 -0.0272 -0.0307
 7134SOL    HW222844   2.621   1.717   3.735  0.6665 -0.1705  0.5653
 7135SOL     OW22845   5.297   7.244   7.497  0.4390  0.8339  0.1859
 7135SOL    HW122846   5.228   7.179   7.500  0.9065  0.3045 -0.3136
 7135SOL    HW222847   5.253   7.326   7.473 -0.0804  0.6078  0.3742
 7136SOL     OW22848   7.772   2.095   8.521  0.0454  0.5700 -0.0886
 7136SOL    HW122849   7.852   2.128   8.480  0.5104  0.7543  0.9455
 7136SOL    HW222850   7.783   2.000   8.524 -0.0301  0.5465 -0.4470
 7137SOL     OW22851   5.801   2.824   1.731 -0.2089 -0.2827  0.3596
 7137SOL    HW122852   5.896   2.817   1.738 -0.2878 -0.2936  1.7585
 7137SOL    HW222853   5.781   2.798   1.641  0.9473 -2.0039  0.5490
 7138SOL     OW22854   2.900   5.154  12.173 -0.5419 -0.0114  0.1783
 7138SOL    HW122855   2.964   5.122  12.109 -0.7197  1.2310 -0.6532
 7138SOL    HW222856   2.945   5.147  12.257 -0.3632 -1.8293 -0.0218
 7139SOL     OW22857   1.589   6.772   7.530  0.3978 -0.1829  0.1741
 7139SOL    HW122858   1.551   6.691   7.564  0.9751 -0.3480  0.4449
 7139SOL    HW222859   1.518   6.836   7.532  0.6122  0.0459  2.4955
 7140SOL     OW22860   0.914   0.431  10.986  0.0332 -0.1632  0.4353
 7140SOL    HW122861   0.962   0.352  11.008  0.3933 -0.4479 -1.2019
 7140SOL    HW222862   0.956   0.463  10.905 -2.3935 -0.3667 -1.0073
 7141SOL     OW22863   2.205   2.769   1.195  0.1497  0.5613  0.1747
 7141SOL    HW122864   2.251   2.822   1.259  0.7963 -1.3661  1.3918
 7141SOL    HW222865   2.271   2.745   1.130 -0.5261  2.6049 -1.3923
 7142SOL     OW22866   7.218   3.178  12.053  0.1900 -0.0752 -0.5487
 7142SOL    HW122867   7.215   3.237  11.978  0.8539 -1.6927 -1.9229
 7142SOL    HW222868   7.282   3.217  12.112  0.1158  0.9162 -1.1000
 7143SOL     OW22869   0.402   1.300   8.653  0.3518  0.3451 -0.0426
 7143SOL    HW122870   0.337   1.232   8.635  1.3279 -0.7436  0.4028
 7143SOL    HW222871   0.387   1.367   8.586 -3.0600  1.5187  1.6666
 7144SOL     OW22872   3.901   0.476   3.028  0.2588  0.1028 -0.4457
 7144SOL    HW122873   3.922   0.395   2.982 -0.3646 -0.0580 -0.4544
 7144SOL    HW222874   3.807   0.471   3.045  0.3163  0.5613  0.0653
 7145SOL     OW22875   5.144   5.769   0.361  0.0448 -0.2271  0.1298
 7145SOL    HW122876   5.135   5.691   0.416 -0.0413  0.3155  0.9072
 7145SOL    HW222877   5.066   5.768   0.306  0.6086 -1.3033 -0.6880
 7146SOL     OW22878   5.869   1.418   6.207  0.1595 -0.6441  0.1633
 7146SOL    HW122879   5.938   1.416   6.140  0.0818 -0.4286  0.0742
 7146SOL    HW222880   5.829   1.331   6.203  0.0069 -0.5577 -0.2308
 7147SOL     OW22881   0.733   4.037  12.255  0.2322 -0.4238  0.0958
 7147SOL    HW122882   0.821   3.999  12.255  0.6444  0.4634  1.3185
 7147SOL    HW222883   0.734   4.099  12.182  1.1805  0.7422  1.0493
 7148SOL     OW22884   5.752   5.876   2.971  0.2797  0.5738 -0.5550
 7148SOL    HW122885   5.786   5.938   3.035  1.2716  0.9820 -1.4491
 7148SOL    HW222886   5.795   5.793   2.993 -1.0024  0.1764  0.6037
 7149SOL     OW22887   3.971   4.013   2.499  0.0945 -0.3498  0.3776
 7149SOL    HW122888   4.015   4.060   2.570  0.1228 -0.8261  0.6843
 7149SOL    HW222889   3.882   3.997   2.533 -0.5644  1.2416 -0.5209
 7150SOL     OW22890   5.608   1.307   8.209  0.2955 -0.7687 -0.3927
 7150SOL    HW122891   5.619   1.357   8.128 -0.7225  0.2228  0.0451
 7150SOL    HW222892   5.520   1.330   8.239  0.8188 -0.7674  1.2273
 7151SOL     OW22893   1.817   6.362   5.278 -0.1137 -0.1721 -0.3256
 7151SOL    HW122894   1.787   6.427   5.341  0.3451  0.7575 -1.0411
 7151SOL    HW222895   1.745   6.300   5.271 -0.3044 -0.1099  0.8528
 7152SOL     OW22896   4.899   3.198   4.249 -0.2693  0.0400 -0.3742
 7152SOL    HW122897   4.938   3.228   4.332  1.6287 -0.1857 -1.1357
 7152SOL    HW222898   4.836   3.131   4.275 -0.5723  0.8048  0.9634
 7153SOL     OW22899   0.619   2.998   6.391 -0.7562 -0.0389  0.6481
 7153SOL    HW122900   0.631   3.065   6.458 -1.7208  0.9716 -0.1439
 7153SOL    HW222901   0.530   2.966   6.404 -0.4822 -0.8070  0.6934
 7154SOL     OW22902   7.569   3.263  10.980 -0.2081  0.4868 -0.0612
 7154SOL    HW122903   7.615   3.346  10.978  0.6204  0.0291 -0.2973
 7154SOL    HW222904   7.635   3.197  10.958 -1.2468 -0.0581 -1.7853
 7155SOL     OW22905   0.886   0.671   0.220 -0.0793 -0.0360  0.1102
 7155SOL    HW122906   0.921   0.583   0.205  1.7939 -0.0076  3.3262
 7155SOL    HW222907   0.791   0.658   0.227  0.0119 -1.5169 -0.8638
 7156SOL     OW22908   1.464   7.409  10.992  0.2059 -0.1684  0.3492
 7156SOL    HW122909   1.383   7.457  11.008 -0.0606 -0.6737  0.5349
 7156SOL    HW222910   1.453   7.372  10.904 -0.1673 -1.0185  0.7431
 7157SOL     OW22911   4.677   2.361   4.165 -0.4154 -0.4147 -0.3789
 7157SOL    HW122912   4.618   2.378   4.239 -1.5355 -1.4126 -1.0176
 7157SOL    HW222913   4.694   2.267   4.168  0.1670 -0.3401 -0.9384
 7158SOL     OW22914   5.985   3.035   4.296 -0.3968 -0.3879  0.4040
 7158SOL    HW122915   5.946   3.083   4.369 -1.4365  0.9311 -0.9613
 7158SOL    HW222916   6.042   3.099   4.253 -0.2411 -0.9730 -0.2716
 7159SOL     OW22917   3.038   3.412   4.340 -0.3577  0.0404 -0.0545
 7159SOL    HW122918   2.981   3.356   4.287 -0.8644 -0.1322  0.6537
 7159SOL    HW222919   2.988   3.493   4.351 -0.2828  0.0492  0.2210
 7160SOL     OW22920   6.948   0.620   7.400  0.2583 -0.4023 -0.0068
 7160SOL    HW122921   6.924   0.712   7.394  1.0712 -0.2100 -0.4356
 7160SOL    HW222922   6.877   0.580   7.450  0.1362  0.5399  0.6003
 7161SOL     OW22923   1.448   1.338   3.872 -0.2296 -0.0674 -0.9317
 7161SOL    HW122924   1.357   1.360   3.848 -0.3398  0.6878  0.0821
 7161SOL    HW222925   1.468   1.260   3.821 -1.9463 -1.0907 -0.1160
 7162SOL     OW22926   3.355   0.620   3.618 -0.1468 -0.6719  0.6087
 7162SOL    HW122927   3.276   0.668   3.643 -0.8567 -0.5184 -1.7490
 7162SOL    HW222928   3.426   0.682   3.634 -0.3772 -0.9146  3.0543
 7163SOL     OW22929   2.582   0.560  11.255  0.0518  0.1082 -0.3392
 7163SOL    HW122930   2.591   0.474  11.214  0.9870 -0.3386  0.7410
 7163SOL    HW222931   2.560   0.540  11.347  0.4062  1.0208 -0.0466
 7164SOL     OW22932   0.324   7.885   8.930  0.1386  0.2834  0.4964
 7164SOL    HW122933   0.408   7.900   8.973 -0.3282 -0.7733  1.8591
 7164SOL    HW222934   0.259   7.904   8.998 -0.6758 -0.1433 -0.1456
 7165SOL     OW22935   6.272   3.827   6.559  0.6145  0.0971  0.3254
 7165SOL    HW122936   6.349   3.843   6.504 -0.5982  1.3715 -1.0688
 7165SOL    HW222937   6.281   3.888   6.632  1.3754 -0.4360  0.7017
 7166SOL     OW22938   1.581   1.038  10.426  0.1717 -0.1048 -0.1058
 7166SOL    HW122939   1.533   0.966  10.384  0.5961 -0.3178 -0.2283
 7166SOL    HW222940   1.633   1.076  10.355  3.3284 -2.4078  0.7410
 7167SOL     OW22941   4.106   0.425   9.434  0.3514  0.1255  0.2172
 7167SOL    HW122942   4.155   0.418   9.516 -0.5348  0.2886  0.7728
 7167SOL    HW222943   4.028   0.372   9.449 -0.2415  0.8656 -0.1966
 7168SOL     OW22944   6.596   7.345  10.711 -0.3092  0.1996  0.1509
 7168SOL    HW122945   6.606   7.280  10.781 -0.7947  0.3669  0.3818
 7168SOL    HW222946   6.655   7.416  10.736  1.9987 -1.0936 -1.2778
 7169SOL     OW22947   5.786   0.526   7.932 -0.0670  0.4877  0.2306
 7169SOL    HW122948   5.764   0.607   7.978  2.3370  1.2988  0.1063
 7169SOL    HW222949   5.786   0.550   7.840 -1.1710 -0.1611  0.0499
 7170SOL     OW22950   1.534   3.580   4.818 -0.3478 -0.4333  0.4464
 7170SOL    HW122951   1.559   3.578   4.726  1.4249 -1.6659  0.8887
 7170SOL    HW222952   1.488   3.663   4.829 -0.7733 -0.3567 -1.5739
 7171SOL     OW22953   6.862   1.128   9.244 -0.6557  0.0210 -0.4926
 7171SOL    HW122954   6.915   1.205   9.267 -0.7289  0.5386 -1.9768
 7171SOL    HW222955   6.919   1.077   9.187 -0.7916 -0.7976  0.0907
 7172SOL     OW22956   0.831   2.754   0.520  0.0218 -0.4217 -0.1808
 7172SOL    HW122957   0.818   2.807   0.442 -1.3190 -1.3080 -0.6038
 7172SOL    HW222958   0.764   2.685   0.513 -1.6311  0.6959  2.7950
 7173SOL     OW22959   6.927   4.224   5.842  0.5578 -0.0447 -0.3025
 7173SOL    HW122960   6.896   4.307   5.804 -0.3693  0.4089  1.3305
 7173SOL    HW222961   6.893   4.225   5.932  2.2225 -1.2852  0.3964
 7174SOL     OW22962   7.859   6.679   5.479 -0.0364 -0.1964 -0.1324
 7174SOL    HW122963   7.853   6.745   5.409 -1.8324  0.5017  0.6143
 7174SOL    HW222964   7.847   6.729   5.559 -0.5044 -1.3206  0.5113
 7175SOL     OW22965   5.484   6.756   9.639 -0.0915 -0.3077  0.2730
 7175SOL    HW122966   5.417   6.691   9.621 -1.6777  1.2135  0.4371
 7175SOL    HW222967   5.548   6.710   9.693 -0.7003 -1.9531 -0.3343
 7176SOL     OW22968   2.158   1.205   9.084 -0.4957  0.0977  0.3446
 7176SOL    HW122969   2.073   1.237   9.115  0.2737 -0.0494  2.8072
 7176SOL    HW222970   2.203   1.174   9.163  1.8065  0.0159 -0.8977
 7177SOL     OW22971   7.426   5.050   8.855 -0.1591  0.1460 -0.3665
 7177SOL    HW122972   7.502   5.035   8.798 -1.1091  1.1471 -1.9842
 7177SOL    HW222973   7.438   5.140   8.886 -0.3784  0.0923 -0.1302
 7178SOL     OW22974   3.127   1.705   4.666 -0.4945  0.0128  0.3306
 7178SOL    HW122975   3.104   1.613   4.656 -0.3057  0.2138 -2.9417
 7178SOL    HW222976   3.169   1.710   4.752  0.0461 -3.0555  0.3441
 7179SOL     OW22977   0.372   0.144   7.034  0.5867 -0.0780  0.2230
 7179SOL    HW122978   0.293   0.090   7.047  0.7698 -1.3147 -2.9292
 7179SOL    HW222979   0.338   0.232   7.019 -0.2131 -0.5545 -0.8855
 7180SOL     OW22980   1.839   4.225   6.250  0.2031  0.2949  0.2491
 7180SOL    HW122981   1.803   4.249   6.335  0.2781  1.4321 -0.0250
 7180SOL    HW222982   1.804   4.138   6.233 -0.3079  0.3112  1.1699
 7181SOL     OW22983   6.775   0.394  10.387 -0.1204 -0.4460 -0.4688
 7181SOL    HW122984   6.836   0.347  10.444 -1.1650 -3.5601 -1.6802
 7181SOL    HW222985   6.825   0.413  10.308  0.3441  0.6557  0.0753
 7182SOL     OW22986   2.839   3.825   3.711 -0.4187 -0.0721  0.4298
 7182SOL    HW122987   2.760   3.773   3.724  0.5624 -1.5027  0.8102
 7182SOL    HW222988   2.841   3.884   3.786 -0.1489 -1.3245  1.4344
 7183SOL     OW22989   7.669   7.414   6.025  0.3411  0.4957 -0.8388
 7183SOL    HW122990   7.670   7.462   6.109 -0.0043 -1.5589  0.4163
 7183SOL    HW222991   7.747   7.446   5.979  0.0305  2.3724 -0.1791
 7184SOL     OW22992   5.519   7.607   3.646 -0.1563 -0.1545 -0.7622
 7184SOL    HW122993   5.459   7.675   3.678 -0.1076  0.5528 -2.1350
 7184SOL    HW222994   5.461   7.535   3.620 -0.1471 -1.3108  2.0442
 7185SOL     OW22995   4.673   6.264   7.693  0.1558  0.3211  0.3899
 7185SOL    HW122996   4.674   6.353   7.728 -0.5734  0.0142  1.2259
 7185SOL    HW222997   4.758   6.228   7.716  1.0876  1.2918 -1.3257
 7186SOL     OW22998   6.788   2.106   0.957 -0.5953 -0.1338 -0.2736
 7186SOL    HW122999   6.866   2.110   1.013 -0.7362  1.3831 -0.1554
 7186SOL    HW223000   6.823   2.089   0.869  0.1622  2.9260 -0.6795
 7187SOL     OW23001   7.010   2.973  11.994 -0.0945 -0.9713  0.0519
 7187SOL    HW123002   6.994   3.020  11.912 -1.2262 -1.1690  0.1429
 7187SOL    HW223003   7.087   3.015  12.030  0.8661 -1.3505 -1.4521
 7188SOL     OW23004   1.905   2.873   3.980 -0.3906 -0.5550  0.3935
 7188SOL    HW123005   1.927   2.781   3.995  1.9209 -0.1999 -0.3914
 7188SOL    HW223006   1.817   2.883   4.017 -0.2633 -2.7984  1.4763
 7189SOL     OW23007   1.777   2.238   1.312  0.6177 -0.3525  0.4700
 7189SOL    HW123008   1.742   2.215   1.398  1.0864  0.5617  0.9187
 7189SOL    HW223009   1.872   2.229   1.321  0.6710 -0.2299  0.0639
 7190SOL     OW23010   0.322   7.117   0.119  0.6591 -0.1047  0.0193
 7190SOL    HW123011   0.365   7.037   0.089  1.6689  0.4578 -0.0840
 7190SOL    HW223012   0.361   7.186   0.066 -0.8520  0.3616 -0.5201
 7191SOL     OW23013   6.376   2.442   3.847  0.1501  0.4371  0.3419
 7191SOL    HW123014   6.463   2.441   3.886  0.8639 -4.1968 -0.8714
 7191SOL    HW223015   6.330   2.368   3.886 -2.7111  1.6881 -0.3514
 7192SOL     OW23016   5.719   5.106   1.833  0.4178  0.1004 -0.5546
 7192SOL    HW123017   5.689   5.021   1.802 -0.6691  0.2363  0.0787
 7192SOL    HW223018   5.640   5.148   1.869  1.1202  0.9960 -0.0143
 7193SOL     OW23019   4.536   4.662   6.115 -0.3932  0.1527 -0.0973
 7193SOL    HW123020   4.525   4.623   6.028 -1.0615 -0.5207  0.2810
 7193SOL    HW223021   4.594   4.601   6.161 -1.1775 -0.2328  0.3913
 7194SOL     OW23022   1.035   4.088   6.892 -0.0952 -0.0248 -0.0887
 7194SOL    HW123023   1.105   4.147   6.861  1.3230 -1.9614 -0.8218
 7194SOL    HW223024   1.020   4.029   6.818 -2.2891  0.0926  0.2041
 7195SOL     OW23025   5.124   5.718  11.200 -0.2854  0.3411 -0.0133
 7195SOL    HW123026   5.138   5.807  11.168 -0.3273  0.5928  0.6534
 7195SOL    HW223027   5.072   5.675  11.131 -0.1992  0.8031 -0.3695
 7196SOL     OW23028   0.095   4.736   7.615 -0.2768  0.0628 -0.2954
 7196SOL    HW123029   0.122   4.743   7.706 -1.2302  2.5919 -0.1201
 7196SOL    HW223030   0.176   4.724   7.566  0.5655  1.5539  0.6694
 7197SOL     OW23031   4.845   5.792   3.017  0.2926 -0.3350  0.2493
 7197SOL    HW123032   4.756   5.766   2.994  0.1440  0.5530 -0.2298
 7197SOL    HW223033   4.839   5.824   3.107  0.3267 -1.1803  0.5620
 7198SOL     OW23034   6.732   6.730   6.739  0.5999  0.1591  0.2687
 7198SOL    HW123035   6.690   6.768   6.662  0.4897  1.5861  0.9929
 7198SOL    HW223036   6.680   6.762   6.813  0.8721 -0.9474  0.9615
 7199SOL     OW23037   4.192   2.075   3.377  0.2276  0.2599 -0.0844
 7199SOL    HW123038   4.107   2.064   3.420  0.3133  0.8935  0.2640
 7199SOL    HW223039   4.256   2.053   3.444  0.3448 -0.9838 -0.5770
 7200SOL     OW23040   7.356   1.873   0.648 -0.1471 -0.4499  0.5019
 7200SOL    HW123041   7.342   1.917   0.564 -0.8749 -2.6535 -0.6026
 7200SOL    HW223042   7.445   1.838   0.643  0.4059  0.7747  1.3489
 7201SOL     OW23043   1.756   2.931   9.827  0.1464 -0.9499  0.6451
 7201SOL    HW123044   1.783   2.951   9.916 -0.0138 -0.7096  0.6412
 7201SOL    HW223045   1.766   3.013   9.779  0.7097 -1.2008  0.3206
 7202SOL     OW23046   6.716   7.257   6.211  0.0924  0.9319  0.1854
 7202SOL    HW123047   6.727   7.335   6.266  0.5071  0.4358  0.8294
 7202SOL    HW223048   6.661   7.199   6.264 -0.9742  1.1397 -0.6704
 7203SOL     OW23049   1.096   3.751   7.384  0.3225  0.4758 -0.4737
 7203SOL    HW123050   1.150   3.706   7.319 -1.2761 -0.3640 -1.2876
 7203SOL    HW223051   1.007   3.742   7.350 -0.6183 -0.2775  2.0016
 7204SOL     OW23052   7.430   4.509   0.333 -0.5766  0.1512 -0.2971
 7204SOL    HW123053   7.386   4.429   0.307 -0.6400 -0.1259  0.6186
 7204SOL    HW223054   7.422   4.511   0.428 -0.4670  1.1800 -0.2951
 7205SOL     OW23055   6.874   4.264   7.764  0.0897  0.2667 -0.2627
 7205SOL    HW123056   6.943   4.242   7.700 -0.6214 -0.0861 -0.9212
 7205SOL    HW223057   6.826   4.182   7.776  2.3652 -0.7765  3.5047
 7206SOL     OW23058   6.774   5.760   8.795  0.1471  0.9220  0.5348
 7206SOL    HW123059   6.849   5.782   8.738  1.2635 -1.0899  1.1459
 7206SOL    HW223060   6.813   5.711   8.867 -1.6752  0.6151  1.3450
 7207SOL     OW23061   1.709   5.901   2.645  0.6650 -0.0676  0.5230
 7207SOL    HW123062   1.675   5.978   2.690 -0.3981  0.1514 -0.6030
 7207SOL    HW223063   1.692   5.829   2.705 -1.1314  0.1593  0.3236
 7208SOL     OW23064   6.103   5.187   4.975 -0.0435  0.2446 -0.1215
 7208SOL    HW123065   6.142   5.152   5.055 -0.8924  1.1750  0.7357
 7208SOL    HW223066   6.169   5.246   4.939  0.4533 -0.3966 -0.2685
 7209SOL     OW23067   2.243   7.151  11.456 -0.5934  0.0034  0.4127
 7209SOL    HW123068   2.253   7.168  11.362 -0.7071  1.2834  0.6160
 7209SOL    HW223069   2.149   7.154  11.472 -0.7151 -1.9406  0.2896
 7210SOL     OW23070   2.109   5.632   6.060  0.5912 -0.0110 -0.5744
 7210SOL    HW123071   2.027   5.654   6.016  1.0117 -0.7383 -1.7483
 7210SOL    HW223072   2.109   5.536   6.066 -0.7156  0.0586  3.4926
 7211SOL     OW23073   2.038   7.585   1.918 -0.1053  0.2176  0.1023
 7211SOL    HW123074   1.983   7.507   1.922 -0.9223  0.7766 -0.1492
 7211SOL    HW223075   1.997   7.647   1.977  0.4127  0.5455  0.1217
 7212SOL     OW23076   0.722   2.432   2.676  0.4217  0.4072 -0.3111
 7212SOL    HW123077   0.793   2.368   2.673 -0.3969 -0.5874  0.6366
 7212SOL    HW223078   0.720   2.461   2.767 -0.3422  0.4757 -0.3471
 7213SOL     OW23079   6.833   7.202   4.117  0.1634  0.5792 -0.4260
 7213SOL    HW123080   6.809   7.109   4.118 -0.1720  0.6147  1.8765
 7213SOL    HW223081   6.926   7.203   4.141  0.3493  0.8157 -1.1394
 7214SOL     OW23082   4.799   1.103   5.383  0.0601  0.1932  0.0564
 7214SOL    HW123083   4.774   1.141   5.467 -0.0675  1.8159 -0.6664
 7214SOL    HW223084   4.718   1.069   5.345 -0.2480  1.2370 -0.2487
 7215SOL     OW23085   4.834   6.345   5.692  0.1303 -0.0390 -0.4727
 7215SOL    HW123086   4.877   6.345   5.607 -0.5173 -0.6801 -0.8094
 7215SOL    HW223087   4.880   6.278   5.742 -0.7410 -1.0457 -0.9846
 7216SOL     OW23088   7.842   6.258  12.388 -0.6779  0.3782  0.0242
 7216SOL    HW123089   7.900   6.207  12.332  0.1142  0.9355  0.3206
 7216SOL    HW223090   7.853   6.348  12.358 -0.6452  0.6106  0.7230
 7217SOL     OW23091   2.205   4.332   8.377  0.6870 -0.2977 -0.2030
 7217SOL    HW123092   2.162   4.249   8.355 -2.7810  0.5880  2.4356
 7217SOL    HW223093   2.279   4.308   8.433 -0.9532 -1.6401  1.4825
 7218SOL     OW23094   2.772   1.889   5.332  0.3154 -0.1985 -0.7033
 7218SOL    HW123095   2.867   1.886   5.343  0.5761 -0.1788 -2.5782
 7218SOL    HW223096   2.742   1.802   5.358  0.6432  0.2239  1.2245
 7219SOL     OW23097   0.795   3.102   1.765  0.2139  0.3259 -0.5333
 7219SOL    HW123098   0.792   3.017   1.720  0.2788  0.6420 -1.1346
 7219SOL    HW223099   0.708   3.110   1.804  0.4913 -0.4147  0.2730
 7220SOL     OW23100   2.758   0.211  10.285  0.2022 -0.4960 -0.3829
 7220SOL    HW123101   2.821   0.276  10.254  0.4390 -1.3377 -1.7292
 7220SOL    HW223102   2.673   0.253  10.276  0.5256  0.5579  1.2091
 7221SOL     OW23103   2.342   7.684  10.454 -0.0186  0.1858 -0.5086
 7221SOL    HW123104   2.246   7.688  10.460 -0.0913 -1.8689  0.9736
 7221SOL    HW223105   2.359   7.643  10.369 -0.8043 -3.8126  0.9999
 7222SOL     OW23106   6.448   4.407   1.100  0.0063 -0.0527  0.3502
 7222SOL    HW123107   6.396   4.464   1.042 -1.6556 -0.7586  1.0917
 7222SOL    HW223108   6.522   4.380   1.046 -0.8093  0.3601 -1.0293
 7223SOL     OW23109   1.355   4.023   1.190  0.2391 -0.1442 -0.5409
 7223SOL    HW123110   1.263   4.038   1.168  0.7211  1.1538 -1.8455
 7223SOL    HW223111   1.386   3.962   1.123  0.7027  0.6445 -1.0594
 7224SOL     OW23112   2.059   3.243  12.032  0.1335 -0.0121 -0.3622
 7224SOL    HW123113   2.107   3.304  12.088 -0.0947 -1.0684  1.0597
 7224SOL    HW223114   2.084   3.156  12.066 -2.2127 -0.6112 -0.0286
 7225SOL     OW23115   1.644   4.372   7.985 -0.2907  0.3220 -0.1795
 7225SOL    HW123116   1.726   4.322   7.979  0.0721  0.7630  0.7834
 7225SOL    HW223117   1.672   4.462   8.000 -0.9485  0.3736  0.8514
 7226SOL     OW23118   4.472   4.395   3.634 -0.6752  0.3110 -0.5062
 7226SOL    HW123119   4.557   4.353   3.644 -0.2021  0.6686 -2.5954
 7226SOL    HW223120   4.415   4.326   3.601 -0.2812  0.8679 -2.4606
 7227SOL     OW23121   1.273   2.560   8.858 -0.6244  0.1085 -0.2861
 7227SOL    HW123122   1.276   2.487   8.919  1.1569  1.5756  1.5309
 7227SOL    HW223123   1.327   2.628   8.899 -1.3704  2.0886 -2.3560
 7228SOL     OW23124   2.025   4.205  10.674 -0.5911  0.1971  0.6657
 7228SOL    HW123125   2.063   4.291  10.691  2.0059 -0.5024 -1.1434
 7228SOL    HW223126   1.931   4.217  10.690 -0.4123  3.5260 -0.1363
 7229SOL     OW23127   1.575   3.222   3.927  0.1767  0.0236 -0.2081
 7229SOL    HW123128   1.531   3.245   4.009  2.3896  2.0332  0.5476
 7229SOL    HW223129   1.515   3.252   3.858 -1.5188 -1.3045  0.6119
 7230SOL     OW23130   5.502   5.117   8.034 -0.1424  0.1068 -0.5138
 7230SOL    HW123131   5.493   5.024   8.056 -0.8138  0.0629 -0.9379
 7230SOL    HW223132   5.509   5.161   8.119  3.5794 -0.5910 -0.3059
 7231SOL     OW23133   1.033   1.583  10.571  0.1970  0.1154  0.2405
 7231SOL    HW123134   1.013   1.592  10.478  1.4862  1.8577  0.0846
 7231SOL    HW223135   0.973   1.515  10.602 -1.0450  0.3068 -1.6074
 7232SOL     OW23136   5.384   2.456   7.981 -0.0918 -0.1471  0.1775
 7232SOL    HW123137   5.421   2.544   7.984  0.5607 -0.4283  1.5435
 7232SOL    HW223138   5.330   2.454   7.902  3.4654  0.0049 -2.4726
 7233SOL     OW23139   5.088   0.478   3.011 -0.7885 -0.0312 -0.1676
 7233SOL    HW123140   5.004   0.517   3.036 -0.0461  0.2208  2.1573
 7233SOL    HW223141   5.130   0.544   2.956 -1.6213  0.3119 -0.4080
 7234SOL     OW23142   5.760   2.740   5.734 -0.5604 -0.1431 -0.0339
 7234SOL    HW123143   5.709   2.760   5.813 -1.7739  0.6788 -0.9835
 7234SOL    HW223144   5.696   2.744   5.663  0.7302  0.3643 -1.2098
 7235SOL     OW23145   6.192   2.501  11.646 -0.1726 -0.2241  0.0194
 7235SOL    HW123146   6.218   2.419  11.604 -0.9472 -0.7848  0.5959
 7235SOL    HW223147   6.155   2.554  11.576 -0.5201 -0.7449 -0.1992
 7236SOL     OW23148   1.733   1.410   8.055 -0.2672 -0.4462 -1.0151
 7236SOL    HW123149   1.790   1.483   8.029  0.9701 -1.6933 -1.9088
 7236SOL    HW223150   1.645   1.447   8.052  0.2902  0.8945 -1.9025
 7237SOL     OW23151   2.126   0.168   4.936 -0.0690  0.2235 -0.3983
 7237SOL    HW123152   2.159   0.249   4.974  1.3282 -0.8062  0.6542
 7237SOL    HW223153   2.053   0.143   4.993 -1.6624  1.6032 -1.7357
 7238SOL     OW23154   4.853   6.683  11.471  0.6016 -0.4038 -0.3411
 7238SOL    HW123155   4.851   6.742  11.395 -0.9024 -0.7069 -0.5713
 7238SOL    HW223156   4.761   6.665  11.489  1.0122 -2.0862  0.1967
 7239SOL     OW23157   1.296   0.165   3.171  0.4456  0.3566  0.3022
 7239SOL    HW123158   1.334   0.233   3.115  1.7414  1.1302  1.9912
 7239SOL    HW223159   1.247   0.214   3.238 -0.8498 -0.5168  0.0238
 7240SOL     OW23160   2.473   4.502   0.307  0.3610 -0.7132 -0.1126
 7240SOL    HW123161   2.424   4.428   0.271 -1.0345  0.2665 -0.2932
 7240SOL    HW223162   2.406   4.563   0.339  1.4575  0.6987 -0.3934
 7241SOL     OW23163   0.755   5.790   4.972 -0.7350 -0.5880  0.0100
 7241SOL    HW123164   0.799   5.722   5.023 -0.7280 -1.4816 -1.1322
 7241SOL    HW223165   0.709   5.741   4.902 -1.1287  0.5442 -0.5461
 7242SOL     OW23166   2.183   2.508   7.139  0.3817 -0.2694 -0.5779
 7242SOL    HW123167   2.169   2.598   7.168  0.9535 -0.3866  0.0817
 7242SOL    HW223168   2.095   2.470   7.137  0.0935  0.4079 -1.2361
 7243SOL     OW23169   1.551   6.548   2.389 -0.4989  0.2003  0.4357
 7243SOL    HW123170   1.585   6.483   2.450 -0.6279 -0.4127 -0.1276
 7243SOL    HW223171   1.627   6.603   2.368 -0.2258 -0.1859  0.4036
 7244SOL     OW23172   7.495   2.347  10.377  0.5802  0.3572 -0.4491
 7244SOL    HW123173   7.560   2.319  10.441  1.9839  0.1007 -1.9227
 7244SOL    HW223174   7.546   2.394  10.311 -0.8041  0.5240 -1.4369
 7245SOL     OW23175   6.433   0.813   4.645  0.2569 -0.2187 -0.2370
 7245SOL    HW123176   6.524   0.843   4.649  1.6655 -3.8521 -1.3416
 7245SOL    HW223177   6.410   0.821   4.553 -0.9406  1.4826  0.1644
 7246SOL     OW23178   7.387   0.267   0.060  0.2185  0.5069  0.1021
 7246SOL    HW123179   7.360   0.232  -0.025  0.3444  0.0454  0.2482
 7246SOL    HW223180   7.310   0.314   0.092  0.6737  2.0826 -0.9749
 7247SOL     OW23181   4.048   4.250   8.158 -0.1693 -0.0792  0.2033
 7247SOL    HW123182   4.066   4.246   8.252  0.7044  0.0729  0.0536
 7247SOL    HW223183   4.055   4.160   8.128 -1.3564 -0.2546  0.4369
 7248SOL     OW23184   3.313   1.227   9.667 -0.3505 -0.2766 -0.8379
 7248SOL    HW123185   3.358   1.237   9.751  0.1062 -2.2366 -0.8031
 7248SOL    HW223186   3.225   1.260   9.682  0.2438  1.0483 -0.1139
 7249SOL     OW23187   2.858   5.347  11.365  0.2444  0.3463  0.4681
 7249SOL    HW123188   2.828   5.389  11.284  2.3112  0.2817 -0.4027
 7249SOL    HW223189   2.786   5.289  11.390 -0.4177  0.2729 -1.4014
 7250SOL     OW23190   3.633   2.847   9.267 -0.0708  0.4539 -0.2493
 7250SOL    HW123191   3.611   2.913   9.201 -0.4086 -0.7978 -1.4229
 7250SOL    HW223192   3.564   2.855   9.332  0.3976  1.8724  0.1090
 7251SOL     OW23193   1.932   4.786   2.380 -0.4153  0.0834 -0.5701
 7251SOL    HW123194   1.985   4.754   2.452  0.5235  1.7311 -0.4960
 7251SOL    HW223195   1.886   4.708   2.348  1.0717 -1.1442  0.1637
 7252SOL     OW23196   1.882   5.143   3.201  0.4202  0.3955 -0.1712
 7252SOL    HW123197   1.878   5.055   3.238 -0.1605  0.7091  0.5234
 7252SOL    HW223198   1.859   5.132   3.109 -0.7398 -0.0365  0.1606
 7253SOL     OW23199   0.810   4.479   4.004 -0.5312 -0.1412  0.0691
 7253SOL    HW123200   0.735   4.451   4.055 -1.0456 -1.0319 -1.1371
 7253SOL    HW223201   0.782   4.561   3.963 -0.4077  0.1475  0.5550
 7254SOL     OW23202   6.600   3.862   8.806  0.1855 -0.1141  0.4762
 7254SOL    HW123203   6.598   3.775   8.765  0.8270 -0.1320  0.4675
 7254SOL    HW223204   6.654   3.850   8.884 -0.0367  0.1935  0.6772
 7255SOL     OW23205   5.185   1.111   8.231  0.0934  0.2777  0.4699
 7255SOL    HW123206   5.188   1.073   8.318  1.1336 -0.2605  0.2166
 7255SOL    HW223207   5.094   1.102   8.204 -0.2952  0.6938  1.5938
 7256SOL     OW23208   4.176   7.354   6.339 -0.5489 -0.1355  0.3108
 7256SOL    HW123209   4.176   7.258   6.345  0.7409 -0.1626  0.2120
 7256SOL    HW223210   4.155   7.383   6.428  0.9271 -0.5383  0.8344
 7257SOL     OW23211   4.685   3.808  10.776  0.1213  0.1954 -0.1157
 7257SOL    HW123212   4.773   3.837  10.799 -0.0904 -0.2530  1.3718
 7257SOL    HW223213   4.656   3.869  10.708  1.4453  0.5473 -0.3773
 7258SOL     OW23214   3.003   6.915   4.145  0.6714 -0.6325  0.1776
 7258SOL    HW123215   2.955   6.919   4.062  1.5829 -2.6314 -0.4974
 7258SOL    HW223216   2.935   6.923   4.212  0.0415  2.5066 -0.6589
 7259SOL     OW23217   2.608   6.830   4.312 -0.0144 -0.0729 -0.3499
 7259SOL    HW123218   2.657   6.761   4.357  1.2511 -0.4261 -2.1544
 7259SOL    HW223219   2.536   6.784   4.270  1.0735 -0.4368 -1.9102
 7260SOL     OW23220   4.346   0.989   5.824  0.0005 -0.4152 -0.4485
 7260SOL    HW123221   4.437   0.961   5.826  0.6603  1.6249  0.5903
 7260SOL    HW223222   4.345   1.067   5.769 -1.1003 -0.3336 -0.3454
 7261SOL     OW23223   7.306   3.869  10.701  0.3320  0.0187  0.1070
 7261SOL    HW123224   7.296   3.942  10.640 -2.5189 -0.9168 -0.7240
 7261SOL    HW223225   7.375   3.815  10.662 -0.8571 -0.1346 -1.9164
 7262SOL     OW23226   5.222   6.164   4.928 -0.2156  0.3626 -0.2496
 7262SOL    HW123227   5.206   6.130   4.840 -0.3689 -0.8612  0.2210
 7262SOL    HW223228   5.280   6.239   4.915 -0.8425  0.6716 -1.4420
 7263SOL     OW23229   7.576   0.790  10.095 -0.4810 -0.3723  0.2822
 7263SOL    HW123230   7.520   0.830  10.161 -1.1748 -0.5094 -0.2060
 7263SOL    HW223231   7.664   0.818  10.117 -0.7081 -0.3786  1.2325
 7264SOL     OW23232   5.943   6.864   9.317  0.3061 -0.5050  0.0197
 7264SOL    HW123233   5.960   6.770   9.308  0.7762 -0.4828  0.5920
 7264SOL    HW223234   6.026   6.905   9.293 -0.2631 -0.1623 -1.4686
 7265SOL     OW23235   4.728   0.973  10.654  0.4431  0.2181  0.1243
 7265SOL    HW123236   4.717   0.916  10.577 -1.2012  0.0913  0.4212
 7265SOL    HW223237   4.723   1.062  10.619 -0.3673  0.1608  0.0817
 7266SOL     OW23238   1.340   2.602   6.256  0.4215  0.3775  0.3263
 7266SOL    HW123239   1.399   2.668   6.222 -1.0606  1.6796  0.1686
 7266SOL    HW223240   1.365   2.521   6.210  1.2860  1.1434 -0.5888
 7267SOL     OW23241   6.567   4.878  12.145  0.4109 -0.2151 -0.0015
 7267SOL    HW123242   6.615   4.923  12.215  1.2128 -1.0721  0.0266
 7267SOL    HW223243   6.477   4.907  12.155  0.8543  1.1347  0.2054
 7268SOL     OW23244   4.848   2.261   5.854  0.1784  0.1202 -0.0844
 7268SOL    HW123245   4.844   2.345   5.900 -1.4294  0.4938 -0.8294
 7268SOL    HW223246   4.789   2.204   5.903  1.9946 -0.9064  0.9813
 7269SOL     OW23247   1.887   4.819   7.892  0.1069 -0.2592  0.3826
 7269SOL    HW123248   1.952   4.830   7.823 -0.0188 -1.5048  0.0442
 7269SOL    HW223249   1.939   4.809   7.972  0.3035 -0.2190  0.2621
 7270SOL     OW23250   6.944   0.891   6.187  0.1744 -0.7271 -0.1003
 7270SOL    HW123251   6.951   0.796   6.179 -0.1508 -0.8611  1.1088
 7270SOL    HW223252   6.997   0.913   6.263  0.3674  0.0835 -0.4594
 7271SOL     OW23253   1.350   6.192   4.153 -0.2326 -0.2321  0.0908
 7271SOL    HW123254   1.357   6.277   4.196  1.8376 -1.2200  1.9397
 7271SOL    HW223255   1.439   6.175   4.121 -0.7314 -1.4890 -0.6816
 7272SOL     OW23256   6.577   3.692   5.618 -0.2839  0.4907 -0.0003
 7272SOL    HW123257   6.549   3.655   5.534 -0.2641  0.9094 -0.1955
 7272SOL    HW223258   6.497   3.697   5.670 -0.0679 -1.0814  0.5265
 7273SOL     OW23259   7.491   3.842  12.301 -0.5605  0.1888 -0.2282
 7273SOL    HW123260   7.460   3.785  12.371  0.4263  0.4820  0.4573
 7273SOL    HW223261   7.496   3.784  12.224  0.2837 -0.6265  0.4138
 7274SOL     OW23262   2.240   0.791   8.713  0.0514  0.5672 -0.0434
 7274SOL    HW123263   2.234   0.856   8.783 -0.4240 -0.2850  0.7130
 7274SOL    HW223264   2.334   0.786   8.694  0.2219  0.5309  0.7858
 7275SOL     OW23265   4.919   6.436   1.443  0.1015 -0.3216  0.0286
 7275SOL    HW123266   4.915   6.449   1.348  1.9306  0.4151  0.0287
 7275SOL    HW223267   4.850   6.371   1.460 -1.0098  0.3263 -1.6325
 7276SOL     OW23268   2.010   0.986   6.184  0.5486 -0.7231 -0.2376
 7276SOL    HW123269   2.036   1.077   6.193  1.9759 -1.0475 -0.7985
 7276SOL    HW223270   2.081   0.936   6.225  0.1178 -1.6131 -0.5321
 7277SOL     OW23271   6.503   1.876   9.495  0.1184  0.6045 -0.8489
 7277SOL    HW123272   6.520   1.870   9.589 -0.3069 -0.4299 -0.8289
 7277SOL    HW223273   6.587   1.856   9.454  0.0541  0.0331 -0.7028
 7278SOL     OW23274   6.709   7.439   6.420 -0.4120  0.1530  0.0588
 7278SOL    HW123275   6.663   7.443   6.504 -1.8401 -0.5773 -0.6437
 7278SOL    HW223276   6.702   7.527   6.384  0.6163  0.5944  0.8850
 7279SOL     OW23277   3.687   1.972   3.317 -0.0756  0.0049  0.2279
 7279SOL    HW123278   3.672   1.888   3.274 -0.0115  0.6090 -0.9960
 7279SOL    HW223279   3.776   1.965   3.352  0.4367  0.0389 -1.0188
 7280SOL     OW23280   0.458   7.214   5.529  0.4252  0.2183  0.0182
 7280SOL    HW123281   0.426   7.303   5.516 -0.2913  0.1402  1.1743
 7280SOL    HW223282   0.552   7.225   5.547  0.1815  0.8261  0.9939
 7281SOL     OW23283   6.463   2.467   6.084 -0.6632 -0.0011  0.3807
 7281SOL    HW123284   6.510   2.386   6.104 -0.2995 -0.2604 -1.2989
 7281SOL    HW223285   6.504   2.534   6.139 -0.2527 -0.7575  1.0135
 7282SOL     OW23286   1.717   7.774   0.859 -0.3813 -0.3061  0.5125
 7282SOL    HW123287   1.748   7.823   0.936 -0.8452 -1.5331  1.5223
 7282SOL    HW223288   1.652   7.831   0.819 -1.3534 -0.2883  2.0129
 7283SOL     OW23289   3.006   1.548  11.836 -0.2828 -0.2923  0.6331
 7283SOL    HW123290   3.101   1.555  11.829 -0.2019 -2.0627 -0.8692
 7283SOL    HW223291   2.989   1.545  11.930  1.2258 -0.5787  0.9220
 7284SOL     OW23292   7.508   3.215   2.484 -0.0961  0.3660  0.3965
 7284SOL    HW123293   7.532   3.282   2.548  0.6840 -0.5879  1.1371
 7284SOL    HW223294   7.581   3.152   2.487 -0.3962 -0.0652 -0.9077
 7285SOL     OW23295   2.976   0.688   7.115 -0.3285 -0.0576  0.2399
 7285SOL    HW123296   2.942   0.612   7.163 -0.4034  0.8908  1.7768
 7285SOL    HW223297   3.045   0.653   7.059 -1.3492 -1.4695 -0.1943
 7286SOL     OW23298   1.710   0.899  10.056 -0.2661  0.6862 -0.0421
 7286SOL    HW123299   1.781   0.903   9.992  0.3214  0.9896  0.6237
 7286SOL    HW223300   1.714   0.810  10.091 -0.4377  0.5967 -0.2406
 7287SOL     OW23301   1.849   6.195  10.423  0.0237 -0.0771  0.0735
 7287SOL    HW123302   1.887   6.114  10.388 -0.2393 -0.4977  0.7400
 7287SOL    HW223303   1.761   6.170  10.450 -0.5496  0.7576 -0.9491
 7288SOL     OW23304   4.349   3.198   9.982 -0.0669 -0.1860  0.1782
 7288SOL    HW123305   4.441   3.196   9.958 -0.0330 -0.8123  0.3270
 7288SOL    HW223306   4.304   3.151   9.912 -0.4850  1.4891 -0.7068
 7289SOL     OW23307   5.580   2.737   3.432  0.0983 -0.2141  0.2145
 7289SOL    HW123308   5.520   2.718   3.504 -0.8283  0.5427 -0.3279
 7289SOL    HW223309   5.560   2.828   3.408  1.0187 -0.1625 -0.4060
 7290SOL     OW23310   1.904   4.253   2.640  0.0085  0.2095  0.2528
 7290SOL    HW123311   1.865   4.305   2.570 -1.3158 -0.0745  0.7497
 7290SOL    HW223312   1.909   4.314   2.714 -1.4160 -0.2967  0.7938
 7291SOL     OW23313   1.459   1.426   2.589  0.1849 -0.6273 -0.4836
 7291SOL    HW123314   1.487   1.516   2.603  0.0836 -0.6605 -0.0602
 7291SOL    HW223315   1.376   1.418   2.636  0.0260 -0.8484 -0.7940
 7292SOL     OW23316   1.670   1.684   5.262 -0.2526 -0.2683 -0.2770
 7292SOL    HW123317   1.657   1.747   5.190 -1.0348  0.3402  0.3733
 7292SOL    HW223318   1.758   1.649   5.248 -1.0588 -1.5775 -2.6130
 7293SOL     OW23319   3.997   1.473   4.621 -0.7701 -0.7197 -0.2149
 7293SOL    HW123320   4.046   1.425   4.554  0.4457 -0.5932  0.5588
 7293SOL    HW223321   4.058   1.539   4.653 -1.2872 -0.8586  1.1027
 7294SOL     OW23322   2.377   3.907   6.314 -0.0844  0.0899  0.4679
 7294SOL    HW123323   2.350   3.838   6.252 -1.6502  1.1727 -0.1149
 7294SOL    HW223324   2.331   3.886   6.395 -2.3514  1.5870 -0.3434
 7295SOL     OW23325   1.271   6.918   0.730 -0.0115 -0.2153 -0.1780
 7295SOL    HW123326   1.197   6.936   0.787  0.0818 -0.1656 -0.0730
 7295SOL    HW223327   1.248   6.961   0.647 -0.8535 -1.6007 -0.6871
 7296SOL     OW23328   3.540   6.358   4.696  0.0680 -0.2011 -0.4815
 7296SOL    HW123329   3.546   6.270   4.734  1.1873 -0.5934 -1.5159
 7296SOL    HW223330   3.453   6.389   4.722  0.2395 -1.0095  1.1597
 7297SOL     OW23331   5.244   0.508   2.679 -0.4430  0.0685  0.7298
 7297SOL    HW123332   5.165   0.480   2.632 -0.2374  0.5544  0.0801
 7297SOL    HW223333   5.223   0.595   2.712 -0.0118  0.4161  0.1150
 7298SOL     OW23334   2.185   1.722   7.207  0.7051  0.2885 -0.0503
 7298SOL    HW123335   2.148   1.781   7.141  0.2588 -0.0401 -0.0935
 7298SOL    HW223336   2.216   1.781   7.276  0.7515  0.6066 -0.3362
 7299SOL     OW23337   3.599   7.710   3.655  0.3355 -0.0075 -0.4283
 7299SOL    HW123338   3.506   7.726   3.640  0.8537  1.5911 -2.5209
 7299SOL    HW223339   3.624   7.774   3.721 -0.1796 -1.0452  0.8201
 7300SOL     OW23340   6.294   6.389  11.489  0.0989  0.0639  0.0480
 7300SOL    HW123341   6.210   6.425  11.458  0.7411  1.0361 -0.6107
 7300SOL    HW223342   6.318   6.444  11.563 -0.0693 -0.5293  0.5575
 7301SOL     OW23343   3.840   1.701  12.285 -0.0215 -0.0957 -0.5410
 7301SOL    HW123344   3.761   1.698  12.233  1.3434 -0.8166 -2.7035
 7301SOL    HW223345   3.838   1.620  12.337  0.2071 -1.1215 -2.0713
 7302SOL     OW23346   4.125   1.439   7.481  0.0284  0.0297 -0.5472
 7302SOL    HW123347   4.038   1.469   7.454 -0.0747 -0.5838 -0.9057
 7302SOL    HW223348   4.185   1.492   7.428 -0.1578 -0.4794 -1.2921
 7303SOL     OW23349   6.323   5.780  11.763 -0.5523  0.4847 -0.1415
 7303SOL    HW123350   6.288   5.790  11.675 -3.1230  0.7352  0.8245
 7303SOL    HW223351   6.362   5.692  11.763  1.4023  1.2554 -2.0554
 7304SOL     OW23352   6.201   7.819   5.635 -0.1643  0.0984  0.3332
 7304SOL    HW123353   6.259   7.784   5.567  1.6974  0.0592  1.8445
 7304SOL    HW223354   6.261   7.844   5.706 -1.8653  1.8270  1.2416
 7305SOL     OW23355   4.803   2.288   8.589 -0.4711  0.1655  0.3588
 7305SOL    HW123356   4.863   2.356   8.557 -0.0469 -0.9576 -1.3431
 7305SOL    HW223357   4.728   2.292   8.530 -1.4086  0.5145  1.5317
 7306SOL     OW23358   3.943   5.491   8.323 -0.3294 -0.4669 -0.2047
 7306SOL    HW123359   3.953   5.416   8.382 -2.9548 -0.1218  0.8029
 7306SOL    HW223360   3.879   5.463   8.259 -1.6961  1.0125  0.4535
 7307SOL     OW23361   5.506   1.980   0.892 -0.1827  0.7945 -0.1230
 7307SOL    HW123362   5.552   2.036   0.955  0.6464  0.7860 -0.7126
 7307SOL    HW223363   5.574   1.921   0.859 -0.9660 -0.3403  0.2380
 7308SOL     OW23364   4.915   4.913   9.863 -0.6721  0.3275 -0.3581
 7308SOL    HW123365   4.956   4.890   9.780  1.5984  0.6302  0.6271
 7308SOL    HW223366   4.860   4.837   9.883 -0.3732 -0.2431 -1.5641
 7309SOL     OW23367   5.872   5.410   4.140 -0.0326  0.1742  0.2985
 7309SOL    HW123368   5.939   5.448   4.196  0.9442 -2.1503  0.8101
 7309SOL    HW223369   5.879   5.459   4.058  1.8891  0.3999  0.5492
 7310SOL     OW23370   0.309   1.368   7.967 -0.0241  0.4596 -0.0941
 7310SOL    HW123371   0.296   1.301   7.901 -0.4054  0.4783 -0.0370
 7310SOL    HW223372   0.232   1.363   8.023 -0.7070  1.8178 -0.8544
 7311SOL     OW23373   2.154   5.096  12.065  0.2773  0.1003  0.6316
 7311SOL    HW123374   2.160   5.167  12.001  2.0137  0.2109  0.8527
 7311SOL    HW223375   2.144   5.140  12.149 -1.3477 -0.0284  0.5391
 7312SOL     OW23376   2.944   7.011   8.872  0.2907 -0.2904 -0.0186
 7312SOL    HW123377   3.002   6.993   8.798 -0.1069 -0.2470 -0.3457
 7312SOL    HW223378   2.955   7.105   8.889  3.4099 -0.9296  2.5727
 7313SOL     OW23379   6.292   4.848   3.287 -0.1602 -0.1842 -0.3893
 7313SOL    HW123380   6.225   4.782   3.308  0.8187 -0.7096  1.3197
 7313SOL    HW223381   6.333   4.816   3.206 -2.4571  0.5914 -1.9473
 7314SOL     OW23382   6.454   3.689  12.275  0.0231  0.1187  0.5218
 7314SOL    HW123383   6.545   3.659  12.276  0.2540  0.7873  0.0009
 7314SOL    HW223384   6.424   3.674  12.185 -0.6506 -0.8606  0.8877
 7315SOL     OW23385   1.724   6.003   6.634 -0.5388  0.1145 -0.0249
 7315SOL    HW123386   1.715   5.912   6.661 -1.2508  0.5629  1.3857
 7315SOL    HW223387   1.652   6.017   6.572 -0.3345 -0.3238 -0.3622
 7316SOL     OW23388   5.901   2.605   4.517  0.0307  0.5294 -0.0246
 7316SOL    HW123389   5.888   2.630   4.608  0.7650  1.7373 -0.2391
 7316SOL    HW223390   5.814   2.610   4.478 -0.3794 -0.4858  0.7045
 7317SOL     OW23391   5.244   1.384   2.620  0.2975 -0.1104  0.0872
 7317SOL    HW123392   5.152   1.381   2.596  0.1299 -0.3417  0.7282
 7317SOL    HW223393   5.248   1.448   2.692  0.2277 -1.8520  1.7060
 7318SOL     OW23394   7.020   5.077  12.142 -0.4119  0.3220  0.1173
 7318SOL    HW123395   7.073   5.067  12.221  1.0832 -1.0335 -0.9947
 7318SOL    HW223396   7.036   5.166  12.113  1.4473 -0.1181 -0.2988
 7319SOL     OW23397   0.673   2.955   7.756  0.1360 -0.2549 -0.0298
 7319SOL    HW123398   0.687   2.974   7.664 -0.0487  0.3590  0.0613
 7319SOL    HW223399   0.743   2.895   7.780 -0.6258 -1.5281 -0.9075
 7320SOL     OW23400   6.696   3.853   2.401  0.7673  0.7929 -0.0463
 7320SOL    HW123401   6.614   3.868   2.448  0.1256  0.1384 -0.9228
 7320SOL    HW223402   6.669   3.822   2.314  1.9129  1.9373 -0.8625
 7321SOL     OW23403   0.952   5.711   6.110  0.3016 -0.3111 -0.6995
 7321SOL    HW123404   1.027   5.681   6.060 -1.3468 -0.9752 -2.9246
 7321SOL    HW223405   0.879   5.709   6.048 -1.6392  0.0064  1.4276
 7322SOL     OW23406   1.910   2.040  11.448 -0.5548 -0.4727  0.1098
 7322SOL    HW123407   1.977   2.006  11.508 -0.6957 -0.1295  0.4656
 7322SOL    HW223408   1.835   2.058  11.504 -0.5508  0.2346 -0.1034
 7323SOL     OW23409   1.469   5.157   2.806  0.4356 -0.0168  0.7596
 7323SOL    HW123410   1.476   5.194   2.894 -1.8731  1.9399  0.2338
 7323SOL    HW223411   1.388   5.105   2.809 -0.0506  0.6433 -0.3646
 7324SOL     OW23412   2.238   0.156  10.866 -0.4476 -0.0810  0.5178
 7324SOL    HW123413   2.327   0.127  10.846 -1.2368 -2.1373 -0.2801
 7324SOL    HW223414   2.214   0.108  10.945 -1.8791 -1.9546 -0.9662
 7325SOL     OW23415   7.800   2.296   4.594 -0.1753  0.0171  0.8065
 7325SOL    HW123416   7.817   2.305   4.687 -1.0104 -0.5135  1.0223
 7325SOL    HW223417   7.706   2.279   4.588  0.2422 -2.5171  0.0942
 7326SOL     OW23418   2.529   2.328   8.462  0.0283  0.2343 -0.0257
 7326SOL    HW123419   2.467   2.267   8.502 -1.2039  1.0609 -0.5934
 7326SOL    HW223420   2.615   2.290   8.480 -0.7012 -2.3620 -1.4072
 7327SOL     OW23421   7.305   7.508  10.536  0.4915 -0.0111  1.1189
 7327SOL    HW123422   7.267   7.473  10.455  1.2068 -0.1666  0.8366
 7327SOL    HW223423   7.400   7.500  10.522  0.7319  2.5036  0.8073
 7328SOL     OW23424   7.145   1.880   7.651 -0.2458 -0.3497 -0.0229
 7328SOL    HW123425   7.138   1.958   7.597  1.4516  0.4586  0.8747
 7328SOL    HW223426   7.129   1.808   7.590  0.6095  0.5746 -1.3920
 7329SOL     OW23427   5.801   2.301   1.873  0.2739 -0.0411 -0.2227
 7329SOL    HW123428   5.786   2.216   1.831  1.2843  0.6167 -2.0196
 7329SOL    HW223429   5.846   2.279   1.955  1.2176 -1.2238 -1.0166
 7330SOL     OW23430   1.515   3.257  11.140 -0.5701  0.6923  0.7249
 7330SOL    HW123431   1.520   3.351  11.119 -0.0480  0.6637  0.6962
 7330SOL    HW223432   1.470   3.218  11.065  1.8349  0.5022 -0.7268
 7331SOL     OW23433   6.100   5.057   7.964  0.3901 -0.3466 -0.0476
 7331SOL    HW123434   6.091   5.098   7.878  2.0000  0.9651  0.3631
 7331SOL    HW223435   6.010   5.036   7.990 -0.6035  3.1350 -0.2355
 7332SOL     OW23436   5.298   7.903   7.422  0.5814  0.2687 -0.0296
 7332SOL    HW123437   5.319   7.864   7.336  2.5296 -1.3613  1.0905
 7332SOL    HW223438   5.322   7.995   7.412  2.6552 -0.2809 -0.7219
 7333SOL     OW23439   3.511   6.427   6.333  0.1669  0.2653  0.0329
 7333SOL    HW123440   3.567   6.403   6.407 -1.2787 -0.1266  1.0347
 7333SOL    HW223441   3.442   6.361   6.332  0.2322  0.1711 -1.7892
 7334SOL     OW23442   6.465   3.869   0.884  0.0076 -0.1005 -0.1947
 7334SOL    HW123443   6.390   3.911   0.843 -0.7017 -0.9222  0.2460
 7334SOL    HW223444   6.500   3.936   0.943 -0.8699  0.0065  0.2097
 7335SOL     OW23445   4.541   7.506  10.033 -0.3426  0.0158  0.2740
 7335SOL    HW123446   4.489   7.580  10.066  1.5799  0.7711  1.8472
 7335SOL    HW223447   4.529   7.438  10.099 -0.5232 -0.3704 -0.1516
 7336SOL     OW23448   5.496   7.415   9.702  0.1526 -0.4996  0.0042
 7336SOL    HW123449   5.451   7.335   9.675  0.0119 -0.5676  0.4262
 7336SOL    HW223450   5.499   7.468   9.623 -1.0655 -0.3076  0.0631
 7337SOL     OW23451   1.483   2.224   0.687  0.4258 -0.2298  0.1208
 7337SOL    HW123452   1.510   2.162   0.619  0.9106 -0.5186  0.5740
 7337SOL    HW223453   1.463   2.305   0.639  1.3180 -0.2536 -0.3088
 7338SOL     OW23454   1.512   5.451   5.200 -0.0235 -0.0522 -0.1337
 7338SOL    HW123455   1.599   5.412   5.198  0.6056  1.3168 -2.0826
 7338SOL    HW223456   1.528   5.545   5.212 -1.0971  0.4211 -1.9525
 7339SOL     OW23457   4.573   2.223   4.833 -0.2271  0.2077 -0.6958
 7339SOL    HW123458   4.521   2.259   4.761 -0.6884  1.1829  0.0952
 7339SOL    HW223459   4.661   2.256   4.817  0.3175 -1.8776 -2.3263
 7340SOL     OW23460   3.527   7.053   1.625  0.3372 -0.0401  0.5009
 7340SOL    HW123461   3.432   7.049   1.618  0.3566  0.7576 -0.5794
 7340SOL    HW223462   3.545   7.038   1.717 -1.0154  2.1691  1.2114
 7341SOL     OW23463   1.073   4.241  10.869  0.5167 -0.3665 -0.0142
 7341SOL    HW123464   0.995   4.275  10.914  0.2629  1.1189 -1.5228
 7341SOL    HW223465   1.078   4.150  10.898 -0.9162 -0.0818  1.2797
 7342SOL     OW23466   3.778   5.682   6.959 -0.0512  0.0872 -0.1552
 7342SOL    HW123467   3.690   5.719   6.948 -0.1591 -0.0209  0.3191
 7342SOL    HW223468   3.803   5.705   7.048  0.6413  0.6078 -0.4765
 7343SOL     OW23469   3.069   3.759  11.659  0.1412  0.1223  0.5342
 7343SOL    HW123470   3.132   3.688  11.643 -1.8903 -2.4383  2.8145
 7343SOL    HW223471   3.112   3.814  11.725  1.6955  1.0753 -1.1663
 7344SOL     OW23472   2.897   5.156   7.023 -0.4078  0.1731 -0.4620
 7344SOL    HW123473   2.870   5.246   7.004  2.0770  1.2392  0.5951
 7344SOL    HW223474   2.865   5.140   7.112 -2.0770 -0.5817 -1.1498
 7345SOL     OW23475   0.132   3.690   7.401 -0.1361  0.0082 -0.0313
 7345SOL    HW123476   0.051   3.689   7.451  0.1315 -0.2467  0.4047
 7345SOL    HW223477   0.186   3.622   7.441  0.6245  0.7629  0.2441
 7346SOL     OW23478   6.234   7.655   7.845  0.3231 -0.4720  0.0396
 7346SOL    HW123479   6.170   7.621   7.782 -0.3487  1.1346 -0.1810
 7346SOL    HW223480   6.185   7.663   7.927  0.0036  1.3697 -0.2847
 7347SOL     OW23481   2.578   3.749  11.012  0.0729  0.2721  0.4113
 7347SOL    HW123482   2.562   3.837  11.045 -2.4185 -0.3166  0.9444
 7347SOL    HW223483   2.575   3.693  11.089  1.9502 -0.2971  0.1239
 7348SOL     OW23484   6.252   7.587   7.509  0.4918 -0.1369  0.2779
 7348SOL    HW123485   6.335   7.550   7.540  0.2224 -2.6439 -1.5976
 7348SOL    HW223486   6.188   7.559   7.574  0.7214 -0.6147  0.3073
 7349SOL     OW23487   1.750   5.141   7.730  0.2417  0.6799  0.1345
 7349SOL    HW123488   1.663   5.101   7.728  0.6217 -0.1211 -1.1732
 7349SOL    HW223489   1.733   5.235   7.728 -0.5943  0.5357  0.1400
 7350SOL     OW23490   4.309   5.411  11.137  0.5616 -0.3357 -0.0554
 7350SOL    HW123491   4.266   5.488  11.174 -0.5535 -0.9608 -0.0286
 7350SOL    HW223492   4.381   5.393  11.197 -1.2463 -1.3862  1.9269
 7351SOL     OW23493   1.799   4.023  10.961 -0.3397 -0.2856  0.0695
 7351SOL    HW123494   1.709   4.057  10.962 -0.0489  0.5106  1.4916
 7351SOL    HW223495   1.846   4.080  10.902 -0.9532 -1.2856 -1.4431
 7352SOL     OW23496   5.418   0.615  11.401  0.7773 -0.4750  0.3064
 7352SOL    HW123497   5.480   0.611  11.328 -1.3105 -0.9784 -1.5406
 7352SOL    HW223498   5.447   0.690  11.452  0.2302  2.3522 -3.1341
 7353SOL     OW23499   3.424   0.534  11.924 -0.0402 -0.3129 -0.0702
 7353SOL    HW123500   3.379   0.612  11.891 -1.2850 -0.5521  0.9879
 7353SOL    HW223501   3.484   0.510  11.853 -0.3508  1.0184 -0.8239
 7354SOL     OW23502   7.885   2.299  11.529  0.2580 -0.1448 -0.3748
 7354SOL    HW123503   7.830   2.254  11.593 -1.1784 -1.2921 -2.2751
 7354SOL    HW223504   7.930   2.228  11.484  0.0855  0.5001 -1.6029
 7355SOL     OW23505   3.412   2.256   4.526 -0.7000  0.9113 -0.0722
 7355SOL    HW123506   3.473   2.257   4.452 -1.0095  1.7530 -0.3312
 7355SOL    HW223507   3.462   2.291   4.599 -0.1899 -0.5439  0.3024
 7356SOL     OW23508   1.638   2.312   0.299 -0.2748 -0.0781  0.1237
 7356SOL    HW123509   1.712   2.257   0.276  0.0540 -1.1132  3.1993
 7356SOL    HW223510   1.668   2.402   0.285  1.3576 -0.5063  0.7380
 7357SOL     OW23511   7.213   0.972  12.056  0.0492  0.4842  0.4141
 7357SOL    HW123512   7.123   0.972  12.022  0.2942  3.6960 -0.5181
 7357SOL    HW223513   7.203   0.959  12.150 -1.7639  3.9046  0.8243
 7358SOL     OW23514   2.856   4.614   2.482 -0.4896  0.4023 -0.6863
 7358SOL    HW123515   2.860   4.697   2.433 -3.0408  0.5363 -0.7663
 7358SOL    HW223516   2.780   4.623   2.539 -0.9051 -1.9358 -0.7678
 7359SOL     OW23517   4.441   2.149   6.540  0.5288  0.6962  0.1939
 7359SOL    HW123518   4.537   2.146   6.541  0.5160 -0.2573 -0.5053
 7359SOL    HW223519   4.420   2.223   6.598  1.6511  0.4250  1.0065
 7360SOL     OW23520   6.558   3.782   6.035 -0.4335  0.3558  0.0535
 7360SOL    HW123521   6.558   3.698   5.988 -1.5498 -0.6527  1.7641
 7360SOL    HW223522   6.630   3.775   6.097  0.8376  1.5664 -1.1975
 7361SOL     OW23523   7.910   3.308   5.999 -0.2621 -0.3317  0.4351
 7361SOL    HW123524   7.845   3.361   5.953 -0.2362  0.4614  1.2770
 7361SOL    HW223525   7.963   3.372   6.048  1.5901 -0.8806 -0.7274
 7362SOL     OW23526   3.671   3.742   4.362 -0.7390 -0.1929  0.0996
 7362SOL    HW123527   3.660   3.717   4.454  2.0144 -0.9584  0.3272
 7362SOL    HW223528   3.625   3.673   4.313 -0.4459 -0.9694  0.8886
 7363SOL     OW23529   6.553   6.494  11.457 -0.4109  0.3404 -0.8094
 7363SOL    HW123530   6.462   6.466  11.451 -0.1589 -0.9072  0.5431
 7363SOL    HW223531   6.591   6.473  11.372 -1.0027 -0.6046 -0.8507
 7364SOL     OW23532   6.379   2.491   0.848 -0.0661 -0.1380 -0.3385
 7364SOL    HW123533   6.402   2.446   0.930 -1.1382  1.5551  0.9698
 7364SOL    HW223534   6.455   2.477   0.791  0.0597 -2.6728  0.3391
 7365SOL     OW23535   2.667   7.513   5.083 -0.6051  0.2580 -0.4242
 7365SOL    HW123536   2.611   7.564   5.025  1.5337  0.3353 -2.5618
 7365SOL    HW223537   2.697   7.440   5.029  0.2404 -0.5702  1.0956
 7366SOL     OW23538   2.753   0.006   0.980  0.4353  0.2767 -0.2349
 7366SOL    HW123539   2.759   0.089   1.027 -0.0736  1.8273 -2.7164
 7366SOL    HW223540   2.661  -0.000   0.955  0.3182 -1.4207  0.4690
 7367SOL     OW23541   7.750   0.283   7.271 -0.2119  1.1021  0.3023
 7367SOL    HW123542   7.814   0.217   7.297 -3.0952 -1.3429  1.8454
 7367SOL    HW223543   7.738   0.271   7.177  0.3903  0.4789  0.3010
 7368SOL     OW23544   0.494   5.997   4.865  0.1279 -0.0725 -0.2845
 7368SOL    HW123545   0.478   5.930   4.798  1.0523 -0.0466 -0.5495
 7368SOL    HW223546   0.432   6.067   4.844  0.7691  0.1780 -1.4717
 7369SOL     OW23547   3.896   1.211   2.315 -0.4663 -0.0971  0.1302
 7369SOL    HW123548   3.962   1.142   2.306  0.7916  0.9644  0.9073
 7369SOL    HW223549   3.844   1.184   2.391 -0.4050 -0.5191  0.0267
 7370SOL     OW23550   0.050   1.727   2.028 -0.0573 -0.1739 -0.3739
 7370SOL    HW123551   0.102   1.655   2.063 -0.7745 -0.1269  0.8430
 7370SOL    HW223552   0.085   1.805   2.071 -1.0017 -0.1244  0.3397
 7371SOL     OW23553   3.469   5.171   2.375  0.2214 -0.3524 -0.5113
 7371SOL    HW123554   3.536   5.129   2.429  1.8411  0.0246 -2.1270
 7371SOL    HW223555   3.412   5.099   2.347 -0.4175 -0.6081  1.2866
 7372SOL     OW23556   7.481   2.536   8.901  0.0031 -0.0199 -0.8172
 7372SOL    HW123557   7.448   2.624   8.883 -1.0717  0.0215  1.0742
 7372SOL    HW223558   7.410   2.478   8.873  0.5113 -0.2838 -1.6050
 7373SOL     OW23559   7.381   1.778   3.903 -0.2605  0.0594 -0.3901
 7373SOL    HW123560   7.451   1.714   3.896 -0.2342  0.0666 -0.2026
 7373SOL    HW223561   7.324   1.745   3.973 -0.9517 -0.4289 -1.1610
 7374SOL     OW23562   2.053   1.871   9.848 -0.1731 -0.4120 -0.0075
 7374SOL    HW123563   2.141   1.897   9.822 -0.2952 -1.4298 -1.5777
 7374SOL    HW223564   2.062   1.846   9.940  1.6072 -2.2381 -0.5999
 7375SOL     OW23565   7.723   0.056   1.331  0.1975  0.4725  0.4036
 7375SOL    HW123566   7.637   0.068   1.291  0.2193  1.1513  0.5496
 7375SOL    HW223567   7.756   0.145   1.345  0.8804  0.2226  0.4404
 7376SOL     OW23568   5.153   4.649   0.321 -0.4563  0.0525 -0.6186
 7376SOL    HW123569   5.151   4.701   0.240 -3.2130 -1.3978 -1.6083
 7376SOL    HW223570   5.070   4.668   0.364  0.2725 -0.4644  1.0795
 7377SOL     OW23571   4.949   1.646  12.142 -0.5167  1.2181 -0.4462
 7377SOL    HW123572   4.910   1.728  12.112 -1.0595  0.5132 -1.7679
 7377SOL    HW223573   5.024   1.633  12.085 -0.9508  0.3648 -0.8423
 7378SOL     OW23574   2.733   6.884   4.030  0.0583  0.0506 -0.3464
 7378SOL    HW123575   2.722   6.836   4.112 -1.5452 -0.7964 -1.0224
 7378SOL    HW223576   2.662   6.948   4.030  1.9479  2.3075  0.3793
 7379SOL     OW23577   2.309   7.657   0.623  0.0768  0.0714 -0.6320
 7379SOL    HW123578   2.370   7.605   0.675 -0.2224 -0.8101 -1.1571
 7379SOL    HW223579   2.237   7.598   0.604 -0.5668  0.8689 -0.7004
 7380SOL     OW23580   7.821   0.254  11.542  0.3316 -0.4982 -0.0700
 7380SOL    HW123581   7.915   0.246  11.556  0.4595  0.2241 -0.4825
 7380SOL    HW223582   7.781   0.206  11.616  1.0118 -0.5657  0.2566
 7381SOL     OW23583   2.415   4.147   3.350  0.2172  0.0351 -0.0212
 7381SOL    HW123584   2.374   4.066   3.379  1.1352 -1.2378 -2.0510
 7381SOL    HW223585   2.454   4.183   3.430  0.2891 -1.8317  0.8540
 7382SOL     OW23586   4.790   1.157   6.647  0.1206  0.0395 -0.4019
 7382SOL    HW123587   4.727   1.222   6.676  0.4203  0.3860 -0.5079
 7382SOL    HW223588   4.825   1.193   6.565  1.8007  0.7922  0.5686
 7383SOL     OW23589   5.155   7.857   7.009  0.5149  0.2590 -0.0614
 7383SOL    HW123590   5.216   7.796   7.051  0.0603 -0.7123 -0.7637
 7383SOL    HW223591   5.069   7.831   7.040  0.2750  0.2561 -0.7020
 7384SOL     OW23592   4.656   5.782   2.771 -0.2101 -0.1186 -0.1682
 7384SOL    HW123593   4.573   5.772   2.817 -0.8161  0.7041 -1.0593
 7384SOL    HW223594   4.633   5.819   2.685  1.1070  0.5561 -0.2661
 7385SOL     OW23595   0.028   4.155   4.941 -0.2883  0.0345  0.2698
 7385SOL    HW123596   0.105   4.101   4.958 -0.6164 -0.1027  1.3823
 7385SOL    HW223597  -0.013   4.166   5.026 -1.2505  0.4974 -0.2367
 7386SOL     OW23598   4.093   1.623   0.234 -0.0806  0.0952  0.0848
 7386SOL    HW123599   4.052   1.708   0.250 -0.6580 -0.0658 -0.5010
 7386SOL    HW223600   4.080   1.574   0.316  0.4565  0.6434  0.5038
 7387SOL     OW23601   4.711   2.898   0.757  0.0776  0.4627 -0.3025
 7387SOL    HW123602   4.763   2.898   0.677 -0.6671  1.8316 -0.8284
 7387SOL    HW223603   4.632   2.947   0.734 -0.7730 -0.2807  0.8923
 7388SOL     OW23604   1.145   3.945  10.481 -0.0668 -0.2448 -0.2859
 7388SOL    HW123605   1.210   3.922  10.547 -1.1777 -1.2287  0.5312
 7388SOL    HW223606   1.097   4.019  10.519 -0.6729 -0.7790  0.0237
 7389SOL     OW23607   7.898   6.522  12.309 -0.6986  0.8119  0.7264
 7389SOL    HW123608   7.939   6.551  12.228 -1.0632 -0.2030  0.1474
 7389SOL    HW223609   7.828   6.585  12.324 -0.6392  1.0052  0.2364
 7390SOL     OW23610   3.723   1.479   5.226 -0.6254 -0.1750 -0.0977
 7390SOL    HW123611   3.777   1.481   5.146 -1.7557  0.6790 -0.8753
 7390SOL    HW223612   3.742   1.562   5.269  0.2185 -0.7665  0.7228
 7391SOL     OW23613   7.612   1.162   6.600 -0.4007 -0.0692  0.6682
 7391SOL    HW123614   7.604   1.069   6.583 -0.4168 -0.0097  0.3538
 7391SOL    HW223615   7.700   1.185   6.570 -0.7234  0.1962 -0.0784
 7392SOL     OW23616   6.663   7.629   6.942 -0.2364 -0.1120  0.1743
 7392SOL    HW123617   6.719   7.694   6.985  0.8172  1.4517 -3.1867
 7392SOL    HW223618   6.723   7.559   6.916 -0.5329 -0.2315 -0.1940
 7393SOL     OW23619   7.595   5.795   0.899  0.1006  0.0985  0.1909
 7393SOL    HW123620   7.590   5.765   0.808  0.1216 -0.4245  0.3555
 7393SOL    HW223621   7.514   5.762   0.939 -0.0384  0.5633  0.2951
 7394SOL     OW23622   6.094   6.373   8.381  0.0514  0.0873 -0.1565
 7394SOL    HW123623   6.107   6.287   8.343  1.6908 -0.3924  1.3510
 7394SOL    HW223624   6.159   6.379   8.452  0.3097  2.7222 -0.4886
 7395SOL     OW23625   7.065   1.495  12.175 -0.3358  0.1467  0.7726
 7395SOL    HW123626   6.993   1.533  12.225  0.0200  0.2305  1.2235
 7395SOL    HW223627   7.107   1.434  12.236 -0.8535 -0.9197  0.0904
 7396SOL     OW23628   1.199   3.893   0.021 -0.8704  0.1952 -0.0772
 7396SOL    HW123629   1.134   3.936  -0.035  1.3195  2.3019 -1.1875
 7396SOL    HW223630   1.156   3.886   0.106 -2.4850  1.7692 -0.6872
 7397SOL     OW23631   0.370   2.233  12.257 -0.0785  0.3825 -0.5739
 7397SOL    HW123632   0.446   2.281  12.224  1.8270 -1.3832  0.9946
 7397SOL    HW223633   0.332   2.290  12.323  1.2551  0.3839  0.2177
 7398SOL     OW23634   0.913   1.654   0.398 -0.5309  0.2100 -0.1475
 7398SOL    HW123635   0.900   1.697   0.314 -0.6833 -0.4461 -0.4715
 7398SOL    HW223636   0.857   1.577   0.394  0.2119 -0.3653  0.1558
 7399SOL     OW23637   4.544   7.123   5.507 -0.0447 -0.0908  0.3993
 7399SOL    HW123638   4.562   7.032   5.528 -0.6645 -0.2860  0.0896
 7399SOL    HW223639   4.453   7.124   5.478 -0.9146  1.0049  2.8309
 7400SOL     OW23640   3.008   3.418   7.170 -0.4578 -0.7396  0.3905
 7400SOL    HW123641   3.010   3.472   7.249  0.0959 -1.5255  0.9203
 7400SOL    HW223642   3.004   3.482   7.098 -0.2387 -0.0017  1.0128
 7401SOL     OW23643   0.449   4.349   4.822 -0.5346  0.3361  0.2601
 7401SOL    HW123644   0.490   4.431   4.796 -1.4049  0.6549 -0.1249
 7401SOL    HW223645   0.510   4.311   4.886 -0.6435  1.8003  1.2764
 7402SOL     OW23646   5.400   2.561   0.624  0.1246 -0.1983  0.1280
 7402SOL    HW123647   5.391   2.649   0.587  2.4671 -1.0097 -2.6721
 7402SOL    HW223648   5.413   2.576   0.718 -2.5699  2.1695  0.2699
 7403SOL     OW23649   0.393   4.694   1.611 -0.0150  0.0182 -0.7661
 7403SOL    HW123650   0.480   4.658   1.626  0.4133  0.7207 -1.5099
 7403SOL    HW223651   0.346   4.677   1.693  0.9638  0.0793 -0.1740
 7404SOL     OW23652   2.365   4.308   6.633 -0.3603 -0.5893 -0.3719
 7404SOL    HW123653   2.352   4.372   6.703  1.1662 -1.7925  1.0882
 7404SOL    HW223654   2.320   4.346   6.558 -2.9202  0.3241  1.4723
 7405SOL     OW23655   0.581   5.741   8.020 -0.1082 -0.1227 -0.1559
 7405SOL    HW123656   0.625   5.690   8.089 -0.1896 -0.9106 -0.6697
 7405SOL    HW223657   0.512   5.682   7.988 -0.4185  0.4441 -0.5451
 7406SOL     OW23658   0.333   5.228   0.529  0.1289 -0.5473 -0.3464
 7406SOL    HW123659   0.278   5.194   0.458 -1.4612 -1.4881  1.2512
 7406SOL    HW223660   0.352   5.318   0.503 -0.7560 -0.7362 -1.7774
 7407SOL     OW23661   1.485   3.766   7.036  0.0607  0.1312  0.0533
 7407SOL    HW123662   1.453   3.833   6.976 -0.3387 -0.3067 -0.2233
 7407SOL    HW223663   1.580   3.781   7.041 -0.1016  1.0962  0.4607
 7408SOL     OW23664   4.063   5.133  12.127  0.0820  1.1055 -0.2439
 7408SOL    HW123665   4.077   5.107  12.036 -1.9004 -2.2711  0.2451
 7408SOL    HW223666   4.134   5.195  12.145  2.6468 -0.6856 -3.0911
 7409SOL     OW23667   7.325   0.441  11.343 -0.3715  0.0072 -0.4298
 7409SOL    HW123668   7.304   0.387  11.420  0.6406  1.3474  0.8254
 7409SOL    HW223669   7.240   0.459  11.303 -1.1918  1.0839  1.6340
 7410SOL     OW23670   3.178   3.168   2.709  0.6327 -0.3386 -1.2083
 7410SOL    HW123671   3.198   3.232   2.641 -1.1690  0.7735 -0.7627
 7410SOL    HW223672   3.253   3.170   2.768  0.1350  2.3207 -0.5294
 7411SOL     OW23673   5.460   2.105   3.490  0.3993 -0.3763 -0.1319
 7411SOL    HW123674   5.553   2.100   3.509  0.0373  0.2632  2.1270
 7411SOL    HW223675   5.429   2.180   3.541 -1.3892 -0.6946 -0.6706
 7412SOL     OW23676   7.248   6.106   4.677 -0.3281  0.5286  0.1228
 7412SOL    HW123677   7.256   6.049   4.601  0.7006  0.4337  0.2900
 7412SOL    HW223678   7.283   6.054   4.749 -1.9939  0.3164  0.8352
 7413SOL     OW23679   6.144   6.095   9.221 -0.4923  0.1250 -0.0921
 7413SOL    HW123680   6.053   6.112   9.244 -0.5221  0.7268 -0.6342
 7413SOL    HW223681   6.138   6.039   9.143 -0.4056  0.8017 -0.5908
 7414SOL     OW23682   5.579   3.678  10.558  0.0787 -0.2206  0.2456
 7414SOL    HW123683   5.486   3.683  10.577 -0.1572 -0.5946 -0.7838
 7414SOL    HW223684   5.590   3.727  10.476  1.1347  1.7183  1.4495
 7415SOL     OW23685   5.404   0.270  11.630  0.3711  0.3764  0.0983
 7415SOL    HW123686   5.436   0.180  11.634 -0.9895 -0.1309  0.2951
 7415SOL    HW223687   5.482   0.324  11.637  1.1377 -0.7908  0.9610
 7416SOL     OW23688   6.469   7.149   7.847  0.5526 -0.1503  0.6180
 7416SOL    HW123689   6.453   7.122   7.757  1.3243  1.5122 -0.0437
 7416SOL    HW223690   6.514   7.073   7.886 -0.6290 -1.2572 -0.0827
 7417SOL     OW23691   0.722   4.254   6.081  0.0237 -0.5458  0.2680
 7417SOL    HW123692   0.753   4.342   6.101 -0.5002  0.3266 -2.3971
 7417SOL    HW223693   0.643   4.244   6.134 -1.3987  1.6885 -1.2555
 7418SOL     OW23694   1.216   3.490   9.348  0.5714 -0.0380  0.5811
 7418SOL    HW123695   1.281   3.540   9.298 -1.9654  1.7456 -1.2164
 7418SOL    HW223696   1.134   3.538   9.336 -1.3310 -2.6555  1.9254
 7419SOL     OW23697   1.999   0.489   4.928 -0.0875 -0.6331  0.3855
 7419SOL    HW123698   1.973   0.581   4.928 -1.0928 -0.8943 -0.6856
 7419SOL    HW223699   2.064   0.482   4.998 -1.0125  0.6079  1.4098
 7420SOL     OW23700   3.885   4.765   9.162 -0.2223 -0.1569  0.2162
 7420SOL    HW123701   3.838   4.848   9.161 -0.5122 -0.0662  4.1867
 7420SOL    HW223702   3.833   4.709   9.220  0.6642 -2.7070 -1.2885
 7421SOL     OW23703   2.536   1.725   0.127 -0.0877  0.2289  0.0559
 7421SOL    HW123704   2.452   1.695   0.093 -0.5651  2.2590 -0.7104
 7421SOL    HW223705   2.593   1.648   0.121 -1.2517 -0.5745 -1.6373
 7422SOL     OW23706   0.835   7.749   9.038 -0.1776  0.1941  0.5588
 7422SOL    HW123707   0.777   7.677   9.015  0.0460  0.0624  0.3937
 7422SOL    HW223708   0.833   7.806   8.961 -0.5526  0.4944  0.7901
 7423SOL     OW23709   6.602   7.596   6.649 -0.0670  0.0061 -0.4404
 7423SOL    HW123710   6.508   7.610   6.649 -0.1784 -0.4672  1.4737
 7423SOL    HW223711   6.617   7.533   6.720  1.5341 -1.1395 -1.7017
 7424SOL     OW23712   4.693   0.172   7.466  0.1988  0.6991  0.0717
 7424SOL    HW123713   4.648   0.212   7.392 -0.0145 -0.7472 -0.6047
 7424SOL    HW223714   4.681   0.234   7.538 -2.0348  0.8293 -0.3472
 7425SOL     OW23715   7.724   0.056   9.327 -0.2611 -0.2365  0.6720
 7425SOL    HW123716   7.721  -0.029   9.371 -0.3040 -0.9332 -0.6029
 7425SOL    HW223717   7.707   0.120   9.396 -0.9665 -1.3081  1.5363
 7426SOL     OW23718   1.903   1.464   7.300 -0.0579  0.2318 -0.5247
 7426SOL    HW123719   1.846   1.398   7.263 -0.7810 -0.7350  2.0797
 7426SOL    HW223720   1.845   1.519   7.353  1.1469  0.1392  0.9809
 7427SOL     OW23721   3.955   1.236   1.263 -0.5172  0.2667 -0.0665
 7427SOL    HW123722   3.871   1.207   1.296 -0.7644  1.0918  0.0567
 7427SOL    HW223723   3.933   1.294   1.190 -0.0742  0.7384  0.1664
 7428SOL     OW23724   7.824   1.962   1.992  0.1474 -0.6482 -0.3285
 7428SOL    HW123725   7.908   1.987   1.955  1.0253 -1.7020  0.8879
 7428SOL    HW223726   7.845   1.921   2.076 -1.3879 -2.8490 -0.9171
 7429SOL     OW23727   0.612   7.390   2.739  0.1929 -0.1829 -0.2644
 7429SOL    HW123728   0.698   7.404   2.778 -0.9940  1.9816  1.8689
 7429SOL    HW223729   0.596   7.469   2.687  0.0194 -1.2004 -1.8292
 7430SOL     OW23730   3.295   0.865  12.374 -0.5081  0.4086  0.7984
 7430SOL    HW123731   3.219   0.909  12.335 -0.7594  1.4983  2.4383
 7430SOL    HW223732   3.272   0.854  12.466  0.1984 -1.8269  0.7734
 7431SOL     OW23733   4.720   0.301   8.661  0.0591 -0.0310 -0.1633
 7431SOL    HW123734   4.802   0.273   8.621 -0.1754 -0.5911 -0.2599
 7431SOL    HW223735   4.742   0.320   8.752  0.7403  1.8784 -0.6685
 7432SOL     OW23736   7.719   4.556   6.856  0.2192 -0.5476 -0.0088
 7432SOL    HW123737   7.812   4.577   6.864 -0.1858  1.1359  0.6597
 7432SOL    HW223738   7.700   4.498   6.929  0.5012  0.0667  0.5582
 7433SOL     OW23739   6.048   6.244   9.515  0.3531 -0.3463 -0.5099
 7433SOL    HW123740   5.977   6.243   9.451  0.3507  1.3110 -0.5608
 7433SOL    HW223741   6.121   6.285   9.469  0.4135  0.6880  0.4551
 7434SOL     OW23742   0.326   0.898   7.037 -0.6181  0.0078  0.2537
 7434SOL    HW123743   0.286   0.833   6.979 -0.3958  1.4673 -1.6509
 7434SOL    HW223744   0.412   0.861   7.058 -0.4345 -0.2985 -0.9220
 7435SOL     OW23745   0.271   1.120   6.832  0.2157 -0.0767 -0.2836
 7435SOL    HW123746   0.354   1.166   6.826  0.6184 -0.7300  0.1764
 7435SOL    HW223747   0.292   1.037   6.875 -1.1246  0.8522  2.3994
 7436SOL     OW23748   5.963   1.941   7.388 -0.4745 -0.1660  0.2749
 7436SOL    HW123749   5.957   2.037   7.383  0.1486 -0.1257  0.1851
 7436SOL    HW223750   5.873   1.911   7.376 -0.3636  0.2827 -2.2056
 7437SOL     OW23751   1.287   1.354  10.543 -0.4558 -0.1268  0.3178
 7437SOL    HW123752   1.261   1.446  10.543  0.9385  0.2952  0.0300
 7437SOL    HW223753   1.338   1.343  10.623 -1.2966 -0.8840  0.7779
 7438SOL     OW23754   0.656   4.717  11.813 -0.2928  0.1343 -0.3646
 7438SOL    HW123755   0.627   4.791  11.867 -0.8976  1.6114 -2.5791
 7438SOL    HW223756   0.575   4.675  11.784  0.0298 -0.7591 -0.0048
 7439SOL     OW23757   0.990   1.759   3.897  0.4651  0.4564  0.1621
 7439SOL    HW123758   0.996   1.853   3.879  0.4915  0.5868  0.8207
 7439SOL    HW223759   0.942   1.723   3.823  0.8881  0.9126 -0.3453
 7440SOL     OW23760   6.270   6.907  12.252 -0.1543  0.3294  0.5731
 7440SOL    HW123761   6.295   6.952  12.172  0.3338  1.7945  1.5149
 7440SOL    HW223762   6.340   6.843  12.265 -0.3259 -0.0381 -0.2415
 7441SOL     OW23763   0.526   3.314   9.761 -0.1856 -0.3752 -0.1986
 7441SOL    HW123764   0.597   3.261   9.796 -1.4093 -1.5061  0.6628
 7441SOL    HW223765   0.528   3.395   9.813 -0.0049 -0.7130  0.3238
 7442SOL     OW23766   7.257   2.653   0.228 -0.3996  0.0355 -0.5480
 7442SOL    HW123767   7.228   2.598   0.301 -0.4473  0.0889 -0.5264
 7442SOL    HW223768   7.176   2.686   0.189 -0.3569  0.6389 -0.1359
 7443SOL     OW23769   4.050   4.853  11.453  0.0588 -0.3869 -0.0403
 7443SOL    HW123770   4.069   4.925  11.514 -1.2430  0.8287 -1.0155
 7443SOL    HW223771   4.129   4.846  11.400  0.1458  0.4445 -0.0416
 7444SOL     OW23772   6.810   6.199   1.052  0.2146  0.2400  0.1405
 7444SOL    HW123773   6.781   6.138   0.983  1.2020  0.6115 -0.6304
 7444SOL    HW223774   6.730   6.244   1.078 -0.1536  0.2718 -0.9618
 7445SOL     OW23775   0.051   6.265   1.581  0.2832 -0.2734  0.1202
 7445SOL    HW123776   0.107   6.190   1.602  0.0953 -0.4418  0.0203
 7445SOL    HW223777   0.001   6.237   1.504  0.1546 -0.0777  0.1332
 7446SOL     OW23778   5.588   1.004   6.039  0.1579  0.1517  0.3374
 7446SOL    HW123779   5.520   0.955   6.086  1.4412 -2.0133  0.0927
 7446SOL    HW223780   5.627   1.061   6.106 -1.6494  1.2290  0.5350
 7447SOL     OW23781   3.927   5.666  12.318  0.5037  0.0840 -0.0242
 7447SOL    HW123782   3.873   5.610  12.374  0.0828  0.4710 -0.0364
 7447SOL    HW223783   4.015   5.629  12.325  0.2397 -0.5584 -0.0033
 7448SOL     OW23784   1.607   3.473  12.234 -0.1718  0.1404 -0.4914
 7448SOL    HW123785   1.557   3.528  12.175  0.3999 -0.6955 -1.8086
 7448SOL    HW223786   1.663   3.533  12.282  0.1405  0.7467 -1.5957
 7449SOL     OW23787   7.281   1.740  10.366 -0.2920 -0.7659  0.6097
 7449SOL    HW123788   7.215   1.706  10.305 -0.3222 -2.3136  1.4767
 7449SOL    HW223789   7.345   1.784  10.309 -2.2899  1.2896 -0.2177
 7450SOL     OW23790   2.756   7.205  11.103  0.0173  0.7925  0.0113
 7450SOL    HW123791   2.725   7.153  11.028  1.4474  1.1242 -0.8463
 7450SOL    HW223792   2.725   7.294  11.085 -0.0648  0.7759  0.0696
 7451SOL     OW23793   6.873   0.099   9.351  0.7794 -0.8198  0.2044
 7451SOL    HW123794   6.956   0.081   9.395  0.6771 -0.0088  0.7578
 7451SOL    HW223795   6.892   0.171   9.292  0.3086 -0.1062  0.9009
 7452SOL     OW23796   0.907   5.035   1.685 -0.0723  0.5238  0.0612
 7452SOL    HW123797   0.957   5.101   1.637  0.2612  1.0311  1.0743
 7452SOL    HW223798   0.956   4.953   1.672 -0.6231  0.4007 -1.4011
 7453SOL     OW23799   6.507   0.518   3.998  0.1741 -0.1673  0.2867
 7453SOL    HW123800   6.458   0.453   4.050 -0.9484 -0.8897 -1.5802
 7453SOL    HW223801   6.539   0.581   4.063 -2.1552 -0.3730  1.7588
 7454SOL     OW23802   5.098   2.222   6.477 -0.4133 -0.8070  0.2380
 7454SOL    HW123803   5.015   2.258   6.509 -0.3469  0.5482 -1.0351
 7454SOL    HW223804   5.152   2.212   6.556 -1.1688 -0.0898  0.8640
 7455SOL     OW23805   2.507   1.172   2.053  0.2906  0.1542 -0.2639
 7455SOL    HW123806   2.464   1.228   2.117 -0.8271 -0.8980 -0.0576
 7455SOL    HW223807   2.492   1.216   1.969 -2.0358 -0.6267 -0.3164
 7456SOL     OW23808   0.437   7.119  12.213 -0.7531  0.0125  0.3838
 7456SOL    HW123809   0.500   7.166  12.158 -0.2818 -0.2349  0.7054
 7456SOL    HW223810   0.354   7.163  12.196 -0.6380 -0.1184 -0.6017
 7457SOL     OW23811   3.980   1.865   8.168 -0.4076  0.2484  0.6525
 7457SOL    HW123812   3.966   1.934   8.104 -1.7836  0.3033  0.9834
 7457SOL    HW223813   4.046   1.900   8.228  0.4988  0.4002 -0.4090
 7458SOL     OW23814   6.513   4.463   0.766  0.4022  0.6352  0.4047
 7458SOL    HW123815   6.548   4.375   0.756 -0.3893  0.1290  1.8611
 7458SOL    HW223816   6.423   4.451   0.796 -0.0112  1.9437 -0.1930
 7459SOL     OW23817   5.876   2.118   4.122 -0.7465 -0.2833 -0.5553
 7459SOL    HW123818   5.918   2.107   4.036 -0.2925  0.6876 -0.4678
 7459SOL    HW223819   5.944   2.093   4.185 -1.4763 -2.2788 -0.4588
 7460SOL     OW23820   5.454   5.461   9.364  0.5809  0.1721 -0.9454
 7460SOL    HW123821   5.376   5.450   9.310  0.2838  1.6764 -0.8804
 7460SOL    HW223822   5.511   5.388   9.341 -1.1158 -1.3616 -0.4952
 7461SOL     OW23823   3.721   1.238   5.500  0.0294 -0.4057 -0.1583
 7461SOL    HW123824   3.716   1.324   5.459  0.0540 -0.3530 -0.0505
 7461SOL    HW223825   3.630   1.216   5.521 -0.1027 -0.8594 -1.1192
 7462SOL     OW23826   5.971   1.365   5.619 -0.0184  0.3820 -0.0173
 7462SOL    HW123827   6.062   1.391   5.616  0.5064 -0.6624  2.8883
 7462SOL    HW223828   5.932   1.421   5.687 -1.6563  0.9719 -1.3466
 7463SOL     OW23829   6.825   7.752  10.102 -0.2416 -0.1407  0.0584
 7463SOL    HW123830   6.750   7.804  10.071  0.7441  2.3370  1.5623
 7463SOL    HW223831   6.809   7.742  10.196  0.0710 -1.8486 -0.0465
 7464SOL     OW23832   6.802   4.467   3.104 -0.1892  0.3473  0.0615
 7464SOL    HW123833   6.774   4.548   3.061  0.0346  0.0971 -0.5595
 7464SOL    HW223834   6.751   4.464   3.184  0.3248  1.4888  0.4618
 7465SOL     OW23835   4.036   5.303   1.379  0.1723  0.3253  0.1911
 7465SOL    HW123836   3.992   5.388   1.378 -0.2934  0.1179  1.5100
 7465SOL    HW223837   3.965   5.240   1.383  0.3941 -0.2887 -2.8348
 7466SOL     OW23838   3.663   1.935   4.612 -0.0110 -0.4472  0.2042
 7466SOL    HW123839   3.714   1.904   4.687 -1.2044 -1.8251  0.4675
 7466SOL    HW223840   3.702   2.020   4.591  1.7460 -0.9975  1.0137
 7467SOL     OW23841   2.925   3.554   0.760 -0.5169 -0.0583  0.0812
 7467SOL    HW123842   2.931   3.458   0.766  1.7249  0.0312  0.0934
 7467SOL    HW223843   2.956   3.574   0.671  0.3703  0.7160  0.5512
 7468SOL     OW23844   5.324   7.468  11.500 -0.1192  0.2334  0.3438
 7468SOL    HW123845   5.252   7.431  11.449 -0.5578  1.3347  0.1288
 7468SOL    HW223846   5.350   7.398  11.560 -2.0681  0.1465  1.1518
 7469SOL     OW23847   5.551   4.593   0.547 -0.2011  0.2534 -0.0016
 7469SOL    HW123848   5.491   4.544   0.603  0.2438 -0.3785 -0.0660
 7469SOL    HW223849   5.591   4.657   0.606 -0.4844  0.2737  0.1749
 7470SOL     OW23850   3.319   0.902   4.162  1.3783 -0.2685  0.9372
 7470SOL    HW123851   3.297   0.993   4.180 -0.3311 -0.2102 -0.9726
 7470SOL    HW223852   3.366   0.905   4.078 -2.3543 -1.2936 -1.4512
 7471SOL     OW23853   5.826   2.338   5.724 -0.2015  0.3579 -0.5471
 7471SOL    HW123854   5.791   2.295   5.646 -0.0677 -0.0354 -0.3945
 7471SOL    HW223855   5.919   2.317   5.723 -0.1658  0.5052 -0.3773
 7472SOL     OW23856   1.631   5.911   1.852  0.5046  0.0820 -0.0313
 7472SOL    HW123857   1.629   5.926   1.758  0.9549  0.0639 -0.0463
 7472SOL    HW223858   1.623   5.816   1.861 -1.3197  0.1995  0.0254
 7473SOL     OW23859   2.986   5.121   9.161 -0.3567 -0.3493  0.7730
 7473SOL    HW123860   2.921   5.056   9.189 -0.9666  0.5186  1.4343
 7473SOL    HW223861   3.011   5.167   9.241  0.7509 -0.3689  0.4515
 7474SOL     OW23862   1.817   0.563   1.104 -0.1733 -0.4427 -0.4878
 7474SOL    HW123863   1.805   0.651   1.069  0.4823  0.1428  0.6747
 7474SOL    HW223864   1.735   0.544   1.150 -0.4544 -0.5889 -1.0492
 7475SOL     OW23865   1.869   6.401   9.772  0.1133  0.5649  0.1938
 7475SOL    HW123866   1.850   6.439   9.686  1.2210  0.3630 -0.1646
 7475SOL    HW223867   1.965   6.403   9.778  0.2086 -1.7080  0.3549
 7476SOL     OW23868   4.213   7.847   9.017 -0.5373  0.1748 -0.6812
 7476SOL    HW123869   4.174   7.868   9.102 -1.9545  0.6900 -1.4305
 7476SOL    HW223870   4.248   7.931   8.985 -1.5297  0.3402 -1.3548
 7477SOL     OW23871   6.540   5.751   8.292 -0.3656 -0.0671 -0.4893
 7477SOL    HW123872   6.446   5.740   8.302 -0.3607 -0.2684 -0.6286
 7477SOL    HW223873   6.574   5.762   8.381 -0.7149  1.7616 -0.5491
 7478SOL     OW23874   1.129   2.799   8.827 -0.2903  0.2184  0.3394
 7478SOL    HW123875   1.161   2.827   8.741  0.0920  0.3790  0.5291
 7478SOL    HW223876   1.142   2.705   8.829  0.3512  0.3049  0.4815
 7479SOL     OW23877   6.695   0.684   6.511  0.2456  0.9692 -0.2682
 7479SOL    HW123878   6.779   0.689   6.464  0.7570 -1.1402  0.3134
 7479SOL    HW223879   6.711   0.731   6.593  0.6839  1.0284 -0.3828
 7480SOL     OW23880   3.625   0.735   8.641 -0.3437 -0.2771  0.4713
 7480SOL    HW123881   3.697   0.689   8.685 -0.9985 -0.1970  1.6689
 7480SOL    HW223882   3.663   0.817   8.612  0.4931 -0.9768 -0.4800
 7481SOL     OW23883   2.296   3.026   5.764 -0.0172 -0.0729 -0.0857
 7481SOL    HW123884   2.242   3.044   5.840 -0.5799 -1.9448 -0.0001
 7481SOL    HW223885   2.370   2.976   5.798  0.7865  0.7741 -0.5054
 7482SOL     OW23886   6.038   5.409   5.801 -0.7193 -0.8112  0.3269
 7482SOL    HW123887   6.030   5.455   5.885 -1.4446  1.2762 -0.8351
 7482SOL    HW223888   6.132   5.410   5.782 -0.8245  1.5723 -0.3590
 7483SOL     OW23889   1.221   1.621  10.223  0.1216  0.3455  0.0094
 7483SOL    HW123890   1.191   1.651  10.137  0.6282  0.1918 -0.2255
 7483SOL    HW223891   1.150   1.644  10.283 -0.1758  0.5757 -0.4284
 7484SOL     OW23892   0.317   1.807   5.833 -0.6159  0.0905  0.9091
 7484SOL    HW123893   0.274   1.816   5.748 -0.4730 -1.2792  0.6643
 7484SOL    HW223894   0.404   1.846   5.821 -0.1959 -1.0598  0.0910
 7485SOL     OW23895   7.844   6.942   9.744 -0.2891 -0.0414 -0.2604
 7485SOL    HW123896   7.916   6.885   9.717  0.4581  0.5790  0.3623
 7485SOL    HW223897   7.819   6.909   9.830 -0.2093  0.2465 -0.1274
 7486SOL     OW23898   2.168   3.539   8.997 -0.2300 -0.2318 -0.0686
 7486SOL    HW123899   2.169   3.521   8.903 -1.1434  2.3733 -0.6575
 7486SOL    HW223900   2.259   3.559   9.018 -0.4371  2.1686 -1.1407
 7487SOL     OW23901   6.083   1.834   5.541 -0.4262  0.2850 -0.1907
 7487SOL    HW123902   6.073   1.822   5.636  0.6783 -0.7910 -0.1933
 7487SOL    HW223903   6.177   1.844   5.528 -0.2335 -2.2875 -1.4159
 7488SOL     OW23904   3.525   3.052   3.652 -0.5381  0.2568  0.3565
 7488SOL    HW123905   3.535   3.146   3.661  0.5162  0.1363  0.4999
 7488SOL    HW223906   3.603   3.022   3.605 -1.2508 -0.4457 -0.4300
 7489SOL     OW23907   1.584   4.762   6.169  0.1742  0.0174  0.1642
 7489SOL    HW123908   1.668   4.767   6.213  0.2368 -2.9412  0.5424
 7489SOL    HW223909   1.519   4.764   6.239  0.1857 -2.3206  0.3224
 7490SOL     OW23910   1.514   4.313   1.818  0.8835 -0.1404  0.4926
 7490SOL    HW123911   1.483   4.305   1.727 -0.9212  2.0805  0.8283
 7490SOL    HW223912   1.460   4.250   1.867 -1.9816  2.3090  0.7482
 7491SOL     OW23913   4.441   0.195   1.156 -0.0836  0.0787 -0.0119
 7491SOL    HW123914   4.379   0.238   1.097 -0.4406  0.4801  0.6487
 7491SOL    HW223915   4.427   0.102   1.141  0.0577  0.1683 -0.7904
 7492SOL     OW23916   7.650   4.330   7.051  0.4942  0.0505  0.3882
 7492SOL    HW123917   7.655   4.330   7.146 -0.4290 -1.5471  0.4687
 7492SOL    HW223918   7.662   4.239   7.025  0.8658  0.4705 -1.0437
 7493SOL     OW23919   7.305   0.848   5.557 -0.0938 -0.4233  0.1121
 7493SOL    HW123920   7.215   0.880   5.562 -0.2665 -1.0399  2.7649
 7493SOL    HW223921   7.300   0.764   5.512 -0.8322 -0.3695  0.0926
 7494SOL     OW23922   4.152   4.106   0.894 -0.3775  0.7542 -0.2291
 7494SOL    HW123923   4.154   4.113   0.798  1.4995  0.5352 -0.2491
 7494SOL    HW223924   4.154   4.012   0.911  0.4313  0.8095  0.0145
 7495SOL     OW23925   2.146   2.780   2.160  0.0480 -0.5220  0.2517
 7495SOL    HW123926   2.159   2.789   2.066 -0.0589  0.1795  0.2995
 7495SOL    HW223927   2.054   2.753   2.169  0.1940 -1.0543  0.1309
 7496SOL     OW23928   5.790   0.722   1.374 -0.2714  0.0818 -0.4068
 7496SOL    HW123929   5.830   0.645   1.333 -0.9838 -0.1967 -0.5988
 7496SOL    HW223930   5.704   0.729   1.332 -0.0285  1.2691 -0.7316
 7497SOL     OW23931   7.774   1.747  10.887 -0.7255  0.2607  0.1286
 7497SOL    HW123932   7.770   1.836  10.850 -1.0036  0.6901  1.1598
 7497SOL    HW223933   7.699   1.742  10.946  0.0273 -0.2012  1.0818
 7498SOL     OW23934   1.915   6.759  11.913  0.0640  0.0422 -0.2156
 7498SOL    HW123935   1.986   6.750  11.849  1.4174 -1.4946  1.3976
 7498SOL    HW223936   1.838   6.722  11.869  0.9466 -0.9170 -1.0110
 7499SOL     OW23937   1.335   4.166  10.775 -0.0750 -0.6485 -0.3818
 7499SOL    HW123938   1.250   4.210  10.782  0.2435  0.0281 -0.7328
 7499SOL    HW223939   1.321   4.101  10.705 -0.1038 -0.0636 -0.9257
 7500SOL     OW23940   1.582   4.389   0.492 -0.0371  0.4880 -0.0728
 7500SOL    HW123941   1.641   4.411   0.420 -0.3989 -1.9613 -1.2163
 7500SOL    HW223942   1.521   4.326   0.454 -0.6030 -0.4497  2.2435
 7501SOL     OW23943   1.428   2.978   8.784  0.0945 -0.1270  0.0730
 7501SOL    HW123944   1.362   2.985   8.715  1.5739  0.3441 -1.3569
 7501SOL    HW223945   1.512   2.984   8.738  1.2029 -2.1837  1.6211
 7502SOL     OW23946   4.795   7.173  10.174  0.3076 -0.3285  0.0338
 7502SOL    HW123947   4.769   7.098  10.120  1.2745  1.0406 -2.4606
 7502SOL    HW223948   4.713   7.219  10.192  0.1214 -0.0138 -1.5350
 7503SOL     OW23949   4.238   5.143   7.095 -0.3017  0.1304  0.1337
 7503SOL    HW123950   4.272   5.222   7.054  2.3750 -0.6610  0.6483
 7503SOL    HW223951   4.257   5.073   7.033  0.9132 -0.6170  1.2889
 7504SOL     OW23952   6.060   2.072   4.330 -0.2601  0.3526  0.1436
 7504SOL    HW123953   6.095   2.000   4.384 -0.0784  2.0289  2.4044
 7504SOL    HW223954   6.135   2.102   4.280 -0.5076 -1.4619 -1.4581
 7505SOL     OW23955   4.608   5.636   6.831  0.6349 -0.3317  0.5482
 7505SOL    HW123956   4.593   5.625   6.737  0.5711 -1.2936  0.6639
 7505SOL    HW223957   4.584   5.727   6.848  0.0042 -0.3347 -0.2430
 7506SOL     OW23958   3.062   0.536   6.721 -0.0753  0.1019  0.3030
 7506SOL    HW123959   3.047   0.539   6.816  0.9488 -1.6269  0.5608
 7506SOL    HW223960   3.006   0.465   6.690 -0.5382  0.7735 -0.4398
 7507SOL     OW23961   2.634   3.738   4.278 -0.1988  0.5355 -0.3218
 7507SOL    HW123962   2.592   3.709   4.197 -0.8725  0.6137 -0.0053
 7507SOL    HW223963   2.602   3.678   4.345 -0.5176  1.1498  0.0835
 7508SOL     OW23964   3.524   7.242   9.639 -0.1400  0.4377 -0.4367
 7508SOL    HW123965   3.552   7.176   9.702  1.1608  0.3939 -1.0220
 7508SOL    HW223966   3.452   7.288   9.682 -0.2725 -0.5682  0.4608
 7509SOL     OW23967   6.058   5.587   4.309  0.0039  0.2069 -0.3003
 7509SOL    HW123968   6.081   5.560   4.398  0.0794 -0.0521 -0.3964
 7509SOL    HW223969   5.983   5.645   4.321 -0.6837 -0.6856 -0.1397
 7510SOL     OW23970   7.289   7.108   4.605 -0.4637  0.4451  0.0666
 7510SOL    HW123971   7.343   7.162   4.548 -0.3548 -0.0334 -0.2897
 7510SOL    HW223972   7.216   7.081   4.550 -0.8026  0.6742  0.4011
 7511SOL     OW23973   1.145   7.472   8.313  0.4792  0.1801  0.6934
 7511SOL    HW123974   1.193   7.555   8.314  0.6734  0.0730  0.2413
 7511SOL    HW223975   1.205   7.410   8.273  0.0106  0.0158  0.2392
 7512SOL     OW23976   6.854   0.616   1.101  0.4337 -0.3469  0.4282
 7512SOL    HW123977   6.871   0.638   1.193  1.0896  0.2838  0.1701
 7512SOL    HW223978   6.910   0.677   1.052 -1.3787  0.7103 -0.4319
 7513SOL     OW23979   6.381   7.096   6.947  0.0854  0.2793 -0.4490
 7513SOL    HW123980   6.338   7.163   6.894 -0.7526 -0.2658 -0.4785
 7513SOL    HW223981   6.339   7.014   6.921  0.1094 -0.0775  0.5862
 7514SOL     OW23982   2.618   6.048  10.520  0.3171 -0.1104 -0.1892
 7514SOL    HW123983   2.598   5.996  10.598  0.8360 -0.0111  0.0179
 7514SOL    HW223984   2.711   6.068  10.528  0.1838  0.6165 -0.4089
 7515SOL     OW23985   6.807   4.947  11.912 -0.0207  0.2554  0.1993
 7515SOL    HW123986   6.801   4.855  11.938 -0.6468  0.2118 -0.0704
 7515SOL    HW223987   6.738   4.957  11.847  2.4059 -0.0386 -2.6651
 7516SOL     OW23988   6.733   4.212   3.590 -0.9898 -0.1666 -0.0368
 7516SOL    HW123989   6.703   4.263   3.665 -0.3377  0.1576  0.0118
 7516SOL    HW223990   6.775   4.135   3.629 -4.0544 -2.0483 -0.1139
 7517SOL     OW23991   4.830   2.172   9.374  0.3322  0.2082  0.0722
 7517SOL    HW123992   4.877   2.092   9.351 -0.9791 -1.3088  2.2885
 7517SOL    HW223993   4.897   2.240   9.376  1.7748 -1.1532 -0.2603
 7518SOL     OW23994   4.310   7.197  11.087  0.1487 -0.2435 -0.3833
 7518SOL    HW123995   4.245   7.135  11.121  0.2768 -0.2081 -0.0750
 7518SOL    HW223996   4.355   7.229  11.164 -0.4429  0.8252 -0.4574
 7519SOL     OW23997   2.062   2.842   0.070  0.1945 -0.3821  0.0511
 7519SOL    HW123998   1.992   2.878   0.124  0.1507 -0.5523  0.1061
 7519SOL    HW223999   2.114   2.788   0.129 -1.6415 -3.1338 -0.6768
 7520SOL     OW24000   5.207   7.222   2.210 -0.1993  0.0434  0.1503
 7520SOL    HW124001   5.161   7.239   2.128 -0.2301 -2.2801 -0.3990
 7520SOL    HW224002   5.296   7.201   2.184 -0.2436 -0.8630  0.6708
 7521SOL     OW24003   7.124   1.236   6.833  0.1564  0.1780  0.0547
 7521SOL    HW124004   7.090   1.187   6.908 -0.5291  1.1962  0.4259
 7521SOL    HW224005   7.069   1.208   6.760 -0.7578  0.9487  0.4238
 7522SOL     OW24006   2.591   2.898   7.171  0.4314  0.1001  0.8039
 7522SOL    HW124007   2.572   2.963   7.103  1.1641 -0.8191 -0.3112
 7522SOL    HW224008   2.618   2.949   7.246  0.9364  1.0994 -0.0325
 7523SOL     OW24009   3.235   3.881   4.956 -0.3171 -0.5362  0.4634
 7523SOL    HW124010   3.250   3.793   4.990  0.5461  0.0366  1.6691
 7523SOL    HW224011   3.184   3.925   5.024  0.8465  0.4327  0.7557
 7524SOL     OW24012   0.794   5.425   9.901  0.1143  0.0029  0.2422
 7524SOL    HW124013   0.881   5.385   9.900  0.2422  0.1508  1.8308
 7524SOL    HW224014   0.737   5.357   9.935 -0.2893  0.1020 -0.2244
 7525SOL     OW24015   7.873   4.910   2.752  0.2492 -0.2482  0.1539
 7525SOL    HW124016   7.915   4.912   2.837 -1.9182  1.5408  1.2872
 7525SOL    HW224017   7.898   4.993   2.710 -1.1225  0.3075  0.3747
 7526SOL     OW24018   4.888   3.240   2.763  0.4948  0.1688 -0.5861
 7526SOL    HW124019   4.930   3.185   2.828  1.3152  3.0149  1.4685
 7526SOL    HW224020   4.800   3.203   2.753  1.2522 -1.9179  0.0705
 7527SOL     OW24021   0.716   3.357   3.187  0.5066  0.4667  0.6446
 7527SOL    HW124022   0.783   3.296   3.157  0.7659  1.0311  0.0337
 7527SOL    HW224023   0.705   3.418   3.113  1.7580  2.4277  1.9780
 7528SOL     OW24024   2.114   4.290   3.919 -0.1559 -0.1388 -0.0661
 7528SOL    HW124025   2.089   4.263   4.007 -0.9353 -1.1193 -0.5627
 7528SOL    HW224026   2.047   4.355   3.894  0.6978  0.9863  0.4535
 7529SOL     OW24027   4.212   6.985   0.695 -0.0506 -0.1929 -0.5172
 7529SOL    HW124028   4.239   7.048   0.628 -0.6945 -1.2534 -1.8315
 7529SOL    HW224029   4.164   7.037   0.760  1.4025  1.0101 -0.3618
 7530SOL     OW24030   3.012   2.881   5.921  0.0487 -0.1391  0.0938
 7530SOL    HW124031   3.019   2.790   5.891 -1.7495  0.2354 -1.6157
 7530SOL    HW224032   2.918   2.899   5.921  0.4016  3.2058 -4.4872
 7531SOL     OW24033   5.466   7.760  11.110 -0.5374 -0.5680 -0.3000
 7531SOL    HW124034   5.442   7.674  11.143 -1.3322  0.0581  0.8350
 7531SOL    HW224035   5.415   7.770  11.030  1.3221 -2.0584 -1.7732
 7532SOL     OW24036   3.539   5.274   0.298  0.2506 -0.0671  0.3827
 7532SOL    HW124037   3.552   5.289   0.204 -1.1240 -0.0369  0.1835
 7532SOL    HW224038   3.627   5.278   0.335  0.8403 -0.3032 -0.9365
 7533SOL     OW24039   6.599   0.142   5.059 -0.5759  0.0318 -0.1151
 7533SOL    HW124040   6.556   0.084   5.122  0.1042  0.1878  0.5006
 7533SOL    HW224041   6.551   0.225   5.066 -0.9617 -0.1701 -0.3303
 7534SOL     OW24042   7.002   6.042  10.422  0.0538  0.2765 -0.0369
 7534SOL    HW124043   7.003   6.077  10.511  0.3037  0.3106 -0.0528
 7534SOL    HW224044   7.094   6.021  10.403 -0.1609 -0.9407  0.1882
 7535SOL     OW24045   6.079   5.292   0.873 -0.6382  0.5754 -0.1485
 7535SOL    HW124046   6.161   5.338   0.856 -1.4575  2.2719  0.2444
 7535SOL    HW224047   6.011   5.357   0.854 -1.9174 -0.8895 -0.7922
 7536SOL     OW24048   5.706   7.642  12.100 -0.1727 -0.3016  0.4202
 7536SOL    HW124049   5.679   7.578  12.165 -2.5263 -0.1559 -0.3232
 7536SOL    HW224050   5.668   7.611  12.018  2.7529 -0.5139 -0.9703
 7537SOL     OW24051   1.872   6.664   9.888  0.0056  0.1700 -0.3488
 7537SOL    HW124052   1.884   6.571   9.869  3.3086  0.2769  0.5305
 7537SOL    HW224053   1.862   6.668   9.983 -0.6691  0.6824 -0.4355
 7538SOL     OW24054   5.951   6.478   9.343 -0.6598  0.0615  0.0892
 7538SOL    HW124055   5.867   6.510   9.375 -0.8260 -2.3319  2.3120
 7538SOL    HW224056   6.010   6.484   9.418  0.5986 -0.2618 -0.8376
 7539SOL     OW24057   5.260   3.731   7.200  0.1793  0.1250 -0.6762
 7539SOL    HW124058   5.303   3.789   7.263 -2.7669  1.8830 -0.1337
 7539SOL    HW224059   5.195   3.786   7.157 -1.3671 -2.2834 -1.6149
 7540SOL     OW24060   0.357   2.600   6.557 -0.1152  0.0319  0.0501
 7540SOL    HW124061   0.449   2.576   6.546 -0.3605 -1.1209  0.3682
 7540SOL    HW224062   0.310   2.517   6.550 -0.9814  0.3492  1.6705
 7541SOL     OW24063   0.792   6.160   4.920  0.1772 -0.2462 -0.0651
 7541SOL    HW124064   0.808   6.253   4.935 -0.1667  0.1349 -1.8380
 7541SOL    HW224065   0.876   6.126   4.889 -0.5715  0.3215 -2.9724
 7542SOL     OW24066   5.728   3.468   8.298 -0.0535  0.5942 -0.6390
 7542SOL    HW124067   5.735   3.550   8.347 -2.7824  1.2097 -1.1162
 7542SOL    HW224068   5.728   3.400   8.366  1.7828  0.9714 -0.2104
 7543SOL     OW24069   1.673   6.231  12.114 -1.0441 -0.4825 -0.1938
 7543SOL    HW124070   1.590   6.279  12.115 -0.9524 -0.2911  1.6133
 7543SOL    HW224071   1.648   6.139  12.111 -1.2396 -0.4093 -2.4415
 7544SOL     OW24072   1.873   5.012   9.937 -0.5850  0.3827 -0.9289
 7544SOL    HW124073   1.957   4.983   9.972 -0.3034  0.0619 -1.8250
 7544SOL    HW224074   1.846   4.941   9.878 -1.0156  0.9058 -1.3750
 7545SOL     OW24075   1.053   1.751  12.339 -0.4040 -0.4219 -0.1437
 7545SOL    HW124076   1.082   1.660  12.349  0.9447  0.1085  1.1531
 7545SOL    HW224077   0.998   1.767  12.416 -0.1393  0.0382 -0.0475
 7546SOL     OW24078   3.959   7.282   3.696  0.0429 -0.4252  0.2061
 7546SOL    HW124079   4.050   7.256   3.712  0.7963  1.2992 -0.9288
 7546SOL    HW224080   3.949   7.365   3.742 -1.3732 -1.1949  1.3458
 7547SOL     OW24081   0.657   4.369  11.852 -0.1169  0.2632  0.1146
 7547SOL    HW124082   0.607   4.447  11.831 -1.1842 -0.7550 -1.3601
 7547SOL    HW224083   0.660   4.320  11.770  0.3278 -1.3467  1.0453
 7548SOL     OW24084   6.216   5.091   5.231 -0.4080  0.6067  0.4724
 7548SOL    HW124085   6.308   5.082   5.256 -0.6775  0.0376  1.3223
 7548SOL    HW224086   6.172   5.115   5.313 -1.4360 -1.9411  0.7564
 7549SOL     OW24087   2.554   7.184   9.303 -0.1945  0.3687 -0.0473
 7549SOL    HW124088   2.641   7.208   9.271  0.3495  0.7481  1.6160
 7549SOL    HW224089   2.559   7.196   9.398 -1.9914  0.1530  0.1119
 7550SOL     OW24090   5.434   6.368   9.218 -0.0348 -0.0533 -0.8091
 7550SOL    HW124091   5.503   6.432   9.200 -0.6708  0.7106 -0.6366
 7550SOL    HW224092   5.373   6.377   9.145 -1.5895  1.6184  0.5690
 7551SOL     OW24093   0.836   0.755   8.386 -0.3666 -0.2622  0.4928
 7551SOL    HW124094   0.838   0.826   8.450  2.3933 -0.4676  0.7757
 7551SOL    HW224095   0.845   0.676   8.440  1.1420 -0.4887 -0.0429
 7552SOL     OW24096   5.109   4.160   6.175  0.5255  0.2699 -0.0056
 7552SOL    HW124097   5.193   4.203   6.190 -0.3115  2.2982 -0.7285
 7552SOL    HW224098   5.086   4.121   6.259  1.6665  0.6468  0.4958
 7553SOL     OW24099   4.136   6.581   5.973  0.0244  0.3662  0.1856
 7553SOL    HW124100   4.061   6.620   6.018 -0.9535  0.3029 -1.3360
 7553SOL    HW224101   4.135   6.489   6.000 -0.1403  0.4791  0.5623
 7554SOL     OW24102   5.351   5.203   9.128  0.7214 -0.1234  0.5418
 7554SOL    HW124103   5.292   5.277   9.134  0.3498 -0.2401 -1.2993
 7554SOL    HW224104   5.358   5.171   9.218  1.4022  2.4799  1.5021
 7555SOL     OW24105   5.538   5.112   4.028  0.0446  0.0449  0.2357
 7555SOL    HW124106   5.546   5.034   4.084  0.4472 -0.0949 -0.0156
 7555SOL    HW224107   5.604   5.172   4.061 -0.5765  0.4780  0.7319
 7556SOL     OW24108   3.831   5.721  11.237  0.3959  0.1666 -0.6107
 7556SOL    HW124109   3.837   5.626  11.233  0.3025  0.1109  0.3400
 7556SOL    HW224110   3.812   5.740  11.329 -0.8440  1.0335 -1.0088
 7557SOL     OW24111   3.269   1.689   1.973 -0.0133  0.5139 -0.3273
 7557SOL    HW124112   3.346   1.636   1.994  0.0088 -0.4326 -2.4747
 7557SOL    HW224113   3.293   1.778   1.998  1.6538  0.1813 -0.6123
 7558SOL     OW24114   3.392   2.136   6.027 -0.5286  0.5552  0.6299
 7558SOL    HW124115   3.367   2.159   5.938  0.5604  1.3795  0.5246
 7558SOL    HW224116   3.321   2.078   6.057 -0.9440  0.3234 -0.7254
 7559SOL     OW24117   0.426   2.028   7.062  0.0236  0.0649  0.2564
 7559SOL    HW124118   0.452   1.935   7.058  2.1988  0.6429 -1.8310
 7559SOL    HW224119   0.428   2.057   6.971 -0.0441  2.3001  0.9085
 7560SOL     OW24120   1.517   3.389   9.474 -0.3307 -0.4259 -0.3524
 7560SOL    HW124121   1.443   3.420   9.526  1.4292  2.5016  0.6344
 7560SOL    HW224122   1.504   3.428   9.388 -0.6491 -1.1327 -0.6360
 7561SOL     OW24123   4.765   5.370  11.989 -0.3946 -0.4445 -0.6146
 7561SOL    HW124124   4.765   5.308  11.916 -0.2619  0.2783 -1.2420
 7561SOL    HW224125   4.678   5.362  12.028 -0.9586  0.1316 -1.7031
 7562SOL     OW24126   3.290   7.720  11.593 -0.4540 -0.2741 -0.4461
 7562SOL    HW124127   3.226   7.656  11.624 -1.3044  1.2520  1.0728
 7562SOL    HW224128   3.348   7.669  11.535  1.1030 -3.3019  3.3361
 7563SOL     OW24129   1.068   4.626   3.831 -0.0171  0.6077 -0.6942
 7563SOL    HW124130   0.982   4.656   3.860  0.2922  0.1019  0.8537
 7563SOL    HW224131   1.050   4.566   3.759 -1.2571 -1.7677  1.4021
 7564SOL     OW24132   7.224   3.671  11.407 -0.3721 -0.2122  0.0445
 7564SOL    HW124133   7.214   3.631  11.320 -0.2293  0.6416 -0.3801
 7564SOL    HW224134   7.318   3.667  11.425 -0.0432  1.6938 -0.9084
 7565SOL     OW24135   2.952   7.719   1.566 -0.7457  0.3691 -0.1004
 7565SOL    HW124136   3.017   7.656   1.536 -0.9521 -0.1766  0.5526
 7565SOL    HW224137   2.981   7.744   1.654 -1.6679 -0.2861  0.4216
 7566SOL     OW24138   3.376   6.747   2.762 -0.0257 -0.3655 -0.2893
 7566SOL    HW124139   3.355   6.827   2.810  0.7822 -1.5123  2.1382
 7566SOL    HW224140   3.464   6.762   2.727 -0.3473  0.2282 -0.8566
 7567SOL     OW24141   3.507   7.039   0.230 -0.1130 -0.4238 -0.3702
 7567SOL    HW124142   3.525   7.107   0.165 -0.9955 -0.3835 -0.5873
 7567SOL    HW224143   3.590   6.992   0.240  0.2164  0.0138 -1.0044
 7568SOL     OW24144   1.085   2.572  11.117 -0.3295 -0.2320  0.2691
 7568SOL    HW124145   1.016   2.615  11.066  0.2703  0.2281 -0.1683
 7568SOL    HW224146   1.087   2.482  11.085 -1.2762 -0.4771  0.8598
 7569SOL     OW24147   6.324   4.049   7.932 -0.0750  0.0242  0.1010
 7569SOL    HW124148   6.249   4.008   7.974  1.2302 -0.2284  2.3298
 7569SOL    HW224149   6.374   4.089   8.004  1.8339  0.3426 -1.3061
 7570SOL     OW24150   6.092   1.460   1.581  0.0878 -0.0383 -0.1756
 7570SOL    HW124151   6.033   1.450   1.656  0.9802  0.5744  0.6300
 7570SOL    HW224152   6.040   1.431   1.506 -1.8586  2.0308  0.2608
 7571SOL     OW24153   1.155   6.152  11.779 -0.3249  0.1293 -0.7479
 7571SOL    HW124154   1.093   6.145  11.852  0.3276 -1.3596 -0.3045
 7571SOL    HW224155   1.101   6.177  11.704 -1.2516  0.1243 -0.1055
 7572SOL     OW24156   6.539   5.857   0.817  0.4067  0.1309 -0.6197
 7572SOL    HW124157   6.596   5.907   0.875 -0.8543  0.8378  0.0239
 7572SOL    HW224158   6.491   5.797   0.874  0.2185 -0.2049 -1.1154
 7573SOL     OW24159   7.241   2.749   3.606 -0.2268 -0.2359 -0.0968
 7573SOL    HW124160   7.299   2.700   3.664 -1.5730  0.3559  1.8513
 7573SOL    HW224161   7.179   2.684   3.572  0.1632 -0.4747 -0.3503
 7574SOL     OW24162   2.188   5.019   8.198 -0.5158 -0.5032 -0.4830
 7574SOL    HW124163   2.144   5.104   8.190 -0.5847 -0.5293 -0.3826
 7574SOL    HW224164   2.195   5.004   8.292 -0.0834 -0.3923 -0.4936
 7575SOL     OW24165   1.239   6.947   2.353  0.7123 -0.0386  0.2596
 7575SOL    HW124166   1.275   6.947   2.442 -1.3756 -0.7901  1.1618
 7575SOL    HW224167   1.267   7.031   2.316  0.7229  0.7788  2.0161
 7576SOL     OW24168   6.941   3.467   3.082  0.1165  0.3932  0.2625
 7576SOL    HW124169   6.989   3.501   3.007 -1.2937  1.2465 -0.2964
 7576SOL    HW224170   7.003   3.474   3.155  0.3789  2.9511 -0.1039
 7577SOL     OW24171   0.506   4.418   1.050 -0.1472  0.2444  0.0362
 7577SOL    HW124172   0.534   4.509   1.044 -0.2863  0.3088  0.3597
 7577SOL    HW224173   0.503   4.399   1.144  0.0144 -0.1351 -0.0311
 7578SOL     OW24174   4.961   0.804  11.086 -0.1704  0.3081  0.3389
 7578SOL    HW124175   4.915   0.768  11.162  0.1060  0.7864  0.7382
 7578SOL    HW224176   4.904   0.875  11.056 -0.4416 -0.0944 -0.1070
 7579SOL     OW24177   2.505   3.876   2.231  0.2044  0.2683 -0.4531
 7579SOL    HW124178   2.550   3.959   2.235 -0.5211  1.1238 -4.8878
 7579SOL    HW224179   2.426   3.889   2.284  1.3224  1.4383  1.0009
 7580SOL     OW24180   3.028   7.324  11.105 -0.5613 -0.2261 -0.6383
 7580SOL    HW124181   3.004   7.302  11.195 -0.3217 -0.6008 -0.6630
 7580SOL    HW224182   2.979   7.262  11.051  0.5893 -1.1431 -0.6798
 7581SOL     OW24183   3.729   5.380   8.901  0.5937  0.5090 -0.4809
 7581SOL    HW124184   3.812   5.374   8.947  0.6175  0.5512 -0.5180
 7581SOL    HW224185   3.739   5.456   8.844  0.0189  1.4145  0.5659
 7582SOL     OW24186   7.839   6.662   0.591 -0.1807  0.1501 -0.4528
 7582SOL    HW124187   7.819   6.697   0.678  0.9150 -0.3598  0.0215
 7582SOL    HW224188   7.822   6.568   0.598  1.9492 -0.2656 -0.1026
 7583SOL     OW24189   1.914   4.720   5.475  0.4357 -0.4037  0.5342
 7583SOL    HW124190   1.990   4.775   5.455 -0.9100  0.4428 -3.0764
 7583SOL    HW224191   1.853   4.778   5.521  0.7791 -0.2383  0.7872
 7584SOL     OW24192   7.848   4.271   6.713 -0.1063 -0.6148 -0.0520
 7584SOL    HW124193   7.788   4.340   6.742  1.4114  0.1359  1.4502
 7584SOL    HW224194   7.887   4.305   6.633  0.0021 -0.0912  0.2214
 7585SOL     OW24195   6.058   0.292   0.828 -0.3560  0.4284 -0.3120
 7585SOL    HW124196   6.019   0.379   0.818 -2.5541 -0.4903 -0.2328
 7585SOL    HW224197   6.059   0.277   0.923 -0.9222 -0.0361 -0.3783
 7586SOL     OW24198   6.136   3.912   9.639  0.3772 -0.0053  0.1771
 7586SOL    HW124199   6.094   3.864   9.567 -0.8233  2.9379 -1.2679
 7586SOL    HW224200   6.068   3.916   9.707 -0.8120  2.2149 -0.9963
 7587SOL     OW24201   3.020   4.295   7.913 -0.5303 -0.2878  0.1342
 7587SOL    HW124202   3.053   4.243   7.840 -2.6389 -1.6006  0.0267
 7587SOL    HW224203   2.936   4.328   7.883 -0.3118  1.2405  1.0961
 7588SOL     OW24204   2.081   2.502  10.192  0.0381  0.1678  0.4411
 7588SOL    HW124205   2.057   2.586  10.154  0.3179 -0.8215 -2.1190
 7588SOL    HW224206   2.006   2.446  10.176  0.5278 -0.5259  0.5286
 7589SOL     OW24207   5.051   7.498   8.298 -0.1173 -0.2631  0.0726
 7589SOL    HW124208   5.073   7.576   8.246 -2.5529  0.0698 -0.6260
 7589SOL    HW224209   5.057   7.426   8.236  1.6616 -0.5878  0.5970
 7590SOL     OW24210   1.599   0.575   0.614 -0.4116  0.3374  0.6236
 7590SOL    HW124211   1.512   0.553   0.649 -0.2125 -1.2279  0.2181
 7590SOL    HW224212   1.627   0.495   0.569  1.2710  0.7906  0.8078
 7591SOL     OW24213   5.158   4.125   4.551  0.4746 -0.2801  0.2084
 7591SOL    HW124214   5.132   4.096   4.464 -0.2326  0.2164  0.2414
 7591SOL    HW224215   5.105   4.072   4.611  0.1329  0.1576  0.2999
 7592SOL     OW24216   3.423   4.979   6.246 -0.1109 -0.0474  0.2644
 7592SOL    HW124217   3.427   4.946   6.156 -0.5517 -0.1423  0.2741
 7592SOL    HW224218   3.514   4.988   6.273  0.0212 -0.2766 -0.0996
 7593SOL     OW24219   6.609   6.068   3.477 -0.0422 -0.0392 -0.0686
 7593SOL    HW124220   6.522   6.068   3.437 -0.5088  0.8848  0.8965
 7593SOL    HW224221   6.650   5.987   3.445 -2.0888 -1.7018  1.2290
 7594SOL     OW24222   5.666   6.449  11.745  0.3821  0.0601  0.2112
 7594SOL    HW124223   5.696   6.540  11.738  3.0969 -0.7030  0.8220
 7594SOL    HW224224   5.641   6.439  11.837  1.1960 -0.1124  0.4167
 7595SOL     OW24225   5.929   3.559   5.259  0.1143  0.0086 -0.0954
 7595SOL    HW124226   5.843   3.558   5.218 -1.0012 -1.9801  2.0188
 7595SOL    HW224227   5.913   3.529   5.349  3.0958 -1.1156  0.1875
 7596SOL     OW24228   4.821   5.480   3.131  0.0582  0.1665  0.4205
 7596SOL    HW124229   4.766   5.555   3.110 -1.2286 -1.1555 -1.1892
 7596SOL    HW224230   4.907   5.502   3.095 -0.1831  1.0368  0.3523
 7597SOL     OW24231   0.638   0.457   4.891  0.4556 -0.5588 -0.3419
 7597SOL    HW124232   0.568   0.456   4.825  0.3571  0.3106 -0.2699
 7597SOL    HW224233   0.602   0.409   4.965 -1.0025  1.7585  0.5751
 7598SOL     OW24234   0.817   3.797   0.006 -0.4071 -0.1904 -0.1486
 7598SOL    HW124235   0.902   3.803  -0.035 -1.3119 -2.6582 -2.6988
 7598SOL    HW224236   0.758   3.848  -0.050 -0.6261  1.9495  1.8739
 7599SOL     OW24237   2.879   4.926   7.821 -0.1479 -0.0253  0.5459
 7599SOL    HW124238   2.937   4.999   7.843 -0.0544  0.6094 -1.6097
 7599SOL    HW224239   2.828   4.957   7.747 -1.6337 -1.4147  0.9313
 7600SOL     OW24240   1.430   5.096  10.542 -0.1112 -0.5339  0.2204
 7600SOL    HW124241   1.500   5.035  10.520  0.9502  1.1033 -1.2065
 7600SOL    HW224242   1.463   5.146  10.617  0.5158  0.5471 -0.7328
 7601SOL     OW24243   7.240   5.909   0.465 -0.3529  0.4659 -0.8823
 7601SOL    HW124244   7.250   5.814   0.477 -2.5129  0.1912 -0.9418
 7601SOL    HW224245   7.280   5.946   0.544 -2.0671 -0.6787  0.6361
 7602SOL     OW24246   5.827   0.720  11.754 -0.1762  0.2219  0.1426
 7602SOL    HW124247   5.883   0.798  11.759  0.4823 -0.2553  0.3431
 7602SOL    HW224248   5.750   0.741  11.807 -0.0007  0.7354  0.1950
 7603SOL     OW24249   7.756   6.330   0.256  0.0678  0.6829 -0.0845
 7603SOL    HW124250   7.764   6.295   0.167 -0.8250  1.2653 -0.4168
 7603SOL    HW224251   7.760   6.253   0.313  2.7358  0.4847 -0.4526
 7604SOL     OW24252   0.644   3.194   7.051 -0.3998  0.1421 -0.5081
 7604SOL    HW124253   0.699   3.246   6.992 -1.3837 -0.1455 -1.7025
 7604SOL    HW224254   0.698   3.118   7.073 -0.0333  0.2392 -1.0593
 7605SOL     OW24255   6.235   3.136  11.653  0.0595 -0.5411  0.4291
 7605SOL    HW124256   6.146   3.122  11.687  0.2108  0.6485  1.3988
 7605SOL    HW224257   6.250   3.062  11.595 -1.8841 -0.3570 -0.4055
 7606SOL     OW24258   5.098   0.694  11.595 -0.5051 -0.1356  0.2878
 7606SOL    HW124259   5.010   0.714  11.561 -0.7418 -0.5998  0.6073
 7606SOL    HW224260   5.096   0.726  11.685 -0.1122  0.4739  0.0795
 7607SOL     OW24261   1.978   3.632   9.990  0.1018 -0.0531 -0.0705
 7607SOL    HW124262   2.034   3.578   9.935 -1.5710 -2.5941  0.5346
 7607SOL    HW224263   1.903   3.652   9.935  1.3146  3.0617 -0.7763
 7608SOL     OW24264   6.034   0.727   7.593  0.2895  0.2581  0.2708
 7608SOL    HW124265   6.119   0.696   7.563 -0.9493 -1.8746 -1.2881
 7608SOL    HW224266   6.013   0.801   7.535  0.2449 -0.4780 -0.6735
 7609SOL     OW24267   1.491   1.019   4.738  0.2304 -0.2965  0.1443
 7609SOL    HW124268   1.482   0.969   4.657  1.0567 -0.2375  0.0093
 7609SOL    HW224269   1.585   1.033   4.748  0.0037  1.7210 -0.1109
 7610SOL     OW24270   2.996   0.493   3.560  0.0512 -0.4157  0.6634
 7610SOL    HW124271   3.047   0.546   3.498  0.9645 -0.6999  1.1508
 7610SOL    HW224272   2.909   0.487   3.521  0.2161  0.6099  0.1150
 7611SOL     OW24273   5.010   6.114   9.276  0.1398 -0.0146 -0.0048
 7611SOL    HW124274   5.001   6.209   9.281  0.3465  0.0815 -1.1688
 7611SOL    HW224275   5.063   6.099   9.197  1.1228 -1.0412  0.8110
 7612SOL     OW24276   6.471   3.431   2.129  0.1804 -0.0977 -0.3277
 7612SOL    HW124277   6.382   3.436   2.093  0.5630  2.6221 -1.1132
 7612SOL    HW224278   6.528   3.436   2.052  1.0383 -0.6757  0.2512
 7613SOL     OW24279   2.839   4.060   2.864 -0.2751  0.1304  0.1612
 7613SOL    HW124280   2.750   4.074   2.896 -0.0704  0.4118  0.6209
 7613SOL    HW224281   2.847   3.965   2.856  0.3704 -0.1570  3.0904
 7614SOL     OW24282   2.169   2.310   9.919 -0.2877 -0.0614 -0.1659
 7614SOL    HW124283   2.203   2.236   9.969 -0.5205  1.3420  2.2792
 7614SOL    HW224284   2.078   2.319   9.949 -0.5510  0.6253 -1.1351
 7615SOL     OW24285   7.305   4.160   4.358 -0.0505 -0.2466  0.0520
 7615SOL    HW124286   7.256   4.078   4.355 -0.1670 -0.1510 -0.7124
 7615SOL    HW224287   7.376   4.148   4.295 -0.9705  0.8108 -1.2398
 7616SOL     OW24288   5.773   4.871   1.573 -0.5091  0.0823  0.1636
 7616SOL    HW124289   5.808   4.801   1.628 -0.7593 -0.1392  0.0409
 7616SOL    HW224290   5.723   4.826   1.505 -0.8100  0.3876  0.1798
 7617SOL     OW24291   0.984   0.774   9.289 -0.7533 -0.2748  0.0161
 7617SOL    HW124292   0.917   0.840   9.271 -0.0504  0.5859  0.4503
 7617SOL    HW224293   0.986   0.720   9.210 -0.8931  0.6285 -0.6280
 7618SOL     OW24294   0.358   7.339   9.151 -0.4644  0.1108 -0.2737
 7618SOL    HW124295   0.364   7.397   9.076  0.4657  2.0536  1.2174
 7618SOL    HW224296   0.433   7.363   9.207 -2.1262  0.0802  2.1353
 7619SOL     OW24297   1.096   5.079   3.756  0.4210  0.2312 -0.0931
 7619SOL    HW124298   1.170   5.140   3.760 -0.5162  1.3680  2.3640
 7619SOL    HW224299   1.114   5.015   3.825 -0.2560 -0.2441 -0.3438
 7620SOL     OW24300   7.495   4.187   3.193  0.1457 -0.2046 -0.5632
 7620SOL    HW124301   7.531   4.276   3.194 -0.2419 -0.0258  1.6746
 7620SOL    HW224302   7.402   4.199   3.174 -0.0351 -0.0619  0.3890
 7621SOL     OW24303   7.768   1.991   3.996  0.4827  0.3740 -0.6969
 7621SOL    HW124304   7.749   1.897   3.987  2.2112 -0.0723 -0.1384
 7621SOL    HW224305   7.822   2.012   3.920  0.5038  0.8102 -0.5634
 7622SOL     OW24306   3.837   1.625   7.969 -0.2382 -0.1946  0.7644
 7622SOL    HW124307   3.803   1.709   7.936  1.1925 -0.1679 -0.7524
 7622SOL    HW224308   3.766   1.563   7.953 -0.3463  0.2392 -0.5180
 7623SOL     OW24309   7.680   5.663   2.019  0.1537 -0.1096  0.0213
 7623SOL    HW124310   7.666   5.751   2.054  0.2570  0.5223 -1.4452
 7623SOL    HW224311   7.637   5.665   1.934  0.1395 -1.4988 -0.0171
 7624SOL     OW24312   3.970   6.927   3.536  0.1302 -0.0064 -0.5927
 7624SOL    HW124313   3.889   6.975   3.552  0.9090  0.9093  0.7904
 7624SOL    HW224314   4.031   6.993   3.504  0.7919 -0.3623 -0.0896
 7625SOL     OW24315   4.378   2.452   0.424 -0.2823 -0.1876  0.0711
 7625SOL    HW124316   4.389   2.480   0.333  0.2598 -1.8434 -0.4090
 7625SOL    HW224317   4.294   2.489   0.451 -0.7358 -0.1665 -1.3046
 7626SOL     OW24318   5.273   3.609   3.590 -0.2742 -0.3691  0.0710
 7626SOL    HW124319   5.325   3.672   3.540 -0.6975  1.2148  1.5218
 7626SOL    HW224320   5.327   3.591   3.668 -0.4394 -1.3292 -0.0277
 7627SOL     OW24321   3.233   2.159  11.002 -0.7239 -0.5113 -0.5611
 7627SOL    HW124322   3.174   2.111  10.944 -2.1036  1.3177 -0.7744
 7627SOL    HW224323   3.275   2.224  10.946 -0.7329  0.1172  0.1481
 7628SOL     OW24324   3.305   1.106   7.975  1.1618  0.3453 -0.3549
 7628SOL    HW124325   3.277   1.028   8.023  1.0727  0.0038 -0.9386
 7628SOL    HW224326   3.252   1.177   8.011  0.4267 -0.0701 -0.5892
 7629SOL     OW24327   4.543   3.932   3.198  0.1008  0.1062 -0.3008
 7629SOL    HW124328   4.523   3.861   3.260 -0.5142  0.7181  0.2190
 7629SOL    HW224329   4.555   4.009   3.254 -1.1394  0.8135 -0.9844
 7630SOL     OW24330   2.861   0.727   5.553  0.4990  0.2143 -0.0847
 7630SOL    HW124331   2.766   0.714   5.554  0.3439  1.2327 -0.1600
 7630SOL    HW224332   2.877   0.792   5.621  1.2391 -0.4572  0.4054
 7631SOL     OW24333   5.306   1.940   3.330  0.1349  0.6288 -0.1452
 7631SOL    HW124334   5.289   2.012   3.270 -3.7526  1.4600  1.6144
 7631SOL    HW224335   5.358   1.979   3.401  0.9514  0.7785 -0.8142
 7632SOL     OW24336   0.252   4.198  11.843 -0.5861  0.1319  0.3496
 7632SOL    HW124337   0.162   4.179  11.867 -0.8275 -0.6947 -1.0554
 7632SOL    HW224338   0.258   4.294  11.846 -1.1791  0.1446  1.5164
 7633SOL     OW24339   1.463   7.392   1.467  0.2320  0.2752  0.1821
 7633SOL    HW124340   1.554   7.415   1.449  0.6049 -0.1122  1.4770
 7633SOL    HW224341   1.436   7.338   1.392  1.9009 -1.7948  0.9696
 7634SOL     OW24342   5.385   4.751   4.595 -0.1220 -0.1004 -0.2527
 7634SOL    HW124343   5.430   4.812   4.655 -0.2948  0.6897 -0.9063
 7634SOL    HW224344   5.292   4.769   4.609 -0.2620 -1.6563  1.0190
 7635SOL     OW24345   3.012   7.261   2.352  0.0144  0.0746 -0.2453
 7635SOL    HW124346   3.090   7.209   2.336 -0.0804 -0.4230  0.8491
 7635SOL    HW224347   3.044   7.349   2.369  0.4010 -0.2711  0.8815
 7636SOL     OW24348   2.930   7.018  11.872  0.1255 -0.1463 -0.5469
 7636SOL    HW124349   2.912   6.963  11.948  0.8662  0.0921 -0.1932
 7636SOL    HW224350   2.873   7.094  11.884  2.2137  1.2637  1.2882
 7637SOL     OW24351   0.236   5.266   6.675 -0.1345  0.0498  0.8380
 7637SOL    HW124352   0.166   5.329   6.655 -0.3798 -0.4384  0.1186
 7637SOL    HW224353   0.208   5.185   6.633  0.5800 -0.3164  1.0545
 7638SOL     OW24354   5.649   4.185  11.601 -0.6145  0.3865  0.5883
 7638SOL    HW124355   5.578   4.240  11.635 -2.1683 -1.4885  0.5435
 7638SOL    HW224356   5.690   4.239  11.533 -2.0072  1.5400  0.6052
 7639SOL     OW24357   4.683   0.431   2.753 -0.0742  0.1738 -0.1073
 7639SOL    HW124358   4.730   0.381   2.687 -0.5782  2.2781 -2.1895
 7639SOL    HW224359   4.717   0.520   2.745 -2.0837  1.0579  0.5750
 7640SOL     OW24360   0.234   3.241   4.798 -0.0288 -0.0301  0.7745
 7640SOL    HW124361   0.295   3.314   4.787 -0.2857  0.2131  0.9486
 7640SOL    HW224362   0.157   3.266   4.746 -0.1004 -0.1938  0.8017
 7641SOL     OW24363   7.506   7.428   8.898 -0.0803 -0.0699  0.7195
 7641SOL    HW124364   7.524   7.471   8.814  0.3564  0.4149  1.0570
 7641SOL    HW224365   7.508   7.334   8.877 -1.3448  0.0572 -0.0834
 7642SOL     OW24366   2.774   0.098   6.720 -0.2400  0.1602 -0.2348
 7642SOL    HW124367   2.829   0.114   6.797  0.6637 -0.9826 -0.6051
 7642SOL    HW224368   2.688   0.078   6.756  0.0863 -0.0050  0.4720
 7643SOL     OW24369   5.837   4.347   0.208 -0.6155  0.4330  0.2027
 7643SOL    HW124370   5.847   4.405   0.132  1.2946 -0.1840 -0.0528
 7643SOL    HW224371   5.877   4.396   0.280  1.2110 -0.5903 -0.0615
 7644SOL     OW24372   2.983   3.658   0.101  0.1168  0.2275 -0.1568
 7644SOL    HW124373   2.896   3.695   0.116  1.7496  5.1922 -1.1176
 7644SOL    HW224374   2.991   3.652   0.006  1.2854  1.3209 -0.1539
 7645SOL     OW24375   0.761   2.335   5.037  0.0410  0.4763 -0.1260
 7645SOL    HW124376   0.683   2.283   5.054  0.2766  0.2733  0.3602
 7645SOL    HW224377   0.797   2.298   4.956 -0.0580  0.2014 -0.0448
 7646SOL     OW24378   6.326   1.437   6.139 -0.3405  0.3126  0.7058
 7646SOL    HW124379   6.350   1.370   6.076  1.3722  0.1917  1.4293
 7646SOL    HW224380   6.278   1.390   6.207 -2.0714  0.4232 -0.3719
 7647SOL     OW24381   5.610   5.616  10.711  0.0408  0.1578  0.6296
 7647SOL    HW124382   5.600   5.711  10.716 -2.5832  0.1849 -2.0328
 7647SOL    HW224383   5.523   5.581  10.731 -0.0419 -1.3890 -1.9809
 7648SOL     OW24384   5.078   7.657   2.663 -0.3477  0.7783  0.3548
 7648SOL    HW124385   5.109   7.645   2.573  1.6559  2.4173  0.7538
 7648SOL    HW224386   5.141   7.608   2.716 -0.4624  1.3167  0.9873
 7649SOL     OW24387   5.009   6.213   0.273  0.3353 -0.1870  0.1216
 7649SOL    HW124388   5.015   6.149   0.202  2.2819 -1.6421  1.4995
 7649SOL    HW224389   5.032   6.164   0.352 -1.4010  1.4690  1.7554
 7650SOL     OW24390   5.251   6.628  11.429 -0.3356 -0.0689 -0.3959
 7650SOL    HW124391   5.180   6.568  11.448  0.5825 -1.5717 -1.4642
 7650SOL    HW224392   5.295   6.590  11.353  0.6921  1.6152 -0.7065
 7651SOL     OW24393   3.450   1.027   5.581 -0.2373  0.0560  0.4608
 7651SOL    HW124394   3.463   0.933   5.588  1.3049  0.3424  2.5388
 7651SOL    HW224395   3.384   1.047   5.649  1.9193  0.8014  2.4867
 7652SOL     OW24396   2.554   3.570   2.649  0.2261 -0.2087 -0.4331
 7652SOL    HW124397   2.591   3.529   2.571  1.4762  1.0256 -0.5314
 7652SOL    HW224398   2.533   3.497   2.707  1.9530 -1.0423 -0.7835
 7653SOL     OW24399   7.831   5.628  10.790  0.0149  0.4160  0.2165
 7653SOL    HW124400   7.760   5.679  10.751  0.8400  0.9776 -0.6077
 7653SOL    HW224401   7.910   5.681  10.775  0.8835 -1.0342 -0.5421
 7654SOL     OW24402   1.139   0.266   3.834 -0.3642 -0.5120  0.2145
 7654SOL    HW124403   1.133   0.312   3.918  1.0010 -0.0630  0.0945
 7654SOL    HW224404   1.175   0.180   3.856 -0.3864 -0.5408  0.1389
 7655SOL     OW24405   6.310   1.976   8.033 -0.2031  0.0129 -0.0490
 7655SOL    HW124406   6.310   1.983   7.938  0.5452 -0.7838 -0.1257
 7655SOL    HW224407   6.381   2.034   8.061  1.3808 -1.7164 -0.2036
 7656SOL     OW24408   3.742   7.924   6.341  0.1202  0.1185 -0.5452
 7656SOL    HW124409   3.650   7.942   6.321  0.2291 -0.9770 -2.2103
 7656SOL    HW224410   3.762   7.844   6.292  1.3556 -0.9394  1.5558
 7657SOL     OW24411   7.489   2.676   3.922  0.0474 -0.3608  0.3282
 7657SOL    HW124412   7.419   2.615   3.898 -0.5591  0.1251  0.8243
 7657SOL    HW224413   7.570   2.632   3.895 -0.4002 -1.2433  0.3946
 7658SOL     OW24414   0.337   5.411   2.546 -0.4111  0.3746 -0.0748
 7658SOL    HW124415   0.327   5.320   2.517  0.3003  0.4654 -0.6542
 7658SOL    HW224416   0.294   5.415   2.631  0.8488 -0.8741  0.6412
 7659SOL     OW24417   0.397   2.840   6.404 -1.1081 -0.5642 -0.0531
 7659SOL    HW124418   0.351   2.844   6.320 -0.5936 -1.8328 -0.4188
 7659SOL    HW224419   0.395   2.747   6.428  0.5406 -0.5200  0.3310
 7660SOL     OW24420   1.114   2.470  10.491 -0.1821 -0.3359  0.3724
 7660SOL    HW124421   1.152   2.526  10.423  0.1899 -2.2761 -1.1086
 7660SOL    HW224422   1.190   2.432  10.535 -0.4160 -0.6700  0.4878
 7661SOL     OW24423   6.914   5.358  11.856 -0.2097  0.2453 -0.4195
 7661SOL    HW124424   7.006   5.330  11.862 -0.0496  0.6527 -0.9372
 7661SOL    HW224425   6.874   5.294  11.798  0.1610  1.0634 -1.6166
 7662SOL     OW24426   1.670   2.378   8.291 -0.3576 -0.0904  0.0075
 7662SOL    HW124427   1.580   2.390   8.323 -0.8848  1.9144 -1.9439
 7662SOL    HW224428   1.673   2.429   8.210  1.7122 -2.5356 -1.6001
 7663SOL     OW24429   7.756   6.318   4.587  0.6525  0.6694  0.0756
 7663SOL    HW124430   7.710   6.234   4.597  0.9911  0.5128  0.3630
 7663SOL    HW224431   7.848   6.296   4.604  0.9993  0.7704 -1.5702
 7664SOL     OW24432   1.229   0.725   0.361 -0.0663  0.7810  0.0551
 7664SOL    HW124433   1.202   0.695   0.448 -0.4042 -1.1185 -0.6637
 7664SOL    HW224434   1.318   0.759   0.374 -0.6895  2.0346  1.4139
 7665SOL     OW24435   3.423   0.746   5.712 -0.1689  0.5416 -0.4415
 7665SOL    HW124436   3.365   0.782   5.780  0.5552 -0.2296  0.6204
 7665SOL    HW224437   3.411   0.651   5.719 -1.3314  0.4753 -2.5468
 7666SOL     OW24438   3.411   3.337   1.503 -0.1989  0.2240  0.4819
 7666SOL    HW124439   3.410   3.414   1.445  1.1318 -0.3109 -0.2882
 7666SOL    HW224440   3.504   3.317   1.515 -0.5318 -1.9147 -0.1968
 7667SOL     OW24441   5.606   2.438   0.137 -0.5513 -0.1659 -0.0363
 7667SOL    HW124442   5.559   2.484   0.206  1.3650 -0.1988  1.3863
 7667SOL    HW224443   5.598   2.345   0.159  0.7635 -0.1366  0.6771
 7668SOL     OW24444   6.374   6.648   8.501  0.6383  0.2867  0.8600
 7668SOL    HW124445   6.430   6.709   8.549  0.2473  0.9499  0.5000
 7668SOL    HW224446   6.425   6.626   8.423  1.2972 -0.8366  1.5900
 7669SOL     OW24447   5.980   5.264  10.982 -0.0317 -0.2030  0.6444
 7669SOL    HW124448   5.970   5.222  10.897 -0.5420  2.5582 -0.7784
 7669SOL    HW224449   5.892   5.266  11.019 -0.8598  3.0485 -1.1562
 7670SOL     OW24450   2.601   1.857   9.389 -0.1649 -0.0019 -0.0521
 7670SOL    HW124451   2.654   1.921   9.341 -0.9962 -0.2459 -1.3414
 7670SOL    HW224452   2.520   1.903   9.408 -1.2311 -0.9334 -1.9737
 7671SOL     OW24453   6.984   3.459   9.250  0.2472 -0.4002 -0.3056
 7671SOL    HW124454   6.944   3.497   9.172 -1.4259 -1.9486 -0.2701
 7671SOL    HW224455   7.053   3.403   9.216  0.7569  0.3498 -0.5339
 7672SOL     OW24456   1.718   7.733   8.428 -0.1132  0.6068 -0.5861
 7672SOL    HW124457   1.751   7.822   8.431  0.2205  0.4625  0.3311
 7672SOL    HW224458   1.709   7.713   8.335  0.4654  1.3521 -0.8029
 7673SOL     OW24459   0.394   0.729   1.117 -0.4093 -0.1407 -0.3999
 7673SOL    HW124460   0.380   0.777   1.035  0.0436  1.2563  0.2989
 7673SOL    HW224461   0.317   0.673   1.125 -1.5669  1.3247 -0.7011
 7674SOL     OW24462   6.173   5.288  11.175 -0.1241 -0.1425  0.0342
 7674SOL    HW124463   6.111   5.293  11.102 -0.1362 -1.6343 -0.0914
 7674SOL    HW224464   6.196   5.379  11.194 -2.2105  0.4493 -0.0398
 7675SOL     OW24465   4.822   4.810   3.057 -0.3126  0.3747  0.3876
 7675SOL    HW124466   4.880   4.886   3.044 -0.9169  0.6550 -0.8956
 7675SOL    HW224467   4.764   4.813   2.981 -0.9258 -0.8686  0.8011
 7676SOL     OW24468   7.627   4.024  11.185 -0.2410  0.0254  0.2863
 7676SOL    HW124469   7.589   4.107  11.157  1.3885  0.6303 -0.2600
 7676SOL    HW224470   7.650   3.979  11.103 -1.2488 -1.0651  0.5691
 7677SOL     OW24471   5.804   5.692   9.193  0.1618 -0.2969 -0.2574
 7677SOL    HW124472   5.863   5.660   9.261  2.0546 -1.1104 -2.1600
 7677SOL    HW224473   5.771   5.613   9.151 -0.1378  0.1927 -0.9596
 7678SOL     OW24474   2.854   7.056   5.333  0.1537 -0.6863  0.1403
 7678SOL    HW124475   2.784   7.105   5.291 -0.4787  0.7986  2.7249
 7678SOL    HW224476   2.931   7.071   5.277 -1.3667 -1.9774 -2.4982
 7679SOL     OW24477   7.507   0.360   3.137 -0.0533  0.3490  0.2495
 7679SOL    HW124478   7.429   0.401   3.100 -1.1551 -2.8993 -1.3933
 7679SOL    HW224479   7.483   0.267   3.147  4.5089 -1.6999 -3.6836
 7680SOL     OW24480   6.104   4.930   6.475 -0.3810  0.2839  0.2959
 7680SOL    HW124481   6.148   4.863   6.528  0.1699  0.9248  0.6684
 7680SOL    HW224482   6.130   4.910   6.385  2.1029  1.5874  0.6126
 7681SOL     OW24483   5.256   3.812   5.384 -0.0924  0.1026  0.3927
 7681SOL    HW124484   5.245   3.802   5.289 -0.1166  0.6873  0.3327
 7681SOL    HW224485   5.286   3.726   5.413  0.3907  0.0519 -0.2175
 7682SOL     OW24486   0.123   2.983   8.100 -0.0217  0.0919 -0.7811
 7682SOL    HW124487   0.034   3.015   8.117  0.2262  0.2754  0.2837
 7682SOL    HW224488   0.176   3.063   8.099  0.4752 -0.1623  1.0493
 7683SOL     OW24489   6.356   4.166   0.318 -0.3009  0.3644 -0.3225
 7683SOL    HW124490   6.430   4.152   0.260  0.6783  0.5481  0.8436
 7683SOL    HW224491   6.370   4.253   0.355 -0.0874 -0.3229  1.3041
 7684SOL     OW24492   4.762   2.908   1.484  0.4549 -0.0156 -0.8857
 7684SOL    HW124493   4.672   2.934   1.501  0.5658 -0.6841  0.9512
 7684SOL    HW224494   4.773   2.826   1.532  1.4618 -1.0323 -2.7502
 7685SOL     OW24495   1.872   2.256   2.195 -0.0299  0.1138 -0.0092
 7685SOL    HW124496   1.911   2.336   2.229 -0.1846 -0.1109  0.7041
 7685SOL    HW224497   1.887   2.260   2.100 -0.3321  1.1425 -0.0206
 7686SOL     OW24498   2.077   7.421  11.097  0.2585  0.0363  0.5087
 7686SOL    HW124499   2.112   7.353  11.156  0.5552  0.8395  1.2745
 7686SOL    HW224500   2.001   7.455  11.143  1.0995  1.4005  0.9440
 7687SOL     OW24501   1.785   4.835   8.950  0.0045 -0.1849 -0.3433
 7687SOL    HW124502   1.739   4.900   8.897  0.2773  1.4258  1.2786
 7687SOL    HW224503   1.810   4.883   9.029  2.6807 -1.5404 -0.2714
 7688SOL     OW24504   4.726   0.541   0.407 -0.3227 -0.6384  0.3395
 7688SOL    HW124505   4.718   0.636   0.396 -0.8014 -0.6090  0.9072
 7688SOL    HW224506   4.791   0.515   0.341 -0.3597  0.0471  0.0207
 7689SOL     OW24507   4.201   4.059  11.582 -0.5242 -0.1251 -0.0792
 7689SOL    HW124508   4.145   4.129  11.618 -0.9689 -1.0394  1.0608
 7689SOL    HW224509   4.161   4.038  11.497 -2.3132 -1.1777  0.9729
 7690SOL     OW24510   0.927   6.418   0.754  0.3530 -0.3086 -0.4115
 7690SOL    HW124511   0.837   6.435   0.726  0.2799 -1.0554 -0.6246
 7690SOL    HW224512   0.925   6.330   0.791  0.6491  0.2746  1.0762
 7691SOL     OW24513   4.806   2.782   6.245  0.3645  0.5996  0.5838
 7691SOL    HW124514   4.798   2.718   6.315  0.8746 -1.7182 -1.3645
 7691SOL    HW224515   4.728   2.770   6.191  1.5048  0.0061 -1.0195
 7692SOL     OW24516   3.238   1.285   1.748 -0.2514  0.0848  0.1569
 7692SOL    HW124517   3.195   1.290   1.663  0.1491  1.2693  0.0100
 7692SOL    HW224518   3.297   1.210   1.741 -1.9280 -1.3170  0.2235
 7693SOL     OW24519   2.698   1.553   1.340  0.3616 -0.0785  0.1827
 7693SOL    HW124520   2.755   1.479   1.360 -0.7069 -1.1006 -0.4948
 7693SOL    HW224521   2.613   1.514   1.319 -0.2057  1.3332 -0.2680
 7694SOL     OW24522   7.847   6.646   9.766  0.2405  0.3024  0.1603
 7694SOL    HW124523   7.762   6.662   9.723 -0.1318  0.9020  1.0912
 7694SOL    HW224524   7.824   6.601   9.847  0.9457 -0.8932 -0.2764
 7695SOL     OW24525   1.410   6.726   1.910 -0.2918 -0.4344 -0.4670
 7695SOL    HW124526   1.392   6.748   2.001 -2.4133 -1.3833 -0.5918
 7695SOL    HW224527   1.428   6.632   1.911 -1.0950 -0.6135 -1.0789
 7696SOL     OW24528   3.427   7.076   1.109  0.2166  0.4458 -0.4420
 7696SOL    HW124529   3.401   7.114   1.193 -1.8014  0.3443 -0.9845
 7696SOL    HW224530   3.418   6.981   1.122  0.0931  0.4201 -0.7246
 7697SOL     OW24531   7.205   4.897   4.760 -0.0297 -0.7807  0.7416
 7697SOL    HW124532   7.215   4.911   4.854  2.6564 -2.2456  0.7612
 7697SOL    HW224533   7.243   4.810   4.744 -0.8955 -0.8017 -1.6317
 7698SOL     OW24534   7.521   1.538   6.815  0.3098  0.2385  0.6050
 7698SOL    HW124535   7.519   1.544   6.720 -1.1354 -0.8298  0.5359
 7698SOL    HW224536   7.452   1.475   6.837  0.0342  1.0906  2.4084
 7699SOL     OW24537   4.411   4.052   6.078  0.6694 -0.3161 -0.6275
 7699SOL    HW124538   4.484   4.009   6.123  1.9297 -1.1130 -3.2423
 7699SOL    HW224539   4.333   4.006   6.108  1.3012 -0.1560  1.4096
 7700SOL     OW24540   7.393   2.596  10.818 -0.3083 -0.6729  0.5623
 7700SOL    HW124541   7.459   2.625  10.881 -1.0884 -0.3451  1.2644
 7700SOL    HW224542   7.315   2.579  10.872 -0.5594 -1.8509 -0.1352
 7701SOL     OW24543   1.694   0.771   7.960 -0.3201  0.3473 -0.2422
 7701SOL    HW124544   1.615   0.728   7.929  0.2369 -0.0745 -1.0893
 7701SOL    HW224545   1.765   0.729   7.913  0.4882  0.2303  1.0231
 7702SOL     OW24546   3.160   6.411   4.430 -0.6666  0.2139  0.4200
 7702SOL    HW124547   3.099   6.438   4.498 -0.1699 -1.2685  1.5058
 7702SOL    HW224548   3.196   6.493   4.396 -3.6800  1.1934 -0.7498
 7703SOL     OW24549   0.119   4.926   2.506 -0.3725  0.3036  0.4531
 7703SOL    HW124550   0.082   4.853   2.557 -0.4561  0.0379  0.0207
 7703SOL    HW224551   0.126   4.891   2.417 -2.2918  1.4703 -0.2169
 7704SOL     OW24552   1.425   4.788   6.753  0.3887 -0.2520 -0.0097
 7704SOL    HW124553   1.468   4.705   6.768  2.1205  0.8217  1.3426
 7704SOL    HW224554   1.416   4.794   6.658 -2.6815 -3.2952 -0.1223
 7705SOL     OW24555   4.200   4.319   9.908 -0.2431 -1.0428  0.1898
 7705SOL    HW124556   4.140   4.291   9.977 -1.0946  0.7220  0.2444
 7705SOL    HW224557   4.276   4.353   9.955 -1.1729  0.9405  0.3753
 7706SOL     OW24558   7.846   4.831   8.745 -0.3507  0.9312 -0.4124
 7706SOL    HW124559   7.784   4.831   8.672 -0.0340 -0.3291 -0.6980
 7706SOL    HW224560   7.873   4.740   8.753 -0.0860  1.1183  1.0357
 7707SOL     OW24561   2.661   5.900   7.291  0.0539  0.4566 -0.0303
 7707SOL    HW124562   2.570   5.893   7.317  0.0861 -1.5115 -0.3142
 7707SOL    HW224563   2.659   5.943   7.205 -0.6031  0.3768 -0.0543
 7708SOL     OW24564   1.423   5.674   5.794 -0.1574 -0.4438  0.2388
 7708SOL    HW124565   1.358   5.744   5.797  0.0230 -0.2823  0.5050
 7708SOL    HW224566   1.439   5.652   5.886  1.0045  0.3115  0.2439
 7709SOL     OW24567   5.542   7.466  10.548  0.1676 -0.4331 -0.1002
 7709SOL    HW124568   5.558   7.438  10.458 -1.6319  0.6769 -0.8168
 7709SOL    HW224569   5.499   7.551  10.539  0.8495  0.1641  1.8504
 7710SOL     OW24570   4.882   4.774   5.616  0.0271  0.5718 -0.1277
 7710SOL    HW124571   4.975   4.773   5.593 -0.1862 -0.2241 -1.0260
 7710SOL    HW224572   4.864   4.685   5.646 -0.6658  0.4349 -0.9234
 7711SOL     OW24573   2.943   0.181  11.427  0.4869  0.1444 -0.3236
 7711SOL    HW124574   2.913   0.091  11.434  0.1968  0.1435 -1.3549
 7711SOL    HW224575   2.864   0.234  11.441  0.0079  0.1502 -2.6210
 7712SOL     OW24576   2.547   2.119   2.134 -0.0536  0.3364 -0.3819
 7712SOL    HW124577   2.461   2.141   2.097 -0.9122 -1.3351  0.5197
 7712SOL    HW224578   2.579   2.047   2.079  0.4127  0.4173 -0.2202
 7713SOL     OW24579   2.817   2.749   3.195  0.3419  0.3227  0.1938
 7713SOL    HW124580   2.876   2.689   3.149  0.1067 -0.2372  0.6074
 7713SOL    HW224581   2.744   2.693   3.224  1.1029  0.3662  2.4012
 7714SOL     OW24582   5.430   1.685   6.058  0.1264 -0.2645  0.1830
 7714SOL    HW124583   5.491   1.659   5.989 -1.9802 -0.9181 -1.5490
 7714SOL    HW224584   5.466   1.646   6.138  1.5720 -1.2344 -0.8943
 7715SOL     OW24585   0.181   5.028   3.409 -0.1501 -0.0212 -0.1529
 7715SOL    HW124586   0.236   4.985   3.343 -0.3210 -0.3720 -0.0649
 7715SOL    HW224587   0.091   5.008   3.383 -0.2308  0.2562 -0.0921
 7716SOL     OW24588   3.526   0.862   0.181  0.5092 -0.0106  0.1090
 7716SOL    HW124589   3.501   0.772   0.163  0.9851  0.1945 -1.8146
 7716SOL    HW224590   3.566   0.893   0.100  1.4934  1.5500  1.1147
 7717SOL     OW24591   6.318   5.803   4.984 -0.0111  0.5741  0.9373
 7717SOL    HW124592   6.407   5.813   4.953 -0.2649 -0.3001 -0.1127
 7717SOL    HW224593   6.265   5.859   4.927 -0.4345 -0.7924 -0.0724
 7718SOL     OW24594   3.860   0.016  11.771  0.1638 -0.2005  0.3088
 7718SOL    HW124595   3.767   0.001  11.753 -0.3048  1.8712  0.7319
 7718SOL    HW224596   3.887  -0.058  11.825 -1.2160 -0.8551  0.1399
 7719SOL     OW24597   1.925   6.412   0.228  0.0601  0.3157 -0.2344
 7719SOL    HW124598   1.959   6.350   0.293 -1.0535  0.3414  0.3908
 7719SOL    HW224599   1.830   6.406   0.236 -0.0795  1.8890 -0.3571
 7720SOL     OW24600   7.610   1.848   0.961  0.1147  0.3263 -0.2788
 7720SOL    HW124601   7.573   1.891   0.884 -2.2898  0.7729  1.0159
 7720SOL    HW224602   7.545   1.782   0.986  0.9605 -0.0200  1.1789
 7721SOL     OW24603   2.639   3.947   9.282 -0.2888 -0.0822 -0.0934
 7721SOL    HW124604   2.658   3.881   9.216 -0.6552 -1.0294  0.7090
 7721SOL    HW224605   2.597   4.019   9.234  1.5117  0.2597 -1.2165
 7722SOL     OW24606   0.214   6.213   0.097 -0.2852 -0.0024  0.3712
 7722SOL    HW124607   0.199   6.306   0.115 -1.4366  0.0071 -0.4989
 7722SOL    HW224608   0.172   6.198   0.012 -0.2659 -1.3515  0.5786
 7723SOL     OW24609   0.938   7.752   0.071  0.3388  0.5189 -0.4777
 7723SOL    HW124610   0.911   7.833   0.115  1.4435  0.3683  0.5230
 7723SOL    HW224611   1.021   7.773   0.029  1.2001 -0.3635  0.7116
 7724SOL     OW24612   3.175   7.029  12.269 -0.0919  0.2305 -0.5217
 7724SOL    HW124613   3.097   6.975  12.282 -0.0106 -0.5400 -2.8380
 7724SOL    HW224614   3.231   7.009  12.344 -0.5522 -2.0499 -0.7105
 7725SOL     OW24615   5.306   1.384   6.468  0.5775  0.1445  0.0188
 7725SOL    HW124616   5.241   1.403   6.536  0.7365  0.4860  0.0725
 7725SOL    HW224617   5.257   1.391   6.386 -0.0765 -2.0332  0.1491
 7726SOL     OW24618   3.031   5.506   8.104  0.3598  0.0465  0.4886
 7726SOL    HW124619   3.097   5.519   8.173 -0.3196 -0.1528  1.1938
 7726SOL    HW224620   2.951   5.484   8.152 -0.0929 -0.2319 -0.3826
 7727SOL     OW24621   1.635   4.985   8.795  0.0926 -0.2120  0.3515
 7727SOL    HW124622   1.669   4.979   8.706 -1.3053 -0.5553 -0.1891
 7727SOL    HW224623   1.541   4.969   8.786 -0.5747  2.4318  1.5211
 7728SOL     OW24624   4.110   1.030   8.919 -0.0385 -0.0141  0.1964
 7728SOL    HW124625   4.204   1.042   8.906 -0.3529 -0.4472 -3.2502
 7728SOL    HW224626   4.096   0.935   8.912 -0.9145  0.1934 -1.2115
 7729SOL     OW24627   4.422   4.639   0.879 -0.8449  0.3034 -0.1031
 7729SOL    HW124628   4.351   4.688   0.838 -1.9396  1.0295  2.4877
 7729SOL    HW224629   4.387   4.610   0.963  1.7248  0.1980  1.0421
 7730SOL     OW24630   3.326   3.853   2.734  0.7292 -0.1510  0.1337
 7730SOL    HW124631   3.406   3.866   2.785  2.0960 -1.6967 -1.5064
 7730SOL    HW224632   3.295   3.766   2.760 -0.3725  0.3743  0.6448
 7731SOL     OW24633   5.584   5.490   2.550 -0.7196  0.1572  0.2276
 7731SOL    HW124634   5.594   5.395   2.549  1.5274  0.3558 -1.2153
 7731SOL    HW224635   5.514   5.506   2.615 -0.2219 -2.3545  1.4973
 7732SOL     OW24636   7.100   6.766   4.788  0.8961  0.4608 -0.6171
 7732SOL    HW124637   7.037   6.696   4.771  0.0362  1.3917 -1.3632
 7732SOL    HW224638   7.167   6.755   4.721  1.5714 -0.5333  0.1801
 7733SOL     OW24639   0.441   0.760   3.370  0.3288 -0.5986  0.6434
 7733SOL    HW124640   0.524   0.807   3.361 -0.3060  0.7858  1.5880
 7733SOL    HW224641   0.414   0.741   3.280  1.0089  0.1543  0.2669
 7734SOL     OW24642   5.108   1.985   4.560 -0.1402 -0.2411 -0.3465
 7734SOL    HW124643   5.068   2.064   4.522 -0.7350  0.7260  2.0975
 7734SOL    HW224644   5.089   1.916   4.497 -0.5709  1.3377 -2.0422
 7735SOL     OW24645   1.519   1.809  12.339 -0.1122  0.6383 -0.0967
 7735SOL    HW124646   1.501   1.804  12.245 -0.9140  0.3229  0.0668
 7735SOL    HW224647   1.545   1.720  12.364  0.0489  0.7086 -0.0163
 7736SOL     OW24648   2.103   2.547   8.895  0.2053  0.1623  0.1922
 7736SOL    HW124649   2.048   2.625   8.882  1.6063  1.2880  0.8112
 7736SOL    HW224650   2.163   2.548   8.821  0.0926 -0.4697  0.0889
 7737SOL     OW24651   5.221   4.738   2.324 -0.4321  0.2959 -0.4636
 7737SOL    HW124652   5.188   4.648   2.319  1.4243 -0.4633  0.0899
 7737SOL    HW224653   5.147   4.789   2.357 -0.6524 -1.5821  2.2323
 7738SOL     OW24654   1.500   5.256  12.289 -0.6862  0.3841  0.3611
 7738SOL    HW124655   1.595   5.263  12.301 -0.8513  1.5856  1.1663
 7738SOL    HW224656   1.477   5.171  12.327 -0.1811  0.9469  2.0275
 7739SOL     OW24657   0.688   6.082   2.481 -0.1089 -0.4470  0.0278
 7739SOL    HW124658   0.711   6.150   2.418 -1.6742  0.3650  0.2873
 7739SOL    HW224659   0.616   6.034   2.440 -0.6142 -0.4194  0.8598
 7740SOL     OW24660   7.542   5.965   8.616  0.3625 -0.1160 -0.3532
 7740SOL    HW124661   7.628   5.990   8.651  0.5434 -0.2700 -0.6842
 7740SOL    HW224662   7.483   5.976   8.690  0.6930 -0.1601 -0.0775
 7741SOL     OW24663   6.176   4.666  12.293  0.2021  0.3011 -0.6527
 7741SOL    HW124664   6.124   4.589  12.268 -1.5390  0.6111  1.6506
 7741SOL    HW224665   6.162   4.729  12.222 -0.0018 -0.7711 -1.5808
 7742SOL     OW24666   4.736   5.821   4.584 -0.5444 -0.3572  0.1725
 7742SOL    HW124667   4.749   5.886   4.515 -1.0039 -0.6863 -0.2297
 7742SOL    HW224668   4.822   5.811   4.625 -0.4996  0.5828  0.3125
 7743SOL     OW24669   2.062   0.331   5.265 -0.3574  0.4426 -0.5357
 7743SOL    HW124670   2.000   0.346   5.336  0.5335  1.7765  0.0038
 7743SOL    HW224671   2.008   0.310   5.189 -1.2887 -2.1810  0.7631
 7744SOL     OW24672   7.120   5.251   6.152  0.5550 -0.1151  0.3767
 7744SOL    HW124673   7.065   5.174   6.141  0.4260 -0.0560  0.5963
 7744SOL    HW224674   7.125   5.290   6.065  0.7678 -0.4685  0.2252
 7745SOL     OW24675   0.811   1.062   4.327 -0.7656  0.2911  0.1694
 7745SOL    HW124676   0.864   1.061   4.247  0.3353  0.9705  0.8675
 7745SOL    HW224677   0.818   1.152   4.359 -0.7023 -0.1154  1.3425
 7746SOL     OW24678   6.032   0.148   2.227 -0.6469  0.9426 -0.4092
 7746SOL    HW124679   6.115   0.115   2.261 -0.3650  1.4082 -0.6382
 7746SOL    HW224680   5.969   0.133   2.297 -0.5017  0.0168 -0.4660
 7747SOL     OW24681   1.797   7.096   0.224 -0.0452  0.0901 -0.4954
 7747SOL    HW124682   1.743   7.092   0.304 -1.5212 -0.3695 -1.4680
 7747SOL    HW224683   1.772   7.017   0.175 -0.5759  1.2936 -2.2582
 7748SOL     OW24684   7.503   2.581   3.288 -0.5657  0.4678 -0.1232
 7748SOL    HW124685   7.445   2.511   3.319  0.2300  0.1381  0.6782
 7748SOL    HW224686   7.552   2.540   3.216  0.0977  0.0946  0.5273
 7749SOL     OW24687   6.039   3.111   1.135 -0.5023  0.7269  0.2725
 7749SOL    HW124688   6.121   3.072   1.165 -1.1355 -0.5819  0.3417
 7749SOL    HW224689   6.042   3.201   1.169  0.1761  0.2126  1.6704
 7750SOL     OW24690   6.612   0.701   2.391  0.6124 -0.3872  0.3642
 7750SOL    HW124691   6.563   0.689   2.310  0.4787  0.8744  0.2504
 7750SOL    HW224692   6.626   0.795   2.398  0.7103 -0.4833  1.7656
 7751SOL     OW24693   3.102   1.931   7.340 -0.0800  0.3216  0.4607
 7751SOL    HW124694   3.045   1.998   7.379 -0.2062  0.0332  0.7740
 7751SOL    HW224695   3.171   1.918   7.405 -0.6514 -0.6401  0.8967
 7752SOL     OW24696   4.659   3.619   5.884 -0.5230 -0.2880 -0.5975
 7752SOL    HW124697   4.672   3.565   5.806 -2.1206  0.3309 -1.3320
 7752SOL    HW224698   4.747   3.648   5.907  0.0742 -1.1360 -1.6900
 7753SOL     OW24699   0.190   2.773   9.443  0.1945 -0.0364  0.7462
 7753SOL    HW124700   0.155   2.858   9.471  0.5595  0.0588  0.9162
 7753SOL    HW224701   0.234   2.791   9.360  2.1032  0.3748  1.7987
 7754SOL     OW24702   0.033   5.482   8.506 -0.3097 -0.0098 -0.1478
 7754SOL    HW124703  -0.022   5.515   8.577 -2.2138 -0.6188 -1.2649
 7754SOL    HW224704  -0.007   5.517   8.426 -1.0693 -3.0204 -1.2305
 7755SOL     OW24705   1.130   4.283   7.605 -0.1983  0.2112  0.3034
 7755SOL    HW124706   1.174   4.328   7.677 -0.4813 -0.5948  1.0055
 7755SOL    HW224707   1.193   4.216   7.577  0.1540  0.9137 -0.6177
 7756SOL     OW24708   1.560   4.092   8.293  0.2622 -0.3926  0.1909
 7756SOL    HW124709   1.555   4.061   8.383  2.0822  0.0815  0.4931
 7756SOL    HW224710   1.653   4.109   8.278 -0.0923  0.2975 -1.5234
 7757SOL     OW24711   5.233   1.995  11.640 -0.3951 -0.2952  0.2128
 7757SOL    HW124712   5.248   2.009  11.546 -1.0251 -0.4433  0.0885
 7757SOL    HW224713   5.267   1.907  11.656 -2.4734 -1.2752 -0.3983
 7758SOL     OW24714   1.633   3.036   1.282 -0.1140  0.1403  0.0946
 7758SOL    HW124715   1.682   2.955   1.298  0.9059  0.8589  0.7916
 7758SOL    HW224716   1.541   3.011   1.290  0.1202 -1.2661 -1.3008
 7759SOL     OW24717   5.816   3.524   9.767  0.0793  0.0691  0.5318
 7759SOL    HW124718   5.784   3.459   9.830  0.8834 -0.0601  0.8125
 7759SOL    HW224719   5.736   3.559   9.728 -0.3753 -1.0846  0.3689
 7760SOL     OW24720   1.167   5.046   2.454  0.7368 -0.1756  0.0839
 7760SOL    HW124721   1.153   5.116   2.390 -0.7731 -0.2792  0.2562
 7760SOL    HW224722   1.221   5.086   2.522  0.4894  0.6090 -0.1657
 7761SOL     OW24723   5.519   4.823   5.069 -0.1571 -0.1201  0.2928
 7761SOL    HW124724   5.566   4.902   5.044  0.1656 -0.2959  0.3367
 7761SOL    HW224725   5.439   4.855   5.110 -0.3880  0.1719 -0.3805
 7762SOL     OW24726   5.835   6.349  10.620  0.4383  0.4752  0.5194
 7762SOL    HW124727   5.793   6.322  10.538 -0.8053  0.4288  1.1555
 7762SOL    HW224728   5.929   6.349  10.599  0.4055 -2.4062 -0.1008
 7763SOL     OW24729   1.889   6.121   2.280 -0.2600 -0.2662  0.0828
 7763SOL    HW124730   1.864   6.107   2.189 -2.2501  1.1869  0.3368
 7763SOL    HW224731   1.835   6.195   2.308  1.0288 -0.0442  2.1581
 7764SOL     OW24732   0.448   2.869   4.414 -0.1990 -0.4391  0.0896
 7764SOL    HW124733   0.506   2.925   4.466  0.5258 -0.1427 -0.9981
 7764SOL    HW224734   0.508   2.813   4.364 -0.8762 -0.8529 -0.2780
 7765SOL     OW24735   4.134   6.998   4.648 -0.0835 -0.2401  0.1292
 7765SOL    HW124736   4.128   6.911   4.687 -1.5961 -0.3730 -0.3320
 7765SOL    HW224737   4.043   7.027   4.641  0.4079  1.6194  0.7947
 7766SOL     OW24738   2.092   2.508   1.974 -0.2659 -0.0144 -0.3496
 7766SOL    HW124739   2.033   2.542   2.042 -2.3517 -2.5284 -0.7289
 7766SOL    HW224740   2.100   2.580   1.911 -0.3361  1.4956  1.2799
 7767SOL     OW24741   4.634   1.084   3.392 -0.5549 -0.0833  0.1641
 7767SOL    HW124742   4.551   1.126   3.367 -0.4664 -0.0336 -0.0530
 7767SOL    HW224743   4.633   1.083   3.487 -0.5405  0.4465  0.1716
 7768SOL     OW24744   2.017   2.105  10.395  0.3006  0.3943 -0.1569
 7768SOL    HW124745   1.972   2.023  10.416 -1.0882  1.3363  0.7624
 7768SOL    HW224746   2.104   2.095  10.433  0.0270 -0.5093  0.2656
 7769SOL     OW24747   2.687   1.566   8.786  0.1355  0.1185 -0.3125
 7769SOL    HW124748   2.647   1.620   8.717 -1.4974 -2.1766 -1.2951
 7769SOL    HW224749   2.780   1.588   8.783 -0.0683  0.9428 -2.4654
 7770SOL     OW24750   2.049   4.182   5.947  0.1569 -0.5023  0.3160
 7770SOL    HW124751   2.111   4.143   5.885 -1.6432 -2.2277 -0.5104
 7770SOL    HW224752   2.028   4.268   5.909  0.5589 -0.7259 -0.4404
 7771SOL     OW24753   1.934   2.415   0.388 -0.2763  0.2429  0.1453
 7771SOL    HW124754   2.016   2.462   0.405  0.9972 -1.5541 -0.6663
 7771SOL    HW224755   1.869   2.459   0.443  0.6039  3.4209 -1.1343
 7772SOL     OW24756   1.200   1.057   0.690 -0.3481 -0.4526 -0.1823
 7772SOL    HW124757   1.277   1.114   0.695 -0.7609  0.3250 -1.8249
 7772SOL    HW224758   1.233   0.970   0.711  0.4279  0.2556  1.7960
 7773SOL     OW24759   0.293   3.638   5.733  0.3092 -0.2699 -0.2727
 7773SOL    HW124760   0.217   3.612   5.785 -1.6332  1.5746 -1.9960
 7773SOL    HW224761   0.271   3.614   5.643  1.9721 -0.0598 -0.7858
 7774SOL     OW24762   7.696   3.663   3.536  0.1017 -0.1945  0.2599
 7774SOL    HW124763   7.792   3.660   3.532  0.1214  1.2664 -2.0284
 7774SOL    HW224764   7.676   3.755   3.553 -0.9297 -0.4699  0.5996
 7775SOL     OW24765   1.505   5.654   7.151 -0.1521 -0.4065 -0.6338
 7775SOL    HW124766   1.546   5.581   7.198  2.3525  0.4418 -1.3187
 7775SOL    HW224767   1.529   5.639   7.059 -1.0548  0.3786 -1.0092
 7776SOL     OW24768   6.189   4.490   2.599 -0.1488 -0.1337  0.5549
 7776SOL    HW124769   6.123   4.436   2.555 -0.6834  1.4633 -0.7128
 7776SOL    HW224770   6.272   4.459   2.564 -0.2948 -1.1884  1.0759
 7777SOL     OW24771   7.340   0.107   6.578  0.6897 -0.1128  0.5501
 7777SOL    HW124772   7.349   0.110   6.483 -0.6118 -0.1355  0.4033
 7777SOL    HW224773   7.246   0.119   6.593  0.9912  0.7787  1.8758
 7778SOL     OW24774   6.305   4.267   0.887  0.2228  0.2058 -0.2529
 7778SOL    HW124775   6.324   4.177   0.862  1.9668 -0.2439  2.3682
 7778SOL    HW224776   6.223   4.262   0.936 -0.3300  0.2749 -1.1444
 7779SOL     OW24777   5.131   7.323   3.619 -0.4634  0.3590  0.0690
 7779SOL    HW124778   5.104   7.236   3.649 -0.3641  0.3722  0.1944
 7779SOL    HW224779   5.222   7.331   3.646  0.0705 -0.1829 -1.4565
 7780SOL     OW24780   3.625   6.529   3.489  0.3994  1.2042 -0.1506
 7780SOL    HW124781   3.531   6.522   3.501  0.2759  0.2311 -1.4736
 7780SOL    HW224782   3.636   6.558   3.398  1.3971 -2.1225 -1.2152
 7781SOL     OW24783   1.825   7.637   6.246 -0.3370 -0.0036 -0.5983
 7781SOL    HW124784   1.871   7.658   6.328 -0.0975 -0.9876 -0.4712
 7781SOL    HW224785   1.738   7.675   6.257 -0.8440 -1.4518  0.7792
 7782SOL     OW24786   0.724   6.335   1.134  0.0986 -0.0635  0.2727
 7782SOL    HW124787   0.640   6.341   1.180 -0.5911  1.6740 -1.1190
 7782SOL    HW224788   0.742   6.241   1.131 -0.5309 -0.3256  2.7569
 7783SOL     OW24789   6.698   7.291   9.042  0.9221 -0.0580 -0.9144
 7783SOL    HW124790   6.608   7.282   9.009  0.0197  0.1633  1.3017
 7783SOL    HW224791   6.715   7.207   9.085  0.8839  0.7066  0.6423
 7784SOL     OW24792   6.959   2.746  11.787 -0.6072  0.1971  0.5310
 7784SOL    HW124793   6.959   2.821  11.847 -0.7134  0.3459  0.3447
 7784SOL    HW224794   6.901   2.683  11.828 -0.5458  0.2312  0.6714
 7785SOL     OW24795   0.556   3.944   0.713  0.1284  0.2935 -0.0617
 7785SOL    HW124796   0.565   3.888   0.636 -0.1231 -0.7126  0.6241
 7785SOL    HW224797   0.566   4.033   0.679 -1.0253 -0.0585 -1.4305
 7786SOL     OW24798   5.248   0.211   2.410 -0.0586  0.0078 -0.3122
 7786SOL    HW124799   5.192   0.268   2.357  1.5886  1.5462 -0.4961
 7786SOL    HW224800   5.313   0.270   2.448  1.6543 -1.7483 -0.3864
 7787SOL     OW24801   2.750   3.756   0.757  0.1772  0.2904 -0.1820
 7787SOL    HW124802   2.664   3.716   0.774  0.1960 -0.4168 -1.5450
 7787SOL    HW224803   2.813   3.686   0.775  0.4325  0.6503  0.3269
 7788SOL     OW24804   7.645   2.217   9.749  0.1169 -0.1606  0.3059
 7788SOL    HW124805   7.595   2.182   9.676 -0.4736 -1.1271  1.1516
 7788SOL    HW224806   7.735   2.188   9.734  0.1048  0.0951 -0.2930
 7789SOL     OW24807   0.765   7.519   7.435 -0.4115 -0.3895 -0.4070
 7789SOL    HW124808   0.703   7.449   7.416  0.4178 -1.1471 -0.3662
 7789SOL    HW224809   0.718   7.577   7.495 -0.1687 -2.3824  1.8402
 7790SOL     OW24810   7.556   4.176  10.876 -0.4693 -0.0541  0.0437
 7790SOL    HW124811   7.496   4.104  10.896  0.2269 -0.7111 -0.1687
 7790SOL    HW224812   7.507   4.255  10.899 -0.6095 -0.6473  1.9966
 7791SOL     OW24813   0.496   6.584   1.108 -0.5645 -0.1174 -0.1222
 7791SOL    HW124814   0.420   6.607   1.054 -0.8859  0.0424  0.3864
 7791SOL    HW224815   0.486   6.491   1.125 -1.2076  0.0975  0.7791
 7792SOL     OW24816   0.750   7.277   8.030  0.1164  0.3723 -0.2630
 7792SOL    HW124817   0.843   7.289   8.010 -0.0985  0.7291 -1.1120
 7792SOL    HW224818   0.749   7.247   8.121  1.0242  0.9688 -0.0343
 7793SOL     OW24819   1.150   5.380   9.440 -0.2987  0.1349  0.1162
 7793SOL    HW124820   1.227   5.330   9.413  0.6569  1.7837 -0.3018
 7793SOL    HW224821   1.087   5.368   9.368  0.7405  1.2710 -1.0132
 7794SOL     OW24822   6.734   4.440   0.196  0.1538  0.0220 -0.0995
 7794SOL    HW124823   6.734   4.421   0.102  1.6932 -0.1037 -0.1090
 7794SOL    HW224824   6.772   4.528   0.203  1.0161 -0.3744  0.4440
 7795SOL     OW24825   2.016   5.448   9.824 -0.0982 -0.0539 -0.3962
 7795SOL    HW124826   1.999   5.424   9.915  1.2507  0.4071  0.0051
 7795SOL    HW224827   1.975   5.534   9.814  2.0230  1.1846  0.6427
 7796SOL     OW24828   2.729   3.303   0.319 -0.6558 -0.0942  0.5736
 7796SOL    HW124829   2.768   3.388   0.303 -0.1260 -0.2997  0.7675
 7796SOL    HW224830   2.701   3.306   0.410 -0.8297 -0.0552  0.5201
 7797SOL     OW24831   0.780   1.977   6.363 -0.1878  0.0375 -0.5512
 7797SOL    HW124832   0.764   2.040   6.293 -1.5837 -0.8436 -1.0721
 7797SOL    HW224833   0.707   1.915   6.357  0.3998 -0.8454  0.8156
 7798SOL     OW24834   3.160   6.647   3.327 -0.2629  0.7628 -0.0728
 7798SOL    HW124835   3.137   6.715   3.391 -2.0349  0.4215 -0.3052
 7798SOL    HW224836   3.157   6.691   3.243  1.4893  1.0667 -0.0117
 7799SOL     OW24837   2.382   0.008   2.402 -0.9297  0.5970 -0.1305
 7799SOL    HW124838   2.458  -0.037   2.440 -1.0016 -0.2672 -0.9779
 7799SOL    HW224839   2.409   0.099   2.397  0.9666  0.0294 -2.4131
 7800SOL     OW24840   6.724   5.991  11.638  0.2307 -0.2540 -0.4226
 7800SOL    HW124841   6.762   5.934  11.570 -1.5555 -0.5220 -1.2664
 7800SOL    HW224842   6.666   6.049  11.589 -3.4485 -2.3800  1.0445
 7801SOL     OW24843   3.047   5.355   6.284 -0.2359  0.3055 -0.0893
 7801SOL    HW124844   3.001   5.387   6.362 -2.2619  0.4238 -1.2705
 7801SOL    HW224845   2.996   5.390   6.210  1.2938 -0.2760 -1.4715
 7802SOL     OW24846   2.357   3.692   6.161  0.6525 -0.3086  0.3712
 7802SOL    HW124847   2.263   3.708   6.169  0.5401  0.5230 -1.8371
 7802SOL    HW224848   2.363   3.612   6.108  1.2073 -0.5925  0.8466
 7803SOL     OW24849   0.217   5.724   6.819 -0.4843 -0.4253 -0.9950
 7803SOL    HW124850   0.145   5.786   6.824 -0.3133 -0.2803 -0.2277
 7803SOL    HW224851   0.178   5.644   6.783 -1.3611 -0.8095  0.6750
 7804SOL     OW24852   5.767   1.102   4.502 -0.1127 -0.3802 -0.6832
 7804SOL    HW124853   5.772   1.071   4.411 -1.3060 -0.3166 -0.7754
 7804SOL    HW224854   5.857   1.130   4.521  0.4727 -1.6326 -1.3897
 7805SOL     OW24855   6.010   4.999   6.773  0.1215 -0.0889  0.2274
 7805SOL    HW124856   6.065   4.983   6.696  1.2774  1.6705  0.6282
 7805SOL    HW224857   6.069   4.985   6.847 -0.8384 -1.2280  0.8082
 7806SOL     OW24858   1.275   2.467   3.445 -0.0254 -0.4448 -0.1725
 7806SOL    HW124859   1.349   2.431   3.395 -0.0875 -1.4861  0.4427
 7806SOL    HW224860   1.214   2.393   3.452 -0.0610 -0.2874  1.3286
 7807SOL     OW24861   3.456   6.231  11.473 -0.4935  0.4716 -0.1846
 7807SOL    HW124862   3.521   6.281  11.423 -0.3136  1.3651  0.8974
 7807SOL    HW224863   3.382   6.291  11.483 -0.7196  0.1311  0.2206
 7808SOL     OW24864   7.278   1.970   7.019  0.2850 -0.1432  0.0109
 7808SOL    HW124865   7.299   1.883   6.985  0.6433 -0.2712  0.5501
 7808SOL    HW224866   7.328   2.031   6.964 -1.2199 -0.1433 -1.4301
 7809SOL     OW24867   3.183   1.207   6.282  0.3209  0.0676  0.5705
 7809SOL    HW124868   3.228   1.143   6.226  2.4427  1.1987  0.8700
 7809SOL    HW224869   3.253   1.265   6.313 -1.1379  0.9164  2.4797
 7810SOL     OW24870   7.349   2.424   1.083  0.2489  0.0592  0.0306
 7810SOL    HW124871   7.376   2.504   1.129 -0.0320  0.6312 -0.7790
 7810SOL    HW224872   7.336   2.451   0.992  1.4929 -1.2051 -0.5631
 7811SOL     OW24873   4.553   7.717   8.059 -0.0032 -0.8870  0.0555
 7811SOL    HW124874   4.477   7.711   8.118 -1.5952  0.9959 -1.6301
 7811SOL    HW224875   4.571   7.811   8.052  0.8799 -1.1336 -1.5149
 7812SOL     OW24876   1.084   4.127   3.362 -0.1513  0.3589  0.2925
 7812SOL    HW124877   1.061   4.097   3.450  1.9229 -0.6623  0.5520
 7812SOL    HW224878   1.058   4.055   3.305 -0.7723  0.6875  0.1556
 7813SOL     OW24879   3.762   5.866   4.308 -0.5235 -0.1041  0.0423
 7813SOL    HW124880   3.680   5.892   4.350 -1.5862  0.2698 -2.0929
 7813SOL    HW224881   3.779   5.937   4.246  1.4680 -0.1630  0.4652
 7814SOL     OW24882   5.845   1.586   7.468 -0.1185 -0.1486  0.2307
 7814SOL    HW124883   5.895   1.511   7.501 -0.4736  0.3922  2.1147
 7814SOL    HW224884   5.775   1.548   7.416 -1.3992 -1.3018  2.6427
 7815SOL     OW24885   0.622   6.899  10.131 -0.0533  0.1538 -0.0165
 7815SOL    HW124886   0.700   6.951  10.109 -0.6046  0.6976 -0.7279
 7815SOL    HW224887   0.607   6.917  10.224  0.5303  0.2395  0.0646
 7816SOL     OW24888   4.589   7.826   2.775  0.5333  0.5627 -0.5657
 7816SOL    HW124889   4.554   7.832   2.686  1.9925 -1.7458 -1.3867
 7816SOL    HW224890   4.684   7.829   2.763  0.7706 -0.5973  0.7950
 7817SOL     OW24891   6.811   2.958  11.639  0.1634 -0.6423 -0.2155
 7817SOL    HW124892   6.844   2.883  11.688 -1.7571 -0.9351  0.7283
 7817SOL    HW224893   6.840   3.034  11.688 -1.0102 -0.9146  0.9570
 7818SOL     OW24894   0.674   5.803  10.528  0.1373  0.1852 -0.1482
 7818SOL    HW124895   0.664   5.866  10.456 -1.0228 -0.3064 -0.4303
 7818SOL    HW224896   0.687   5.857  10.606  1.5325  0.7287 -0.7118
 7819SOL     OW24897   7.098   5.576   6.023  0.4254  0.2688 -0.4041
 7819SOL    HW124898   7.172   5.626   5.987  0.2883  0.8141  0.0450
 7819SOL    HW224899   7.067   5.630   6.096 -0.5490  0.1514 -0.7153
 7820SOL     OW24900   4.648   1.818   8.388 -0.3674 -0.8545  0.2684
 7820SOL    HW124901   4.730   1.839   8.342 -0.3997 -0.0616  0.5683
 7820SOL    HW224902   4.581   1.826   8.321 -0.3270 -0.4248  0.2785
 7821SOL     OW24903   5.958   7.095  11.934  0.2402 -0.0481  0.2133
 7821SOL    HW124904   5.997   7.018  11.892  1.3031  1.4929 -1.8408
 7821SOL    HW224905   6.030   7.135  11.982  0.6505  1.4295 -1.5089
 7822SOL     OW24906   6.865   3.175   2.498  0.3936  0.3983  0.0729
 7822SOL    HW124907   6.909   3.214   2.574 -0.1765 -0.9309  1.1391
 7822SOL    HW224908   6.783   3.223   2.489  0.8457  1.1262 -0.2576
 7823SOL     OW24909   7.748   1.103   9.819  0.2282 -0.3304 -0.2377
 7823SOL    HW124910   7.671   1.125   9.872 -0.1084  0.8297 -1.1544
 7823SOL    HW224911   7.800   1.184   9.817 -1.1514  0.6591 -3.9089
 7824SOL     OW24912   2.902   1.291   0.702  0.2607  0.0446 -0.9035
 7824SOL    HW124913   2.992   1.301   0.733  0.0067  0.7571 -0.3875
 7824SOL    HW224914   2.900   1.203   0.664  0.7577 -0.6140  0.5063
 7825SOL     OW24915   2.512   5.373   2.327  0.2041 -0.3778 -0.1432
 7825SOL    HW124916   2.486   5.463   2.307 -1.3357 -0.9135 -0.6768
 7825SOL    HW224917   2.572   5.349   2.256  0.0521 -0.0191 -0.3961
 7826SOL     OW24918   7.718   0.160   2.260  0.0015 -0.1836 -0.2634
 7826SOL    HW124919   7.649   0.205   2.308  0.6738  1.5206 -0.8391
 7826SOL    HW224920   7.689   0.068   2.257 -1.4692  0.2108  0.8191
 7827SOL     OW24921   6.655   1.114   7.875 -0.1259  0.6642  0.5653
 7827SOL    HW124922   6.646   1.201   7.837 -2.1428  0.9233  1.5042
 7827SOL    HW224923   6.641   1.054   7.802 -0.3709  1.1531  0.2062
 7828SOL     OW24924   0.679   4.489   7.213  0.4131 -0.4494  0.2470
 7828SOL    HW124925   0.623   4.547   7.161 -0.8315 -0.8078  1.1452
 7828SOL    HW224926   0.768   4.521   7.197 -0.2485  2.0123  1.0485
 7829SOL     OW24927   1.550   6.291   3.680 -0.0560 -0.3632 -0.2514
 7829SOL    HW124928   1.569   6.214   3.626 -0.2169  1.1158 -2.5362
 7829SOL    HW224929   1.599   6.362   3.640 -0.2275  0.8576  1.5549
 7830SOL     OW24930   5.925   0.986   9.426  0.5713  0.0109 -0.0954
 7830SOL    HW124931   5.857   0.958   9.488  0.1929 -0.4897 -0.7288
 7830SOL    HW224932   5.886   1.057   9.376  0.4491 -0.3875 -0.5738
 7831SOL     OW24933   3.545   2.514   0.006  0.0397  0.0284  0.8417
 7831SOL    HW124934   3.514   2.534   0.095  0.6236  2.9133  0.4915
 7831SOL    HW224935   3.632   2.553   0.001 -0.3678  0.7868 -1.2797
 7832SOL     OW24936   4.893   4.256  11.825  0.0266 -0.8238 -0.0197
 7832SOL    HW124937   4.804   4.228  11.804 -0.3316  0.1296  0.1887
 7832SOL    HW224938   4.930   4.282  11.740 -0.2671 -0.1777  0.0505
 7833SOL     OW24939   7.368   2.980   6.098 -0.1297  0.0767  0.2608
 7833SOL    HW124940   7.388   3.072   6.081  1.1885 -0.4025 -0.9376
 7833SOL    HW224941   7.451   2.941   6.124 -0.3602 -1.0870 -0.6864
 7834SOL     OW24942   3.948   2.753   5.708  0.0101  0.0571 -0.2246
 7834SOL    HW124943   3.893   2.675   5.701 -1.3412  0.8868  0.6629
 7834SOL    HW224944   4.036   2.722   5.686 -0.5912 -1.5709 -0.5074
 7835SOL     OW24945   7.634   4.439   3.259 -0.4075  0.2865 -0.2624
 7835SOL    HW124946   7.625   4.468   3.350 -1.2135  2.4642 -0.9662
 7835SOL    HW224947   7.610   4.516   3.208  1.7196 -0.3293 -2.3392
 7836SOL     OW24948   1.894   1.640   7.982  0.6108  0.5642  0.1155
 7836SOL    HW124949   1.950   1.583   7.928 -3.3361  0.2274 -4.2134
 7836SOL    HW224950   1.901   1.726   7.941 -0.0682  1.1260  1.1516
 7837SOL     OW24951   0.335   5.482   0.390  0.2036  0.3217  0.0861
 7837SOL    HW124952   0.331   5.576   0.407 -2.1586  0.2550  0.2374
 7837SOL    HW224953   0.244   5.457   0.370  0.4641 -2.1795  1.5609
 7838SOL     OW24954   3.919   6.976   6.992  0.0777 -0.8889  0.0621
 7838SOL    HW124955   3.944   7.066   7.011 -1.8646 -0.2147 -0.2821
 7838SOL    HW224956   3.921   6.969   6.897 -0.5483 -0.9400  0.0436
 7839SOL     OW24957   4.450   5.331   0.205 -0.6732 -0.1090  0.2223
 7839SOL    HW124958   4.399   5.322   0.125  0.2359 -0.9719 -0.2839
 7839SOL    HW224959   4.391   5.375   0.266 -1.1321  1.2527 -1.1374
 7840SOL     OW24960   4.623   2.717   4.173  0.7227  0.0689  0.2194
 7840SOL    HW124961   4.693   2.654   4.158  1.6547  0.8188  1.2356
 7840SOL    HW224962   4.656   2.774   4.243 -0.4338  1.1553 -0.0715
 7841SOL     OW24963   5.350   7.674   7.591 -0.1171  0.1926  0.6935
 7841SOL    HW124964   5.371   7.725   7.669  0.6249  0.0947  0.5617
 7841SOL    HW224965   5.385   7.726   7.518 -0.6124  0.1781  0.4397
 7842SOL     OW24966   2.187   4.817   4.851 -0.2718 -0.1420  0.5715
 7842SOL    HW124967   2.131   4.801   4.775  2.8658  1.6585 -2.4278
 7842SOL    HW224968   2.164   4.906   4.879  0.6474  0.4104 -0.3536
 7843SOL     OW24969   5.044   1.851   0.130 -0.2196 -0.2482 -0.0261
 7843SOL    HW124970   4.965   1.864   0.077 -0.6953 -3.9325 -0.4767
 7843SOL    HW224971   5.113   1.898   0.083 -1.5888  0.8511 -1.0423
 7844SOL     OW24972   0.133   1.524   7.518  0.2742 -0.3865  0.5709
 7844SOL    HW124973   0.051   1.500   7.475 -0.1390 -1.6386  1.9526
 7844SOL    HW224974   0.191   1.449   7.502  0.4888 -0.3614  1.2041
 7845SOL     OW24975   1.400   1.242  10.772  0.7961 -0.2372 -0.4164
 7845SOL    HW124976   1.337   1.179  10.807 -0.2066  0.6492 -0.5741
 7845SOL    HW224977   1.463   1.189  10.724  1.0198 -1.2787  0.9828
 7846SOL     OW24978   5.404   5.999   3.756 -0.6480 -0.0577 -0.0147
 7846SOL    HW124979   5.449   5.916   3.770  1.9749  1.2040 -0.3654
 7846SOL    HW224980   5.437   6.056   3.825 -1.8888  0.9014 -0.1935
 7847SOL     OW24981   1.856   3.183   1.289  0.6052  0.6184 -0.3113
 7847SOL    HW124982   1.777   3.153   1.333  0.8784  1.2823  0.6739
 7847SOL    HW224983   1.846   3.279   1.285  1.4879  0.7377  0.1004
 7848SOL     OW24984   0.119   6.128   8.745 -0.2296 -0.6138 -0.5946
 7848SOL    HW124985   0.060   6.203   8.737 -1.2216 -1.3867 -0.6507
 7848SOL    HW224986   0.200   6.165   8.780 -1.1523  0.2729  0.6831
 7849SOL     OW24987   6.619   1.518   9.507  0.0615 -0.0539  0.4420
 7849SOL    HW124988   6.679   1.565   9.565  0.1670  2.5353 -1.5651
 7849SOL    HW224989   6.670   1.505   9.427 -1.5147  0.8278 -0.7583
 7850SOL     OW24990   3.301   1.554   8.453 -0.0871  0.1224  0.0385
 7850SOL    HW124991   3.284   1.580   8.544 -0.5018  1.6557 -0.4603
 7850SOL    HW224992   3.389   1.515   8.456 -0.6696 -1.2320  1.3416
 7851SOL     OW24993   2.887   5.383  11.964 -0.4435  0.3524  0.0933
 7851SOL    HW124994   2.954   5.315  11.958 -0.3139  0.3705  1.1883
 7851SOL    HW224995   2.808   5.337  11.993 -0.6994  0.4650 -0.4120
 7852SOL     OW24996   1.830   0.811   5.335 -0.0214 -0.6648  0.1861
 7852SOL    HW124997   1.836   0.867   5.413  1.7726 -1.0102  0.3478
 7852SOL    HW224998   1.799   0.727   5.368  1.8372 -1.1676  0.7804
 7853SOL     OW24999   0.184   7.634   6.039 -0.1126  0.1095 -0.0835
 7853SOL    HW125000   0.161   7.726   6.050  0.5882  0.4896 -1.5152
 7853SOL    HW225001   0.256   7.635   5.975 -0.2386 -1.4432 -0.2869
 7854SOL     OW25002   3.899   7.230   3.377  0.0900  0.1951  0.1731
 7854SOL    HW125003   3.984   7.191   3.395  1.2100  1.3163 -2.3245
 7854SOL    HW225004   3.909   7.274   3.293 -2.4985  1.7642  0.5642
 7855SOL     OW25005   7.919   5.870   3.589  0.5942 -0.4546  0.0506
 7855SOL    HW125006   7.863   5.920   3.647  0.3765 -1.2020  0.5065
 7855SOL    HW225007   7.979   5.934   3.551 -0.8795  0.4473 -0.8464
 7856SOL     OW25008   6.435   4.836   9.071  0.0664 -0.2536 -0.0449
 7856SOL    HW125009   6.363   4.846   9.008 -1.9125 -0.7718  1.9948
 7856SOL    HW225010   6.467   4.747   9.056 -0.0002 -0.1814 -0.6719
 7857SOL     OW25011   0.597   0.610   8.277 -0.1310  0.2681 -0.4378
 7857SOL    HW125012   0.674   0.652   8.315  1.8698 -0.8083 -3.0061
 7857SOL    HW225013   0.579   0.536   8.336  1.0000  0.3528  0.0372
 7858SOL     OW25014   0.020   3.234   7.423  0.5119 -0.2148 -0.6708
 7858SOL    HW125015   0.012   3.241   7.328 -0.3177  0.4801 -0.5602
 7858SOL    HW225016   0.057   3.147   7.437 -0.7547 -0.9338 -1.5671
 7859SOL     OW25017   0.497   4.816   9.244  0.3800 -0.0372  0.5783
 7859SOL    HW125018   0.582   4.840   9.208 -0.7505  0.7194 -1.8253
 7859SOL    HW225019   0.468   4.741   9.191 -0.1609 -0.7679  1.8427
 7860SOL     OW25020   7.821   2.940   7.265 -0.4899 -0.1324 -0.0508
 7860SOL    HW125021   7.849   2.931   7.356 -1.0382  1.3929  0.3035
 7860SOL    HW225022   7.899   2.973   7.219 -0.4904  0.0355  0.0676
 7861SOL     OW25023   5.832   6.906   8.166 -0.3063  0.0738 -0.1352
 7861SOL    HW125024   5.755   6.962   8.176  0.4137  1.1139 -0.1108
 7861SOL    HW225025   5.893   6.938   8.233  0.9129  0.6503 -1.4493
 7862SOL     OW25026   5.964   6.814   5.106  0.3267  0.4453  0.1129
 7862SOL    HW125027   6.049   6.798   5.066  0.4147  0.5178  0.2698
 7862SOL    HW225028   5.956   6.910   5.107  1.4344  0.5830  2.5694
 7863SOL     OW25029   3.418   3.183   4.937  0.3849  0.6588 -0.0943
 7863SOL    HW125030   3.473   3.170   4.860  0.6771  0.3997  0.1617
 7863SOL    HW225031   3.477   3.174   5.011  0.1411  1.1096  0.1579
 7864SOL     OW25032   6.411   2.927   5.142  0.0903 -0.2033 -0.7849
 7864SOL    HW125033   6.502   2.954   5.149 -0.3486  1.2638 -0.2123
 7864SOL    HW225034   6.405   2.846   5.193  0.2923  1.8011  2.7273
 7865SOL     OW25035   2.386   7.496   5.845  0.4135 -0.5240  0.5969
 7865SOL    HW125036   2.479   7.472   5.844  0.5780  0.0720  0.0623
 7865SOL    HW225037   2.368   7.522   5.754 -0.2442 -0.5253  0.7249
 7866SOL     OW25038   0.786   3.595   9.622  0.1288 -0.3049 -0.0677
 7866SOL    HW125039   0.854   3.636   9.568 -0.6303 -1.4842 -2.0553
 7866SOL    HW225040   0.735   3.668   9.656  0.7152  0.4942 -0.8511
 7867SOL     OW25041   1.220   3.540   0.193  0.5870 -0.5241 -0.5220
 7867SOL    HW125042   1.295   3.506   0.242 -0.0234 -0.5090  0.4256
 7867SOL    HW225043   1.146   3.487   0.221  0.1932 -0.3927 -1.2915
 7868SOL     OW25044   6.905   6.109   8.476  0.0867 -0.0392  0.7399
 7868SOL    HW125045   6.824   6.109   8.425  1.1181  0.5072 -0.9848
 7868SOL    HW225046   6.972   6.076   8.416  1.2299 -0.1553  2.0105
 7869SOL     OW25047   4.408   4.150  10.531 -0.1149 -0.0187 -0.3875
 7869SOL    HW125048   4.412   4.234  10.485  0.0178 -0.2261 -0.7532
 7869SOL    HW225049   4.376   4.173  10.619  0.4538  0.4878 -0.3036
 7870SOL     OW25050   7.826   1.285   8.473  0.5654 -0.2554 -0.0665
 7870SOL    HW125051   7.812   1.235   8.392 -2.1191 -1.3394  0.9438
 7870SOL    HW225052   7.806   1.222   8.542  1.3242  1.0863  1.4186
 7871SOL     OW25053   6.508   6.867   5.522  0.6906 -0.1489  0.2901
 7871SOL    HW125054   6.495   6.790   5.578 -0.8957  0.2228  0.4846
 7871SOL    HW225055   6.462   6.937   5.568 -0.4965  0.2119 -1.3776
 7872SOL     OW25056   1.546   6.927   0.833 -0.3334  0.0163  0.0908
 7872SOL    HW125057   1.577   6.841   0.803 -2.1504 -0.5287 -0.3609
 7872SOL    HW225058   1.454   6.929   0.806 -0.5790  1.7127  0.9849
 7873SOL     OW25059   2.460   6.620   7.444 -0.1209  0.1301  0.6832
 7873SOL    HW125060   2.392   6.683   7.468 -1.4355 -1.3439  1.0122
 7873SOL    HW225061   2.412   6.540   7.425  1.3960 -0.4133 -1.0804
 7874SOL     OW25062   7.299   2.710   7.460 -0.3646 -0.4711 -0.3062
 7874SOL    HW125063   7.208   2.737   7.451 -0.5367 -1.6656 -3.1576
 7874SOL    HW225064   7.298   2.646   7.531 -1.2936  1.0120  1.1144
 7875SOL     OW25065   6.827   0.458   3.625  0.0251 -0.2770  0.3533
 7875SOL    HW125066   6.833   0.367   3.598 -0.2913 -0.0092 -0.6736
 7875SOL    HW225067   6.918   0.488   3.628  0.2110 -0.8786  1.6981
 7876SOL     OW25068   1.285   6.918  11.759  0.3426  0.2726  0.1169
 7876SOL    HW125069   1.227   6.942  11.831  0.8581  0.4394  0.4808
 7876SOL    HW225070   1.350   6.988  11.756  1.1443 -0.4382  0.3980
 7877SOL     OW25071   7.625   7.072   6.858  0.7765  0.2768  0.3023
 7877SOL    HW125072   7.672   7.002   6.903  1.5188  0.2592 -0.4787
 7877SOL    HW225073   7.673   7.085   6.777 -0.8615 -0.1273 -0.8010
 7878SOL     OW25074   4.875   2.403   4.942 -0.2491  0.0721 -0.1369
 7878SOL    HW125075   4.834   2.377   4.859  1.2951  0.0441 -0.9376
 7878SOL    HW225076   4.931   2.477   4.919  0.7036 -0.3438  0.7403
 7879SOL     OW25077   7.523   0.436   8.462 -0.2363 -0.4599  0.5849
 7879SOL    HW125078   7.513   0.516   8.513 -0.4490 -0.4821  0.5779
 7879SOL    HW225079   7.559   0.465   8.378 -3.1866  0.0341 -0.6297
 7880SOL     OW25080   5.526   6.656  11.061 -0.2853 -0.9856 -0.0890
 7880SOL    HW125081   5.479   6.589  11.111  0.0064 -1.4054 -0.3654
 7880SOL    HW225082   5.462   6.726  11.047 -0.4332 -0.9613  0.6760
 7881SOL     OW25083   3.385   4.788   0.103 -0.0588 -0.6398 -0.0471
 7881SOL    HW125084   3.463   4.822   0.059  0.1674 -0.8373  0.1981
 7881SOL    HW225085   3.316   4.851   0.082  0.1617 -0.4793 -0.2872
 7882SOL     OW25086   0.060   2.369   3.672 -0.0310  0.4471 -0.4410
 7882SOL    HW125087   0.019   2.360   3.586 -2.2521  0.5081  0.5547
 7882SOL    HW225088   0.066   2.279   3.705 -1.0995  0.5887  0.1672
 7883SOL     OW25089   2.563   7.905   0.377  0.4389 -0.0425  0.2300
 7883SOL    HW125090   2.528   7.945   0.298 -0.7007  0.4109  0.9406
 7883SOL    HW225091   2.524   7.817   0.379  1.6925 -0.6426 -0.5003
 7884SOL     OW25092   5.073   7.296   1.955 -0.2599  0.7408 -0.4567
 7884SOL    HW125093   4.999   7.303   2.015  0.4442 -0.2540  0.5703
 7884SOL    HW225094   5.120   7.379   1.965 -0.5707  0.8886 -0.1988
 7885SOL     OW25095   6.369   0.984   9.007  0.0890  0.2904 -0.3605
 7885SOL    HW125096   6.364   1.078   9.023 -0.6019  0.3668 -0.9748
 7885SOL    HW225097   6.280   0.952   9.023  0.1983 -0.1727 -0.6490
 7886SOL     OW25098   6.741   6.465  11.194  0.2644 -0.3518  0.2274
 7886SOL    HW125099   6.815   6.410  11.219  2.0967  0.5339 -2.6519
 7886SOL    HW225100   6.775   6.555  11.200 -0.1414  0.0312 -2.1461
 7887SOL     OW25101   6.404   1.007   5.452  0.0021 -0.9589  0.1429
 7887SOL    HW125102   6.452   0.926   5.467 -0.8796 -1.3482  0.9241
 7887SOL    HW225103   6.353   0.991   5.372  1.1109 -0.5552 -0.6703
 7888SOL     OW25104   6.314   4.418   8.225 -0.5947 -0.0549 -0.1120
 7888SOL    HW125105   6.347   4.349   8.283 -0.2101  0.6727  0.5567
 7888SOL    HW225106   6.390   4.442   8.171 -0.6829 -0.0557 -0.2348
 7889SOL     OW25107   1.138   2.773   3.645  0.0845 -0.1855  0.3179
 7889SOL    HW125108   1.059   2.749   3.693  0.4702 -1.2020  0.4631
 7889SOL    HW225109   1.180   2.839   3.699  0.2834 -0.9979  1.1739
 7890SOL     OW25110   7.762   5.897   5.677 -0.2669 -0.4379  0.5598
 7890SOL    HW125111   7.744   5.817   5.727  0.8422 -1.9557 -1.3008
 7890SOL    HW225112   7.858   5.899   5.669 -0.3709  0.0609 -0.9339
 7891SOL     OW25113   5.691   6.917   6.402 -0.5012 -0.2250 -0.1871
 7891SOL    HW125114   5.752   6.975   6.447  0.5818 -0.6237 -1.1020
 7891SOL    HW225115   5.701   6.832   6.445  0.4939 -0.5921 -1.0947
 7892SOL     OW25116   0.605   3.643   7.382  0.2720 -0.5231 -0.1465
 7892SOL    HW125117   0.550   3.606   7.313  0.6087 -3.3588  0.9639
 7892SOL    HW225118   0.543   3.665   7.452  0.1231  0.7219 -0.6365
 7893SOL     OW25119   6.067   1.320   9.960 -0.0151  0.8323  0.3811
 7893SOL    HW125120   6.036   1.394   9.909  0.8732  0.5656 -0.5835
 7893SOL    HW225121   5.988   1.270   9.980 -0.5344  1.6569  0.4379
 7894SOL     OW25122   3.771   4.001   5.314  0.5632 -0.1418  0.5463
 7894SOL    HW125123   3.708   3.962   5.375 -0.5062  0.1445 -0.3583
 7894SOL    HW225124   3.718   4.044   5.248  1.7186  1.3535  0.5475
 7895SOL     OW25125   4.208   5.817   1.642 -0.4802 -0.3061  0.1326
 7895SOL    HW125126   4.165   5.829   1.557  2.8437  2.7226 -1.3440
 7895SOL    HW225127   4.200   5.902   1.685  2.7986  0.0493  0.2466
 7896SOL     OW25128   2.578   6.593   3.395  0.6139  0.1173 -0.2725
 7896SOL    HW125129   2.641   6.644   3.446 -0.9529  1.6189  0.2428
 7896SOL    HW225130   2.623   6.509   3.380  3.9204  2.0363 -2.4510
 7897SOL     OW25131   2.770   4.494   1.948 -0.2679 -0.5173  0.1248
 7897SOL    HW125132   2.769   4.585   1.916 -1.5583 -0.4427  0.3455
 7897SOL    HW225133   2.770   4.441   1.868  1.5347 -0.3607 -0.0306
 7898SOL     OW25134   0.791   3.841   7.895 -0.4663 -0.4010  0.5976
 7898SOL    HW125135   0.875   3.813   7.929  1.3209  4.1320  0.5570
 7898SOL    HW225136   0.787   3.804   7.807  1.5319 -0.7018  0.5949
 7899SOL     OW25137   0.015   7.176   7.170  0.0175 -0.1324  0.2551
 7899SOL    HW125138   0.014   7.084   7.195 -0.6683  0.1722  1.4811
 7899SOL    HW225139  -0.016   7.178   7.080 -1.7577 -0.9731  0.7974
 7900SOL     OW25140   3.280   0.818   0.889 -0.6632  0.4839  0.3808
 7900SOL    HW125141   3.220   0.861   0.950  1.2547  1.6764  1.5449
 7900SOL    HW225142   3.347   0.884   0.870  1.4667 -1.4076  0.8332
 7901SOL     OW25143   7.756   3.083   2.430  0.0768 -0.3625 -0.1675
 7901SOL    HW125144   7.815   3.099   2.503 -1.4886  1.8582  0.7345
 7901SOL    HW225145   7.760   2.988   2.416  2.1955 -0.5369  1.2141
 7902SOL     OW25146   0.403   3.264  11.733  0.0388 -0.0781 -0.0248
 7902SOL    HW125147   0.422   3.295  11.821  1.1175  0.5458 -0.4537
 7902SOL    HW225148   0.312   3.235  11.736  0.3130 -0.8654  1.5044
 7903SOL     OW25149   7.171   7.238  12.307 -0.1332  0.5687 -0.4681
 7903SOL    HW125150   7.133   7.240  12.219  1.0601  0.6095 -0.9985
 7903SOL    HW225151   7.258   7.200  12.295  0.2505  1.0553  0.6180
 7904SOL     OW25152   0.138   0.769   0.158  0.0776 -0.0293 -0.0884
 7904SOL    HW125153   0.189   0.841   0.121 -0.3966 -0.4575 -1.6296
 7904SOL    HW225154   0.204   0.706   0.188  0.5260 -1.0218 -2.9362
 7905SOL     OW25155   6.558   6.781   6.517 -0.3166  0.7403 -0.0787
 7905SOL    HW125156   6.503   6.713   6.480 -1.0200  0.6911  1.0122
 7905SOL    HW225157   6.528   6.862   6.475  0.4268  0.4261 -1.2685
 7906SOL     OW25158   7.722   7.467   0.058  0.0592 -0.3682  0.2875
 7906SOL    HW125159   7.648   7.527   0.066 -0.5611 -0.9432 -0.9082
 7906SOL    HW225160   7.703   7.398   0.123  0.3871  0.3043  1.1198
 7907SOL     OW25161   0.805   0.918   7.963 -0.2533 -0.2520  0.7430
 7907SOL    HW125162   0.868   0.876   8.022  0.9653 -0.3376 -0.5633
 7907SOL    HW225163   0.858   0.980   7.913  0.1771 -3.9713 -4.2133
 7908SOL     OW25164   6.589   7.926   4.477 -0.2047 -0.2362 -0.1373
 7908SOL    HW125165   6.554   8.011   4.501 -2.1573 -0.0276 -3.2829
 7908SOL    HW225166   6.558   7.867   4.546  0.0824  1.3021  1.3792
 7909SOL     OW25167   6.031   1.040   4.327 -0.2340 -0.1307 -0.3956
 7909SOL    HW125168   6.023   1.096   4.404 -1.4990  0.1098 -0.6687
 7909SOL    HW225169   6.104   0.982   4.346 -0.9626 -0.5575  1.3113
 7910SOL     OW25170   5.258   1.626   9.983 -0.1744 -0.4376 -0.4213
 7910SOL    HW125171   5.285   1.568   9.913  0.7115 -2.5620  1.5560
 7910SOL    HW225172   5.260   1.572  10.062  0.2243  2.1401  1.4989
 7911SOL     OW25173   4.849   2.113   1.672 -0.4188  0.3635 -0.1516
 7911SOL    HW125174   4.880   2.032   1.631 -1.2410 -0.4717  0.8366
 7911SOL    HW225175   4.926   2.171   1.671  0.7161 -1.0657  0.7803
 7912SOL     OW25176   0.588   5.212   9.688  0.7431  0.3641  0.1039
 7912SOL    HW125177   0.599   5.177   9.600  1.8138  0.5879  0.1348
 7912SOL    HW225178   0.621   5.143   9.746  0.0281  0.2097  0.3499
 7913SOL     OW25179   2.887   5.174   5.236 -0.8801  0.1625  0.0598
 7913SOL    HW125180   2.804   5.147   5.275 -0.1743 -1.1227  0.6981
 7913SOL    HW225181   2.944   5.193   5.310 -1.0676  2.7295 -0.3441
 7914SOL     OW25182   3.553   0.105   8.348  0.3879 -0.4353  0.0936
 7914SOL    HW125183   3.464   0.091   8.379 -0.1286 -0.4156 -1.2951
 7914SOL    HW225184   3.544   0.170   8.278  1.5891  0.0945  0.4040
 7915SOL     OW25185   0.230   0.644   4.886  0.5670  0.1447 -0.2426
 7915SOL    HW125186   0.280   0.675   4.962  0.9727 -0.4510 -0.2617
 7915SOL    HW225187   0.296   0.616   4.823  0.2235 -1.4249  0.0545
 7916SOL     OW25188   6.068   6.453   7.167  0.2422  0.7648  0.6705
 7916SOL    HW125189   6.085   6.359   7.178  0.3184  0.9017  1.7713
 7916SOL    HW225190   5.978   6.465   7.199 -0.6798  0.6808 -1.6806
 7917SOL     OW25191   4.143   6.916   8.923 -0.7687  0.6321  0.1822
 7917SOL    HW125192   4.128   6.821   8.921  1.4073  0.2402 -1.0399
 7917SOL    HW225193   4.155   6.936   9.016  1.0561 -0.7735  0.3152
 7918SOL     OW25194   5.946   2.151   2.548  0.3688 -0.2087  0.7771
 7918SOL    HW125195   5.912   2.088   2.485  1.3392 -0.8738  0.8871
 7918SOL    HW225196   5.961   2.231   2.497 -2.4234  0.5234  0.9629
 7919SOL     OW25197   0.932   0.784   2.625  0.4674 -0.2499  0.3211
 7919SOL    HW125198   0.887   0.834   2.557  0.8086  0.3958  0.5679
 7919SOL    HW225199   0.913   0.692   2.603 -2.3338 -0.0100  1.3408
 7920SOL     OW25200   2.302   6.206   9.102  0.4256 -0.1657  0.2382
 7920SOL    HW125201   2.246   6.131   9.119 -1.5841  0.6814 -2.1065
 7920SOL    HW225202   2.335   6.192   9.013 -0.1874  1.7770 -0.3514
 7921SOL     OW25203   4.087   0.964   2.310 -0.5755  0.4751 -0.1342
 7921SOL    HW125204   4.127   0.997   2.390 -4.1331  4.5454  0.3015
 7921SOL    HW225205   4.159   0.965   2.246  1.8816 -0.9946  2.3495
 7922SOL     OW25206   4.826   0.560   5.098 -0.1216  0.1555 -0.1260
 7922SOL    HW125207   4.790   0.617   5.166  0.4788  1.3991 -0.8174
 7922SOL    HW225208   4.911   0.598   5.077  0.5299 -1.2956 -0.2768
 7923SOL     OW25209   3.904   7.546   7.966 -0.0950  0.1305 -0.0481
 7923SOL    HW125210   3.996   7.520   7.955 -0.2221 -0.9892  1.2148
 7923SOL    HW225211   3.901   7.637   7.939  1.4745  0.2805  0.2045
 7924SOL     OW25212   4.977   2.863   3.336 -0.1149  0.3457 -0.4373
 7924SOL    HW125213   4.952   2.774   3.361  1.7809 -0.1914 -0.3309
 7924SOL    HW225214   5.037   2.851   3.263  0.4227  1.5300 -0.2078
 7925SOL     OW25215   3.629   0.752   3.933  0.1657  0.1814  0.5206
 7925SOL    HW125216   3.560   0.778   3.872  1.7401 -2.2099 -2.5519
 7925SOL    HW225217   3.685   0.830   3.940 -1.9516  1.6578  1.9028
 7926SOL     OW25218   2.370   2.136   6.935 -0.1704 -0.4906  0.0587
 7926SOL    HW125219   2.405   2.077   7.002  0.7547 -0.7361 -0.6254
 7926SOL    HW225220   2.320   2.079   6.877  0.2623 -0.5173 -0.2905
 7927SOL     OW25221   4.816   7.295   2.090  0.2705  0.4395 -0.0165
 7927SOL    HW125222   4.724   7.274   2.076  0.6615 -0.7744 -0.9045
 7927SOL    HW225223   4.825   7.301   2.185 -0.4669 -0.6501  0.1384
 7928SOL     OW25224   0.555   7.852   1.508 -0.5210  0.6207  0.0456
 7928SOL    HW125225   0.561   7.820   1.418  1.5178 -0.2711  0.4279
 7928SOL    HW225226   0.541   7.773   1.560  1.2512  0.7116  0.7250
 7929SOL     OW25227   3.642   7.563   5.598 -0.2204 -0.2430 -0.0896
 7929SOL    HW125228   3.606   7.640   5.642 -0.1350 -0.9176  1.1871
 7929SOL    HW225229   3.736   7.566   5.615 -0.3959 -1.4189  1.2799
 7930SOL     OW25230   2.268   7.684   7.379 -0.2435  0.5068  0.3546
 7930SOL    HW125231   2.363   7.671   7.383 -0.3924 -0.5578  0.9262
 7930SOL    HW225232   2.231   7.596   7.382 -1.2484  0.8748 -0.4335
 7931SOL     OW25233   6.538   7.404   0.963 -0.2130 -0.3735 -0.1793
 7931SOL    HW125234   6.457   7.405   1.013 -1.1862  0.5468 -1.7134
 7931SOL    HW225235   6.568   7.495   0.962 -0.3447 -0.3286 -1.4457
 7932SOL     OW25236   3.727   5.537   0.093 -0.2391  0.1511 -0.2074
 7932SOL    HW125237   3.740   5.444   0.078 -0.2251 -0.0172  0.7941
 7932SOL    HW225238   3.632   5.550   0.085 -0.1269  0.2721 -1.4903
 7933SOL     OW25239   5.780   4.310   9.603 -0.8503  0.0436 -0.0867
 7933SOL    HW125240   5.807   4.319   9.695  1.0931 -3.2573 -0.1665
 7933SOL    HW225241   5.729   4.229   9.601 -1.1755  0.2579 -1.8745
 7934SOL     OW25242   4.780   3.539  10.320  0.1610 -0.0718  0.3242
 7934SOL    HW125243   4.747   3.625  10.347 -0.2214 -0.0256 -0.2714
 7934SOL    HW225244   4.857   3.525  10.375 -0.0286  0.4536  0.7389
 7935SOL     OW25245   4.675   6.905   6.048  0.4400  0.0138  0.5102
 7935SOL    HW125246   4.739   6.908   5.978  0.6390 -1.7529  0.5706
 7935SOL    HW225247   4.673   6.994   6.083  2.8343  0.1318  0.4997
 7936SOL     OW25248   2.713   7.455   2.657  0.0275 -0.4755 -0.1859
 7936SOL    HW125249   2.705   7.373   2.608 -2.3344  0.0079 -0.7463
 7936SOL    HW225250   2.716   7.524   2.591  1.0370 -0.0202  0.3044
 7937SOL     OW25251   2.684   5.405   1.668 -0.3159 -0.0656 -0.1949
 7937SOL    HW125252   2.713   5.493   1.694 -2.0363  0.6764 -0.6697
 7937SOL    HW225253   2.650   5.366   1.748  0.1576 -0.1921 -0.0509
 7938SOL     OW25254   2.771   5.435   2.987  0.3418 -0.4629 -0.3163
 7938SOL    HW125255   2.709   5.464   3.054 -0.2607 -2.9777  0.3103
 7938SOL    HW225256   2.852   5.480   3.009 -0.5006  0.6757  0.5961
 7939SOL     OW25257   2.181   1.624   9.600 -0.2499 -0.2060 -0.3680
 7939SOL    HW125258   2.167   1.692   9.534  2.0375  0.9354  0.2273
 7939SOL    HW225259   2.242   1.664   9.662 -1.0917 -1.8208  1.5768
 7940SOL     OW25260   1.389   2.689   3.565 -0.1915 -0.0588 -0.5676
 7940SOL    HW125261   1.308   2.707   3.614  0.8038  0.2635  1.0195
 7940SOL    HW225262   1.372   2.607   3.520 -1.2214 -0.2719  0.1730
 7941SOL     OW25263   4.406   5.357   6.980 -0.6801  0.0672  0.1979
 7941SOL    HW125264   4.456   5.405   6.914 -1.4633  0.1981 -0.3101
 7941SOL    HW225265   4.472   5.308   7.029  0.0813  1.2923  0.4297
 7942SOL     OW25266   4.966   3.120   1.110  0.2657 -0.3179  0.0566
 7942SOL    HW125267   5.004   3.141   1.024 -0.2812  0.5686  0.0166
 7942SOL    HW225268   4.877   3.092   1.090  0.4431 -1.0453  0.2634
 7943SOL     OW25269   0.258   6.456   7.733  0.0965 -0.2178 -0.5554
 7943SOL    HW125270   0.233   6.484   7.644 -1.6692  1.6887  0.4496
 7943SOL    HW225271   0.175   6.427   7.772  0.6359  0.0758  0.8356
 7944SOL     OW25272   3.967   1.182   8.113  0.0577 -0.9746 -0.5201
 7944SOL    HW125273   3.961   1.258   8.055 -0.0513 -0.9971 -0.5397
 7944SOL    HW225274   4.060   1.163   8.119  0.1794 -0.1442  0.3925
 7945SOL     OW25275   5.257   6.815   1.244 -0.0628  0.0292  0.4744
 7945SOL    HW125276   5.320   6.874   1.201  0.7050  0.6321  2.3455
 7945SOL    HW225277   5.173   6.860   1.235  0.5000  1.4213  1.8145
 7946SOL     OW25278   1.345   5.462   1.835 -0.1277  0.0487  0.2087
 7946SOL    HW125279   1.378   5.396   1.774  0.2908 -0.0589  0.5482
 7946SOL    HW225280   1.249   5.454   1.829 -0.0872 -0.1223 -0.2544
 7947SOL     OW25281   4.328   5.374   9.571 -0.5779 -0.0507  0.3770
 7947SOL    HW125282   4.298   5.283   9.581 -0.0459 -0.2879 -0.0954
 7947SOL    HW225283   4.422   5.370   9.589 -0.3640  0.2252 -0.6139
 7948SOL     OW25284   4.299   2.060   1.973  0.6274  0.6564 -0.3329
 7948SOL    HW125285   4.314   1.985   1.916 -0.2132  0.3600 -0.1758
 7948SOL    HW225286   4.204   2.069   1.977  0.6812  0.9104  0.7075
 7949SOL     OW25287   0.393   5.863  12.127  0.0488  0.2674 -0.0850
 7949SOL    HW125288   0.445   5.831  12.200 -0.2558 -0.7365 -0.2910
 7949SOL    HW225289   0.318   5.907  12.168  1.0053  1.6709  0.2083
 7950SOL     OW25290   2.311   3.750   4.406  0.1230  0.1309  0.4496
 7950SOL    HW125291   2.400   3.716   4.417  0.1515  0.6374  2.2298
 7950SOL    HW225292   2.324   3.843   4.388 -0.0251  0.3609  1.4499
 7951SOL     OW25293   3.372   1.717   6.698 -0.8571  0.3126 -0.0361
 7951SOL    HW125294   3.305   1.677   6.642  1.0600 -0.8632 -1.6540
 7951SOL    HW225295   3.349   1.690   6.787 -0.8410 -2.7749 -0.8464
 7952SOL     OW25296   5.743   5.800   5.336 -0.0059 -0.3412  0.1693
 7952SOL    HW125297   5.831   5.837   5.338  0.0164 -0.4238  0.8599
 7952SOL    HW225298   5.750   5.725   5.277  1.1070 -2.0885  2.3731
 7953SOL     OW25299   1.926   4.641   8.862 -0.2549  0.0837 -0.0179
 7953SOL    HW125300   1.953   4.692   8.785 -1.0325  0.7417  0.1353
 7953SOL    HW225301   1.867   4.699   8.910  0.2357 -0.3080  1.0964
 7954SOL     OW25302   0.455   4.300   2.678  0.1104 -0.1143 -0.0802
 7954SOL    HW125303   0.499   4.278   2.596 -0.2446  0.7851 -0.5157
 7954SOL    HW225304   0.420   4.388   2.665  1.0067  0.5268  1.4148
 7955SOL     OW25305   2.004   1.493   7.626  0.1314  0.2167  0.0061
 7955SOL    HW125306   1.926   1.454   7.666  0.0199  0.9865  0.5669
 7955SOL    HW225307   1.979   1.584   7.610  1.3471  0.8593  1.4730
 7956SOL     OW25308   6.437   1.061   6.669  0.3701  0.1747 -0.2274
 7956SOL    HW125309   6.412   1.110   6.747  2.3010  0.2030  0.4257
 7956SOL    HW225310   6.444   1.126   6.600 -0.4320  0.2794 -0.2266
 7957SOL     OW25311   7.359   7.216   9.167 -0.3616  0.5946 -0.4089
 7957SOL    HW125312   7.323   7.260   9.244 -2.0968  1.0049 -1.3936
 7957SOL    HW225313   7.451   7.242   9.166 -0.0134 -0.2845  2.0791
 7958SOL     OW25314   2.931   0.690  11.667 -0.2753 -0.2167  0.6146
 7958SOL    HW125315   2.897   0.684  11.756  0.9495 -0.9825  1.0627
 7958SOL    HW225316   2.971   0.604  11.651  1.7050  0.7101  0.2766
 7959SOL     OW25317   3.232   3.661   1.077  0.2886 -0.1276  0.5987
 7959SOL    HW125318   3.279   3.662   0.993  1.6280 -0.3856  1.3181
 7959SOL    HW225319   3.247   3.573   1.111 -0.4675 -0.1032  0.9990
 7960SOL     OW25320   4.978   6.947   8.446  0.2327 -0.0375 -0.1894
 7960SOL    HW125321   5.024   6.932   8.529  0.7897  1.6301 -0.1564
 7960SOL    HW225322   4.901   6.999   8.471 -0.8390 -1.4293 -0.4576
 7961SOL     OW25323   5.053   2.879   6.213  0.1261 -0.0537  0.4489
 7961SOL    HW125324   5.096   2.848   6.292  1.7707 -1.2480 -0.8376
 7961SOL    HW225325   4.969   2.833   6.211  1.3267 -2.3832  0.0312
 7962SOL     OW25326   6.827   4.807   8.544 -0.1817  0.1077  0.4144
 7962SOL    HW125327   6.785   4.800   8.630 -2.3815  0.5960 -0.5561
 7962SOL    HW225328   6.812   4.722   8.504  1.6874 -0.4643  0.8035
 7963SOL     OW25329   1.041   7.123  10.300  0.2615  0.5352 -0.1652
 7963SOL    HW125330   1.084   7.205  10.326 -0.8783  0.6209  1.5898
 7963SOL    HW225331   1.114   7.061  10.287  1.0472  1.3933  0.0295
 7964SOL     OW25332   0.291   6.677   2.076 -0.4719 -0.0122  0.4320
 7964SOL    HW125333   0.385   6.692   2.086  0.2790 -2.2014 -2.3281
 7964SOL    HW225334   0.265   6.634   2.158  1.0582  0.0541  0.9832
 7965SOL     OW25335   1.179   3.837   9.196  0.5546  0.1500 -0.1704
 7965SOL    HW125336   1.213   3.791   9.119 -1.9774 -1.2398 -0.5635
 7965SOL    HW225337   1.090   3.861   9.173 -0.4849 -0.7334  2.4459
 7966SOL     OW25338   3.155   5.695  10.462  0.2067 -0.2013 -0.1217
 7966SOL    HW125339   3.222   5.692  10.394 -0.3782  0.3179 -0.7272
 7966SOL    HW225340   3.118   5.783  10.456 -0.2917 -0.3632  0.4415
 7967SOL     OW25341   7.659   4.246   4.589 -0.1265 -0.0445 -0.3023
 7967SOL    HW125342   7.575   4.263   4.632  0.5126  1.8806  0.3152
 7967SOL    HW225343   7.643   4.172   4.531 -2.1349  0.0231  0.1197
 7968SOL     OW25344   0.129   0.002   9.115  0.1942 -0.4843 -0.7474
 7968SOL    HW125345   0.089  -0.079   9.146 -0.7814 -0.3648 -1.6427
 7968SOL    HW225346   0.144   0.054   9.195 -1.9796 -0.2989 -0.3909
 7969SOL     OW25347   5.652   2.641   7.611 -0.3649  0.9525  0.0561
 7969SOL    HW125348   5.590   2.678   7.674 -0.6274 -0.2705  0.5561
 7969SOL    HW225349   5.734   2.634   7.660 -0.5853 -0.0577  0.3121
 7970SOL     OW25350   5.712   1.633   5.278 -0.0688  0.4353  0.1606
 7970SOL    HW125351   5.677   1.710   5.234  0.2693  0.0959 -0.7252
 7970SOL    HW225352   5.711   1.656   5.371 -1.6049  0.8366  0.0691
 7971SOL     OW25353   4.394   1.820   1.888 -0.7503 -0.3844 -0.3910
 7971SOL    HW125354   4.364   1.731   1.869  0.0331 -0.9624  0.9464
 7971SOL    HW225355   4.488   1.819   1.868 -0.8668  0.3482 -1.0215
 7972SOL     OW25356   5.830   2.557   2.542 -0.3545 -0.3596 -0.6184
 7972SOL    HW125357   5.750   2.589   2.584  0.1356 -0.9278  0.8021
 7972SOL    HW225358   5.901   2.596   2.593  0.2947 -0.1403 -1.6483
 7973SOL     OW25359   3.616   1.475   6.907 -0.0954 -0.1283  0.0280
 7973SOL    HW125360   3.525   1.505   6.911  0.1858  1.1232 -1.6784
 7973SOL    HW225361   3.658   1.535   6.845  1.9709 -0.5081  0.9597
 7974SOL     OW25362   6.392   3.846  11.590 -0.5521 -0.4460 -0.5947
 7974SOL    HW125363   6.467   3.905  11.582 -0.7013 -0.2030 -0.2521
 7974SOL    HW225364   6.408   3.797  11.671 -0.5921 -0.6371 -0.7017
 7975SOL     OW25365   5.732   3.753   0.749  0.3614  0.5017 -0.2922
 7975SOL    HW125366   5.687   3.828   0.709 -0.0282 -0.7221 -2.2437
 7975SOL    HW225367   5.661   3.699   0.783  0.4166 -0.4810 -1.6630
 7976SOL     OW25368   2.181   6.209   4.163  0.0983 -0.3611 -0.2574
 7976SOL    HW125369   2.152   6.299   4.177 -0.0909 -0.2657 -1.2062
 7976SOL    HW225370   2.274   6.211   4.183  0.0722  0.0271 -0.1593
 7977SOL     OW25371   7.273   4.096   8.062 -0.1050  0.4117  0.0338
 7977SOL    HW125372   7.307   4.179   8.029 -0.2066  0.6842  0.6165
 7977SOL    HW225373   7.237   4.116   8.148 -0.2021 -0.2189  0.1473
 7978SOL     OW25374   4.284   5.637   1.111  0.1790 -0.3395  0.4265
 7978SOL    HW125375   4.259   5.648   1.020  0.7717  0.3036  0.3380
 7978SOL    HW225376   4.261   5.720   1.153 -0.9682 -0.9557  1.0768
 7979SOL     OW25377   5.471   2.955  10.176  0.2529  0.6156  0.1386
 7979SOL    HW125378   5.480   2.946  10.271 -0.0015  0.3341  0.1399
 7979SOL    HW225379   5.426   3.039  10.164  0.3752  0.6990  0.2627
 7980SOL     OW25380   7.855   2.910   3.060 -0.3933  0.4155  0.4582
 7980SOL    HW125381   7.853   2.870   3.147  0.7418  0.3637  0.4679
 7980SOL    HW225382   7.763   2.911   3.032 -0.4792 -2.1521  0.4523
 7981SOL     OW25383   1.610   6.275   1.679 -1.0026  0.1505  0.2564
 7981SOL    HW125384   1.638   6.258   1.589  0.9337 -2.1409  1.1789
 7981SOL    HW225385   1.538   6.214   1.694 -0.3875 -0.4756  0.6804
 7982SOL     OW25386   5.377   2.929   5.429 -0.7366  0.4212 -0.7053
 7982SOL    HW125387   5.301   2.871   5.433 -1.0290  0.7887 -0.8177
 7982SOL    HW225388   5.341   3.014   5.403 -0.1211  0.3050 -2.0378
 7983SOL     OW25389   7.146   7.440   0.370 -0.0908 -0.6103  0.5064
 7983SOL    HW125390   7.066   7.391   0.383 -2.0622  1.8355 -1.2672
 7983SOL    HW225391   7.162   7.484   0.453 -0.9276 -0.6627  0.6982
 7984SOL     OW25392   7.435   0.996   0.383 -0.9820 -0.1520 -0.4808
 7984SOL    HW125393   7.373   0.976   0.313 -1.3844  1.2089 -0.5409
 7984SOL    HW225394   7.382   0.996   0.462 -0.6631 -0.9607 -0.2556
 7985SOL     OW25395   0.141   3.458   4.534 -0.0519  0.0375 -0.1795
 7985SOL    HW125396   0.089   3.378   4.530  0.3528 -0.2710  0.6389
 7985SOL    HW225397   0.217   3.440   4.479 -0.9184  0.6065 -1.6522
 7986SOL     OW25398   6.773   3.312   0.900 -0.6418  0.5135 -0.0616
 7986SOL    HW125399   6.803   3.270   0.980 -2.2479  1.0092  0.8427
 7986SOL    HW225400   6.825   3.272   0.831  0.3012 -0.4199  1.1529
 7987SOL     OW25401   6.302   5.693   6.097 -0.1897  0.2462  0.3080
 7987SOL    HW125402   6.364   5.650   6.037 -0.6396 -0.4969  0.3620
 7987SOL    HW225403   6.354   5.761   6.140  1.1459 -1.5944  1.7894
 7988SOL     OW25404   1.275   0.030   5.492 -0.0568 -0.4109  0.0842
 7988SOL    HW125405   1.222   0.084   5.552 -1.3005 -1.7127  0.2048
 7988SOL    HW225406   1.257  -0.060   5.519  3.0762 -0.9150  0.8129
 7989SOL     OW25407   5.732   2.164  10.345  0.1383 -0.1317  0.1811
 7989SOL    HW125408   5.661   2.117  10.301 -0.0751 -0.2054  0.6015
 7989SOL    HW225409   5.810   2.110  10.331 -0.5699 -2.0801  2.9312
 7990SOL     OW25410   7.006   3.904   4.269  0.1325  0.2476 -0.3010
 7990SOL    HW125411   7.030   3.894   4.177  0.8078 -1.3344  0.0225
 7990SOL    HW225412   7.048   3.831   4.313  0.8785  1.6844  1.4897
 7991SOL     OW25413   6.387   3.258   8.646 -0.7547  0.0182 -0.7898
 7991SOL    HW125414   6.455   3.253   8.579 -0.9319 -0.2757 -0.9483
 7991SOL    HW225415   6.346   3.172   8.645 -0.5481 -0.0907 -0.0830
 7992SOL     OW25416   1.748   2.438   9.391 -0.1467 -0.4421  0.3231
 7992SOL    HW125417   1.823   2.469   9.443  0.8685 -1.9529 -0.1799
 7992SOL    HW225418   1.788   2.398   9.314 -1.4791 -1.3461  0.0801
 7993SOL     OW25419   7.630   5.823   5.454  0.2465  0.2649 -0.5782
 7993SOL    HW125420   7.663   5.864   5.533  0.6292  1.7156 -1.4596
 7993SOL    HW225421   7.564   5.761   5.485  0.6947  0.4874  0.8887
 7994SOL     OW25422   4.980   7.266   4.382 -0.1312  0.2567 -0.0708
 7994SOL    HW125423   4.898   7.315   4.376  0.5786  1.5630  0.4740
 7994SOL    HW225424   5.014   7.266   4.293 -0.6426 -0.1767 -0.2739
 7995SOL     OW25425   2.630   2.403   1.965  0.4315  0.3322  1.1654
 7995SOL    HW125426   2.585   2.354   1.896  1.0944 -0.4052  1.2375
 7995SOL    HW225427   2.598   2.493   1.957  0.2391  0.1753  0.1243
 7996SOL     OW25428   6.834   4.054   4.880 -0.4664  0.1810  0.0524
 7996SOL    HW125429   6.897   3.984   4.865 -1.1360 -0.5083  0.4048
 7996SOL    HW225430   6.878   4.113   4.941 -0.8017 -1.2213  1.7342
 7997SOL     OW25431   3.658   0.270   2.532  0.5136 -0.2815  0.3880
 7997SOL    HW125432   3.737   0.324   2.524 -0.5043  1.4410  1.4416
 7997SOL    HW225433   3.661   0.236   2.622  0.4369 -0.8574  0.1777
 7998SOL     OW25434   3.961   0.165   4.569  0.0654  0.0992 -0.5063
 7998SOL    HW125435   4.055   0.150   4.581  0.6237  1.5637 -2.4433
 7998SOL    HW225436   3.939   0.230   4.636 -0.7217 -3.4174  2.9901
 7999SOL     OW25437   1.068   7.811   7.659 -0.0583  0.1591 -0.2111
 7999SOL    HW125438   1.066   7.728   7.708  0.1488  1.1180  1.4934
 7999SOL    HW225439   1.079   7.784   7.568  1.0744 -1.6739  0.4071
 8000SOL     OW25440   0.609   5.760  10.116  0.7474  0.9193  0.4131
 8000SOL    HW125441   0.610   5.838  10.172  1.1442  1.0738  0.1964
 8000SOL    HW225442   0.617   5.687  10.178  2.0015  1.1234  0.5244
 8001SOL     OW25443   5.178   4.271   2.545  0.0353 -0.1839 -0.2855
 8001SOL    HW125444   5.174   4.229   2.631  0.1917  0.4468  0.0393
 8001SOL    HW225445   5.127   4.214   2.488 -0.2972 -0.4673  0.2827
 8002SOL     OW25446   0.721   0.036   4.992  0.2804 -0.2261 -0.5397
 8002SOL    HW125447   0.648   0.058   4.935 -1.4089 -3.0060  0.3454
 8002SOL    HW225448   0.703   0.084   5.073  0.0444 -0.0510 -0.6949
 8003SOL     OW25449   5.528   4.539   4.576 -0.4449 -0.1383 -0.0127
 8003SOL    HW125450   5.506   4.491   4.656  0.8615 -0.0489  0.4229
 8003SOL    HW225451   5.499   4.629   4.593 -0.5001 -0.1980  0.2121
 8004SOL     OW25452   0.488   1.429   5.009 -0.3137 -0.2470  0.3366
 8004SOL    HW125453   0.495   1.335   4.992 -1.3616 -0.9011  2.9722
 8004SOL    HW225454   0.395   1.448   5.002 -0.0169  0.8422 -1.0561
 8005SOL     OW25455   3.009   1.264   1.938 -0.0189  0.0196  0.1279
 8005SOL    HW125456   3.081   1.270   1.876  0.2312 -0.5685  0.3539
 8005SOL    HW225457   2.970   1.178   1.922 -0.0523 -0.0752  0.6680
 8006SOL     OW25458   6.700   0.104   1.601  0.2179  0.0121 -0.0063
 8006SOL    HW125459   6.719   0.021   1.558  1.7375  1.1766 -1.7671
 8006SOL    HW225460   6.628   0.142   1.549 -0.9762 -0.4551  1.2268
 8007SOL     OW25461   7.716   0.434   1.878  0.0113 -0.3219  0.2536
 8007SOL    HW125462   7.743   0.343   1.889 -0.0484 -1.1041 -4.3490
 8007SOL    HW225463   7.791   0.476   1.835 -0.5247  1.4705  0.9776
 8008SOL     OW25464   1.023   2.243   1.775 -0.0590 -0.3097 -0.1319
 8008SOL    HW125465   0.987   2.184   1.709  0.0838  0.1683 -0.6431
 8008SOL    HW225466   1.063   2.314   1.725 -0.8629  0.6013  0.4853
 8009SOL     OW25467   6.767   1.127   6.553 -0.1350  0.5051 -0.2226
 8009SOL    HW125468   6.738   1.101   6.640 -0.8136 -0.6950 -0.7894
 8009SOL    HW225469   6.844   1.073   6.536  0.4463  1.2625 -0.0951
 8010SOL     OW25470   5.286   4.159   1.245 -0.5268 -0.2534 -0.6785
 8010SOL    HW125471   5.241   4.242   1.261  0.1662  0.1358 -0.6664
 8010SOL    HW225472   5.356   4.157   1.310 -2.2412 -2.2153  1.2555
 8011SOL     OW25473   2.756   5.696  11.325 -0.0185  0.3664 -0.2530
 8011SOL    HW125474   2.687   5.632  11.307  0.4784 -0.7272  1.4814
 8011SOL    HW225475   2.741   5.723  11.415  1.3932  0.6409 -0.0690
 8012SOL     OW25476   1.110   3.629   3.672 -0.5590  0.4570 -0.2967
 8012SOL    HW125477   1.179   3.674   3.623 -1.3123  2.0996  0.1044
 8012SOL    HW225478   1.047   3.602   3.605 -0.0644 -0.1146 -0.5466
 8013SOL     OW25479   3.387   0.074   6.208  0.1423 -0.1516  0.1743
 8013SOL    HW125480   3.401   0.136   6.279 -1.0384  0.5893 -0.2195
 8013SOL    HW225481   3.442   0.106   6.136  0.4130 -0.2210  0.3501
 8014SOL     OW25482   1.563   1.077   8.826  0.4768 -0.2794 -0.0117
 8014SOL    HW125483   1.485   1.026   8.848 -0.1874  0.5866 -0.3070
 8014SOL    HW225484   1.636   1.025   8.860 -0.2625 -0.8348  0.7674
 8015SOL     OW25485   7.588   2.739   8.301 -0.0288 -0.5062 -0.5041
 8015SOL    HW125486   7.640   2.791   8.239 -1.9467 -0.5577 -2.3060
 8015SOL    HW225487   7.551   2.669   8.247  0.1833 -2.0724  1.2813
 8016SOL     OW25488   6.018   1.982   3.729 -0.4467  0.1627  0.5110
 8016SOL    HW125489   6.035   2.026   3.646 -0.4781 -0.1435  0.3383
 8016SOL    HW225490   6.015   1.889   3.706 -0.7347  0.0971  0.8090
 8017SOL     OW25491   6.623   7.800   1.327  0.1544  0.3478  0.1426
 8017SOL    HW125492   6.714   7.814   1.353  0.5939 -0.1534 -1.0439
 8017SOL    HW225493   6.609   7.706   1.342 -0.3205  0.5103  0.7467
 8018SOL     OW25494   2.663   6.612  11.225  0.1451 -0.6339 -0.4998
 8018SOL    HW125495   2.703   6.603  11.138  3.4135 -0.7999  0.8736
 8018SOL    HW225496   2.711   6.684  11.266 -0.4034 -1.4244  1.6437
 8019SOL     OW25497   7.020   3.808  10.672 -0.4887  0.1772 -0.3758
 8019SOL    HW125498   6.983   3.767  10.750  0.1774  0.6959  0.2110
 8019SOL    HW225499   7.113   3.817  10.690  0.2716 -2.3967 -2.3893
 8020SOL     OW25500   3.359   4.729  11.885  0.4650 -0.1786  0.0924
 8020SOL    HW125501   3.399   4.816  11.887  0.8562 -0.3643  0.7558
 8020SOL    HW225502   3.319   4.719  11.971  0.6366 -0.7560  0.1063
 8021SOL     OW25503   4.928   1.618   5.343 -0.3273  0.2613  1.1643
 8021SOL    HW125504   4.999   1.555   5.337 -0.5230 -0.0676  2.1016
 8021SOL    HW225505   4.972   1.703   5.335 -0.0386  0.0338  0.1275
 8022SOL     OW25506   6.187   0.798   3.066  0.2615  0.2309 -0.4908
 8022SOL    HW125507   6.213   0.727   3.125 -0.0459  0.2022 -0.3854
 8022SOL    HW225508   6.254   0.866   3.079  0.8411 -0.2368 -0.9701
 8023SOL     OW25509   0.668   1.137  10.432 -0.0398  0.3113 -0.1018
 8023SOL    HW125510   0.631   1.071  10.374  1.4005 -0.1655 -0.5163
 8023SOL    HW225511   0.678   1.092  10.516 -0.3448  0.4241 -0.0041
 8024SOL     OW25512   2.376   1.469   5.538  0.7392  0.1609 -0.0688
 8024SOL    HW125513   2.386   1.502   5.627  0.9327 -0.6403  0.2171
 8024SOL    HW225514   2.453   1.501   5.492  1.5951 -0.9438  0.5413
 8025SOL     OW25515   2.367   0.645   5.765  0.3503 -0.1435 -0.1944
 8025SOL    HW125516   2.339   0.626   5.676  0.4656  0.6549 -0.4114
 8025SOL    HW225517   2.355   0.740   5.774  1.7029  0.0130  0.1457
 8026SOL     OW25518   0.671   5.318   7.089  0.3754  0.0396 -0.2378
 8026SOL    HW125519   0.616   5.313   7.167  0.9047  0.4988  0.1689
 8026SOL    HW225520   0.630   5.386   7.035 -0.5894 -1.0003 -0.8462
 8027SOL     OW25521   6.788   7.613   8.502 -0.0383 -0.5235 -0.1551
 8027SOL    HW125522   6.786   7.563   8.584 -0.5636  0.2330  0.3114
 8027SOL    HW225523   6.881   7.625   8.483  0.1433  0.8299  1.3252
 8028SOL     OW25524   3.751   5.666   5.929  0.4657  0.3658 -0.5689
 8028SOL    HW125525   3.778   5.694   6.016  0.2943  0.6361 -0.6022
 8028SOL    HW225526   3.749   5.571   5.934  0.5153  0.3779 -0.2966
 8029SOL     OW25527   4.603   1.862   9.221  0.1787  0.5906  0.4076
 8029SOL    HW125528   4.605   1.844   9.315  0.1062  1.6699  0.6301
 8029SOL    HW225529   4.513   1.846   9.195  0.0200  1.0229  0.6831
 8030SOL     OW25530   1.284   1.856   0.279  0.7524  0.0397 -0.1843
 8030SOL    HW125531   1.305   1.940   0.318  1.1456 -0.0320 -0.2402
 8030SOL    HW225532   1.266   1.876   0.187 -4.3466  0.9164  0.6827
 8031SOL     OW25533   2.255   4.354   7.177  0.5973  0.2958 -0.0923
 8031SOL    HW125534   2.270   4.306   7.258  0.7956  0.0186 -0.2913
 8031SOL    HW225535   2.342   4.363   7.138  0.4338 -0.0294 -0.5297
 8032SOL     OW25536   5.024   1.231   7.921 -0.5817 -0.3245  0.2326
 8032SOL    HW125537   4.951   1.266   7.869 -1.0100 -0.0084  1.0429
 8032SOL    HW225538   4.985   1.205   8.004  0.5600  1.8526  1.5241
 8033SOL     OW25539   5.884   0.650   2.164  0.0170 -0.0159  0.0291
 8033SOL    HW125540   5.960   0.680   2.114 -0.3078  1.6889  0.5079
 8033SOL    HW225541   5.853   0.728   2.210 -1.5749 -0.8444  0.4289
 8034SOL     OW25542   2.340   7.172   0.600  0.4439 -0.1626  0.1870
 8034SOL    HW125543   2.399   7.137   0.666  0.9322  1.3160  0.5597
 8034SOL    HW225544   2.396   7.219   0.539 -0.1985  0.1143 -0.2058
 8035SOL     OW25545   5.021   0.418   2.563  0.2204  0.7490 -0.0041
 8035SOL    HW125546   4.951   0.450   2.507 -0.4495 -1.3228 -0.4420
 8035SOL    HW225547   4.998   0.326   2.581  1.3150  0.8214  2.2211
 8036SOL     OW25548   0.143   5.892  11.254 -0.4180  0.6367  0.0739
 8036SOL    HW125549   0.071   5.952  11.235  1.1815  2.9258  0.7923
 8036SOL    HW225550   0.219   5.948  11.265  0.9769 -1.4166  2.0099
 8037SOL     OW25551   1.192   2.201   6.679 -0.0590 -0.1741  0.2881
 8037SOL    HW125552   1.205   2.246   6.763  1.0039 -1.3549  0.7956
 8037SOL    HW225553   1.177   2.109   6.704  1.1710 -0.7123 -0.8376
 8038SOL     OW25554   5.124   3.808   9.276  0.5082 -0.2180 -0.1124
 8038SOL    HW125555   5.097   3.896   9.247  0.1362  0.6528  2.5733
 8038SOL    HW225556   5.051   3.752   9.253  0.1041  0.4684 -0.5550
 8039SOL     OW25557   5.656   6.476   7.617 -0.1424  0.0734  0.1199
 8039SOL    HW125558   5.584   6.419   7.644 -3.1997  2.7282 -1.8261
 8039SOL    HW225559   5.675   6.530   7.694  0.6881 -1.3854  0.9972
 8040SOL     OW25560   3.563   1.221   4.675 -0.4097  0.1137 -0.0485
 8040SOL    HW125561   3.602   1.273   4.745 -0.5680 -0.0841  0.1884
 8040SOL    HW225562   3.630   1.219   4.607 -0.8213  1.5581 -0.5332
 8041SOL     OW25563   5.340   2.485   2.303  0.4226  0.0390 -0.1656
 8041SOL    HW125564   5.320   2.421   2.235 -3.0692 -0.6729  1.3238
 8041SOL    HW225565   5.376   2.560   2.256  1.0890 -1.5717 -2.3681
 8042SOL     OW25566   5.273   0.740   4.499 -0.2128 -0.0356  0.5074
 8042SOL    HW125567   5.214   0.673   4.464 -0.2954  1.6295 -2.8710
 8042SOL    HW225568   5.223   0.783   4.568 -1.1192 -1.6656  0.9154
 8043SOL     OW25569   2.371   5.882   4.249 -0.0542  0.2333  0.7467
 8043SOL    HW125570   2.326   5.885   4.334  0.6015  0.1061  1.1103
 8043SOL    HW225571   2.418   5.966   4.245  1.2861 -0.4596  1.2981
 8044SOL     OW25572   4.397   0.306  10.468 -0.0828  0.0358  0.5029
 8044SOL    HW125573   4.336   0.380  10.469 -0.9891 -0.6630 -0.7273
 8044SOL    HW225574   4.352   0.237  10.515  0.5553  0.0877  1.2098
 8045SOL     OW25575   7.429   4.679   0.120  0.3572  0.2393  0.2448
 8045SOL    HW125576   7.342   4.690   0.082  0.3644 -3.4376 -1.1484
 8045SOL    HW225577   7.415   4.620   0.194  1.6166 -0.0415  0.2728
 8046SOL     OW25578   7.476   2.469   4.806 -0.0614 -0.1404  0.3773
 8046SOL    HW125579   7.440   2.406   4.869  1.0365 -0.8677  0.3098
 8046SOL    HW225580   7.464   2.429   4.721  1.3049 -0.6386  0.3858
 8047SOL     OW25581   3.078   2.680   1.290 -0.4237 -0.3376 -0.1812
 8047SOL    HW125582   3.052   2.736   1.217 -3.4595 -0.7781  0.4321
 8047SOL    HW225583   3.114   2.740   1.355 -0.9681  0.5284 -0.6588
 8048SOL     OW25584   7.508   0.460   3.495  0.1042 -0.1313  0.3580
 8048SOL    HW125585   7.549   0.510   3.424 -0.6169 -1.0343 -0.7274
 8048SOL    HW225586   7.516   0.516   3.572  0.3880  1.1265 -0.5654
 8049SOL     OW25587   6.575   4.248   4.474  0.4921 -0.1302  0.6793
 8049SOL    HW125588   6.537   4.274   4.558  0.3735  1.2666  0.2087
 8049SOL    HW225589   6.656   4.298   4.467  0.4622 -0.1779 -0.0784
 8050SOL     OW25590   5.383   0.389   5.650 -0.0995  0.2439 -0.1736
 8050SOL    HW125591   5.342   0.343   5.723  1.1909 -0.8270 -0.0961
 8050SOL    HW225592   5.359   0.339   5.573 -1.4847  1.3915 -0.5212
 8051SOL     OW25593   5.201   2.238   3.600  0.9036 -0.0459  0.2242
 8051SOL    HW125594   5.132   2.235   3.667  0.4789 -0.3646 -0.2253
 8051SOL    HW225595   5.227   2.147   3.588  0.9020 -0.0018 -0.1270
 8052SOL     OW25596   1.257   3.548   7.213  0.2361  0.0607 -0.2230
 8052SOL    HW125597   1.337   3.572   7.261  0.4738 -0.6413 -0.2623
 8052SOL    HW225598   1.223   3.472   7.259 -0.2070  0.1275 -0.4364
 8053SOL     OW25599   7.804   7.081   1.456 -0.8400  0.3300 -0.0463
 8053SOL    HW125600   7.774   7.087   1.365 -1.5886 -0.3884  0.1376
 8053SOL    HW225601   7.819   7.171   1.483  0.0206  0.5211 -1.0778
 8054SOL     OW25602   4.047   6.468   2.724 -0.0793 -0.2119 -0.0847
 8054SOL    HW125603   3.953   6.481   2.735 -0.0757  2.0101 -2.0619
 8054SOL    HW225604   4.056   6.426   2.639  0.7158 -0.3398  0.0542
 8055SOL     OW25605   6.557   4.296   5.201 -0.0131 -0.6422  0.2537
 8055SOL    HW125606   6.641   4.341   5.202  0.0570 -0.4493 -2.9282
 8055SOL    HW225607   6.492   4.366   5.199  0.0236 -0.5644 -2.3283
 8056SOL     OW25608   1.770   3.735   5.561 -0.7501  0.4512 -0.5251
 8056SOL    HW125609   1.690   3.693   5.593  0.6637 -1.0911  1.2109
 8056SOL    HW225610   1.781   3.812   5.617 -0.3481 -0.0655  0.1163
 8057SOL     OW25611   1.955   1.543   8.350 -0.1824  0.1896 -0.2923
 8057SOL    HW125612   1.919   1.461   8.316  1.9592 -1.2817  0.7648
 8057SOL    HW225613   1.999   1.518   8.432  0.4935  2.4133  0.1004
 8058SOL     OW25614   1.671   4.540  11.353 -0.0374  0.1674  0.7762
 8058SOL    HW125615   1.658   4.606  11.284 -1.6085 -0.6084  0.2797
 8058SOL    HW225616   1.742   4.485  11.320  0.5074  0.9285  0.6605
 8059SOL     OW25617   4.376   3.295   6.255  0.4591  0.0030 -0.9337
 8059SOL    HW125618   4.425   3.343   6.188 -1.4826  2.0389 -1.0254
 8059SOL    HW225619   4.324   3.232   6.205 -1.5209  1.9878 -1.5479
 8060SOL     OW25620   3.272   3.449   2.115 -0.2888  0.0139  0.4085
 8060SOL    HW125621   3.314   3.530   2.088  0.7801  0.2672  2.6561
 8060SOL    HW225622   3.344   3.390   2.135 -1.0091 -2.0035 -2.3033
 8061SOL     OW25623   4.034   6.849   8.318 -0.1631  0.4036  0.1070
 8061SOL    HW125624   3.960   6.880   8.370  0.7809 -1.1552  2.5522
 8061SOL    HW225625   4.086   6.927   8.301 -0.6648  1.0077  1.2676
 8062SOL     OW25626   2.073   5.344   9.136 -0.1618 -0.0406 -0.3104
 8062SOL    HW125627   2.039   5.302   9.215 -1.0474  1.0441 -0.0890
 8062SOL    HW225628   2.164   5.365   9.158  0.0969 -1.1847 -0.1890
 8063SOL     OW25629   5.580   3.964   5.788 -0.3793  0.0390 -0.0505
 8063SOL    HW125630   5.578   3.927   5.700 -1.2120 -0.8448  0.3149
 8063SOL    HW225631   5.620   3.895   5.842  0.2941  0.6419  0.2412
 8064SOL     OW25632   2.907   6.534   4.294 -0.0394 -0.5143  0.3215
 8064SOL    HW125633   2.984   6.477   4.282 -0.0889 -0.4176 -0.5187
 8064SOL    HW225634   2.833   6.478   4.270 -0.0618 -0.0157 -0.8598
 8065SOL     OW25635   0.448   4.833   2.474  0.0417 -0.1886  0.1112
 8065SOL    HW125636   0.397   4.875   2.543 -0.5357  0.6859 -0.8175
 8065SOL    HW225637   0.407   4.747   2.464  0.3841 -0.4794  1.1183
 8066SOL     OW25638   4.783   3.926   1.906 -0.5091  0.9358 -0.4196
 8066SOL    HW125639   4.836   3.847   1.920 -1.4677  0.7124  2.5966
 8066SOL    HW225640   4.728   3.904   1.830 -1.0938 -1.5741  0.6062
 8067SOL     OW25641   6.914   2.368   5.515 -0.2629 -0.1351  0.4739
 8067SOL    HW125642   6.960   2.365   5.599  0.7184 -0.6924 -0.0582
 8067SOL    HW225643   6.853   2.441   5.523  1.7477  1.5896  0.7146
 8068SOL     OW25644   1.370   7.807   3.904  0.3920  0.0885  0.2532
 8068SOL    HW125645   1.441   7.871   3.901  0.3581  0.1325  0.4173
 8068SOL    HW225646   1.360   7.779   3.812  0.5683  0.1376  0.2175
 8069SOL     OW25647   7.336   3.004   6.746 -0.6299  0.4190  0.0859
 8069SOL    HW125648   7.263   2.951   6.775 -0.5717  0.7589  0.9001
 8069SOL    HW225649   7.310   3.037   6.660 -0.6947 -0.8377 -0.3913
 8070SOL     OW25650   3.470   3.375   4.661  0.5544 -0.3129  0.4348
 8070SOL    HW125651   3.511   3.288   4.663 -0.2543 -0.7840 -1.2169
 8070SOL    HW225652   3.397   3.365   4.600  0.6772  1.6223 -0.0971
 8071SOL     OW25653   2.851   2.115   1.457 -0.0363 -0.0829 -0.0512
 8071SOL    HW125654   2.848   2.159   1.542  0.3793 -0.3047  0.0793
 8071SOL    HW225655   2.943   2.121   1.430 -0.0039 -0.7536 -0.0926
 8072SOL     OW25656   6.984   7.667   7.426 -0.5587  0.2095 -0.5542
 8072SOL    HW125657   6.939   7.594   7.468 -1.6292  1.5900  0.7801
 8072SOL    HW225658   7.058   7.686   7.483  0.9094 -1.0227 -1.9198
 8073SOL     OW25659   3.098   2.515   2.214  1.0623  0.3944 -0.0580
 8073SOL    HW125660   3.139   2.474   2.138  1.4899  0.3597  0.1883
 8073SOL    HW225661   3.146   2.597   2.227  0.8752  0.4867  0.0651
 8074SOL     OW25662   6.211   5.531   7.227 -0.1443  0.4857  0.0919
 8074SOL    HW125663   6.298   5.505   7.256  0.0744  0.7945 -0.2823
 8074SOL    HW225664   6.160   5.540   7.308  0.0082 -0.2635  0.2729
 8075SOL     OW25665   0.390   2.311  11.567 -0.1394  0.0879  0.1883
 8075SOL    HW125666   0.447   2.379  11.604 -0.0322 -0.7225  1.5682
 8075SOL    HW225667   0.353   2.352  11.489 -1.0759  2.2441  1.6418
 8076SOL     OW25668   3.095   5.255   9.381  0.1812 -0.3180 -0.2094
 8076SOL    HW125669   3.103   5.300   9.465 -0.9212 -0.6267  0.0757
 8076SOL    HW225670   3.135   5.169   9.396 -2.4076 -1.4573  0.8961
 8077SOL     OW25671   2.330   3.237   9.234 -0.0085  0.1101  0.4152
 8077SOL    HW125672   2.250   3.200   9.270  0.5150 -0.2929  1.1950
 8077SOL    HW225673   2.400   3.183   9.271  0.6547  0.7973  0.1908
 8078SOL     OW25674   4.571   3.273   7.651 -0.4997  0.8145  0.1500
 8078SOL    HW125675   4.538   3.267   7.561 -0.5897  1.7249  0.1153
 8078SOL    HW225676   4.523   3.204   7.698  0.9553 -1.0075 -0.8857
 8079SOL     OW25677   6.411   2.333   1.064 -0.4679 -0.1517  0.1270
 8079SOL    HW125678   6.491   2.318   1.114  0.7267 -1.0064 -1.8984
 8079SOL    HW225679   6.347   2.274   1.104  0.2622 -0.3674  1.0116
 8080SOL     OW25680   0.118   6.177   9.405  0.6462 -0.1272  0.3568
 8080SOL    HW125681   0.029   6.182   9.440  0.8897 -1.4046  1.2098
 8080SOL    HW225682   0.109   6.201   9.313 -0.2804  1.6127  0.8550
 8081SOL     OW25683   2.941   1.395   1.032 -0.3111  0.2278 -0.3113
 8081SOL    HW125684   2.995   1.334   0.983  0.8764  0.8604  0.1699
 8081SOL    HW225685   2.934   1.358   1.120 -1.2368 -0.1849 -0.5465
 8082SOL     OW25686   1.511   5.508   9.833  0.2232 -0.6219  0.6621
 8082SOL    HW125687   1.442   5.524   9.768  0.0524 -0.5630  0.8574
 8082SOL    HW225688   1.499   5.417   9.859  1.2910 -1.1444 -0.5601
 8083SOL     OW25689   4.451   7.829  12.223  0.3381 -0.2797 -0.6831
 8083SOL    HW125690   4.517   7.772  12.263 -0.2013 -0.5578 -0.1718
 8083SOL    HW225691   4.493   7.915  12.220  0.4971 -0.3103  0.2303
 8084SOL     OW25692   0.632   3.112  11.519  0.0565 -0.0174  0.3217
 8084SOL    HW125693   0.721   3.102  11.485 -0.7690 -0.9119 -1.7125
 8084SOL    HW225694   0.584   3.037  11.484 -1.8201  1.1424  0.2724
 8085SOL     OW25695   0.139   1.629  11.764 -0.7552 -0.2940 -0.0138
 8085SOL    HW125696   0.118   1.635  11.671 -0.0921 -1.6334 -0.2627
 8085SOL    HW225697   0.124   1.718  11.797 -0.2993  0.3805 -1.5387
 8086SOL     OW25698   1.862   5.132   8.306  0.4406  0.0557 -0.3908
 8086SOL    HW125699   1.830   5.174   8.225 -0.1715  0.3710  0.0061
 8086SOL    HW225700   1.930   5.192   8.338  1.3442 -0.5385 -1.1574
 8087SOL     OW25701   7.762   0.043   4.064  0.1047 -0.0377  0.0686
 8087SOL    HW125702   7.815   0.116   4.030  1.4995  0.3243  2.7686
 8087SOL    HW225703   7.674   0.079   4.071  0.0820  0.3274 -1.6070
 8088SOL     OW25704   1.183   2.834   0.590  0.0887 -0.5750  0.3482
 8088SOL    HW125705   1.111   2.775   0.611 -0.1408 -0.5655 -0.3776
 8088SOL    HW225706   1.142   2.906   0.542  0.7705 -1.2954 -1.3706
 8089SOL     OW25707   4.838   7.206   8.487 -0.6123 -0.4648 -0.3066
 8089SOL    HW125708   4.801   7.246   8.566 -1.5962 -0.2678 -0.8492
 8089SOL    HW225709   4.928   7.237   8.485 -0.4793 -0.7346  0.9112
 8090SOL     OW25710   1.154   5.541   5.982 -0.4357 -0.0307  0.1597
 8090SOL    HW125711   1.221   5.560   6.048 -0.9395  0.8418  0.4306
 8090SOL    HW225712   1.180   5.456   5.946  0.7748  0.2477  0.3156
 8091SOL     OW25713   3.188   5.264   1.730 -0.3445 -0.2016 -0.6466
 8091SOL    HW125714   3.121   5.320   1.770 -2.3671 -1.7485 -1.7205
 8091SOL    HW225715   3.218   5.208   1.801  0.5379  1.0876  0.0545
 8092SOL     OW25716   3.517   5.160   9.442 -0.1459 -0.7966  0.0685
 8092SOL    HW125717   3.492   5.188   9.530  0.3279 -1.0619  0.2883
 8092SOL    HW225718   3.612   5.160   9.443 -0.1084  0.4082 -0.8303
 8093SOL     OW25719   2.108   5.449   4.084  0.5067 -0.1752  0.3223
 8093SOL    HW125720   2.079   5.451   4.175 -2.9977 -0.5795 -0.6085
 8093SOL    HW225721   2.112   5.541   4.057 -0.4799 -0.1068  0.3752
 8094SOL     OW25722   2.396   1.915   5.094 -0.3396 -0.1073 -0.3060
 8094SOL    HW125723   2.420   2.006   5.074 -1.1534 -0.0175 -0.9077
 8094SOL    HW225724   2.334   1.922   5.167 -0.1556 -0.2089 -0.1369
 8095SOL     OW25725   0.708   3.474   7.795 -0.2961  0.3748 -0.5077
 8095SOL    HW125726   0.801   3.488   7.778 -0.1433 -0.4639 -0.4280
 8095SOL    HW225727   0.663   3.529   7.732  0.2576 -0.2701 -1.4881
 8096SOL     OW25728   1.393   1.750  10.000  0.0832  0.1504  0.3330
 8096SOL    HW125729   1.473   1.799  10.020 -1.1990  2.2037  0.7613
 8096SOL    HW225730   1.401   1.728   9.907  2.1599 -1.7963  0.8761
 8097SOL     OW25731   1.222   4.699   3.543 -0.2256  0.2039 -0.6260
 8097SOL    HW125732   1.289   4.636   3.514  1.7220  1.9877 -0.2222
 8097SOL    HW225733   1.246   4.719   3.633 -0.8226  1.4985 -0.7363
 8098SOL     OW25734   1.647   5.949   3.081 -0.3803 -0.7626 -0.1110
 8098SOL    HW125735   1.626   5.861   3.048 -0.1036  0.1536 -3.0188
 8098SOL    HW225736   1.664   6.000   3.002 -0.5308  1.9331  1.4966
 8099SOL     OW25737   0.617   5.044   1.647 -0.1343 -0.7919 -0.3527
 8099SOL    HW125738   0.586   5.128   1.681  0.0465 -1.3854  1.3852
 8099SOL    HW225739   0.699   5.028   1.695  0.2823 -1.5621 -1.2871
 8100SOL     OW25740   1.856   0.923   8.225 -0.1152 -0.2506 -0.0435
 8100SOL    HW125741   1.933   0.974   8.200  0.0334 -0.7279 -0.6036
 8100SOL    HW225742   1.893   0.842   8.260 -0.3529 -0.8618 -1.1489
 8101SOL     OW25743   4.916   0.164   3.944 -0.3274 -0.2732 -0.4967
 8101SOL    HW125744   4.907   0.091   4.005 -0.6090 -0.9486 -1.3403
 8101SOL    HW225745   4.976   0.133   3.877  2.3625  1.4779  0.9153
 8102SOL     OW25746   4.938   3.020   5.669  0.2077 -0.3356  0.2118
 8102SOL    HW125747   4.874   2.974   5.615 -0.3631 -1.6954  1.9883
 8102SOL    HW225748   4.885   3.073   5.729  0.6491 -2.2238  2.3579
 8103SOL     OW25749   1.380   7.471  10.161  0.1241 -0.0437 -0.2091
 8103SOL    HW125750   1.467   7.454  10.126 -0.8527  0.5915 -3.2581
 8103SOL    HW225751   1.329   7.393  10.139 -0.3699  0.0679  0.4932
 8104SOL     OW25752   6.730   3.242   8.805  0.0152  0.1909 -0.0830
 8104SOL    HW125753   6.679   3.320   8.828  0.2064 -0.1057  1.4831
 8104SOL    HW225754   6.779   3.222   8.885  0.2371 -1.3429 -0.5838
 8105SOL     OW25755   2.131   4.062   6.963  0.0503 -1.0464  0.3548
 8105SOL    HW125756   2.149   4.150   6.930 -1.8656 -0.7880 -0.1521
 8105SOL    HW225757   2.162   4.063   7.053  0.4335  0.0044  0.2271
 8106SOL     OW25758   5.534   1.528  10.617  0.1023  0.3056 -0.7633
 8106SOL    HW125759   5.582   1.604  10.649 -0.7402  0.5695 -0.0668
 8106SOL    HW225760   5.529   1.470  10.693  1.3658 -0.7962 -1.4804
 8107SOL     OW25761   5.717   4.884   2.947  0.0815  0.5048 -0.6807
 8107SOL    HW125762   5.713   4.979   2.941 -0.3108  0.5363 -0.0258
 8107SOL    HW225763   5.810   4.863   2.943  0.3209  1.0767  1.2561
 8108SOL     OW25764   5.233   1.734  11.562 -0.3546  0.2978  0.3253
 8108SOL    HW125765   5.318   1.700  11.534 -1.2216 -1.7236 -0.0097
 8108SOL    HW225766   5.201   1.669  11.624 -1.7708  0.9175  0.2715
 8109SOL     OW25767   1.601   1.761   1.294  0.0794  0.0666  0.5374
 8109SOL    HW125768   1.589   1.764   1.388 -0.3394  1.8951  0.4589
 8109SOL    HW225769   1.662   1.833   1.275  0.7406 -0.7429 -0.5122
 8110SOL     OW25770   3.991   0.442   5.500  0.4481  0.1561 -0.4332
 8110SOL    HW125771   3.957   0.530   5.517 -1.0372 -0.6766  1.1563
 8110SOL    HW225772   4.039   0.419   5.579 -2.0385 -1.7216  0.6536
 8111SOL     OW25773   3.651   4.499   4.501  0.2827  0.0010 -0.0281
 8111SOL    HW125774   3.726   4.450   4.469  0.4538 -0.8341  1.5362
 8111SOL    HW225775   3.656   4.583   4.456  3.0321  0.5409  1.0674
 8112SOL     OW25776   0.184   5.540   7.633 -0.6387 -0.4536 -0.6317
 8112SOL    HW125777   0.115   5.601   7.606 -1.1565 -0.6818  0.1476
 8112SOL    HW225778   0.141   5.455   7.638  0.2913 -1.1076 -2.6407
 8113SOL     OW25779   1.547   3.267   1.634  0.6240 -0.2662  0.0495
 8113SOL    HW125780   1.545   3.172   1.621  2.7425 -0.5721  1.5097
 8113SOL    HW225781   1.598   3.300   1.559 -0.5647 -0.1704 -0.7505
 8114SOL     OW25782   5.199   1.275   9.593  0.4464 -1.0896 -0.1180
 8114SOL    HW125783   5.167   1.202   9.646 -0.8170 -1.1185 -0.9039
 8114SOL    HW225784   5.255   1.324   9.653 -0.4340 -1.4837  1.0686
 8115SOL     OW25785   0.429   0.989   2.892 -0.2003  0.1085  0.1780
 8115SOL    HW125786   0.509   1.012   2.844  0.3149  0.2799  1.0893
 8115SOL    HW225787   0.407   1.069   2.939  0.4339 -0.6153  1.7709
 8116SOL     OW25788   5.175   2.663   3.458  0.5741  0.5350 -0.0434
 8116SOL    HW125789   5.222   2.719   3.395 -0.1340  0.8462 -0.3133
 8116SOL    HW225790   5.226   2.669   3.538  0.0337  2.3199  0.2066
 8117SOL     OW25791   1.382   0.377   4.333  1.1467  0.0034 -0.2262
 8117SOL    HW125792   1.365   0.472   4.331  0.6285 -0.0888 -0.3930
 8117SOL    HW225793   1.384   0.351   4.241  2.5314  0.0571 -0.2275
 8118SOL     OW25794   0.792   1.520   0.076  0.2689  0.3923  1.1569
 8118SOL    HW125795   0.713   1.516   0.022  0.4774  0.4456  0.8493
 8118SOL    HW225796   0.802   1.613   0.097  0.7260  0.4961  0.4921
 8119SOL     OW25797   1.757   3.172   0.488  0.1107 -0.6332  0.0753
 8119SOL    HW125798   1.836   3.149   0.537  1.0338  4.3506  1.4893
 8119SOL    HW225799   1.685   3.157   0.550  0.3088 -1.7075  0.0725
 8120SOL     OW25800   1.792   0.499  10.893  0.1546  0.4334 -0.0073
 8120SOL    HW125801   1.864   0.472  10.950 -0.7451 -1.0067  0.5140
 8120SOL    HW225802   1.719   0.517  10.952 -0.9621 -1.6130 -0.6428
 8121SOL     OW25803   4.633   2.500   3.832  0.1458  0.4182  0.5704
 8121SOL    HW125804   4.646   2.531   3.921  1.9877 -0.8387  0.8007
 8121SOL    HW225805   4.565   2.433   3.840  0.2011  0.4095  1.0127
 8122SOL     OW25806   1.661   2.389   3.537  0.3936 -0.9544 -0.3401
 8122SOL    HW125807   1.716   2.311   3.529  1.2864 -0.2748 -1.1320
 8122SOL    HW225808   1.645   2.417   3.447  0.3732 -0.0371 -0.0653
 8123SOL     OW25809   6.771   4.871  10.470  0.5155  0.1291 -0.3232
 8123SOL    HW125810   6.800   4.898  10.383 -0.6080 -0.6950 -0.9788
 8123SOL    HW225811   6.689   4.917  10.484  0.7320  0.3205  0.3404
 8124SOL     OW25812   4.286   4.923   5.097  0.6222  0.1630 -0.2797
 8124SOL    HW125813   4.361   4.930   5.155 -0.4733  0.9160  1.1133
 8124SOL    HW225814   4.302   4.987   5.028  2.1091 -0.9950 -1.0611
 8125SOL     OW25815   5.584   6.044   6.325  0.4480 -0.2867 -0.3184
 8125SOL    HW125816   5.574   6.075   6.236 -0.9499  0.0139 -0.0721
 8125SOL    HW225817   5.552   6.116   6.380 -1.5928 -1.5788  0.2982
 8126SOL     OW25818   0.665   3.471   3.587  0.0719 -0.0540 -0.4374
 8126SOL    HW125819   0.657   3.548   3.531 -0.2165 -0.9191 -1.6311
 8126SOL    HW225820   0.583   3.424   3.573  0.4608 -0.8309 -0.1257
 8127SOL     OW25821   1.226   0.609   8.140 -0.0052 -0.8441  0.5376
 8127SOL    HW125822   1.299   0.549   8.128  0.7483  0.0066  0.7538
 8127SOL    HW225823   1.153   0.554   8.167  1.1768 -1.4370  2.6924
 8128SOL     OW25824   6.270   5.600   2.331  0.0219  0.8066  0.1080
 8128SOL    HW125825   6.322   5.665   2.380  1.6723 -0.0074 -0.5085
 8128SOL    HW225826   6.334   5.552   2.279 -1.2501 -0.8806  0.0256
 8129SOL     OW25827   6.982   6.373  11.259 -0.4449 -0.0056 -0.0991
 8129SOL    HW125828   7.069   6.350  11.225 -1.3486  0.2125 -2.7971
 8129SOL    HW225829   6.996   6.455  11.307  0.5044  1.4170 -2.6215
 8130SOL     OW25830   3.883   4.678   6.264  0.0181 -0.3499  0.1681
 8130SOL    HW125831   3.960   4.704   6.314 -0.9347 -0.5029  1.7940
 8130SOL    HW225832   3.870   4.748   6.200  0.9234  0.1667  0.5425
 8131SOL     OW25833   7.243   4.236   1.290  0.5397  0.0648 -0.0362
 8131SOL    HW125834   7.154   4.269   1.273  0.6347  0.5961  0.4770
 8131SOL    HW225835   7.279   4.222   1.202  0.3187  0.8664 -0.2677
 8132SOL     OW25836   0.370   1.212   5.275 -0.3150  0.1859  0.2446
 8132SOL    HW125837   0.326   1.271   5.214  0.1891  1.1029  0.7305
 8132SOL    HW225838   0.345   1.244   5.361  4.0037  3.1836  0.7489
 8133SOL     OW25839   1.959   5.560  10.711  0.0288 -0.8225 -0.2176
 8133SOL    HW125840   2.050   5.581  10.691 -0.3807  2.1536  0.5047
 8133SOL    HW225841   1.962   5.523  10.799  0.4441  0.7111  0.4422
 8134SOL     OW25842   2.802   5.744   1.421  0.0397  0.5621  0.2147
 8134SOL    HW125843   2.794   5.651   1.443 -1.2717  0.5087 -0.4185
 8134SOL    HW225844   2.712   5.775   1.416  0.4610  1.8867  0.4354
 8135SOL     OW25845   4.430   7.682   0.953  0.3471  0.0199  0.1767
 8135SOL    HW125846   4.468   7.717   1.033 -0.3475  0.9995  0.1079
 8135SOL    HW225847   4.353   7.633   0.982  0.0145  0.4924  0.1193
 8136SOL     OW25848   6.407   0.807  11.715 -0.4056 -0.2481  0.2938
 8136SOL    HW125849   6.365   0.858  11.646 -0.0169 -0.5114 -0.1443
 8136SOL    HW225850   6.496   0.791  11.682 -0.9135 -2.3951 -0.2170
 8137SOL     OW25851   7.243   0.341   7.844 -0.2100  0.3290  0.4294
 8137SOL    HW125852   7.323   0.288   7.850 -1.4381 -1.5139  2.2644
 8137SOL    HW225853   7.266   0.425   7.882  0.7418 -0.3703  1.4529
 8138SOL     OW25854   7.074   2.053   7.171  0.0102 -0.0005 -0.2119
 8138SOL    HW125855   7.062   2.147   7.157  0.8521  0.2164  0.4202
 8138SOL    HW225856   7.120   2.023   7.093  1.4768  0.5079  0.4111
 8139SOL     OW25857   2.598   4.204   4.915  0.1027 -0.5081  0.1446
 8139SOL    HW125858   2.571   4.150   4.989  1.0253  2.8532  3.2181
 8139SOL    HW225859   2.694   4.200   4.917  0.2025  1.3688  0.6450
 8140SOL     OW25860   0.801   5.045   1.224  0.6315  0.5440 -0.3744
 8140SOL    HW125861   0.774   5.133   1.250  1.4461  0.8488 -0.5338
 8140SOL    HW225862   0.756   4.987   1.286 -0.1425  1.0434 -0.4499
 8141SOL     OW25863   1.210   7.204   3.581  0.0773 -0.2330 -0.0031
 8141SOL    HW125864   1.280   7.232   3.640 -0.0410 -0.1916  0.1160
 8141SOL    HW225865   1.189   7.283   3.530  0.7971 -0.4901 -0.7250
 8142SOL     OW25866   6.346   6.247   3.645  0.0440  0.2553 -0.0222
 8142SOL    HW125867   6.349   6.211   3.556  1.7767  0.3374 -0.0270
 8142SOL    HW225868   6.421   6.306   3.650 -0.7369  1.1957  1.1143
 8143SOL     OW25869   4.243   0.026   2.109 -0.4493 -0.2570 -0.5000
 8143SOL    HW125870   4.204   0.018   2.196  1.0324 -0.8451  0.1450
 8143SOL    HW225871   4.253   0.120   2.095 -1.0952 -0.1438 -0.2307
 8144SOL     OW25872   6.230   6.365   2.589 -0.4224  0.4490 -0.3041
 8144SOL    HW125873   6.287   6.424   2.539  1.4769 -1.2170 -0.2386
 8144SOL    HW225874   6.182   6.315   2.523 -1.4275  1.4403 -0.3616
 8145SOL     OW25875   2.382   5.484  11.884  0.5074 -0.1095  0.1150
 8145SOL    HW125876   2.345   5.554  11.937  3.3807  0.5969  1.3742
 8145SOL    HW225877   2.330   5.406  11.907 -0.9265  1.0221  0.8355
 8146SOL     OW25878   4.670   4.004   9.462 -0.0944 -0.2576 -0.6175
 8146SOL    HW125879   4.623   4.025   9.543  0.6656  1.1475 -0.5133
 8146SOL    HW225880   4.604   3.966   9.405 -0.6734 -1.1726  0.6121
 8147SOL     OW25881   5.439   3.140   2.951 -0.2789  0.1486 -0.3574
 8147SOL    HW125882   5.456   3.194   3.028  1.6458 -0.8255 -0.0253
 8147SOL    HW225883   5.524   3.103   2.929 -1.0828 -0.8191 -2.0395
 8148SOL     OW25884   3.242   7.468   9.001  0.2895  0.5958 -0.2459
 8148SOL    HW125885   3.321   7.424   8.969  1.3180  1.9741  0.3115
 8148SOL    HW225886   3.200   7.500   8.921 -0.8608 -1.8901 -0.7388
 8149SOL     OW25887   6.762   3.928  10.245 -0.1077 -0.1232  0.0604
 8149SOL    HW125888   6.674   3.893  10.259 -0.8329  1.0125 -1.4059
 8149SOL    HW225889   6.817   3.850  10.237 -0.5747 -0.8563  2.9942
 8150SOL     OW25890   3.878   6.619   1.300 -0.1746 -0.6688  0.2371
 8150SOL    HW125891   3.916   6.694   1.345 -0.5848 -0.5883  0.4523
 8150SOL    HW225892   3.950   6.581   1.251 -0.0331  0.0606 -0.1289
 8151SOL     OW25893   7.354   2.200   5.857 -0.1270  0.3306 -0.0515
 8151SOL    HW125894   7.350   2.292   5.883 -0.2723  0.1338  0.6329
 8151SOL    HW225895   7.445   2.175   5.870 -0.2065  0.2231  0.3134
 8152SOL     OW25896   4.095   0.656   4.357 -0.2794 -0.1346  0.5405
 8152SOL    HW125897   4.074   0.639   4.449  0.4329 -0.2032  0.6950
 8152SOL    HW225898   4.171   0.601   4.339 -0.7630 -0.5794 -0.2640
 8153SOL     OW25899   5.443   1.638   8.171  0.2462  0.3250  0.4211
 8153SOL    HW125900   5.514   1.699   8.190  1.3002 -1.2466  1.8480
 8153SOL    HW225901   5.407   1.615   8.256  0.8769 -2.1203  0.1120
 8154SOL     OW25902   5.851   5.797   4.829  0.1693 -0.5474 -0.5197
 8154SOL    HW125903   5.803   5.861   4.776 -0.0715 -1.9386 -2.0875
 8154SOL    HW225904   5.867   5.841   4.912 -5.7889 -0.6816  1.0928
 8155SOL     OW25905   1.061   4.240   1.844 -0.6292 -0.1407  0.2286
 8155SOL    HW125906   0.967   4.236   1.827 -0.5377 -2.6292 -0.0046
 8155SOL    HW225907   1.067   4.253   1.939 -1.2776 -2.2643  0.6136
 8156SOL     OW25908   4.106   5.314   4.692 -0.1014 -0.5240  0.2876
 8156SOL    HW125909   4.166   5.361   4.633 -1.1993  0.4218 -0.1226
 8156SOL    HW225910   4.022   5.316   4.646 -0.7698 -0.5799  1.4768
 8157SOL     OW25911   4.460   7.744   2.540 -0.1373  0.3382  0.5360
 8157SOL    HW125912   4.457   7.654   2.507  2.6054 -0.0066  0.9990
 8157SOL    HW225913   4.482   7.796   2.463  0.1240  0.3674  0.6316
 8158SOL     OW25914   2.130   3.465   5.180 -0.2244 -0.3505 -0.0480
 8158SOL    HW125915   2.215   3.476   5.137 -0.3059 -0.9996 -0.3914
 8158SOL    HW225916   2.066   3.483   5.111 -0.4578  3.0402  0.8858
 8159SOL     OW25917   4.828   5.314   9.319  0.4556  0.0403  0.1460
 8159SOL    HW125918   4.901   5.310   9.382 -0.3948  0.2781  1.1725
 8159SOL    HW225919   4.759   5.262   9.361 -1.2615  2.8065  0.9514
 8160SOL     OW25920   4.393   2.326   1.616  0.2247  0.0080 -0.4607
 8160SOL    HW125921   4.314   2.380   1.606 -0.8984 -1.7398 -1.7019
 8160SOL    HW225922   4.454   2.360   1.551  0.3413  1.0565  0.1714
 8161SOL     OW25923   3.886   1.189   2.032 -0.1075  0.1640 -0.4598
 8161SOL    HW125924   3.834   1.199   2.112 -2.5204  1.4037 -2.0553
 8161SOL    HW225925   3.970   1.230   2.052 -0.8995  1.0369  1.2504
 8162SOL     OW25926   0.928   0.141   6.497  0.1398  0.3872  0.8818
 8162SOL    HW125927   1.022   0.128   6.489  0.1327  0.4479  0.6694
 8162SOL    HW225928   0.919   0.218   6.553  0.2907  1.8104 -0.9240
 8163SOL     OW25929   6.822   6.975  10.924  0.4072 -0.2805 -0.1158
 8163SOL    HW125930   6.761   6.983  10.997 -0.4526 -0.8391 -0.7526
 8163SOL    HW225931   6.874   6.898  10.945  0.4076 -0.2278  0.0813
 8164SOL     OW25932   4.972   2.506   4.431 -0.0604  0.3524  0.0210
 8164SOL    HW125933   4.900   2.551   4.474  1.0926 -0.0388  2.5730
 8164SOL    HW225934   5.037   2.494   4.500  1.4284 -1.4736 -1.5752
 8165SOL     OW25935   5.612   5.902  11.535 -0.4054  0.1383  0.7600
 8165SOL    HW125936   5.517   5.893  11.534 -0.4451 -0.1516  2.9773
 8165SOL    HW225937   5.629   5.982  11.486 -1.9054  0.9478  1.4919
 8166SOL     OW25938   1.917   2.383   9.910  0.1277  0.1705  0.4296
 8166SOL    HW125939   1.852   2.338   9.856  0.3928  0.6275 -0.2824
 8166SOL    HW225940   1.873   2.462   9.940  0.7026  1.1061 -1.0487
 8167SOL     OW25941   2.549   5.384   7.564  0.3319 -0.2337 -0.3943
 8167SOL    HW125942   2.525   5.321   7.496 -1.1929  0.4967 -0.5821
 8167SOL    HW225943   2.482   5.374   7.631  1.1959 -0.1655  0.5026
 8168SOL     OW25944   4.716   2.799   6.716  0.8194  0.0808  0.4514
 8168SOL    HW125945   4.689   2.767   6.802 -0.7089  0.2370  0.0607
 8168SOL    HW225946   4.703   2.893   6.721  1.2033  0.1499  0.1933
 8169SOL     OW25947   3.111   7.386   3.598 -0.3255  0.3168  0.3661
 8169SOL    HW125948   3.017   7.382   3.618 -0.6209  1.9667 -0.5200
 8169SOL    HW225949   3.147   7.309   3.641 -2.0518 -0.2511  0.9086
 8170SOL     OW25950   5.897   2.681   0.681  0.1519 -0.8760 -0.1168
 8170SOL    HW125951   5.826   2.703   0.620  0.6242 -1.7233 -1.0060
 8170SOL    HW225952   5.972   2.731   0.649  0.4561 -1.4833 -0.3866
 8171SOL     OW25953   5.328   6.817   4.770  0.2502  0.0956  0.0653
 8171SOL    HW125954   5.319   6.908   4.799  0.3766  0.3442 -0.6548
 8171SOL    HW225955   5.269   6.810   4.695  0.1097 -0.4686  0.2213
 8172SOL     OW25956   0.546   5.834   3.081 -0.6757  0.0458 -0.3441
 8172SOL    HW125957   0.527   5.742   3.104 -1.1686 -0.0410 -1.0592
 8172SOL    HW225958   0.641   5.838   3.073 -0.7619 -0.9460 -2.4578
 8173SOL     OW25959   7.784   6.741   4.800  0.3047  0.0371 -0.3001
 8173SOL    HW125960   7.721   6.750   4.728  1.5779 -1.2976 -1.6464
 8173SOL    HW225961   7.838   6.666   4.776  1.9998  0.7250  1.1188
 8174SOL     OW25962   2.976   2.820  10.971 -0.6066 -0.4278 -0.3821
 8174SOL    HW125963   2.988   2.877  10.896 -0.9926  2.2246  1.4326
 8174SOL    HW225964   3.065   2.800  11.000 -0.3587  2.3680  1.0757
 8175SOL     OW25965   3.860   3.863   8.744 -0.7630 -0.3433  0.0593
 8175SOL    HW125966   3.937   3.920   8.734 -2.8975  2.3414 -3.0519
 8175SOL    HW225967   3.819   3.892   8.826  1.1597 -1.5296  1.5383
 8176SOL     OW25968   4.373   6.341   9.450  0.0203  0.8905  0.2619
 8176SOL    HW125969   4.324   6.260   9.433  2.2693 -0.4168 -0.4886
 8176SOL    HW225970   4.456   6.311   9.486  0.7445  2.9203  0.4034
 8177SOL     OW25971   3.759   6.202  10.173  0.0993 -0.1179 -0.1875
 8177SOL    HW125972   3.826   6.264  10.146 -1.0251  0.2149 -2.4787
 8177SOL    HW225973   3.743   6.148  10.095  0.5338 -2.8971  1.4923
 8178SOL     OW25974   3.194   2.138   8.360 -0.0175  0.4256 -0.1451
 8178SOL    HW125975   3.263   2.109   8.300  0.8672  3.0766 -0.5271
 8178SOL    HW225976   3.128   2.177   8.303 -0.3982  0.6483  0.4451
 8179SOL     OW25977   2.038   1.060   7.014  0.8292  0.4928 -0.0329
 8179SOL    HW125978   1.959   1.059   7.068  0.6933 -0.4316 -0.2386
 8179SOL    HW225979   2.073   1.149   7.025 -1.6732  1.8597 -2.0128
 8180SOL     OW25980   0.992   7.200   8.684 -0.7185 -0.3905 -0.0314
 8180SOL    HW125981   0.935   7.275   8.701 -0.2905 -0.3611  1.3299
 8180SOL    HW225982   0.948   7.126   8.725  0.5258 -0.2430  1.6734
 8181SOL     OW25983   4.865   4.287   6.394 -0.2026  0.1767  0.0497
 8181SOL    HW125984   4.954   4.322   6.395  0.2644 -0.9134 -0.8512
 8181SOL    HW225985   4.820   4.333   6.465  1.0940  0.6891  0.5683
 8182SOL     OW25986   4.864   7.123   7.029  0.5045 -0.2157 -0.4628
 8182SOL    HW125987   4.813   7.122   7.110 -0.4970  1.3020 -1.0433
 8182SOL    HW225988   4.813   7.069   6.968  0.9857 -0.9171 -0.2534
 8183SOL     OW25989   6.089   5.906   9.681 -0.5963 -0.3082 -0.1969
 8183SOL    HW125990   6.015   5.967   9.681 -0.7269 -0.4651 -0.2890
 8183SOL    HW225991   6.144   5.934   9.754 -0.4284  0.1972 -0.5050
 8184SOL     OW25992   6.851   1.237   3.438 -0.7623 -0.3180 -0.2824
 8184SOL    HW125993   6.871   1.147   3.412  1.2982 -0.5191  1.7198
 8184SOL    HW225994   6.925   1.264   3.492 -1.5953  2.4135 -0.3386
 8185SOL     OW25995   6.949   2.705   2.164 -0.1606  0.2286 -0.1957
 8185SOL    HW125996   6.916   2.615   2.159 -0.5599  0.4474 -1.7793
 8185SOL    HW225997   6.975   2.715   2.256 -0.3347 -1.4160  0.0671
 8186SOL     OW25998   2.798   2.437  11.162  0.1484 -0.2892 -0.3115
 8186SOL    HW125999   2.850   2.365  11.198 -1.1107 -1.3154 -0.5055
 8186SOL    HW226000   2.818   2.437  11.069 -2.2979 -2.5874 -0.9511
 8187SOL     OW26001   3.343   1.676  10.606  0.3442  0.3111  0.6598
 8187SOL    HW126002   3.284   1.735  10.652  0.8208  2.8756 -1.7677
 8187SOL    HW226003   3.372   1.726  10.530  3.5168 -1.8364  0.2833
 8188SOL     OW26004   2.240   6.246   7.210  0.4610  0.5995 -0.6777
 8188SOL    HW126005   2.214   6.154   7.201 -0.3378  0.5491  1.4487
 8188SOL    HW226006   2.158   6.295   7.205  0.6241  0.9874  0.2737
 8189SOL     OW26007   0.601   4.361   0.814 -0.0934 -0.4197 -0.6051
 8189SOL    HW126008   0.645   4.278   0.834  1.0170  0.3441  0.2268
 8189SOL    HW226009   0.544   4.376   0.890 -0.1002 -0.2850 -0.6379
 8190SOL     OW26010   0.057   7.662   2.059  0.1976  0.4500  0.4765
 8190SOL    HW126011   0.069   7.627   2.147 -2.1259  1.8817  1.4858
 8190SOL    HW226012   0.039   7.755   2.073  0.3139  0.8251 -1.5699
 8191SOL     OW26013   3.781   5.057  10.635 -0.5446  0.0242  0.0209
 8191SOL    HW126014   3.838   5.122  10.676  0.7781 -1.3310  0.4079
 8191SOL    HW226015   3.751   5.002  10.707 -1.5600  0.1142 -0.3160
 8192SOL     OW26016   0.247   1.936   6.172  0.0997  0.3870 -0.0628
 8192SOL    HW126017   0.340   1.959   6.168  0.0631  0.3609 -1.3707
 8192SOL    HW226018   0.204   1.998   6.113 -0.4258 -0.8913 -1.0653
 8193SOL     OW26019   3.031   3.093   5.667 -0.2012  0.3006 -0.5575
 8193SOL    HW126020   2.957   3.063   5.721  1.2091 -0.5829  0.9590
 8193SOL    HW226021   3.090   3.137   5.728  0.9769  0.1557 -1.5561
 8194SOL     OW26022   4.188   7.817   8.003  0.2351  0.1024 -0.3852
 8194SOL    HW126023   4.182   7.897   7.950  0.5746  1.2698  1.2562
 8194SOL    HW226024   4.183   7.746   7.939  3.3992  1.3976 -2.3289
 8195SOL     OW26025   7.438   5.307   0.161  0.8708  0.4471  0.0819
 8195SOL    HW126026   7.422   5.224   0.207 -0.2487  0.5890 -0.0385
 8195SOL    HW226027   7.401   5.294   0.074  2.0329  0.5622 -0.4548
 8196SOL     OW26028   0.852   4.660   9.621 -0.1533  0.0260  0.5288
 8196SOL    HW126029   0.907   4.732   9.653 -0.2605  0.4806 -0.2734
 8196SOL    HW226030   0.798   4.636   9.696 -0.4085  1.0689  0.7010
 8197SOL     OW26031   7.468   2.107   1.690 -0.1877 -0.7813  0.2551
 8197SOL    HW126032   7.525   2.055   1.747  1.9771 -0.3853 -1.4283
 8197SOL    HW226033   7.506   2.195   1.692 -2.3226  0.1923  1.0795
 8198SOL     OW26034   3.568   7.450  10.999  0.6046  0.9412 -0.1488
 8198SOL    HW126035   3.479   7.439  11.034  0.5014 -1.3758 -0.9593
 8198SOL    HW226036   3.622   7.466  11.076  0.1742 -2.6321  1.0837
 8199SOL     OW26037   1.739   3.745   9.603 -0.3348 -0.2749 -0.2168
 8199SOL    HW126038   1.791   3.671   9.571  0.9886  1.2842 -1.8850
 8199SOL    HW226039   1.768   3.819   9.550 -2.3508  1.2492  0.6839
 8200SOL     OW26040   6.005   0.896   4.598 -0.3475  0.2157  0.6957
 8200SOL    HW126041   5.967   0.808   4.589 -0.0749  0.0409  1.2311
 8200SOL    HW226042   5.933   0.951   4.627 -0.8633  0.4654 -0.9401
 8201SOL     OW26043   2.064   0.266   9.304  0.0470 -0.2393  0.1430
 8201SOL    HW126044   2.106   0.257   9.390  1.0832 -0.6802 -0.3939
 8201SOL    HW226045   2.018   0.350   9.309 -1.2111 -0.9549  1.6541
 8202SOL     OW26046   7.023   3.016   4.418  0.3715  0.1775 -0.2970
 8202SOL    HW126047   7.025   2.984   4.328  2.0943  1.6523 -0.8466
 8202SOL    HW226048   7.114   3.009   4.448 -0.2672 -0.8283  1.5701
 8203SOL     OW26049   2.524   5.504   2.026  0.0055 -0.1629  0.5498
 8203SOL    HW126050   2.494   5.558   2.099  1.7355 -0.3320  1.4535
 8203SOL    HW226051   2.578   5.563   1.973  1.1858 -0.7632  1.0591
 8204SOL     OW26052   1.927   6.705  10.505  0.1324 -0.3040 -0.3174
 8204SOL    HW126053   1.889   6.622  10.476 -1.0165 -0.5985  1.8260
 8204SOL    HW226054   1.853   6.754  10.541  1.2369  0.5265  0.8973
 8205SOL     OW26055   2.561   3.805   8.530  0.5829 -0.0368 -0.4570
 8205SOL    HW126056   2.614   3.785   8.453  1.6151 -1.6372  0.6022
 8205SOL    HW226057   2.618   3.785   8.604 -0.4027  1.3968  0.7482
 8206SOL     OW26058   3.198   2.177   1.647 -0.8255  0.6757  0.6088
 8206SOL    HW126059   3.219   2.269   1.660  0.7704  0.5594 -0.8122
 8206SOL    HW226060   3.283   2.135   1.630 -1.5898 -0.9366  0.5242
 8207SOL     OW26061   2.320   4.758   6.057  0.2184  0.3099 -0.0819
 8207SOL    HW126062   2.239   4.753   6.006  0.7665 -0.7136 -0.8921
 8207SOL    HW226063   2.306   4.832   6.116 -1.2113  0.3071 -0.3610
 8208SOL     OW26064   7.650   5.642   8.068 -0.1092  0.6734 -0.0567
 8208SOL    HW126065   7.671   5.731   8.039  1.1421  0.6856  0.7935
 8208SOL    HW226066   7.653   5.647   8.164  0.0799 -0.2924  0.0009
 8209SOL     OW26067   2.155   5.416  11.464 -0.3093 -0.1739  0.0503
 8209SOL    HW126068   2.213   5.341  11.477  2.1172  1.4677 -0.6315
 8209SOL    HW226069   2.154   5.430  11.370 -0.9282  0.4955  0.1452
 8210SOL     OW26070   7.398   0.986   1.539 -0.2574  0.0263  0.9637
 8210SOL    HW126071   7.304   1.003   1.530 -0.2372  1.0995  2.4171
 8210SOL    HW226072   7.416   0.915   1.477 -2.1811 -0.7520  1.2216
 8211SOL     OW26073   1.573   5.718   2.413 -0.5274 -0.2186  0.4408
 8211SOL    HW126074   1.661   5.758   2.410 -1.3584  1.8318  1.4158
 8211SOL    HW226075   1.546   5.712   2.321  0.4632 -0.5132  0.1527
 8212SOL     OW26076   6.481   5.891   6.163 -0.2695 -0.5237  0.0597
 8212SOL    HW126077   6.556   5.833   6.178  0.1642  0.0964  0.3303
 8212SOL    HW226078   6.477   5.946   6.241 -1.3885 -0.9544  0.3279
 8213SOL     OW26079   5.637   3.531   5.602 -0.0667 -0.4768  0.0249
 8213SOL    HW126080   5.727   3.529   5.572 -0.1911  0.1939 -0.4027
 8213SOL    HW226081   5.641   3.499   5.692  1.0572  2.4514  1.1198
 8214SOL     OW26082   5.491   7.612   0.012  0.1606  0.6711 -0.3870
 8214SOL    HW126083   5.545   7.582  -0.061  1.6117  1.2170  0.4310
 8214SOL    HW226084   5.512   7.552   0.084 -1.0781  0.2883 -0.3111
 8215SOL     OW26085   7.022   5.535  10.747  0.0521 -0.1073 -0.2421
 8215SOL    HW126086   7.111   5.537  10.781 -0.3455 -0.8149  0.8790
 8215SOL    HW226087   6.968   5.513  10.822 -1.2506  1.7134 -0.5810
 8216SOL     OW26088   2.049   3.064   6.627 -0.4655  0.3669  0.1400
 8216SOL    HW126089   2.005   2.998   6.680 -0.7530  0.4276 -0.0212
 8216SOL    HW226090   1.993   3.141   6.634 -1.6660 -0.2270 -1.9390
 8217SOL     OW26091   7.372   7.281   0.836 -0.2930  0.0036  0.0259
 8217SOL    HW126092   7.450   7.297   0.889 -0.5053  1.3382 -0.0405
 8217SOL    HW226093   7.332   7.204   0.877  1.5688 -1.3682 -0.5682
 8218SOL     OW26094   5.999   7.894   5.806  0.2831  0.0303 -0.0053
 8218SOL    HW126095   6.020   7.984   5.829  0.0598 -0.0466  0.5232
 8218SOL    HW226096   6.053   7.875   5.730 -0.4639  0.9610 -0.7958
 8219SOL     OW26097   4.768   1.940   0.158 -0.3427  0.0500  0.0265
 8219SOL    HW126098   4.719   1.868   0.118 -1.0543  1.4420 -1.7386
 8219SOL    HW226099   4.725   2.019   0.125  0.9009  1.2941  1.2874
 8220SOL     OW26100   3.351   0.781   8.363 -0.3465 -0.1212 -0.3764
 8220SOL    HW126101   3.400   0.855   8.327 -1.8194  0.6288 -0.9121
 8220SOL    HW226102   3.394   0.704   8.327  1.2922  0.4292  0.2778
 8221SOL     OW26103   6.162   4.484  11.622 -0.3208  0.5278 -1.0000
 8221SOL    HW126104   6.118   4.496  11.706 -0.5826  0.5179 -1.1344
 8221SOL    HW226105   6.246   4.528  11.631 -1.1051  2.1572 -1.3677
 8222SOL     OW26106   1.860   5.512   2.270  0.4299  0.4348 -0.2804
 8222SOL    HW126107   1.931   5.457   2.237  0.3605 -0.4076  0.9263
 8222SOL    HW226108   1.786   5.454   2.278  0.3319  0.7124  0.9437
 8223SOL     OW26109   7.740   5.192   7.467 -0.1774  0.2192  0.0750
 8223SOL    HW126110   7.751   5.234   7.552  0.0804  0.7386 -0.2065
 8223SOL    HW226111   7.666   5.132   7.479 -0.1967  0.3492  0.6383
 8224SOL     OW26112   3.505   5.984   5.558  0.5825 -0.5144  0.3000
 8224SOL    HW126113   3.539   5.902   5.593  1.2391 -1.7863 -2.9903
 8224SOL    HW226114   3.583   6.037   5.540  0.2825  0.0346  0.5938
 8225SOL     OW26115   6.760   2.524   0.937  0.4577 -0.1351 -0.0414
 8225SOL    HW126116   6.725   2.503   1.023  0.3217  0.1330 -0.0285
 8225SOL    HW226117   6.810   2.605   0.950  0.6563 -0.2354 -0.1625
 8226SOL     OW26118   5.791   4.371   7.644 -0.1656 -0.4688 -0.2745
 8226SOL    HW126119   5.791   4.306   7.573  1.0965  0.7285 -1.4444
 8226SOL    HW226120   5.869   4.350   7.695 -0.1988 -0.3609 -0.1794
 8227SOL     OW26121   6.679   6.938   6.938  0.0909  0.8339 -0.2208
 8227SOL    HW126122   6.670   7.013   6.996 -1.1796 -0.0437  0.7651
 8227SOL    HW226123   6.590   6.904   6.928  0.7501 -1.1691  0.2315
 8228SOL     OW26124   2.016   2.502   7.513  0.8182  0.8199 -0.1861
 8228SOL    HW126125   1.975   2.551   7.584  1.1949  0.8003  0.0523
 8228SOL    HW226126   1.948   2.444   7.481 -0.5108  3.3169 -2.2675
 8229SOL     OW26127   1.834   0.919   1.024 -0.1727 -0.1215 -0.0567
 8229SOL    HW126128   1.905   0.900   1.086 -0.2562  2.0006  0.7695
 8229SOL    HW226129   1.810   0.834   0.988  1.4763 -1.1237  1.0913
 8230SOL     OW26130   6.322   2.356  11.844 -0.0898  0.1289 -0.6587
 8230SOL    HW126131   6.300   2.279  11.792  1.0255 -1.1771  0.6920
 8230SOL    HW226132   6.279   2.428  11.800 -0.1961 -1.0850 -2.6675
 8231SOL     OW26133   1.902   1.073   3.652 -0.5634 -0.1895  0.4146
 8231SOL    HW126134   1.883   1.145   3.712 -0.9693 -0.7927  1.0248
 8231SOL    HW226135   1.948   1.114   3.579  1.5926  0.3390  1.9547
 8232SOL     OW26136   3.961   1.214  11.331  0.1364 -0.4131 -0.2198
 8232SOL    HW126137   3.921   1.272  11.267  0.3851  0.1791  0.1530
 8232SOL    HW226138   3.887   1.170  11.373 -0.0709 -0.1253 -0.2821
 8233SOL     OW26139   0.494   6.623   5.851 -0.8027 -0.2302  0.5839
 8233SOL    HW126140   0.534   6.677   5.783 -2.2190  2.1435  1.5373
 8233SOL    HW226141   0.428   6.572   5.804  1.3408 -2.1883 -0.5303
 8234SOL     OW26142   2.608   4.680   6.831  0.3103  0.7092  0.6195
 8234SOL    HW126143   2.601   4.605   6.773 -2.1662 -0.7050  2.5249
 8234SOL    HW226144   2.563   4.751   6.785 -1.6137 -0.3814  0.7133
 8235SOL     OW26145   2.719   5.495   2.720  0.1304 -0.5813 -0.1685
 8235SOL    HW126146   2.626   5.498   2.742  0.0993 -0.5873 -0.3012
 8235SOL    HW226147   2.763   5.520   2.801  0.0304 -1.0614  0.0314
 8236SOL     OW26148   0.827   7.400   3.672  0.0983 -0.1567 -0.0441
 8236SOL    HW126149   0.823   7.323   3.730 -2.7418 -0.1291 -0.0574
 8236SOL    HW226150   0.860   7.470   3.728 -0.0804 -0.7296  0.8094
 8237SOL     OW26151   7.803   2.584  10.630 -0.7079 -0.5787 -0.0609
 8237SOL    HW126152   7.893   2.576  10.597 -1.4328 -1.7111 -1.9503
 8237SOL    HW226153   7.813   2.590  10.725  1.3736 -0.2768 -0.2394
 8238SOL     OW26154   7.611   4.727   1.981 -0.4482  0.2457  0.0046
 8238SOL    HW126155   7.546   4.735   1.911 -0.3922 -1.2443 -0.2557
 8238SOL    HW226156   7.689   4.692   1.937 -0.7835 -1.8325  0.9651
 8239SOL     OW26157   6.544   2.660   4.534 -0.2185  0.1160 -0.2556
 8239SOL    HW126158   6.525   2.686   4.624  0.9110 -0.5651  0.1916
 8239SOL    HW226159   6.593   2.734   4.498 -0.8276  0.4661 -0.3760
 8240SOL     OW26160   4.227   0.313   1.022 -0.1397 -0.2139 -0.2204
 8240SOL    HW126161   4.132   0.305   1.019 -0.1224 -0.1584 -2.0714
 8240SOL    HW226162   4.249   0.363   0.944  1.4900 -1.1228 -0.3862
 8241SOL     OW26163   4.980   5.015   9.470 -0.4496 -0.1187 -0.7529
 8241SOL    HW126164   5.012   4.976   9.388  0.2701 -0.2392 -0.4257
 8241SOL    HW226165   5.059   5.028   9.522 -0.9776 -0.8150  0.2554
 8242SOL     OW26166   0.543   0.267   9.926 -0.1908 -0.4285 -0.2216
 8242SOL    HW126167   0.551   0.319  10.006 -0.1690 -1.6126  0.5739
 8242SOL    HW226168   0.485   0.319   9.869 -0.2830  0.3880  0.5931
 8243SOL     OW26169   0.287   7.664   5.596  0.4274 -0.0114  0.0907
 8243SOL    HW126170   0.216   7.638   5.654  0.4806  0.2050  0.2535
 8243SOL    HW226171   0.292   7.593   5.531  0.5450 -0.3852  0.5019
 8244SOL     OW26172   3.094   6.582  12.375  0.1120 -0.2026  0.1047
 8244SOL    HW126173   3.080   6.646  12.445 -0.2961  1.7952 -1.6863
 8244SOL    HW226174   3.021   6.522  12.382 -1.2986  1.4145 -0.0681
 8245SOL     OW26175   3.542   7.266  10.628 -0.3455 -0.4965  0.6953
 8245SOL    HW126176   3.495   7.349  10.621  0.8905  0.0829 -2.9321
 8245SOL    HW226177   3.473   7.199  10.623 -1.0945  0.3346 -0.6467
 8246SOL     OW26178   2.583   7.805  11.840 -0.7306  0.0059  0.2450
 8246SOL    HW126179   2.570   7.756  11.922 -0.5714 -0.2513  0.1173
 8246SOL    HW226180   2.499   7.798  11.794 -0.7253 -0.1031  0.2511
 8247SOL     OW26181   0.430   6.385  10.202 -0.4459 -0.4849 -0.3026
 8247SOL    HW126182   0.407   6.294  10.220 -0.6791 -0.1785  1.1027
 8247SOL    HW226183   0.346   6.430  10.193 -0.3272 -0.5754 -1.9995
 8248SOL     OW26184   5.697   0.617   5.841 -0.1240 -0.1164  0.0766
 8248SOL    HW126185   5.769   0.663   5.798  0.0235 -0.9032 -0.5415
 8248SOL    HW226186   5.699   0.529   5.803  0.0900 -0.8877  1.7893
 8249SOL     OW26187   7.272   7.564   8.482  0.3858  0.1868  0.2075
 8249SOL    HW126188   7.316   7.494   8.433 -0.6128  0.5897 -1.3265
 8249SOL    HW226189   7.328   7.640   8.470 -0.9210  0.8541 -2.2464
 8250SOL     OW26190   3.703   7.758   1.295 -1.1336 -0.1614  0.5848
 8250SOL    HW126191   3.655   7.676   1.284  1.4302 -2.1372  2.8425
 8250SOL    HW226192   3.753   7.767   1.213 -0.0615 -1.9263  0.9846
 8251SOL     OW26193   4.367   3.125   9.687  0.4039  0.0212 -0.3309
 8251SOL    HW126194   4.376   3.188   9.615 -0.3910 -1.6013 -1.9200
 8251SOL    HW226195   4.301   3.063   9.657  0.1216 -0.8055  1.7792
 8252SOL     OW26196   0.860   1.318   5.503 -0.2168 -0.1147 -0.4155
 8252SOL    HW126197   0.786   1.354   5.454 -0.4808 -1.6112 -1.1774
 8252SOL    HW226198   0.912   1.394   5.527 -0.8921  0.7969 -1.7168
 8253SOL     OW26199   0.951   6.480   5.705 -0.3811 -0.9355 -0.3950
 8253SOL    HW126200   0.953   6.574   5.722  0.4204 -0.9240 -0.4902
 8253SOL    HW226201   0.933   6.473   5.611 -2.8511 -0.9542  0.0150
 8254SOL     OW26202   6.507   0.637   6.314  0.1590  0.1539  0.3500
 8254SOL    HW126203   6.458   0.557   6.297 -0.5492  0.2833  1.6755
 8254SOL    HW226204   6.564   0.615   6.388  1.3102  0.3380 -0.4599
 8255SOL     OW26205   3.606   6.764   8.852  0.8632  0.5152 -0.0876
 8255SOL    HW126206   3.660   6.838   8.878  0.2170  1.2079 -0.6594
 8255SOL    HW226207   3.594   6.714   8.932  1.5270  0.8856  0.2543
 8256SOL     OW26208   0.632   3.143  10.994 -0.5826 -0.2621 -0.5881
 8256SOL    HW126209   0.551   3.193  10.983 -0.3302 -0.0858 -1.7497
 8256SOL    HW226210   0.611   3.055  10.962 -0.5541 -0.4515 -0.0939
 8257SOL     OW26211   5.168   6.976   9.923 -0.7797 -0.5020  0.4086
 8257SOL    HW126212   5.144   7.063   9.955 -0.8081 -0.5416  0.4960
 8257SOL    HW226213   5.144   6.976   9.831  0.0292 -0.1099  0.1862
 8258SOL     OW26214   2.420   7.229   7.630 -0.1211  0.1180 -0.9021
 8258SOL    HW126215   2.425   7.320   7.603  0.6430  0.2087 -0.5053
 8258SOL    HW226216   2.393   7.181   7.551  0.0863  0.6137 -1.2774
 8259SOL     OW26217   2.627   4.292   2.693 -0.4680 -0.1180 -0.3064
 8259SOL    HW126218   2.713   4.304   2.653  0.9146 -1.1620  2.1133
 8259SOL    HW226219   2.568   4.342   2.637  1.5607  0.0847 -2.4740
 8260SOL     OW26220   3.465   0.568   3.350  0.6259 -0.0011 -0.1674
 8260SOL    HW126221   3.412   0.634   3.307 -0.1717 -0.9393 -0.6637
 8260SOL    HW226222   3.430   0.562   3.439  1.2034  0.7742  0.1216
 8261SOL     OW26223   7.028   1.802   2.414 -0.4373 -0.1526  0.7352
 8261SOL    HW126224   7.031   1.739   2.342  1.1259  0.2193  0.4413
 8261SOL    HW226225   7.003   1.885   2.373 -0.0840 -0.0563  0.7159
 8262SOL     OW26226   4.768   1.511   7.247 -0.3645  0.3231 -0.1385
 8262SOL    HW126227   4.820   1.579   7.203  1.4561 -0.1250  1.1666
 8262SOL    HW226228   4.678   1.541   7.240  0.0779  1.3421 -2.2139
 8263SOL     OW26229   0.285   7.291  10.792 -0.0169  0.2734 -0.0290
 8263SOL    HW126230   0.343   7.218  10.816 -0.9342 -1.2528 -2.1815
 8263SOL    HW226231   0.231   7.305  10.870  0.7762 -0.7403  0.7343
 8264SOL     OW26232   1.580   7.177   2.829 -0.0614 -1.1759  0.7122
 8264SOL    HW126233   1.536   7.239   2.771 -1.2128 -1.1268  1.5963
 8264SOL    HW226234   1.662   7.220   2.853 -0.7541 -0.0534  1.1461
 8265SOL     OW26235   5.794   7.009   0.639  0.0003  0.5489 -0.3157
 8265SOL    HW126236   5.861   6.998   0.572  0.5879  1.6066  0.0667
 8265SOL    HW226237   5.825   7.083   0.691 -0.9482  0.3836  0.5089
 8266SOL     OW26238   2.336   7.176  10.912 -0.3301  0.3455 -0.2380
 8266SOL    HW126239   2.340   7.170  10.817 -0.3723  1.3426 -0.3196
 8266SOL    HW226240   2.328   7.086  10.942  1.8481 -0.1774 -1.0591
 8267SOL     OW26241   4.114   4.411   5.056  0.4489 -0.2385 -0.5217
 8267SOL    HW126242   4.205   4.397   5.031  0.0451 -2.7431 -0.8342
 8267SOL    HW226243   4.113   4.401   5.151  0.6159  0.7674 -0.3983
 8268SOL     OW26244   5.502   7.718  10.476 -0.5815  0.1562 -0.0028
 8268SOL    HW126245   5.567   7.700  10.408 -0.1439 -2.3179  0.9923
 8268SOL    HW226246   5.486   7.812  10.469  2.2885  0.6688 -1.0016
 8269SOL     OW26247   0.213   3.669   9.862  0.2058 -0.3600  0.2628
 8269SOL    HW126248   0.280   3.710   9.806 -0.8403  0.6812 -0.2598
 8269SOL    HW226249   0.263   3.630   9.934  1.4563 -0.4156 -0.6038
 8270SOL     OW26250   1.767   1.061   4.694  0.4423  0.0665  0.0617
 8270SOL    HW126251   1.820   1.114   4.753 -0.3089  1.1925 -0.2402
 8270SOL    HW226252   1.827   1.033   4.625  0.4403  2.4225 -1.0018
 8271SOL     OW26253   6.041   2.752  11.459 -0.5336 -0.3032 -0.1667
 8271SOL    HW126254   6.028   2.809  11.383 -0.8819  0.0554  0.1550
 8271SOL    HW226255   6.014   2.665  11.430  2.3733 -0.8858 -1.4688
 8272SOL     OW26256   6.233   0.957   1.681 -0.6468  0.2433  0.1718
 8272SOL    HW126257   6.244   0.968   1.586  1.0995  0.4640  0.3683
 8272SOL    HW226258   6.322   0.946   1.714 -1.3540 -2.2774  1.5092
 8273SOL     OW26259   4.169   7.569   9.037 -0.0459  0.0708  0.1012
 8273SOL    HW126260   4.167   7.664   9.028  0.0821 -0.0499 -1.4138
 8273SOL    HW226261   4.077   7.543   9.039 -0.2258 -0.0625 -3.6410
 8274SOL     OW26262   1.537   0.047  11.913 -0.3828 -0.1041 -0.5680
 8274SOL    HW126263   1.504   0.051  12.003  3.5258  0.0663  1.0473
 8274SOL    HW226264   1.575   0.133  11.897  1.5390 -1.0064 -1.1891
 8275SOL     OW26265   5.155   5.398  11.502  0.0452  0.5279  0.1002
 8275SOL    HW126266   5.179   5.468  11.441  2.4031 -0.0662  0.2773
 8275SOL    HW226267   5.109   5.334  11.448  1.7245  0.2057 -1.0192
 8276SOL     OW26268   7.101   2.054  10.857 -0.3324  0.0278  0.0686
 8276SOL    HW126269   7.100   1.970  10.903  1.2187 -0.3879 -0.5679
 8276SOL    HW226270   7.118   2.118  10.926 -0.5247 -0.2976  0.4249
 8277SOL     OW26271   1.429   6.836   9.616 -0.3927 -0.5580  0.3062
 8277SOL    HW126272   1.472   6.916   9.587  0.5690 -0.8064  1.0113
 8277SOL    HW226273   1.478   6.808   9.693 -0.5825 -1.9417 -0.0362
 8278SOL     OW26274   7.623   1.512   1.886 -0.0262  0.0410  0.8317
 8278SOL    HW126275   7.641   1.472   1.800  0.3848  1.7502  0.0817
 8278SOL    HW226276   7.528   1.512   1.893 -0.0500 -0.5331  0.5840
 8279SOL     OW26277   0.652   3.118  10.674 -0.1802  0.0678 -0.1108
 8279SOL    HW126278   0.723   3.137  10.735 -0.9668  2.7307  0.0666
 8279SOL    HW226279   0.662   3.025  10.655  1.8826 -0.1757  1.7559
 8280SOL     OW26280   5.307   3.299   4.948 -0.5576 -0.2158  0.1154
 8280SOL    HW126281   5.218   3.291   4.915 -0.1354  1.0651 -1.4732
 8280SOL    HW226282   5.361   3.316   4.870  0.9146  0.0545  1.1397
 8281SOL     OW26283   1.522   2.947   8.121 -0.3902 -0.3940  0.2952
 8281SOL    HW126284   1.561   3.004   8.187  0.5290 -0.3002 -0.3145
 8281SOL    HW226285   1.556   2.979   8.037  0.4801 -2.0647 -0.0474
 8282SOL     OW26286   1.599   3.612   2.500  0.1345  0.4907  0.3033
 8282SOL    HW126287   1.667   3.556   2.537 -0.2473 -0.0610  0.2008
 8282SOL    HW226288   1.524   3.599   2.559 -0.4724 -0.3802 -0.6195
 8283SOL     OW26289   1.066   5.386   3.433  0.3054 -0.5869 -0.0284
 8283SOL    HW126290   1.052   5.295   3.408  0.6421 -0.9779  1.1825
 8283SOL    HW226291   0.985   5.430   3.407 -0.4573 -1.5155  0.6945
 8284SOL     OW26292   6.580   3.238   2.594  0.0301  0.0269  0.0966
 8284SOL    HW126293   6.561   3.321   2.637  1.2789  0.3380  0.0701
 8284SOL    HW226294   6.494   3.206   2.565 -0.6789  0.4319  1.6647
 8285SOL     OW26295   6.129   1.404   2.739 -0.1795  0.1863  0.3978
 8285SOL    HW126296   6.145   1.357   2.821  0.9422  1.0827  0.7154
 8285SOL    HW226297   6.116   1.495   2.766  0.5707  0.5563 -0.4469
 8286SOL     OW26298   1.413   3.300   5.846  0.1670  0.3108  0.6307
 8286SOL    HW126299   1.488   3.306   5.905  0.9430  0.2315 -0.3227
 8286SOL    HW226300   1.411   3.208   5.818  0.5903  0.5975 -0.4252
 8287SOL     OW26301   4.593   7.828   2.287  0.3498  0.2009  0.3461
 8287SOL    HW126302   4.658   7.764   2.256  0.8554 -0.7749  3.0851
 8287SOL    HW226303   4.643   7.908   2.302  0.3901  0.2330  0.0485
 8288SOL     OW26304   0.360   0.052  12.020 -0.1664  0.0849 -0.4669
 8288SOL    HW126305   0.401   0.126  12.066 -0.5086  0.4027 -0.6628
 8288SOL    HW226306   0.276   0.087  11.990 -0.1102 -0.2303 -1.0037
 8289SOL     OW26307   3.035   4.778  11.450  0.3595  0.4837 -0.0826
 8289SOL    HW126308   3.108   4.763  11.510  1.0709  1.2371 -0.7346
 8289SOL    HW226309   3.075   4.780  11.363 -0.2813  1.8999 -0.3745
 8290SOL     OW26310   1.945   0.946   7.801  0.0739 -0.1031  0.2024
 8290SOL    HW126311   1.891   0.927   7.725  0.2982 -0.3972  0.1183
 8290SOL    HW226312   1.888   0.998   7.858  0.1754  0.8583 -0.5363
 8291SOL     OW26313   7.210   0.931   6.651  0.2959  0.6747  0.4226
 8291SOL    HW126314   7.223   0.857   6.709  1.7525  1.2994  0.9368
 8291SOL    HW226315   7.119   0.959   6.667  0.7527  1.0378  2.6698
 8292SOL     OW26316   4.434   6.310   8.491  0.5002 -0.1805  0.5140
 8292SOL    HW126317   4.495   6.347   8.427 -0.6152  1.9818  0.5946
 8292SOL    HW226318   4.483   6.310   8.573  0.7876  0.4452  0.3512
 8293SOL     OW26319   3.892   3.214   3.447 -0.0149 -0.2142  0.2768
 8293SOL    HW126320   3.855   3.126   3.439 -0.7699  0.1739 -0.7179
 8293SOL    HW226321   3.984   3.200   3.470 -0.7294 -1.2260  3.0106
 8294SOL     OW26322   6.058   7.505   7.700  0.4473  0.3035 -0.0800
 8294SOL    HW126323   5.986   7.568   7.696  0.8751  0.9898  2.0046
 8294SOL    HW226324   6.021   7.430   7.747  0.2907 -0.5642 -1.5218
 8295SOL     OW26325   7.625   2.248   3.716 -0.0560  0.3438  0.5120
 8295SOL    HW126326   7.636   2.157   3.687  1.5736  0.7976 -0.3972
 8295SOL    HW226327   7.628   2.242   3.812  2.8414 -0.3245  0.4688
 8296SOL     OW26328   1.354   2.808   7.214  0.4627  0.5110 -0.1342
 8296SOL    HW126329   1.366   2.861   7.135  0.9540  0.4811 -0.0835
 8296SOL    HW226330   1.436   2.818   7.263  0.0256  0.8153  0.5474
 8297SOL     OW26331   7.129   0.809   9.492 -0.8305 -0.2661 -0.4848
 8297SOL    HW126332   7.144   0.805   9.398 -1.6761 -2.0417 -0.5845
 8297SOL    HW226333   7.183   0.740   9.529 -0.8156  0.1427  0.2958
 8298SOL     OW26334   1.741   5.154  10.537 -0.4646  0.4447  0.0611
 8298SOL    HW126335   1.680   5.167  10.609  0.9949  0.8343  1.2592
 8298SOL    HW226336   1.727   5.229  10.479 -1.3952  0.3075  0.0880
 8299SOL     OW26337   4.311   6.173   8.898 -0.2203 -0.1679 -0.2528
 8299SOL    HW126338   4.309   6.146   8.806 -2.1460  0.8447 -0.5649
 8299SOL    HW226339   4.382   6.238   8.902 -0.1432 -0.1899 -1.0213
 8300SOL     OW26340   2.084   2.819  11.916 -0.3239  0.3115  0.4610
 8300SOL    HW126341   2.170   2.790  11.947 -0.3402  0.1229  0.3306
 8300SOL    HW226342   2.100   2.904  11.877 -0.0700 -0.0247 -0.1848
 8301SOL     OW26343   4.370   0.565   4.664 -0.3349  0.4313  0.2590
 8301SOL    HW126344   4.307   0.630   4.695 -0.3539 -0.0015  1.1705
 8301SOL    HW226345   4.448   0.615   4.642 -0.3902  0.7785  0.8375
 8302SOL     OW26346   6.525   4.930   8.070 -0.1757  0.1230  0.3059
 8302SOL    HW126347   6.521   4.867   8.142 -1.8569  0.2738  0.3974
 8302SOL    HW226348   6.518   5.015   8.114  2.0657  0.4411  0.1852
 8303SOL     OW26349   5.897   4.998   9.677  0.7464  0.2805  0.5505
 8303SOL    HW126350   5.849   5.004   9.594  1.3006  1.5572  0.2915
 8303SOL    HW226351   5.968   4.936   9.660  0.4734  0.0428  0.2726
 8304SOL     OW26352   0.637   2.683  10.154 -0.4849 -0.6062  0.6850
 8304SOL    HW126353   0.566   2.746  10.164  0.0537  0.6271 -2.3499
 8304SOL    HW226354   0.716   2.733  10.175 -0.1231 -0.4616 -0.9415
 8305SOL     OW26355   3.615   4.082  10.048  0.2690 -0.5038 -0.2052
 8305SOL    HW126356   3.536   4.107  10.094  0.8967  0.1479  0.5506
 8305SOL    HW226357   3.668   4.037  10.114  0.6293 -0.7417 -0.6432
 8306SOL     OW26358   2.605   4.922  12.058  0.2252 -0.4693  0.2047
 8306SOL    HW126359   2.518   4.897  12.092  0.3383 -1.0671  0.0765
 8306SOL    HW226360   2.664   4.856  12.095  0.5439 -0.3831 -0.1483
 8307SOL     OW26361   6.669   4.749   3.178  0.1687  0.0273  0.0537
 8307SOL    HW126362   6.578   4.773   3.161  0.0923 -0.6519 -0.5344
 8307SOL    HW226363   6.663   4.669   3.230  0.4082 -0.8691 -1.2357
 8308SOL     OW26364   6.040   5.547   0.034  0.6817  0.4810 -0.1158
 8308SOL    HW126365   6.094   5.625   0.042  0.6026  0.4996  0.2402
 8308SOL    HW226366   6.092   5.487  -0.020  1.5112  0.0949  1.0815
 8309SOL     OW26367   1.331   3.679   4.285  0.4236 -0.5446  0.2581
 8309SOL    HW126368   1.335   3.595   4.238 -2.2956 -1.3055  1.1918
 8309SOL    HW226369   1.286   3.737   4.224  0.7397 -0.2591  0.2959
 8310SOL     OW26370   5.086   5.301   5.422 -0.0786 -0.1978  0.3671
 8310SOL    HW126371   5.134   5.368   5.372 -0.3629 -1.7071 -2.1293
 8310SOL    HW226372   5.027   5.351   5.479 -0.9003  1.7637 -1.9999
 8311SOL     OW26373   3.507   6.952  11.032 -0.2221  0.3388 -0.2884
 8311SOL    HW126374   3.441   6.914  10.973  1.3293 -0.2919 -1.7188
 8311SOL    HW226375   3.556   7.013  10.977  1.0634 -0.0100  0.4309
 8312SOL     OW26376   2.649   4.987   4.583  0.1262 -0.2533 -0.0025
 8312SOL    HW126377   2.721   5.009   4.643  0.0605 -0.3463  0.1116
 8312SOL    HW226378   2.673   5.029   4.501 -0.7663  1.5684  0.6279
 8313SOL     OW26379   5.517   5.903   8.607  0.5944  0.4586 -0.0350
 8313SOL    HW126380   5.549   5.952   8.531 -0.0227  1.6377  0.4446
 8313SOL    HW226381   5.586   5.913   8.673  0.5314  0.5508  0.0159
 8314SOL     OW26382   2.630   4.298   3.021 -0.5798 -0.7187 -0.2320
 8314SOL    HW126383   2.587   4.287   2.936  0.4824 -0.8599 -0.7724
 8314SOL    HW226384   2.612   4.217   3.068 -1.3519 -0.5539 -0.2326
 8315SOL     OW26385   7.463   2.035   8.681  0.0416  0.3009  0.9523
 8315SOL    HW126386   7.433   2.045   8.771 -1.4060 -0.6625  0.5991
 8315SOL    HW226387   7.447   1.943   8.660  2.8693 -0.2150  0.5584
 8316SOL     OW26388   1.790   1.233   1.290 -0.5455  0.0830  0.9306
 8316SOL    HW126389   1.856   1.247   1.357 -0.4900  0.2325  0.8457
 8316SOL    HW226390   1.755   1.145   1.307 -0.0555 -0.1518  0.7397
 8317SOL     OW26391   0.353   4.384   8.751 -0.1157  0.4804  0.0409
 8317SOL    HW126392   0.382   4.436   8.677  2.6916  0.6279  1.1422
 8317SOL    HW226393   0.380   4.434   8.828 -2.7881  0.2545  1.2403
 8318SOL     OW26394   1.561   1.283   1.990 -0.5269  0.2379  0.0087
 8318SOL    HW126395   1.573   1.190   2.011 -0.5535 -0.1997 -1.7875
 8318SOL    HW226396   1.597   1.293   1.902 -0.8766  1.8647  0.0142
 8319SOL     OW26397   0.531   7.318   7.871 -0.0535 -0.2132 -0.6490
 8319SOL    HW126398   0.548   7.299   7.779  1.2868 -0.7649 -0.3150
 8319SOL    HW226399   0.615   7.301   7.914 -0.7239 -0.1766  0.7043
 8320SOL     OW26400   7.643   0.192   1.037  0.0546 -0.0505  0.0387
 8320SOL    HW126401   7.728   0.153   1.015  0.0317 -0.6221  0.8871
 8320SOL    HW226402   7.660   0.286   1.042  0.3391 -0.0338 -1.0819
 8321SOL     OW26403   6.859   5.990   5.205 -0.6662 -0.4288  0.2208
 8321SOL    HW126404   6.881   6.028   5.290  1.0210  1.1240 -0.8437
 8321SOL    HW226405   6.938   5.942   5.179 -0.8655 -0.2298 -0.8076
 8322SOL     OW26406   4.394   1.547   0.010  0.1551 -0.2818 -0.3027
 8322SOL    HW126407   4.462   1.483  -0.011  0.0349  0.2386 -2.5775
 8322SOL    HW226408   4.400   1.612  -0.060 -2.0140  0.3247 -0.0076
 8323SOL     OW26409   7.500   7.633   0.115  0.0456 -0.2535  0.0979
 8323SOL    HW126410   7.406   7.618   0.112  0.0873 -0.8602  1.2440
 8323SOL    HW226411   7.515   7.703   0.052 -0.8169 -1.8137 -1.9787
 8324SOL     OW26412   1.055   0.184   2.615 -0.3652  0.2167  0.2124
 8324SOL    HW126413   1.008   0.132   2.680 -1.5284  1.0162  0.0429
 8324SOL    HW226414   1.132   0.217   2.662 -1.6542  1.5411  1.4981
 8325SOL     OW26415   0.286   4.781   8.466  0.0294  0.4403 -0.0483
 8325SOL    HW126416   0.247   4.840   8.401  1.3168 -0.1202 -1.3861
 8325SOL    HW226417   0.227   4.706   8.468 -0.7712  1.0703  0.4865
 8326SOL     OW26418   5.937   0.742  11.243  0.0017 -0.2100 -0.0378
 8326SOL    HW126419   5.855   0.766  11.199  0.6963  0.7260 -0.8526
 8326SOL    HW226420   5.909   0.709  11.328 -1.1268  2.3260  0.6795
 8327SOL     OW26421   2.065   4.965   1.030 -0.0131 -0.0426 -0.2287
 8327SOL    HW126422   2.044   4.883   0.985  0.9313 -1.2853  1.4698
 8327SOL    HW226423   1.996   4.975   1.095  1.2621 -0.9710  1.3556
 8328SOL     OW26424   5.579   7.783   3.403  0.3207 -0.2372  0.3060
 8328SOL    HW126425   5.535   7.721   3.461  0.3201 -1.5991 -1.0918
 8328SOL    HW226426   5.670   7.783   3.433 -0.1008  0.7608  1.6741
 8329SOL     OW26427   4.704   6.775   4.946  0.3991 -0.3596  0.0723
 8329SOL    HW126428   4.712   6.685   4.914 -0.0136 -0.6372  0.7402
 8329SOL    HW226429   4.623   6.775   4.998  1.3174 -0.0572  1.5633
 8330SOL     OW26430   5.453   0.601   6.461 -0.3763 -0.0866  0.2459
 8330SOL    HW126431   5.479   0.692   6.468 -0.8358  0.2257 -1.6395
 8330SOL    HW226432   5.357   0.603   6.457 -0.3729 -0.5973 -0.2759
 8331SOL     OW26433   1.445   6.264   1.302 -0.3332 -1.0103  0.0368
 8331SOL    HW126434   1.510   6.210   1.347  0.6226 -0.4440 -0.6209
 8331SOL    HW226435   1.426   6.335   1.363 -0.6431 -1.4024  0.3963
 8332SOL     OW26436   5.668   7.440   4.882 -0.2644  0.2951  0.6538
 8332SOL    HW126437   5.709   7.440   4.796  0.0451 -0.6237  0.7979
 8332SOL    HW226438   5.610   7.517   4.881 -1.9233 -0.9045 -1.1454
 8333SOL     OW26439   7.314   4.509  10.059  0.4500  0.8575  0.0944
 8333SOL    HW126440   7.304   4.513   9.964  0.7151  0.1914  0.0362
 8333SOL    HW226441   7.240   4.560  10.093  0.0009  0.5741 -0.4522
 8334SOL     OW26442   2.577   7.720   8.238 -0.1555  0.4997 -0.5324
 8334SOL    HW126443   2.556   7.666   8.313 -1.6519 -4.3770 -3.9832
 8334SOL    HW226444   2.495   7.764   8.216 -0.8458 -1.1424 -1.4014
 8335SOL     OW26445   7.093   3.743   6.825 -0.4404  0.2967 -0.0698
 8335SOL    HW126446   6.997   3.746   6.815 -0.4675 -0.0406  0.0519
 8335SOL    HW226447   7.109   3.660   6.870 -0.2291  1.2428  1.6560
 8336SOL     OW26448   0.267   7.085   7.736  0.1114  0.0099  0.5089
 8336SOL    HW126449   0.347   7.105   7.784  1.4558 -0.4546 -1.4038
 8336SOL    HW226450   0.284   6.999   7.697 -2.3102 -1.2442  1.9757
 8337SOL     OW26451   1.732   3.684   9.874  0.1094  0.1311  0.0602
 8337SOL    HW126452   1.736   3.725   9.787  0.1173 -1.9886 -1.0137
 8337SOL    HW226453   1.640   3.691   9.899  0.6263  3.9258  1.6308
 8338SOL     OW26454   3.401   5.855   8.647  0.7500 -0.1790 -0.2572
 8338SOL    HW126455   3.434   5.926   8.702  3.3424 -1.9665  0.7074
 8338SOL    HW226456   3.453   5.861   8.567 -2.0564  1.5663 -2.1085
 8339SOL     OW26457   2.071   2.535  11.954 -0.3045  0.1521  0.1530
 8339SOL    HW126458   2.120   2.517  11.874 -0.2505  0.2674  0.1609
 8339SOL    HW226459   2.060   2.449  11.995 -0.1909  0.1132  0.1037
 8340SOL     OW26460   2.141   4.013   6.673 -0.4756  0.2821 -0.5718
 8340SOL    HW126461   2.054   4.030   6.636 -0.9489 -0.9762 -0.0983
 8340SOL    HW226462   2.154   4.082   6.738 -0.2263  1.7000 -2.0648
 8341SOL     OW26463   7.672   7.804  10.459 -0.0764  0.2386  0.2331
 8341SOL    HW126464   7.655   7.724  10.509 -0.9031 -0.3858 -0.9836
 8341SOL    HW226465   7.763   7.796  10.430 -0.3925 -0.6684 -0.5496
 8342SOL     OW26466   2.302   7.184   6.808  0.0390 -0.0537 -0.0506
 8342SOL    HW126467   2.273   7.208   6.896  1.1026  1.7834 -0.1764
 8342SOL    HW226468   2.263   7.250   6.751 -0.2444 -0.9510 -0.9235
 8343SOL     OW26469   3.502   6.710   1.564 -0.4869 -0.0141 -0.2703
 8343SOL    HW126470   3.588   6.750   1.578 -0.1874 -0.9242  0.5947
 8343SOL    HW226471   3.504   6.630   1.617 -0.5980 -1.8775 -2.8840
 8344SOL     OW26472   7.425   7.453   5.613  0.0422  0.0824 -0.0177
 8344SOL    HW126473   7.384   7.503   5.542 -1.5712 -2.1353 -0.7542
 8344SOL    HW226474   7.463   7.376   5.569  1.7798  0.2013  1.1682
 8345SOL     OW26475   4.690   2.756   7.354  0.1754 -0.1990 -0.2739
 8345SOL    HW126476   4.619   2.820   7.344  0.5965  0.1111 -1.4988
 8345SOL    HW226477   4.653   2.674   7.321  0.3837 -0.0306 -0.9406
 8346SOL     OW26478   3.065   4.618   4.950 -0.3560 -0.0195 -0.1284
 8346SOL    HW126479   3.108   4.645   5.031  0.2491 -0.0309 -0.4344
 8346SOL    HW226480   3.115   4.661   4.881 -1.0876  0.2805 -0.4824
 8347SOL     OW26481   1.068   1.225   1.367 -0.1870 -0.6047  0.4895
 8347SOL    HW126482   0.984   1.270   1.374 -0.0868  0.0702 -1.7654
 8347SOL    HW226483   1.133   1.292   1.390 -0.1874 -0.6853  0.7315
 8348SOL     OW26484   2.555   5.513   3.795 -0.0846 -0.0388  0.0315
 8348SOL    HW126485   2.496   5.515   3.871 -1.2779 -2.0522 -0.7621
 8348SOL    HW226486   2.497   5.526   3.720  1.1335  2.3293 -0.5971
 8349SOL     OW26487   2.872   3.188   1.310 -0.5396  0.1329 -0.2066
 8349SOL    HW126488   2.785   3.178   1.271 -0.6414 -0.9251  0.2670
 8349SOL    HW226489   2.897   3.278   1.291 -1.6673  0.3879 -0.5079
 8350SOL     OW26490   0.794   4.117   8.268  0.4118  0.0314  0.4443
 8350SOL    HW126491   0.809   4.194   8.323 -2.7932  1.6202 -0.6169
 8350SOL    HW226492   0.715   4.138   8.219  0.5952 -3.1331 -1.5051
 8351SOL     OW26493   3.641   5.043   5.816  0.0238  0.8230  0.2859
 8351SOL    HW126494   3.601   5.129   5.827  0.1898  1.2788 -2.1013
 8351SOL    HW226495   3.724   5.060   5.771  0.2261 -0.5382  0.0766
 8352SOL     OW26496   0.003   0.483   7.118  0.2444 -0.0635  0.1301
 8352SOL    HW126497  -0.061   0.416   7.092 -0.5974  0.9759 -0.6041
 8352SOL    HW226498  -0.005   0.489   7.213 -0.9864  0.2417  0.0250
 8353SOL     OW26499   5.207   6.940   4.034  0.0927  0.4578  0.4016
 8353SOL    HW126500   5.147   6.895   3.975  1.0309  0.5099 -0.6354
 8353SOL    HW226501   5.168   7.026   4.048 -0.2357  0.3770 -0.0008
 8354SOL     OW26502   5.362   4.950   4.823 -0.0933 -0.1486 -0.6738
 8354SOL    HW126503   5.358   4.886   4.894 -0.5940  0.8978  0.2639
 8354SOL    HW226504   5.272   4.983   4.815  0.1877  0.5637 -1.0163
 8355SOL     OW26505   7.528   1.911  11.050  0.2422 -0.1125 -0.2792
 8355SOL    HW126506   7.478   1.985  11.085  0.2121  0.5169 -1.5661
 8355SOL    HW226507   7.516   1.918  10.955  0.7028 -1.4541 -0.4554
 8356SOL     OW26508   7.490   5.186   9.707 -0.7204  0.3124 -0.5056
 8356SOL    HW126509   7.463   5.156   9.620 -0.9748 -0.3277 -0.2135
 8356SOL    HW226510   7.551   5.118   9.738  0.6553  1.3577 -0.8443
 8357SOL     OW26511   7.275   5.460   9.614 -0.5049  0.3340 -0.3863
 8357SOL    HW126512   7.231   5.377   9.603 -1.6226  0.9324 -0.5447
 8357SOL    HW226513   7.205   5.523   9.629  0.2512  1.4111 -1.2069
 8358SOL     OW26514   3.340   4.629   4.574  0.0093 -0.6094  0.5239
 8358SOL    HW126515   3.336   4.706   4.517 -0.1080 -1.1751 -0.2571
 8358SOL    HW226516   3.424   4.588   4.553 -0.2320 -1.0651  0.4304
 8359SOL     OW26517   5.254   5.072   1.995 -0.0266 -0.1511  0.9146
 8359SOL    HW126518   5.203   5.152   1.999 -0.0886 -0.1092 -0.5256
 8359SOL    HW226519   5.341   5.097   2.025  0.1896  0.6688 -0.3493
 8360SOL     OW26520   0.539   6.421   4.654 -0.3245  0.2082  0.2087
 8360SOL    HW126521   0.479   6.493   4.632 -0.8691 -0.5243 -0.8130
 8360SOL    HW226522   0.488   6.365   4.713  0.2487  0.8594  1.3487
 8361SOL     OW26523   0.873   3.064   4.815  0.3096  0.5169 -0.4095
 8361SOL    HW126524   0.891   2.999   4.884  2.1624  0.6301 -0.7184
 8361SOL    HW226525   0.778   3.066   4.808  0.1606 -1.7961 -0.0237
 8362SOL     OW26526   4.918   6.651   6.236 -0.0602 -0.5321  0.0805
 8362SOL    HW126527   4.958   6.688   6.315  2.2731 -0.0081 -1.2369
 8362SOL    HW226528   4.825   6.668   6.246  0.2432  0.1371  2.3921
 8363SOL     OW26529   3.506   0.729   2.054 -0.0332 -0.1534  0.1253
 8363SOL    HW126530   3.415   0.752   2.069 -0.1917 -0.7443  0.0821
 8363SOL    HW226531   3.504   0.672   1.977  0.4562  0.4537 -0.3556
 8364SOL     OW26532   6.255   2.433   9.473 -0.2603  0.4806 -0.3808
 8364SOL    HW126533   6.310   2.406   9.546 -0.8040 -1.7971 -0.7275
 8364SOL    HW226534   6.165   2.415   9.502 -0.5505  0.5299 -1.2182
 8365SOL     OW26535   0.956   6.026   0.194  0.1621  0.3799  0.3895
 8365SOL    HW126536   0.864   6.030   0.219 -0.1278 -0.8640 -0.3788
 8365SOL    HW226537   0.957   5.980   0.110  1.4152  1.1675 -0.0675
 8366SOL     OW26538   3.880   6.660   6.092 -0.0566 -0.0567 -0.3679
 8366SOL    HW126539   3.899   6.750   6.115  0.0106 -0.8221  3.0695
 8366SOL    HW226540   3.784   6.657   6.084 -0.1648  0.1169  0.7115
 8367SOL     OW26541   6.663   1.814   2.123  0.5545 -0.0245  0.6788
 8367SOL    HW126542   6.707   1.840   2.042 -1.4620 -0.8674 -0.7811
 8367SOL    HW226543   6.703   1.729   2.145 -0.5450 -1.0035 -0.8823
 8368SOL     OW26544   2.961   6.849   3.835  0.2553 -0.4279  0.2737
 8368SOL    HW126545   3.012   6.838   3.755 -1.3311  0.1345 -0.8547
 8368SOL    HW226546   2.952   6.943   3.846 -1.7437 -0.4926 -0.3929
 8369SOL     OW26547   2.230   4.305   5.650  0.0250 -0.0297 -0.0539
 8369SOL    HW126548   2.147   4.351   5.655 -0.7397 -1.4060  0.4197
 8369SOL    HW226549   2.233   4.271   5.560 -0.3450 -0.6911  0.1724
 8370SOL     OW26550   0.371   5.854  10.734  0.0535 -0.7121  0.6481
 8370SOL    HW126551   0.442   5.804  10.775  0.7508  0.3745  0.8289
 8370SOL    HW226552   0.310   5.788  10.702  0.9880 -1.6729  0.7805
 8371SOL     OW26553   4.983   1.408  11.284  0.0440  0.1207  0.0048
 8371SOL    HW126554   4.947   1.461  11.355 -1.8653  1.3420 -1.7403
 8371SOL    HW226555   4.942   1.322  11.296 -1.7068  0.8170 -0.5375
 8372SOL     OW26556   5.686   3.512   1.162 -0.3245  0.0799 -0.5294
 8372SOL    HW126557   5.668   3.438   1.104  0.2124  0.5865 -1.3650
 8372SOL    HW226558   5.779   3.531   1.149 -0.7672  1.8153 -1.4462
 8373SOL     OW26559   2.197   1.958   5.292  0.4169 -0.3076 -0.4274
 8373SOL    HW126560   2.234   1.932   5.376 -0.4062 -1.9772 -0.5420
 8373SOL    HW226561   2.182   2.052   5.300 -0.2981 -0.5525  1.5615
 8374SOL     OW26562   4.307   6.811  11.679 -0.0068 -1.2955  0.1180
 8374SOL    HW126563   4.397   6.823  11.648 -0.4583 -2.0347 -1.6148
 8374SOL    HW226564   4.315   6.761  11.760  1.1923 -0.1655  0.7297
 8375SOL     OW26565   7.018   5.028   1.496  0.0768  0.4833  0.0655
 8375SOL    HW126566   6.927   5.044   1.473 -0.4905 -0.9249  1.1614
 8375SOL    HW226567   7.054   5.115   1.515 -0.8708  1.1022 -0.9084
 8376SOL     OW26568   5.321   2.472   9.061  0.2202  0.5433  0.0097
 8376SOL    HW126569   5.342   2.565   9.054 -2.2104  1.1819  0.2931
 8376SOL    HW226570   5.276   2.464   9.145  0.4347 -0.9018  0.0015
 8377SOL     OW26571   0.972   3.886   1.203 -0.3026  0.0685 -0.8926
 8377SOL    HW126572   0.950   3.885   1.296 -2.2863  1.2914 -1.2946
 8377SOL    HW226573   1.043   3.949   1.196 -1.1308  1.0821 -0.3809
 8378SOL     OW26574   5.946   5.305   9.444  0.0447 -0.6510  0.2858
 8378SOL    HW126575   5.985   5.255   9.516 -0.2025 -0.2682  0.6848
 8378SOL    HW226576   6.005   5.290   9.370 -0.1444 -1.7201  0.3360
 8379SOL     OW26577   0.060   3.136  10.780 -0.6437 -0.5500  0.6548
 8379SOL    HW126578   0.017   3.056  10.750 -0.8486 -0.5354  0.9128
 8379SOL    HW226579   0.154   3.117  10.770 -0.7061 -0.3249 -0.5799
 8380SOL     OW26580   7.400   5.959   3.055  0.1112 -0.6883  0.2927
 8380SOL    HW126581   7.336   5.967   2.984  1.4564 -0.7042 -0.9879
 8380SOL    HW226582   7.393   6.042   3.103 -1.8587 -1.2704  1.1127
 8381SOL     OW26583   6.375   0.902  10.271 -0.2619  0.2446 -0.5105
 8381SOL    HW126584   6.419   0.963  10.329 -0.6165 -0.3551  0.4213
 8381SOL    HW226585   6.444   0.845  10.237 -0.2920 -0.7774  1.0475
 8382SOL     OW26586   5.398   3.897   4.947  0.0150  0.2746  0.4933
 8382SOL    HW126587   5.329   3.932   4.890 -0.4531  0.2345  1.0259
 8382SOL    HW226588   5.474   3.951   4.928 -0.4454  0.9891  0.6359
 8383SOL     OW26589   2.209   0.484  11.485 -0.8009  0.0534 -0.3137
 8383SOL    HW126590   2.179   0.530  11.564  1.1334  2.1566 -0.6964
 8383SOL    HW226591   2.202   0.549  11.415  0.1539 -0.8668 -1.3094
 8384SOL     OW26592   1.291   1.223  11.717 -0.0977  0.4265 -0.5403
 8384SOL    HW126593   1.372   1.249  11.673  0.7722 -0.5743  0.3927
 8384SOL    HW226594   1.233   1.298  11.706  1.3393  1.6368 -0.2866
 8385SOL     OW26595   2.578   4.789   5.944 -0.2336 -0.4571 -0.3819
 8385SOL    HW126596   2.501   4.773   5.998  0.3079 -1.8060  0.0506
 8385SOL    HW226597   2.602   4.880   5.962 -1.2137 -0.2823  0.1246
 8386SOL     OW26598   1.941   1.622   5.238  0.3895 -0.0016 -0.3121
 8386SOL    HW126599   2.002   1.640   5.166 -0.5985  3.1649 -0.4987
 8386SOL    HW226600   1.995   1.628   5.317  0.6076  1.3012 -0.5474
 8387SOL     OW26601   3.012   2.596  11.433  0.0573  0.3548  0.1947
 8387SOL    HW126602   3.009   2.660  11.362  1.8205  1.9294  1.4376
 8387SOL    HW226603   3.058   2.520  11.396 -0.2957  0.5804 -0.7340
 8388SOL     OW26604   6.542   6.486   6.523 -0.2975 -0.3001 -0.4846
 8388SOL    HW126605   6.546   6.453   6.613 -0.2730 -0.6847 -0.6258
 8388SOL    HW226606   6.450   6.475   6.497 -0.3476  0.0040 -0.4337
 8389SOL     OW26607   0.090   3.297  10.234  0.4431 -0.4780  0.8541
 8389SOL    HW126608   0.087   3.238  10.158 -0.3385  0.6912 -0.0675
 8389SOL    HW226609   0.175   3.341  10.227 -0.5682  1.3772 -0.7898
 8390SOL     OW26610   0.134   6.912   3.998  0.3132 -0.3129  0.2198
 8390SOL    HW126611   0.147   6.895   3.905 -0.0676 -0.9613  0.2780
 8390SOL    HW226612   0.096   6.831   4.032 -0.2453  0.1743  0.7912
 8391SOL     OW26613   5.208   6.028   0.425  0.0715 -0.6261 -0.4356
 8391SOL    HW126614   5.208   5.945   0.377  0.3062 -1.6398  1.2671
 8391SOL    HW226615   5.122   6.034   0.465  0.1162 -0.1184 -0.4018
 8392SOL     OW26616   4.699   3.815   6.156  0.3276 -0.1060  0.0994
 8392SOL    HW126617   4.613   3.792   6.192  0.1805  0.5355  0.1548
 8392SOL    HW226618   4.718   3.900   6.193  1.1859 -0.4354  0.4275
 8393SOL     OW26619   3.939   5.403   9.074  0.0744  0.0048 -0.7770
 8393SOL    HW126620   3.949   5.490   9.113  0.8217 -1.0573  1.5075
 8393SOL    HW226621   4.028   5.378   9.049  0.1694 -0.9130  0.4338
 8394SOL     OW26622   4.907   4.701   8.270 -0.0587 -0.3234  0.0411
 8394SOL    HW126623   4.897   4.791   8.239 -1.2638 -0.5465 -0.2844
 8394SOL    HW226624   4.980   4.704   8.332  1.1771  0.4943 -1.4057
 8395SOL     OW26625   4.409   7.481   2.473  0.5992 -0.4416  0.0650
 8395SOL    HW126626   4.368   7.457   2.556  1.5044 -0.9930  0.3624
 8395SOL    HW226627   4.430   7.398   2.430  1.0267 -0.1725 -0.2669
 8396SOL     OW26628   0.620   4.011  10.469  0.6631  0.0463  0.1497
 8396SOL    HW126629   0.627   4.100  10.505  1.0553  0.0842 -0.0216
 8396SOL    HW226630   0.527   3.988  10.480  0.6459  0.3129  0.5843
 8397SOL     OW26631   1.309   7.793   0.296  0.1486  0.2557  0.2754
 8397SOL    HW126632   1.342   7.747   0.219  2.2386  1.1900  0.5319
 8397SOL    HW226633   1.375   7.776   0.364 -0.5618  1.1821  1.2316
 8398SOL     OW26634   6.754   1.462   9.283  0.5628  0.5245  0.1162
 8398SOL    HW126635   6.815   1.533   9.264 -0.9021  2.1700  1.2390
 8398SOL    HW226636   6.688   1.468   9.214  0.0513  0.7327  0.6156
 8399SOL     OW26637   4.308   5.426   4.267  0.0838  0.5679  0.2137
 8399SOL    HW126638   4.298   5.416   4.172 -0.4679 -1.2353  0.4357
 8399SOL    HW226639   4.383   5.371   4.289 -0.0187  0.6960  0.8869
 8400SOL     OW26640   6.050   2.141   8.832 -0.0132  0.5914 -0.1108
 8400SOL    HW126641   6.133   2.188   8.842  0.2217  0.6925 -2.0647
 8400SOL    HW226642   6.071   2.051   8.854  1.2718  0.1418 -2.7244
 8401SOL     OW26643   1.028   2.546   3.048  0.2690  0.0115 -0.1683
 8401SOL    HW126644   1.055   2.585   3.131 -1.9277 -0.1071  0.6679
 8401SOL    HW226645   0.934   2.534   3.057  0.2546 -1.6998 -1.9924
 8402SOL     OW26646   6.524   2.776   7.122  0.1944 -0.2087  0.1472
 8402SOL    HW126647   6.432   2.749   7.126 -0.3208  1.5292  2.7405
 8402SOL    HW226648   6.540   2.791   7.028 -2.5167  0.4527 -0.3130
 8403SOL     OW26649   2.297   7.129   3.153 -0.2844  0.4901 -0.2508
 8403SOL    HW126650   2.265   7.042   3.176 -1.5523  0.1611 -2.8739
 8403SOL    HW226651   2.218   7.178   3.130  0.5940  1.6822 -0.8519
 8404SOL     OW26652   3.848   1.567   7.511 -0.0597  0.0831 -0.3100
 8404SOL    HW126653   3.765   1.558   7.464 -0.0529  0.0918 -0.3237
 8404SOL    HW226654   3.894   1.638   7.466 -1.2306  2.0677  1.4460
 8405SOL     OW26655   6.062   4.641   6.202  0.2241  0.4568 -0.4564
 8405SOL    HW126656   5.990   4.659   6.263  0.0885 -2.8455  0.5922
 8405SOL    HW226657   6.033   4.562   6.155  1.3332  1.5866 -3.2265
 8406SOL     OW26658   4.831   3.026   7.231  0.3091  0.1935 -0.2426
 8406SOL    HW126659   4.787   3.094   7.281  2.0707  0.4767  1.0405
 8406SOL    HW226660   4.858   3.069   7.150  1.1378  0.9752  0.4253
 8407SOL     OW26661   4.819   7.684   0.265  0.0224 -0.1641  0.3094
 8407SOL    HW126662   4.841   7.726   0.348  1.2961 -1.0986  0.4665
 8407SOL    HW226663   4.773   7.604   0.291  0.9106 -0.7389  0.1586
 8408SOL     OW26664   2.766   4.933  11.273 -0.0731 -0.1612  0.5080
 8408SOL    HW126665   2.737   5.014  11.315 -1.0886  0.1818 -0.7792
 8408SOL    HW226666   2.824   4.962  11.203  0.3904 -0.6225  0.6949
 8409SOL     OW26667   1.502   5.931   3.442  0.2443 -0.1827  0.6328
 8409SOL    HW126668   1.428   5.917   3.384 -0.0582  1.1533  0.6536
 8409SOL    HW226669   1.510   5.849   3.491  0.0865 -1.0827 -0.7974
 8410SOL     OW26670   4.684   4.694   7.265  0.1439  0.3714 -0.3998
 8410SOL    HW126671   4.601   4.650   7.250  0.2110  0.0356  0.2041
 8410SOL    HW226672   4.743   4.626   7.298  0.4781  0.7390 -0.2201
 8411SOL     OW26673   7.783   3.510   9.384  0.2544  0.1991  0.1434
 8411SOL    HW126674   7.806   3.431   9.433 -0.3176 -1.2092 -1.7617
 8411SOL    HW226675   7.844   3.577   9.417  2.0018 -1.4897  0.5469
 8412SOL     OW26676   2.779   2.992   0.873 -0.1495  0.1007  0.2770
 8412SOL    HW126677   2.689   2.959   0.870  0.5514 -2.4740  3.1155
 8412SOL    HW226678   2.820   2.957   0.794 -1.1350 -0.1854 -0.1354
 8413SOL     OW26679   6.371   4.872   3.541  0.1220 -0.4802  0.2206
 8413SOL    HW126680   6.366   4.964   3.565 -0.8225 -0.3544 -0.3731
 8413SOL    HW226681   6.333   4.869   3.453  1.8394 -1.1675 -0.5333
 8414SOL     OW26682   2.438   7.866   7.076  0.1737  0.1182  0.2553
 8414SOL    HW126683   2.422   7.780   7.037 -0.4625  0.1109  0.5189
 8414SOL    HW226684   2.482   7.846   7.159 -2.1779 -0.1416  1.5365
 8415SOL     OW26685   6.183   1.550  12.033 -0.4585 -0.2821  0.2530
 8415SOL    HW126686   6.100   1.503  12.032  0.3722 -1.8118 -0.3232
 8415SOL    HW226687   6.165   1.632  11.987 -1.7640 -0.3344  0.6367
 8416SOL     OW26688   5.810   5.881  10.978  0.3174 -0.1847 -0.0611
 8416SOL    HW126689   5.820   5.786  10.988 -0.8773 -0.0689  4.4810
 8416SOL    HW226690   5.725   5.892  10.936 -0.5138 -1.1911  1.2786
 8417SOL     OW26691   4.219   1.464   6.199 -0.0472 -0.1690  0.0285
 8417SOL    HW126692   4.174   1.483   6.116 -0.7863 -0.1483  0.4272
 8417SOL    HW226693   4.156   1.412   6.249 -0.4548  1.6218  1.4536
 8418SOL     OW26694   0.611   2.535   6.431  0.1782  0.6267 -0.3286
 8418SOL    HW126695   0.551   2.534   6.357  0.0371 -0.5683 -0.2156
 8418SOL    HW226696   0.689   2.580   6.398  0.1186  0.1005 -1.1995
 8419SOL     OW26697   6.494   5.977   5.795 -0.2566  0.1394 -0.0900
 8419SOL    HW126698   6.539   6.003   5.875 -1.3377  0.2042  0.5182
 8419SOL    HW226699   6.402   6.001   5.810 -0.3339  0.9784 -1.7035
 8420SOL     OW26700   4.392   0.492   9.528 -0.4513  0.4508 -0.0845
 8420SOL    HW126701   4.376   0.478   9.435 -0.6393  0.9978 -0.1402
 8420SOL    HW226702   4.418   0.584   9.535 -2.3709  0.9927  0.6159
 8421SOL     OW26703   0.501   2.658   4.185  0.4509  0.4392  0.3392
 8421SOL    HW126704   0.511   2.609   4.267 -0.0639  0.4154  0.3896
 8421SOL    HW226705   0.406   2.669   4.175  0.5241  0.6562 -0.1277
 8422SOL     OW26706   0.052   6.349   1.974  0.3755 -0.0923  0.0443
 8422SOL    HW126707   0.094   6.264   1.985 -0.5203 -0.4346  1.0671
 8422SOL    HW226708  -0.042   6.330   1.978  0.1699  1.0300  1.1167
 8423SOL     OW26709   0.623   3.756   3.794 -0.2519  0.3229 -0.6359
 8423SOL    HW126710   0.533   3.787   3.807  0.0840  1.4131 -0.8108
 8423SOL    HW226711   0.644   3.781   3.704  0.1129 -0.2151 -0.6966
 8424SOL     OW26712   1.110   3.852   2.918  0.1939 -0.2310  0.0989
 8424SOL    HW126713   1.097   3.945   2.900 -0.5928 -0.3379  0.0768
 8424SOL    HW226714   1.124   3.848   3.013 -1.8164 -0.2823  0.4224
 8425SOL     OW26715   7.306   4.459  11.096 -0.2584  0.2479 -0.0384
 8425SOL    HW126716   7.380   4.455  11.036 -1.5576 -2.2930 -1.6123
 8425SOL    HW226717   7.243   4.516  11.053  0.6881  2.4595  1.3289
 8426SOL     OW26718   7.682   2.462   3.577  0.0236  0.0393 -0.3177
 8426SOL    HW126719   7.675   2.390   3.640  1.6487 -1.1647 -1.4227
 8426SOL    HW226720   7.726   2.424   3.501  2.4203  2.5495 -0.3502
 8427SOL     OW26721   7.450   4.810   1.395 -0.2939  0.1847 -0.1393
 8427SOL    HW126722   7.461   4.898   1.431  1.1299  0.5088 -1.2719
 8427SOL    HW226723   7.434   4.824   1.301  0.1821 -0.7512 -0.3742
 8428SOL     OW26724   0.764   7.694   6.215  0.1353  0.3689  0.1203
 8428SOL    HW126725   0.683   7.718   6.169 -0.2580 -1.3249 -0.1661
 8428SOL    HW226726   0.747   7.716   6.306 -1.1892 -1.0886  0.2741
 8429SOL     OW26727   5.861   6.970   2.684 -0.0255 -0.1639 -0.0440
 8429SOL    HW126728   5.871   6.883   2.722  1.1829 -0.8278 -1.7384
 8429SOL    HW226729   5.946   6.989   2.645  0.0875  2.2688  1.1694
 8430SOL     OW26730   0.418   2.280   1.060 -0.3833 -0.1405  0.8284
 8430SOL    HW126731   0.391   2.212   0.998  0.4625  0.1457  0.1209
 8430SOL    HW226732   0.441   2.232   1.139  2.4250 -0.9843 -0.3756
 8431SOL     OW26733   0.238   0.492   7.800  0.2225  0.7175  0.0978
 8431SOL    HW126734   0.151   0.516   7.832  0.2697  1.8390 -0.5378
 8431SOL    HW226735   0.231   0.498   7.705  0.4357 -1.2614 -0.0817
 8432SOL     OW26736   5.433   1.715   2.134  0.7746  0.8149 -0.1910
 8432SOL    HW126737   5.433   1.621   2.112  0.5808  0.8840 -0.4962
 8432SOL    HW226738   5.520   1.746   2.109  0.9059  0.6792  0.0866
 8433SOL     OW26739   2.061   3.281   0.933 -0.3067  0.3902  0.1483
 8433SOL    HW126740   2.142   3.307   0.889 -0.8658  1.4102 -0.3055
 8433SOL    HW226741   2.083   3.277   1.026  0.1214  1.2113  0.0855
 8434SOL     OW26742   6.367   7.106   4.228 -0.6201 -0.4798  0.4965
 8434SOL    HW126743   6.403   7.179   4.279 -0.7039  0.2735 -0.4870
 8434SOL    HW226744   6.386   7.029   4.281  0.9056  0.0734  0.8171
 8435SOL     OW26745   3.727   6.391   7.020  0.1048  0.0250 -0.3525
 8435SOL    HW126746   3.663   6.459   7.038  0.8460  1.7176 -3.3878
 8435SOL    HW226747   3.693   6.346   6.943 -0.2158 -2.9995  1.3985
 8436SOL     OW26748   5.879   7.129   2.423 -0.0127 -0.2067  0.2273
 8436SOL    HW126749   5.947   7.171   2.475  0.2598  0.6835 -0.8351
 8436SOL    HW226750   5.839   7.199   2.372 -1.1456 -0.8542  0.1681
 8437SOL     OW26751   0.881   0.585   7.837 -0.5006 -0.0062  0.2702
 8437SOL    HW126752   0.887   0.580   7.932  0.1038  0.9698  0.2998
 8437SOL    HW226753   0.810   0.647   7.820 -0.2912  0.1951  0.1036
 8438SOL     OW26754   2.279   5.927  11.889 -0.0036  0.0122 -0.0065
 8438SOL    HW126755   2.209   5.977  11.931 -0.9227  0.2795 -1.7425
 8438SOL    HW226756   2.357   5.944  11.943 -1.0533  0.4953  1.4111
 8439SOL     OW26757   4.752   4.322   2.472 -0.4882 -0.6018  0.0336
 8439SOL    HW126758   4.703   4.252   2.516 -0.0551 -0.5890  0.5377
 8439SOL    HW226759   4.789   4.280   2.394 -0.6930 -0.7945  0.0405
 8440SOL     OW26760   1.800   7.624   2.726 -0.3243  0.7863  0.2554
 8440SOL    HW126761   1.884   7.589   2.756 -0.7870 -2.2469 -1.5907
 8440SOL    HW226762   1.748   7.635   2.806  0.8507 -0.0764  1.1660
 8441SOL     OW26763   3.645   6.307   1.780  0.2563 -0.6703  0.6602
 8441SOL    HW126764   3.700   6.376   1.743  0.6626 -1.5217 -0.3725
 8441SOL    HW226765   3.656   6.316   1.875 -0.0404  0.9451  0.5544
 8442SOL     OW26766   7.854   7.349   8.964  0.5410 -0.4473 -0.6051
 8442SOL    HW126767   7.813   7.301   9.036  0.1262  1.1009  0.2261
 8442SOL    HW226768   7.948   7.339   8.980  0.4540 -0.3382  0.0109
 8443SOL     OW26769   6.884   1.003   3.351  0.1266  0.3814 -0.0695
 8443SOL    HW126770   6.934   0.924   3.373 -3.6543 -2.4955 -0.8637
 8443SOL    HW226771   6.892   1.012   3.256 -1.5160 -0.7244 -0.3553
 8444SOL     OW26772   0.503   0.270   8.708 -0.2724 -0.1963  0.0713
 8444SOL    HW126773   0.541   0.226   8.632 -0.6380  1.9863 -1.4856
 8444SOL    HW226774   0.526   0.363   8.696 -1.2822  0.3741  2.0595
 8445SOL     OW26775   1.690   3.052  11.200 -0.0363  0.2055  0.1183
 8445SOL    HW126776   1.624   3.114  11.169 -0.7495 -1.0183 -0.9101
 8445SOL    HW226777   1.773   3.101  11.196 -0.5863  1.1152 -0.5406
 8446SOL     OW26778   3.506   4.168   8.055 -0.3026 -1.0822 -0.0416
 8446SOL    HW126779   3.484   4.079   8.082 -2.6078 -0.9684 -1.2666
 8446SOL    HW226780   3.468   4.177   7.968  1.3097  0.5965 -0.6338
 8447SOL     OW26781   1.783   1.396   2.095 -0.4258 -0.3673 -0.6093
 8447SOL    HW126782   1.689   1.415   2.098 -0.2897  0.1973  0.6888
 8447SOL    HW226783   1.788   1.307   2.060 -1.5207 -0.8319  0.3403
 8448SOL     OW26784   4.652   2.608   9.833  0.0883 -0.0263 -0.4914
 8448SOL    HW126785   4.710   2.568   9.769  2.4668  1.4641  0.5752
 8448SOL    HW226786   4.659   2.552   9.910  0.1531  0.1658 -0.3548
 8449SOL     OW26787   0.311   3.883   9.366 -0.4956  0.3257 -0.1124
 8449SOL    HW126788   0.391   3.877   9.313 -2.3611 -0.8328 -3.0820
 8449SOL    HW226789   0.316   3.970   9.406  0.9056  1.5607 -2.6447
 8450SOL     OW26790   0.536   1.713  10.945 -0.3432 -0.1278  0.1195
 8450SOL    HW126791   0.493   1.742  11.025  0.1314  0.0391  0.3175
 8450SOL    HW226792   0.622   1.682  10.974 -0.4337 -0.7213 -0.2312
 8451SOL     OW26793   1.321   0.041   6.798 -0.2105  0.4299  0.6010
 8451SOL    HW126794   1.378  -0.004   6.859  1.0998 -0.3059 -1.0844
 8451SOL    HW226795   1.245  -0.016   6.789  0.5665 -0.5159 -0.0644
 8452SOL     OW26796   6.891   3.001   0.262  0.2394 -0.3107  0.4250
 8452SOL    HW126797   6.854   3.042   0.340 -1.0822 -0.3234 -0.1653
 8452SOL    HW226798   6.841   2.920   0.252  0.3386 -0.2695 -0.4781
 8453SOL     OW26799   4.267   5.084   8.021 -0.0740 -0.0579 -0.2775
 8453SOL    HW126800   4.262   5.180   8.025  0.8453 -0.0379  1.3694
 8453SOL    HW226801   4.295   5.065   7.932 -2.7791  1.0329 -1.4666
 8454SOL     OW26802   4.187   2.084   0.604 -0.1698 -0.0322 -0.7115
 8454SOL    HW126803   4.158   2.141   0.676  0.1250 -0.0797 -0.5543
 8454SOL    HW226804   4.106   2.047   0.569 -0.2735 -0.4269 -0.0607
 8455SOL     OW26805   7.821   6.840   5.224 -0.3567  0.2341 -0.1105
 8455SOL    HW126806   7.851   6.931   5.233  1.2571 -0.3120  0.3938
 8455SOL    HW226807   7.861   6.810   5.142  0.7574 -0.6049  0.7198
 8456SOL     OW26808   4.811   4.086   7.580  0.5540 -0.1283 -0.5528
 8456SOL    HW126809   4.774   4.028   7.646  0.2855  0.5937 -0.0676
 8456SOL    HW226810   4.851   4.157   7.629  0.6412  0.2444 -1.1528
 8457SOL     OW26811   5.352   3.976   7.878  0.1885  0.0210 -0.0189
 8457SOL    HW126812   5.305   3.950   7.957  0.9600 -2.5146 -0.2871
 8457SOL    HW226813   5.423   4.032   7.908  0.5237 -0.9795  1.1192
 8458SOL     OW26814   5.560   2.099   9.252  0.0626 -0.4379 -0.1839
 8458SOL    HW126815   5.608   2.176   9.222  0.9365  0.2539  2.6766
 8458SOL    HW226816   5.627   2.030   9.257  0.2272 -0.2145  1.1711
 8459SOL     OW26817   4.312   5.045   8.690  0.0352  0.0420  0.2963
 8459SOL    HW126818   4.319   5.038   8.594 -1.3697  0.5385  0.1306
 8459SOL    HW226819   4.241   5.108   8.704 -0.1750 -0.4741  1.6728
 8460SOL     OW26820   6.342   1.587   9.460  0.2532  0.8911 -0.6664
 8460SOL    HW126821   6.375   1.677   9.461 -0.7400  1.4086  3.0667
 8460SOL    HW226822   6.420   1.532   9.465  0.8400  1.7879  0.9760
 8461SOL     OW26823   1.926   3.342  11.069 -0.1431 -0.1135  0.2875
 8461SOL    HW126824   1.951   3.434  11.081  1.5399 -0.0668 -2.5024
 8461SOL    HW226825   1.860   3.345  11.000 -2.1169 -0.8724  2.0678
 8462SOL     OW26826   0.129   7.869   6.409  0.4105  0.4018  0.3544
 8462SOL    HW126827   0.221   7.844   6.420  0.4870  0.9924  1.1624
 8462SOL    HW226828   0.118   7.946   6.466 -0.4495  0.6578 -0.1414
 8463SOL     OW26829   3.772   6.100   7.978 -0.1093  0.0721 -0.2037
 8463SOL    HW126830   3.687   6.057   7.988  0.1202 -0.3176  0.1349
 8463SOL    HW226831   3.766   6.146   7.895 -0.3268 -0.7318 -0.6511
 8464SOL     OW26832   0.823   4.329   7.947 -0.0151  0.2663  0.0331
 8464SOL    HW126833   0.741   4.364   7.983 -0.6110 -1.3286  0.3263
 8464SOL    HW226834   0.797   4.249   7.902  1.7648 -2.4063  3.2955
 8465SOL     OW26835   0.137   1.289   2.806 -0.1909 -0.1839  0.8998
 8465SOL    HW126836   0.155   1.373   2.764 -2.2941 -0.3143 -0.3934
 8465SOL    HW226837   0.205   1.230   2.772 -0.0208  0.4673  0.0935
 8466SOL     OW26838   4.977   1.156   0.998  0.9717  0.3102  0.9708
 8466SOL    HW126839   4.901   1.162   1.055  0.0282  1.1413 -0.3154
 8466SOL    HW226840   4.972   1.068   0.961 -0.4307  0.9545 -0.4748
 8467SOL     OW26841   1.547   5.708   4.586  0.7780  0.3243 -0.2420
 8467SOL    HW126842   1.530   5.782   4.644 -1.3034 -0.0465 -0.2924
 8467SOL    HW226843   1.544   5.632   4.644 -0.3970  0.0322 -0.6542
 8468SOL     OW26844   3.854   5.441   9.923 -0.3247  0.3203 -0.4134
 8468SOL    HW126845   3.883   5.368   9.868 -0.4745  2.4111 -3.5635
 8468SOL    HW226846   3.875   5.519   9.871 -0.0094  2.5781  2.8302
 8469SOL     OW26847   3.276   0.066  10.932 -0.0591  0.1428 -0.2165
 8469SOL    HW126848   3.258   0.031  11.020 -0.0241 -0.2284 -0.3558
 8469SOL    HW226849   3.361   0.029  10.908  0.3058  0.8833 -0.0826
 8470SOL     OW26850   3.639   7.445   8.046 -0.8455 -0.2404  0.1103
 8470SOL    HW126851   3.733   7.460   8.035 -0.7783  0.2918  1.3112
 8470SOL    HW226852   3.633   7.366   8.099 -0.9765  1.2193  2.3942
 8471SOL     OW26853   5.945   1.958   1.363 -0.3778 -0.0620 -0.0805
 8471SOL    HW126854   5.905   1.886   1.412  0.3202 -0.7408 -0.4864
 8471SOL    HW226855   6.025   1.978   1.411 -1.1735  1.3121  0.7443
 8472SOL     OW26856   4.514   0.568   1.045  0.4189 -0.0091  0.1427
 8472SOL    HW126857   4.472   0.564   1.130  0.4913  0.3980  0.1982
 8472SOL    HW226858   4.458   0.515   0.988  0.0193  0.2507  0.2906
 8473SOL     OW26859   7.868   0.966  11.649 -0.7571  0.3998 -0.4614
 8473SOL    HW126860   7.927   0.902  11.610  1.6835  1.7256  0.8216
 8473SOL    HW226861   7.781   0.929  11.636  0.3792 -2.0828 -1.7090
 8474SOL     OW26862   5.082   1.801   9.857  0.1100 -0.1005 -0.5694
 8474SOL    HW126863   5.152   1.749   9.896  0.8330  1.5349  0.3838
 8474SOL    HW226864   5.002   1.766   9.896  0.4918 -1.0757 -0.6275
 8475SOL     OW26865   1.439   7.028   5.874 -0.1785  0.0482 -0.8006
 8475SOL    HW126866   1.408   7.079   5.949 -1.3086 -1.9995  0.2137
 8475SOL    HW226867   1.522   7.069   5.850 -0.8492  2.1140  0.1490
 8476SOL     OW26868   5.624   1.494   6.546  0.0518  0.6347  0.3746
 8476SOL    HW126869   5.622   1.402   6.518  2.3779  0.4829  0.5215
 8476SOL    HW226870   5.590   1.492   6.636 -0.6971  0.0668  0.0959
 8477SOL     OW26871   0.959   6.860   3.878  0.4915 -0.3512  0.0449
 8477SOL    HW126872   1.034   6.801   3.874  0.4973 -0.3021 -1.4842
 8477SOL    HW226873   0.994   6.945   3.852 -0.4161 -0.7553 -2.8755
 8478SOL     OW26874   0.345   3.166   2.566 -0.0512  0.3803 -0.2446
 8478SOL    HW126875   0.270   3.125   2.608 -0.2451 -0.0476 -0.9901
 8478SOL    HW226876   0.414   3.101   2.571  1.0484  1.5744  2.4823
 8479SOL     OW26877   3.152   1.706   5.167  0.0504 -0.2581 -0.7377
 8479SOL    HW126878   3.089   1.754   5.113  0.4144 -1.2714 -2.1189
 8479SOL    HW226879   3.110   1.699   5.253 -0.8976  0.6901 -1.1080
 8480SOL     OW26880   0.533   2.826  11.954 -0.3249 -0.1105  0.0663
 8480SOL    HW126881   0.513   2.916  11.980 -0.7792 -0.2609  0.2362
 8480SOL    HW226882   0.449   2.780  11.958 -0.1787 -0.4338 -0.4729
 8481SOL     OW26883   5.074   0.615  10.908 -0.0899  0.0751  0.0331
 8481SOL    HW126884   5.023   0.629  10.828 -1.4682  0.0925  0.8858
 8481SOL    HW226885   5.049   0.687  10.966  0.3121 -0.3599  0.7649
 8482SOL     OW26886   2.503   2.053   8.222  0.0826 -1.0925 -0.4836
 8482SOL    HW126887   2.466   2.092   8.144  0.1265 -0.3341 -0.1387
 8482SOL    HW226888   2.593   2.085   8.224 -0.2060 -0.3013  0.3940
 8483SOL     OW26889   4.145   2.349   4.288 -0.1802 -0.4945 -0.2860
 8483SOL    HW126890   4.182   2.418   4.232  0.5314 -1.3171 -0.8782
 8483SOL    HW226891   4.063   2.324   4.244  0.5137 -1.3323 -1.1686
 8484SOL     OW26892   2.666   3.827   1.579  0.1864  0.0215  0.0416
 8484SOL    HW126893   2.759   3.825   1.555  0.4083 -0.6340  0.9388
 8484SOL    HW226894   2.638   3.736   1.573  0.1322 -0.1055  1.7822
 8485SOL     OW26895   7.690   1.541   0.347  0.7079  0.2432 -0.0677
 8485SOL    HW126896   7.722   1.631   0.348  0.5526  0.2952  0.8608
 8485SOL    HW226897   7.595   1.549   0.357  0.1806  0.1375 -3.6238
 8486SOL     OW26898   4.662   0.644   6.640 -0.6818 -0.1988  0.4394
 8486SOL    HW126899   4.605   0.640   6.563 -0.4235  0.5989  0.2003
 8486SOL    HW226900   4.669   0.737   6.661  0.1807 -0.3104  0.7238
 8487SOL     OW26901   0.502   0.493   5.384 -0.1245  0.1361 -0.4674
 8487SOL    HW126902   0.413   0.499   5.419 -0.3403 -2.2703 -0.4260
 8487SOL    HW226903   0.556   0.468   5.459  0.3887  0.3839 -0.7437
 8488SOL     OW26904   7.298   0.268   5.801 -0.0441  0.0508  0.1549
 8488SOL    HW126905   7.376   0.281   5.855 -0.9789  1.5048  1.2294
 8488SOL    HW226906   7.284   0.353   5.759 -0.1565 -0.6546 -1.2849
 8489SOL     OW26907   6.255   2.197   7.509 -0.5331 -0.4735  0.1995
 8489SOL    HW126908   6.295   2.111   7.520 -0.4259 -0.5276 -0.5777
 8489SOL    HW226909   6.302   2.236   7.436  0.5510  0.9220  1.5688
 8490SOL     OW26910   4.187   6.421   2.179  1.0133  0.1846  0.0394
 8490SOL    HW126911   4.165   6.336   2.141  1.7493 -0.8550  1.7997
 8490SOL    HW226912   4.103   6.467   2.187  0.7019 -0.0664 -1.5906
 8491SOL     OW26913   1.144   5.213  10.693 -0.3082 -0.3066  0.3511
 8491SOL    HW126914   1.068   5.236  10.640 -1.4655 -0.3640  1.8928
 8491SOL    HW226915   1.209   5.281  10.674  0.3419 -1.6817 -2.9579
 8492SOL     OW26916   4.040   3.360   5.082 -0.2847  0.1187 -0.5225
 8492SOL    HW126917   4.059   3.266   5.075 -0.6003 -0.3677  3.2351
 8492SOL    HW226918   3.945   3.365   5.072 -0.4981 -0.2688  1.0729
 8493SOL     OW26919   6.153   3.800   9.351 -0.3230  0.0337 -0.1450
 8493SOL    HW126920   6.222   3.807   9.285 -1.0507  2.3638 -0.7693
 8493SOL    HW226921   6.074   3.780   9.301 -0.2264 -2.3284  0.5348
 8494SOL     OW26922   1.927   6.063   2.833  0.1818  0.2805  0.2984
 8494SOL    HW126923   1.992   6.115   2.881  1.1344 -0.8534  0.2870
 8494SOL    HW226924   1.849   6.119   2.830  0.2571  0.5927  2.6980
 8495SOL     OW26925   4.126   4.297   3.172  0.3960 -0.0434  0.1189
 8495SOL    HW126926   4.175   4.233   3.223  0.6464  1.5478  1.9715
 8495SOL    HW226927   4.147   4.276   3.081  2.6678 -0.8579  0.7718
 8496SOL     OW26928   0.190   7.204  12.276  0.2185  0.1580 -0.3497
 8496SOL    HW126929   0.149   7.165  12.354  1.8429 -1.3701 -0.1797
 8496SOL    HW226930   0.133   7.179  12.204 -0.8359  0.8310  0.2267
 8497SOL     OW26931   0.786   2.290  10.594 -0.2326  0.3061 -0.5295
 8497SOL    HW126932   0.819   2.333  10.673  0.3942 -1.4617  0.2485
 8497SOL    HW226933   0.712   2.343  10.566  1.1800  2.5220 -0.3496
 8498SOL     OW26934   0.696   5.885   5.720 -0.0926  0.1207 -0.1078
 8498SOL    HW126935   0.746   5.965   5.735 -1.8568  1.1297  0.7665
 8498SOL    HW226936   0.673   5.888   5.627 -0.0576  0.5751 -0.1032
 8499SOL     OW26937   6.842   7.201  12.241 -0.2759  0.6890 -0.6939
 8499SOL    HW126938   6.822   7.108  12.235 -0.4817  0.6039  0.9371
 8499SOL    HW226939   6.934   7.208  12.215 -0.0823 -0.0585 -0.2299
 8500SOL     OW26940   0.151   1.032   1.135  0.5044 -0.1153 -0.6997
 8500SOL    HW126941   0.186   0.991   1.214  0.1161  1.3876  0.3100
 8500SOL    HW226942   0.210   1.106   1.118 -0.5522  0.7884 -0.5881
 8501SOL     OW26943   7.677   1.769   1.776 -0.0586 -0.3758 -0.9749
 8501SOL    HW126944   7.687   1.679   1.806 -0.0755 -0.2464 -0.5782
 8501SOL    HW226945   7.764   1.795   1.748 -0.0022 -0.4303 -0.8500
 8502SOL     OW26946   6.016   1.171   1.730  0.6364 -0.2774  0.0324
 8502SOL    HW126947   5.987   1.165   1.821  2.5196  0.0350  0.6925
 8502SOL    HW226948   6.049   1.260   1.721 -3.5285  1.3120 -2.3024
 8503SOL     OW26949   7.302   6.955   6.407  0.0163 -0.4498 -0.7555
 8503SOL    HW126950   7.357   6.989   6.478 -0.1191 -0.5586 -0.5969
 8503SOL    HW226951   7.237   6.901   6.452  1.7782 -3.0975 -1.1690
 8504SOL     OW26952   1.286   6.747   4.695  0.4451 -0.6302  0.2340
 8504SOL    HW126953   1.224   6.765   4.625 -0.8791 -0.9011  1.3000
 8504SOL    HW226954   1.371   6.742   4.651 -0.1176  0.8542 -1.0974
 8505SOL     OW26955   0.431   7.036   0.739 -0.4533 -0.3455 -0.2639
 8505SOL    HW126956   0.515   7.082   0.732 -0.7656  0.3216  0.2630
 8505SOL    HW226957   0.375   7.096   0.789 -1.0822 -1.0059 -0.1631
 8506SOL     OW26958   7.018   3.417   1.145  0.3440  0.3395  0.3442
 8506SOL    HW126959   6.968   3.335   1.137 -1.2253  1.2238  0.6954
 8506SOL    HW226960   6.988   3.470   1.072 -0.9428  1.7275  1.7978
 8507SOL     OW26961   2.052   4.587   7.122  0.2731 -0.1999  0.0598
 8507SOL    HW126962   2.122   4.523   7.121  0.3395 -0.1287 -0.4788
 8507SOL    HW226963   2.071   4.644   7.197  1.2516  0.3131 -0.5557
 8508SOL     OW26964   6.826   2.052  10.216 -0.3455 -0.3611 -0.1038
 8508SOL    HW126965   6.866   2.084  10.135  0.8287  1.3179  1.0760
 8508SOL    HW226966   6.891   2.071  10.284 -1.7728 -0.6505  1.4060
 8509SOL     OW26967   7.788   2.888   1.752 -0.1319  0.3360 -0.1848
 8509SOL    HW126968   7.808   2.950   1.822 -0.0654 -1.0102  1.0265
 8509SOL    HW226969   7.842   2.917   1.678 -0.5759  2.0754  0.1212
 8510SOL     OW26970   6.751   2.924   9.892 -0.0535  0.8080 -0.1002
 8510SOL    HW126971   6.676   2.864   9.893  0.8300 -0.3403 -0.4799
 8510SOL    HW226972   6.759   2.953   9.983 -0.4634  0.3009  0.1066
 8511SOL     OW26973   1.693   4.326   6.459 -0.2369 -0.0265 -0.3761
 8511SOL    HW126974   1.661   4.404   6.504  0.0744 -0.0459 -0.1205
 8511SOL    HW226975   1.616   4.289   6.417 -0.5285 -0.0061  0.1339
 8512SOL     OW26976   4.579   2.792   6.120 -0.2013 -0.6018 -0.6174
 8512SOL    HW126977   4.587   2.811   6.026 -0.3000  1.7450 -0.2039
 8512SOL    HW226978   4.505   2.844   6.149  1.2535  0.5923  1.1892
 8513SOL     OW26979   4.869   3.944   5.306 -0.1463  0.1571 -0.0498
 8513SOL    HW126980   4.851   3.917   5.216  1.0355 -2.7447  0.4754
 8513SOL    HW226981   4.959   3.977   5.303  0.3718 -1.1554  0.2303
 8514SOL     OW26982   7.116   6.590  11.352 -0.0120 -0.3444 -0.2630
 8514SOL    HW126983   7.171   6.650  11.301 -0.7234  0.5514 -0.0112
 8514SOL    HW226984   7.174   6.554  11.418  0.5534 -0.3318 -0.7489
 8515SOL     OW26985   3.893   2.904   5.475 -0.1766 -0.2655  0.1110
 8515SOL    HW126986   3.932   2.847   5.541 -0.9247  0.1324  0.9031
 8515SOL    HW226987   3.933   2.990   5.490  0.3627 -0.3806 -0.5801
 8516SOL     OW26988   6.147   4.775   4.590 -0.7225 -0.6895 -0.3697
 8516SOL    HW126989   6.225   4.774   4.645 -1.8113 -0.2001  1.2788
 8516SOL    HW226990   6.127   4.683   4.574 -0.1245 -0.8280 -0.3282
 8517SOL     OW26991   5.207   4.332   8.320  0.6159  0.0853  0.2431
 8517SOL    HW126992   5.222   4.250   8.367 -0.0161  1.4659  3.0935
 8517SOL    HW226993   5.163   4.306   8.239 -0.6637 -2.3133  1.5887
 8518SOL     OW26994   5.538   4.392  11.860 -0.2599 -0.0469  0.0067
 8518SOL    HW126995   5.541   4.422  11.951  0.9758  1.3000 -0.4435
 8518SOL    HW226996   5.626   4.409  11.826 -1.3490  1.8824 -2.1415
 8519SOL     OW26997   0.420   2.311   0.681 -0.2125 -0.1310 -0.7751
 8519SOL    HW126998   0.431   2.401   0.710  0.5574 -0.0861 -1.1728
 8519SOL    HW226999   0.483   2.262   0.734 -1.2584 -0.5874  0.0889
 8520SOL     OW27000   5.821   1.285   5.919 -0.0523  0.1718 -0.0725
 8520SOL    HW127001   5.897   1.293   5.976  0.5508 -1.8906 -0.5004
 8520SOL    HW227002   5.848   1.223   5.851 -1.3741  1.1250 -1.5354
 8521SOL     OW27003   1.773   6.760   9.105  0.0010  0.0092  0.1886
 8521SOL    HW127004   1.722   6.787   9.181  0.7217  0.4381  0.5305
 8521SOL    HW227005   1.829   6.835   9.085  1.9169 -1.1205  1.0402
 8522SOL     OW27006   0.710   5.068  11.128  0.0962 -0.0431 -0.0597
 8522SOL    HW127007   0.802   5.050  11.107  0.7370  0.9544  1.6879
 8522SOL    HW227008   0.667   5.072  11.043  1.9387  0.7767 -1.0265
 8523SOL     OW27009   6.287   2.121   1.186 -0.4493 -0.0095 -0.1472
 8523SOL    HW127010   6.258   2.038   1.150  0.5002 -0.8989  1.0403
 8523SOL    HW227011   6.363   2.098   1.241 -0.2470  1.6130  0.2991
 8524SOL     OW27012   7.060   4.685   3.267  0.3197  0.4177  0.4519
 8524SOL    HW127013   7.123   4.613   3.258  0.1593  0.4297 -1.1538
 8524SOL    HW227014   7.005   4.659   3.341  0.2903 -1.1185 -0.0637
 8525SOL     OW27015   1.098   1.342   7.448  0.0030  0.0578  0.5027
 8525SOL    HW127016   1.129   1.432   7.442  0.6285 -0.2312 -1.2331
 8525SOL    HW227017   1.071   1.320   7.359  2.5858 -2.3927  0.1977
 8526SOL     OW27018   3.806   6.153   8.288 -0.6430 -0.0591  1.1719
 8526SOL    HW127019   3.715   6.166   8.313 -1.6596 -0.5962 -1.8504
 8526SOL    HW227020   3.804   6.142   8.193  2.6463  0.4354  0.9085
 8527SOL     OW27021   5.660   7.716  10.727  0.3881  0.0828 -0.0139
 8527SOL    HW127022   5.622   7.748  10.645  0.6950  1.3715  0.3213
 8527SOL    HW227023   5.661   7.793  10.784  1.2945 -0.5081  0.7891
 8528SOL     OW27024   4.619   7.921   8.954 -0.3065  0.2487  0.2677
 8528SOL    HW127025   4.711   7.945   8.945  0.1135 -1.2294  0.2774
 8528SOL    HW227026   4.621   7.827   8.973 -1.8592 -0.1434 -1.2552
 8529SOL     OW27027   4.418   0.741   0.177 -0.4194  0.1820  0.9738
 8529SOL    HW127028   4.415   0.835   0.198  1.5827  0.3594  0.7166
 8529SOL    HW227029   4.463   0.738   0.092 -0.1760 -1.0193  1.1357
 8530SOL     OW27030   7.321   1.902   5.111 -0.3181  0.1715  0.1499
 8530SOL    HW127031   7.326   1.819   5.064  1.8625 -0.8509  2.0036
 8530SOL    HW227032   7.251   1.890   5.175  0.0841 -0.2976  0.5027
 8531SOL     OW27033   1.220   0.402   9.883  0.3653 -0.1033 -0.1125
 8531SOL    HW127034   1.238   0.310   9.865 -0.9872 -0.4727  0.3319
 8531SOL    HW227035   1.221   0.444   9.797  0.2272 -0.6752 -0.3970
 8532SOL     OW27036   6.996   1.381  11.376 -0.1835 -0.2019 -0.4554
 8532SOL    HW127037   6.934   1.451  11.394  0.5044  0.0844  0.9044
 8532SOL    HW227038   7.082   1.419  11.396  0.1297 -1.7052  1.3196
 8533SOL     OW27039   7.683   1.368   1.000 -0.4052  0.2524  0.1757
 8533SOL    HW127040   7.633   1.312   1.059  0.8966 -1.6701 -0.4292
 8533SOL    HW227041   7.632   1.367   0.918 -0.3142 -0.2099  0.1195
 8534SOL     OW27042   3.816   5.226   6.035  0.5090  0.3030 -0.3098
 8534SOL    HW127043   3.910   5.224   6.020  0.4842  0.5259 -0.5020
 8534SOL    HW227044   3.782   5.286   5.968 -0.0088 -1.2117 -1.4441
 8535SOL     OW27045   5.319   2.896  11.116  0.3990 -0.0992  0.3351
 8535SOL    HW127046   5.273   2.876  11.035  0.7291  0.7025 -0.0579
 8535SOL    HW227047   5.270   2.969  11.154 -0.2481 -0.9999  1.2902
 8536SOL     OW27048   1.442   4.493   9.192 -0.3754 -0.6989 -0.5470
 8536SOL    HW127049   1.430   4.574   9.143  0.4476 -0.3581 -0.1927
 8536SOL    HW227050   1.433   4.519   9.284  0.7039 -0.8561 -0.3914
 8537SOL     OW27051   1.702   2.961  11.669  0.1041 -0.2886  0.2891
 8537SOL    HW127052   1.686   2.953  11.575  1.0498 -0.4112  0.1261
 8537SOL    HW227053   1.716   2.871  11.699 -2.3271 -0.4976  0.9783
 8538SOL     OW27054   2.991   6.811   6.682 -0.1549 -0.5483  0.0488
 8538SOL    HW127055   2.978   6.726   6.725 -1.8274  0.0481  0.8121
 8538SOL    HW227056   2.982   6.875   6.752  3.9421  0.2761  0.0987
 8539SOL     OW27057   0.964   4.391   7.415 -0.6061 -0.4529 -0.1739
 8539SOL    HW127058   1.026   4.355   7.478 -2.2609 -2.2775  0.5303
 8539SOL    HW227059   0.976   4.486   7.421  2.3247 -0.7399 -0.3767
 8540SOL     OW27060   4.254   7.126   8.556 -0.4826 -0.1746  0.4635
 8540SOL    HW127061   4.169   7.107   8.595 -1.5665  0.5142 -1.4694
 8540SOL    HW227062   4.240   7.120   8.462  1.7635 -0.6212  0.0932
 8541SOL     OW27063   1.483   2.449  10.398 -0.2755 -0.1830 -0.0109
 8541SOL    HW127064   1.412   2.495  10.352 -0.3986  2.2394  2.3380
 8541SOL    HW227065   1.536   2.412  10.328 -3.1594 -1.1180 -1.9170
 8542SOL     OW27066   7.325   0.036   6.176  0.1000  0.6960  0.1100
 8542SOL    HW127067   7.274  -0.044   6.163  0.9725  0.1315  0.0104
 8542SOL    HW227068   7.389   0.012   6.244 -1.6043  2.2727  2.4328
 8543SOL     OW27069   6.583   7.142   0.980 -0.2518 -0.2348 -0.2817
 8543SOL    HW127070   6.587   7.237   0.981 -1.1155 -0.1903  0.7857
 8543SOL    HW227071   6.600   7.116   1.071 -0.4906 -1.0698 -0.4667
 8544SOL     OW27072   2.298   6.138  12.159 -0.1639 -0.5593  0.8030
 8544SOL    HW127073   2.212   6.143  12.199  1.0359  1.6239  3.4139
 8544SOL    HW227074   2.286   6.173  12.070 -1.8486  0.2742  1.3202
 8545SOL     OW27075   2.373   4.599   1.682 -0.0289  0.1776 -0.5556
 8545SOL    HW127076   2.329   4.614   1.765  0.2899 -0.5268 -0.2557
 8545SOL    HW227077   2.460   4.636   1.694  0.2613 -0.5801 -0.3252
 8546SOL     OW27078   1.442   1.677   6.004  0.1879 -0.1986  0.4886
 8546SOL    HW127079   1.425   1.654   5.913 -0.1287 -1.6167  0.8862
 8546SOL    HW227080   1.517   1.736   6.000 -0.8186  1.0974 -0.8038
 8547SOL     OW27081   2.370   3.910   0.927  0.1424  0.2652  0.0895
 8547SOL    HW127082   2.413   3.831   0.892  2.4079  1.9416 -1.2114
 8547SOL    HW227083   2.362   3.893   1.021 -0.7846 -2.0706 -0.3527
 8548SOL     OW27084   0.675   4.877   9.032  0.0903 -0.6788 -0.2964
 8548SOL    HW127085   0.760   4.904   8.998  0.5980 -2.7934 -0.8619
 8548SOL    HW227086   0.632   4.833   8.958 -0.5339 -1.6317  0.5943
 8549SOL     OW27087   6.739   4.598  10.431 -0.2566  0.4734  0.9838
 8549SOL    HW127088   6.809   4.592  10.366 -1.4572  1.9313 -0.4882
 8549SOL    HW227089   6.748   4.685  10.468 -2.6233  1.5876 -0.8518
 8550SOL     OW27090   6.492   7.619   8.867  0.1706 -0.1578  0.1456
 8550SOL    HW127091   6.459   7.536   8.834 -1.0910  0.6705 -0.7943
 8550SOL    HW227092   6.439   7.637   8.945  0.5013 -0.2720  0.3985
 8551SOL     OW27093   6.128   5.878   7.517  0.1687 -0.2951 -0.1342
 8551SOL    HW127094   6.114   5.890   7.611 -1.1460 -0.7710 -0.2400
 8551SOL    HW227095   6.039   5.874   7.480  0.6104  2.3478 -1.7488
 8552SOL     OW27096   7.111   3.845   5.007  0.1270  0.3130 -0.3549
 8552SOL    HW127097   7.056   3.848   5.086 -0.0947  0.9138 -0.5313
 8552SOL    HW227098   7.201   3.853   5.040 -0.0092  1.3423 -0.2201
 8553SOL     OW27099   2.148   6.768   9.092  0.1818 -0.7810 -0.3060
 8553SOL    HW127100   2.177   6.857   9.110  0.5440 -1.1262  0.8698
 8553SOL    HW227101   2.082   6.778   9.023 -0.1553  0.4500  0.1709
 8554SOL     OW27102   6.683   5.452  10.335 -0.4383  0.8026  0.3605
 8554SOL    HW127103   6.649   5.459  10.246  1.7606 -1.7635 -0.8369
 8554SOL    HW227104   6.778   5.449  10.325 -0.0814 -4.0133  2.1204
 8555SOL     OW27105   0.188   4.188   0.642  0.3029  0.0379 -0.0012
 8555SOL    HW127106   0.222   4.190   0.553 -1.2156 -0.4860 -0.6191
 8555SOL    HW227107   0.133   4.110   0.646  0.3312  0.0520  1.3983
 8556SOL     OW27108   3.727   6.567   2.795 -0.1008  0.1530 -0.2584
 8556SOL    HW127109   3.696   6.649   2.755 -0.4715  0.0087 -0.2675
 8556SOL    HW227110   3.725   6.504   2.723 -2.8816 -0.6765  0.4384
 8557SOL     OW27111   7.165   0.428   3.947  0.0827  0.3496 -0.9309
 8557SOL    HW127112   7.213   0.502   3.983 -0.4864  0.9910 -1.4761
 8557SOL    HW227113   7.079   0.433   3.989 -0.1154  0.2793 -1.3265
 8558SOL     OW27114   6.555   6.407   9.971 -0.0879 -0.5559 -0.0552
 8558SOL    HW127115   6.566   6.340  10.039 -0.1822 -0.9007 -0.3725
 8558SOL    HW227116   6.511   6.360   9.899 -1.1783  0.1225  0.1509
 8559SOL     OW27117   2.450   1.638   9.735  0.2155 -0.5311 -0.0874
 8559SOL    HW127118   2.539   1.622   9.767 -0.2516 -1.4020  0.8266
 8559SOL    HW227119   2.433   1.564   9.676  0.3005 -0.0577 -0.7128
 8560SOL     OW27120   2.114   1.709   2.290 -0.8312 -0.2041 -0.4609
 8560SOL    HW127121   2.146   1.620   2.274  1.2554  0.7556 -2.1941
 8560SOL    HW227122   2.186   1.752   2.336 -0.4701  1.4061 -2.3986
 8561SOL     OW27123   7.033   1.467   7.810  0.0061  0.3651 -0.3831
 8561SOL    HW127124   7.034   1.497   7.720 -0.7096 -1.4790 -1.0532
 8561SOL    HW227125   7.105   1.514   7.852  2.2885 -0.8780 -2.6339
 8562SOL     OW27126   2.400   0.663   9.280  0.4476  0.5134 -0.2403
 8562SOL    HW127127   2.375   0.573   9.258 -1.1855  0.7559  0.4883
 8562SOL    HW227128   2.355   0.717   9.215 -0.9181  0.9571  1.0300
 8563SOL     OW27129   6.976   3.684   8.155 -0.2248  0.1804  0.3947
 8563SOL    HW127130   6.973   3.602   8.203 -1.2074  0.3469  0.6274
 8563SOL    HW227131   7.025   3.743   8.212  0.5517 -0.2488  0.1918
 8564SOL     OW27132   0.746   0.439   4.048  0.0778 -0.1623  0.4437
 8564SOL    HW127133   0.691   0.428   4.125  1.8643 -1.1489  1.6739
 8564SOL    HW227134   0.829   0.471   4.082  0.3377  1.2022 -1.3226
 8565SOL     OW27135   6.952   1.847  12.374  0.3397 -0.1333  0.3491
 8565SOL    HW127136   7.032   1.883  12.336  0.1389  0.7703  0.7624
 8565SOL    HW227137   6.881   1.895  12.331  0.0669  0.0025  0.9438
 8566SOL     OW27138   1.852   4.681   3.336 -0.6216 -0.3507 -0.1214
 8566SOL    HW127139   1.904   4.626   3.395 -0.9083  0.3686  0.8413
 8566SOL    HW227140   1.845   4.631   3.256  1.5313 -0.4837 -0.2851
 8567SOL     OW27141   3.004   1.566   4.284 -0.4277  0.8204  0.2221
 8567SOL    HW127142   3.010   1.592   4.192 -1.2170  0.2393 -0.0043
 8567SOL    HW227143   2.910   1.560   4.300 -0.2848  0.4419  0.9312
 8568SOL     OW27144   5.310   2.343   7.364 -0.1960  0.6297  0.3878
 8568SOL    HW127145   5.222   2.317   7.338 -0.4663 -1.0931  2.6520
 8568SOL    HW227146   5.303   2.436   7.384 -1.4318  0.5994  0.1974
 8569SOL     OW27147   4.259   7.213   5.579  0.1065 -0.0754  0.1256
 8569SOL    HW127148   4.278   7.306   5.562 -0.1987  0.0974  0.6993
 8569SOL    HW227149   4.186   7.193   5.521  0.3036 -0.0128 -0.1469
 8570SOL     OW27150   6.934   7.307  11.843 -0.0638 -0.0277 -0.6369
 8570SOL    HW127151   6.932   7.376  11.777  0.2786  0.1911 -0.4243
 8570SOL    HW227152   6.876   7.239  11.809 -3.0245  1.6691  0.6148
 8571SOL     OW27153   5.106   1.556  12.348 -0.3895 -0.0266  0.0448
 8571SOL    HW127154   5.067   1.567  12.435 -1.2663  1.1030 -0.4760
 8571SOL    HW227155   5.052   1.608  12.290 -0.1849 -1.2445 -1.3101
 8572SOL     OW27156   1.367   7.049   4.895 -0.5720 -1.1835  0.0004
 8572SOL    HW127157   1.369   6.969   4.947 -1.3004 -1.3001 -0.1345
 8572SOL    HW227158   1.448   7.095   4.917 -0.6259 -1.4804  0.8358
 8573SOL     OW27159   7.448   2.782   1.618  0.0045  0.1576  0.1499
 8573SOL    HW127160   7.522   2.722   1.608 -0.4056 -0.4521  0.6809
 8573SOL    HW227161   7.450   2.807   1.710  0.5934  1.5316 -0.2199
 8574SOL     OW27162   2.968   1.920  10.639  0.4857 -0.1828 -0.5467
 8574SOL    HW127163   2.901   1.944  10.576  0.3815 -0.3600 -0.5033
 8574SOL    HW227164   2.963   1.989  10.706 -0.1247 -0.5751 -0.1868
 8575SOL     OW27165   1.409   1.198   5.996  0.1791 -0.3440  0.3744
 8575SOL    HW127166   1.440   1.197   5.905  1.2396 -0.8370  0.7275
 8575SOL    HW227167   1.322   1.158   5.992  0.7790 -1.6295 -0.2306
 8576SOL     OW27168   1.343   1.019   4.981  0.4055  0.1440 -0.1624
 8576SOL    HW127169   1.266   0.963   4.972 -0.6703  1.5567 -0.1011
 8576SOL    HW227170   1.372   1.034   4.891 -0.6928  1.2946 -0.3612
 8577SOL     OW27171   6.169   1.891   9.453  0.2566  0.8329  0.1024
 8577SOL    HW127172   6.262   1.906   9.437  0.6397 -0.0166  1.3700
 8577SOL    HW227173   6.149   1.946   9.529 -0.2869  1.0167 -0.1708
 8578SOL     OW27174   7.783   7.017  12.368 -0.3508  0.1511 -0.3178
 8578SOL    HW127175   7.724   6.947  12.343 -1.0659  0.6023  0.0724
 8578SOL    HW227176   7.866   6.973  12.390 -1.1840 -0.7163  1.2684
 8579SOL     OW27177   0.518   0.860  10.576 -0.4357  0.2004 -0.2364
 8579SOL    HW127178   0.575   0.931  10.607  0.3593 -0.5486  0.0696
 8579SOL    HW227179   0.435   0.875  10.622 -0.1022  0.6112  0.2471
 8580SOL     OW27180   7.289   7.277   4.170 -0.0002 -0.1964 -0.8287
 8580SOL    HW127181   7.298   7.207   4.106  0.9982 -0.4957 -0.3867
 8580SOL    HW227182   7.334   7.243   4.248 -0.9648  0.2631 -0.0619
 8581SOL     OW27183   1.815   4.910  11.050 -0.0850 -0.0886 -0.1480
 8581SOL    HW127184   1.887   4.942  10.996 -0.6801 -0.6747 -1.3143
 8581SOL    HW227185   1.774   4.990  11.085 -1.0779  0.4571 -2.4030
 8582SOL     OW27186   0.262   4.462  10.060  0.0004  0.1541 -0.4145
 8582SOL    HW127187   0.246   4.475   9.967  0.3569 -2.0660 -0.8374
 8582SOL    HW227188   0.257   4.368  10.073  0.1575  0.3850  1.7923
 8583SOL     OW27189   3.862   4.812   0.684  0.6334 -0.3610 -0.1138
 8583SOL    HW127190   3.814   4.875   0.631  0.4896 -0.1721  0.2364
 8583SOL    HW227191   3.900   4.864   0.755  0.9646 -0.5831 -0.1236
 8584SOL     OW27192   3.074   3.777   2.038  0.1566 -0.4255 -0.2604
 8584SOL    HW127193   3.166   3.755   2.020  0.3348  1.1184 -1.4048
 8584SOL    HW227194   3.051   3.840   1.970 -0.4985  2.4162  2.3845
 8585SOL     OW27195   0.717   2.466   0.177  0.2706 -0.1594  0.0048
 8585SOL    HW127196   0.639   2.429   0.220 -1.0652  0.9454 -1.3262
 8585SOL    HW227197   0.776   2.488   0.249  1.0292 -4.3621  0.9242
 8586SOL     OW27198   2.874   0.811   4.287 -0.1601  0.2467  0.6942
 8586SOL    HW127199   2.891   0.861   4.208 -2.9001 -0.3893 -0.4015
 8586SOL    HW227200   2.957   0.767   4.306  1.3243  2.4902 -0.2181
 8587SOL     OW27201   3.305   6.111   8.227  0.3161 -0.1079  0.0865
 8587SOL    HW127202   3.242   6.147   8.165  2.5365  1.0981 -1.6151
 8587SOL    HW227203   3.347   6.188   8.266  0.6847 -0.8838  1.2787
 8588SOL     OW27204   2.112   6.878   7.339  0.3934  0.4656 -0.0689
 8588SOL    HW127205   2.067   6.961   7.353 -0.4352  0.0349 -0.1605
 8588SOL    HW227206   2.067   6.838   7.265 -0.8166 -1.1847  1.4849
 8589SOL     OW27207   4.770   1.668   3.293 -0.0191 -0.1180  0.0915
 8589SOL    HW127208   4.725   1.751   3.311 -0.3008  0.0684 -1.3399
 8589SOL    HW227209   4.863   1.691   3.292 -0.1669  0.7456 -2.6239
 8590SOL     OW27210   2.712   5.677   1.775 -0.0470 -0.1129 -0.2568
 8590SOL    HW127211   2.783   5.698   1.836 -0.3768 -1.5156  0.6736
 8590SOL    HW227212   2.698   5.757   1.725 -0.0068  1.2281  1.7659
 8591SOL     OW27213   7.041   1.731   9.767 -0.5084  0.3050 -0.1239
 8591SOL    HW127214   7.013   1.814   9.806 -1.3276 -0.6242  1.3339
 8591SOL    HW227215   7.115   1.703   9.821 -0.7925 -0.3327 -0.0605
 8592SOL     OW27216   0.484   1.004   3.557 -0.3867 -0.3396 -0.0858
 8592SOL    HW127217   0.489   0.917   3.518 -2.6133 -0.4004 -0.3641
 8592SOL    HW227218   0.461   0.988   3.649 -3.8050 -0.1136 -0.7606
 8593SOL     OW27219   3.005   5.048   8.673 -0.8200  1.0137 -0.1190
 8593SOL    HW127220   2.955   4.979   8.631 -0.2243 -0.2681  1.1985
 8593SOL    HW227221   3.092   5.042   8.633 -0.3666  0.0530  0.9748
 8594SOL     OW27222   3.169   7.170   5.529  0.0526 -0.0821 -0.9260
 8594SOL    HW127223   3.259   7.195   5.507 -0.0454  1.3739  0.2039
 8594SOL    HW227224   3.116   7.245   5.504 -0.3492  0.6874  1.8688
 8595SOL     OW27225   3.833   0.964   8.207 -0.2627 -0.1044  0.1929
 8595SOL    HW127226   3.885   0.885   8.224  1.8385  1.3414  0.9994
 8595SOL    HW227227   3.899   1.034   8.201 -2.1204  1.7814  0.7884
 8596SOL     OW27228   7.715   2.128   7.508  0.5650  0.6272  0.2788
 8596SOL    HW127229   7.699   2.223   7.512  1.8983  0.9161 -0.5502
 8596SOL    HW227230   7.726   2.102   7.599  1.0889  1.4607  0.4725
 8597SOL     OW27231   2.572   0.278  11.249  0.4254  0.0658 -0.1287
 8597SOL    HW127232   2.581   0.185  11.228 -0.2517  0.0991 -0.5793
 8597SOL    HW227233   2.531   0.317  11.172 -0.3794  0.5239  0.5135
 8598SOL     OW27234   4.018   6.549   0.067  0.1765  0.1119 -0.6347
 8598SOL    HW127235   3.992   6.604   0.141 -0.6716 -0.1600 -0.7180
 8598SOL    HW227236   4.085   6.600   0.021 -0.0458  0.7369 -0.2691
 8599SOL     OW27237   1.244   1.851  11.234 -0.1821  0.3716  0.0094
 8599SOL    HW127238   1.300   1.875  11.307 -2.9827 -0.6010  2.7022
 8599SOL    HW227239   1.259   1.758  11.222  0.8124  0.6680 -1.2404
 8600SOL     OW27240   3.037   6.207   4.088  0.1618 -0.0225 -0.4415
 8600SOL    HW127241   3.116   6.252   4.118  0.6358 -0.0052 -1.6672
 8600SOL    HW227242   3.004   6.162   4.166  1.5463 -0.2709  0.0280
 8601SOL     OW27243   1.311   3.492   6.956 -0.2717  0.1427  0.2811
 8601SOL    HW127244   1.379   3.557   6.938  0.9022 -1.2247 -0.4701
 8601SOL    HW227245   1.301   3.493   7.051  0.8005  0.4056  0.4072
 8602SOL     OW27246   4.416   5.374   1.640 -0.4331 -0.3795  0.2486
 8602SOL    HW127247   4.321   5.369   1.651 -0.3491 -1.3951  0.6450
 8602SOL    HW227248   4.434   5.468   1.628 -1.5172 -0.2189 -0.2463
 8603SOL     OW27249   4.613   3.357  10.584 -0.0320 -0.0662  0.0048
 8603SOL    HW127250   4.600   3.330  10.493 -0.2010 -1.4628  0.4090
 8603SOL    HW227251   4.708   3.351  10.597 -0.1043 -0.9665  0.2134
 8604SOL     OW27252   2.247   2.119   0.883  0.1012 -0.7218  0.0816
 8604SOL    HW127253   2.189   2.143   0.954  0.0869 -3.3838  1.0583
 8604SOL    HW227254   2.191   2.075   0.819  0.4499 -0.0964 -0.6761
 8605SOL     OW27255   5.603   2.664  12.308  0.2187 -0.3546  0.4139
 8605SOL    HW127256   5.521   2.710  12.288 -0.1838 -1.6929 -1.2300
 8605SOL    HW227257   5.577   2.596  12.371  0.4559  0.4281  1.3782
 8606SOL     OW27258   6.301   7.150   1.912 -0.0680  0.2261 -0.0654
 8606SOL    HW127259   6.395   7.144   1.899 -0.3272 -1.1173 -1.5496
 8606SOL    HW227260   6.263   7.144   1.824 -1.4543  4.4805 -0.0206
 8607SOL     OW27261   6.462   0.958   2.985 -0.2029 -0.1937 -0.6581
 8607SOL    HW127262   6.435   0.984   3.073 -0.5447  0.9264 -1.0770
 8607SOL    HW227263   6.480   1.040   2.940  0.3786 -0.7704 -1.5138
 8608SOL     OW27264   5.670   5.446  12.013 -0.2087 -0.3658 -0.2800
 8608SOL    HW127265   5.708   5.523  11.971 -0.7182  0.3892  0.6100
 8608SOL    HW227266   5.676   5.464  12.107  1.3244 -2.2132  0.0347
 8609SOL     OW27267   2.346   6.169  11.167 -0.2209 -0.0991 -0.1691
 8609SOL    HW127268   2.406   6.242  11.179  1.1711 -1.0873 -0.7162
 8609SOL    HW227269   2.273   6.187  11.225 -1.5659  3.3709 -2.5976
 8610SOL     OW27270   4.071   7.835  11.019  0.5278 -0.0366  0.1674
 8610SOL    HW127271   4.000   7.772  11.014  1.0892 -0.6916  0.3424
 8610SOL    HW227272   4.138   7.801  10.959  0.5655  0.7518 -0.2629
 8611SOL     OW27273   2.172   5.456   6.611  0.1323  0.2743  0.3528
 8611SOL    HW127274   2.139   5.506   6.685 -2.0453 -0.8496  0.2110
 8611SOL    HW227275   2.184   5.520   6.541  2.9450  1.4800  1.8029
 8612SOL     OW27276   1.310   5.547   9.633 -0.1886 -0.2791  0.3015
 8612SOL    HW127277   1.229   5.587   9.665  0.0130  1.2218 -0.9848
 8612SOL    HW227278   1.281   5.472   9.581 -0.8649  1.0923 -1.3619
 8613SOL     OW27279   3.307   4.263   1.077 -0.5023 -0.2001 -0.5214
 8613SOL    HW127280   3.336   4.172   1.078  1.2654  0.2996 -1.4274
 8613SOL    HW227281   3.360   4.305   1.145 -1.5254  0.1068  0.1047
 8614SOL     OW27282   4.993   4.902   8.843 -0.0883 -0.1418 -0.1164
 8614SOL    HW127283   5.027   4.984   8.805  0.0661 -0.2351 -0.1798
 8614SOL    HW227284   4.915   4.883   8.791 -1.1793  0.9382  1.0636
 8615SOL     OW27285   4.121   5.547   2.023  0.0448  0.3715  0.0766
 8615SOL    HW127286   4.159   5.626   2.062  1.3369 -0.4816  0.6239
 8615SOL    HW227287   4.032   5.572   2.000  0.4803  2.0364  0.0688
 8616SOL     OW27288   4.040   4.838   8.578 -0.3205  0.5860 -0.1550
 8616SOL    HW127289   4.013   4.873   8.663 -0.7612  1.0795 -0.4960
 8616SOL    HW227290   4.076   4.913   8.531  0.0400  0.2870 -0.3649
 8617SOL     OW27291   0.740   2.140   2.318 -0.3271  0.3429 -0.3951
 8617SOL    HW127292   0.671   2.104   2.263 -0.7586 -0.1150  0.4274
 8617SOL    HW227293   0.811   2.160   2.257 -0.8841  0.0775 -1.1450
 8618SOL     OW27294   6.700   2.493   6.511  0.3070  0.3334 -0.3774
 8618SOL    HW127295   6.684   2.417   6.455 -1.0578  0.4919 -0.2308
 8618SOL    HW227296   6.678   2.568   6.457 -0.5762  0.5097  0.2106
 8619SOL     OW27297   6.312   7.649   1.631 -0.3215  0.1360 -0.5197
 8619SOL    HW127298   6.280   7.587   1.696 -2.2740 -0.1483 -1.6620
 8619SOL    HW227299   6.402   7.667   1.656 -0.9109 -0.1874  2.0543
 8620SOL     OW27300   5.411   4.361   9.721  0.6758  0.9335 -0.5405
 8620SOL    HW127301   5.320   4.333   9.735  0.8441  0.0841 -1.0539
 8620SOL    HW227302   5.455   4.343   9.804  0.6646  0.1042 -0.7037
 8621SOL     OW27303   5.842   3.399   7.852 -0.2725  0.3062  0.1269
 8621SOL    HW127304   5.759   3.416   7.808  0.4327 -0.3099 -1.4864
 8621SOL    HW227305   5.817   3.368   7.939 -1.8847 -2.6680 -1.2417
 8622SOL     OW27306   1.046   3.416  11.220  0.3024  0.7938  0.3658
 8622SOL    HW127307   1.090   3.369  11.291 -1.2184 -0.8964  0.2669
 8622SOL    HW227308   1.030   3.503  11.255 -1.7048 -0.4095  2.7333
 8623SOL     OW27309   3.191   2.518   9.149 -0.4481 -0.4369  0.3859
 8623SOL    HW127310   3.248   2.443   9.129  0.0329 -0.5530  2.0555
 8623SOL    HW227311   3.146   2.492   9.229 -1.9097  0.1966 -0.1980
 8624SOL     OW27312   5.389   2.456   3.086 -0.1131  0.5225  0.3978
 8624SOL    HW127313   5.338   2.533   3.111 -0.3201  0.8985 -1.0606
 8624SOL    HW227314   5.465   2.458   3.144 -1.5990  0.0752  2.4686
 8625SOL     OW27315   3.282   3.179   1.710  0.0751 -0.1651  0.0550
 8625SOL    HW127316   3.364   3.164   1.757 -0.2169 -0.6365  0.4228
 8625SOL    HW227317   3.306   3.238   1.639  0.2921  1.6049  1.5212
 8626SOL     OW27318   4.579   4.346   3.928 -0.1168 -0.1863 -0.3035
 8626SOL    HW127319   4.529   4.265   3.918 -1.1183  0.1481  1.4850
 8626SOL    HW227320   4.517   4.416   3.906  0.5762  0.1408 -1.2898
 8627SOL     OW27321   3.499   6.602  10.413  0.2290 -0.1475 -0.0396
 8627SOL    HW127322   3.461   6.685  10.385  0.9549  1.1198  2.4141
 8627SOL    HW227323   3.590   6.623  10.435  0.0857 -1.2460  1.8528
 8628SOL     OW27324   2.531   5.780   1.401 -0.5443  0.2653  0.1136
 8628SOL    HW127325   2.481   5.848   1.445 -1.5717 -1.4688  1.7451
 8628SOL    HW227326   2.496   5.777   1.313  0.4046  2.6647 -0.4284
 8629SOL     OW27327   1.009   6.956   9.825 -0.0641  0.0194  0.0420
 8629SOL    HW127328   1.016   6.894   9.897  1.2423 -1.3847 -1.2117
 8629SOL    HW227329   0.970   6.906   9.754 -1.2054  1.3341 -0.3137
 8630SOL     OW27330   2.558   2.247   9.096 -0.0333  0.1876  0.0466
 8630SOL    HW127331   2.644   2.215   9.069  0.5543  1.7947 -0.1240
 8630SOL    HW227332   2.535   2.312   9.029 -2.0001 -1.1408 -0.6433
 8631SOL     OW27333   0.740   1.170   4.680  0.3617  0.5540  0.6327
 8631SOL    HW127334   0.732   1.233   4.609 -1.3077 -1.4842 -1.1116
 8631SOL    HW227335   0.827   1.131   4.668 -0.7274 -1.4182 -1.9099
 8632SOL     OW27336   1.596   5.231  10.745 -0.1335  0.1378  0.0942
 8632SOL    HW127337   1.575   5.199  10.833  1.0347 -0.3026  0.2383
 8632SOL    HW227338   1.609   5.325  10.756 -1.4868  0.3390  0.0848
 8633SOL     OW27339   5.201   3.223   6.898  0.0619 -0.1473  0.0294
 8633SOL    HW127340   5.235   3.260   6.817  1.9052  2.2340  1.7384
 8633SOL    HW227341   5.256   3.147   6.915  1.0036  0.5251  0.0361
 8634SOL     OW27342   6.916   2.660   9.329  0.2199  0.7068 -0.2721
 8634SOL    HW127343   6.994   2.625   9.371  0.9517  1.5147 -0.9112
 8634SOL    HW227344   6.944   2.744   9.293 -1.2697  1.6046  0.5605
 8635SOL     OW27345   7.661   2.392   2.148  0.0188  0.0533 -0.3054
 8635SOL    HW127346   7.751   2.368   2.124 -0.2701 -0.3406 -1.0074
 8635SOL    HW227347   7.606   2.338   2.092 -0.6628  0.3199  0.0987
 8636SOL     OW27348   0.689   4.558   2.765 -0.0872  0.2207  0.4184
 8636SOL    HW127349   0.678   4.622   2.695  0.5729  0.1331  0.2309
 8636SOL    HW227350   0.603   4.556   2.809 -0.1724  1.0997  0.3185
 8637SOL     OW27351   7.603   6.208   9.768  0.2273 -0.1853  0.0039
 8637SOL    HW127352   7.571   6.257   9.844 -0.1629  2.6333 -1.8165
 8637SOL    HW227353   7.542   6.231   9.697  1.9391 -0.7743 -1.7421
 8638SOL     OW27354   6.456   2.260   1.746 -0.1683  0.2930  0.0726
 8638SOL    HW127355   6.527   2.267   1.682  1.2003 -0.9911  1.3799
 8638SOL    HW227356   6.488   2.198   1.811 -1.9863  0.6608  1.3974
 8639SOL     OW27357   0.645   2.664  12.202  0.0699 -0.4828  0.0880
 8639SOL    HW127358   0.701   2.704  12.268 -1.9798 -0.7310  2.1024
 8639SOL    HW227359   0.624   2.736  12.142  1.6745 -0.1547 -0.1077
 8640SOL     OW27360   7.618   5.859   0.366 -0.1183 -0.1775 -0.2311
 8640SOL    HW127361   7.594   5.838   0.456 -0.4662  2.2454  0.2986
 8640SOL    HW227362   7.536   5.883   0.324  0.3955  1.7222 -0.2628
 8641SOL     OW27363   4.453   6.810   1.728  0.2511 -0.7120 -0.2277
 8641SOL    HW127364   4.481   6.853   1.647 -0.3828  0.8453  0.3611
 8641SOL    HW227365   4.529   6.817   1.786 -0.7290  2.1812  0.8436
 8642SOL     OW27366   6.347   6.712  11.313 -0.0625 -0.2609 -0.6467
 8642SOL    HW127367   6.369   6.717  11.220 -0.1591 -0.1742 -0.6661
 8642SOL    HW227368   6.252   6.720  11.315 -0.1213 -0.9769 -0.5869
 8643SOL     OW27369   2.695   0.256   8.782  0.1947 -0.0309  0.5058
 8643SOL    HW127370   2.683   0.343   8.820  1.1680  0.2986  0.1066
 8643SOL    HW227371   2.790   0.243   8.782  0.4105  0.5733 -3.0192
 8644SOL     OW27372   1.787   7.871   7.308 -0.4607 -0.4983 -0.5115
 8644SOL    HW127373   1.761   7.802   7.370  1.0385 -1.4591 -0.9138
 8644SOL    HW227374   1.841   7.826   7.243  0.0698  0.9571 -1.1120
 8645SOL     OW27375   7.009   2.537   8.834  0.1502  0.3218 -0.0990
 8645SOL    HW127376   7.013   2.631   8.817 -0.2260  0.2386 -0.6619
 8645SOL    HW227377   6.986   2.498   8.750  1.9908 -0.4235 -0.2964
 8646SOL     OW27378   6.590   4.781   0.688 -0.1401  0.1413 -0.3245
 8646SOL    HW127379   6.636   4.769   0.605  0.0738 -0.6255 -0.1003
 8646SOL    HW227380   6.602   4.874   0.709  0.6858  0.1092 -0.6295
 8647SOL     OW27381   3.275   3.068   4.227  0.1063  0.1156  0.3611
 8647SOL    HW127382   3.355   3.029   4.191 -0.2300 -1.1569  0.9396
 8647SOL    HW227383   3.269   3.032   4.315 -1.1194  0.1894  0.3226
 8648SOL     OW27384   4.028   7.345  11.234  0.6574  1.0106 -0.2012
 8648SOL    HW127385   4.117   7.378  11.246  1.2273 -0.9885  1.7003
 8648SOL    HW227386   4.024   7.320  11.141  2.0317  1.2895 -0.3537
 8649SOL     OW27387   5.227   0.575   8.049  0.0619  0.1436 -0.0455
 8649SOL    HW127388   5.230   0.636   8.123  1.4986 -0.6033  0.5565
 8649SOL    HW227389   5.300   0.515   8.064  0.4737  0.0241 -2.1189
 8650SOL     OW27390   6.063   4.817  11.573 -0.6138 -0.7480 -0.0623
 8650SOL    HW127391   6.011   4.756  11.625 -1.3399  1.1569  1.5722
 8650SOL    HW227392   6.069   4.776  11.487 -0.9131 -3.1688  0.9774
 8651SOL     OW27393   4.272   2.896   1.522 -0.0646 -0.2280 -0.7176
 8651SOL    HW127394   4.350   2.946   1.496 -0.9892  0.2489 -2.8402
 8651SOL    HW227395   4.212   2.906   1.447 -1.7142 -1.5177  0.3720
 8652SOL     OW27396   7.364   3.147   1.568  0.3854  0.3029  0.3574
 8652SOL    HW127397   7.429   3.111   1.629 -0.6748 -1.1387  0.6938
 8652SOL    HW227398   7.290   3.170   1.624 -0.1768 -0.0014 -0.2505
 8653SOL     OW27399   1.474   0.779   1.959  0.3764 -1.1955  0.6121
 8653SOL    HW127400   1.565   0.774   1.930  0.8414  0.9884  1.5520
 8653SOL    HW227401   1.446   0.868   1.937 -1.7127 -1.9332 -0.0550
 8654SOL     OW27402   4.659   1.394   6.828  0.2432  0.5436 -0.7873
 8654SOL    HW127403   4.684   1.461   6.891  0.5969 -0.7512  0.5090
 8654SOL    HW227404   4.691   1.427   6.744 -0.2162  2.3001 -0.3060
 8655SOL     OW27405   3.310   7.228   4.894 -0.0818 -0.9739 -0.1466
 8655SOL    HW127406   3.282   7.315   4.923  0.1885 -0.9468  0.0446
 8655SOL    HW227407   3.318   7.178   4.975 -1.7760 -1.6553 -0.3713
 8656SOL     OW27408   1.570   3.424   7.019 -0.1295 -0.1327  0.0257
 8656SOL    HW127409   1.637   3.488   7.043 -0.6767  1.6206 -2.6376
 8656SOL    HW227410   1.500   3.438   7.083  0.7077  0.2987  0.8694
 8657SOL     OW27411   0.792   2.627   4.830 -0.0380  0.7063  0.2797
 8657SOL    HW127412   0.709   2.646   4.787  0.5691  0.2749 -1.1582
 8657SOL    HW227413   0.769   2.579   4.909 -1.2452  2.2479  0.9161
 8658SOL     OW27414   5.977   6.258   6.926  0.1439 -0.8596 -0.2248
 8658SOL    HW127415   6.032   6.276   7.002 -1.5565 -1.5875  1.2450
 8658SOL    HW227416   5.983   6.337   6.872  0.0492  0.3707  1.5095
 8659SOL     OW27417   0.227   0.301   8.785  0.3402 -0.6261  0.3157
 8659SOL    HW127418   0.143   0.258   8.767 -0.1688  1.1058 -1.9545
 8659SOL    HW227419   0.291   0.250   8.736  0.6825 -1.8829  1.9624
 8660SOL     OW27420   2.693   0.875   5.337 -0.4346  0.1543 -0.2251
 8660SOL    HW127421   2.758   0.853   5.271 -0.4152 -1.3669  0.2689
 8660SOL    HW227422   2.722   0.960   5.372 -0.7758  1.2856 -2.5231
 8661SOL     OW27423   5.388   5.558   4.140  0.0543 -0.4022  0.1845
 8661SOL    HW127424   5.439   5.568   4.060  0.5573 -1.7277  0.3115
 8661SOL    HW227425   5.300   5.589   4.117 -0.1095 -1.7945 -1.2285
 8662SOL     OW27426   5.260   5.519  11.263  0.3653  0.0500 -0.1057
 8662SOL    HW127427   5.232   5.608  11.240 -1.2404 -0.2469  0.5691
 8662SOL    HW227428   5.355   5.525  11.270  0.2195  1.9331  0.8273
 8663SOL     OW27429   0.962   4.532  10.484  0.0312 -0.2907 -0.7481
 8663SOL    HW127430   1.015   4.610  10.467  0.7219 -0.6151 -0.1271
 8663SOL    HW227431   0.979   4.475  10.409  0.9797 -0.6061 -0.3072
 8664SOL     OW27432   3.078   1.863   7.739 -0.0488 -0.6327 -0.2212
 8664SOL    HW127433   3.133   1.791   7.770  0.6932  0.0750  0.1481
 8664SOL    HW227434   3.008   1.821   7.690  1.5143 -1.5200 -1.8177
 8665SOL     OW27435   0.949   2.129   1.541  0.2407  0.0174 -0.1420
 8665SOL    HW127436   0.955   2.209   1.490 -2.3002 -1.0749 -2.3934
 8665SOL    HW227437   1.007   2.067   1.495 -3.2696 -1.4708 -3.1093
 8666SOL     OW27438   5.268   6.769   6.391  0.2744 -0.2268  0.0493
 8666SOL    HW127439   5.178   6.739   6.375 -0.0819  1.0350 -0.4365
 8666SOL    HW227440   5.294   6.724   6.472 -0.4984 -1.2177 -0.2367
 8667SOL     OW27441   4.378   0.501   3.398 -0.1183  0.4518  0.1690
 8667SOL    HW127442   4.431   0.581   3.396 -0.8248  0.9211  0.0030
 8667SOL    HW227443   4.293   0.530   3.431 -0.1835 -0.3573  0.7342
 8668SOL     OW27444   0.235   4.221   9.678 -0.1912  1.0114 -0.3157
 8668SOL    HW127445   0.165   4.160   9.702 -0.0314  1.0122  0.1644
 8668SOL    HW227446   0.260   4.196   9.590  0.5745 -0.2689  0.2518
 8669SOL     OW27447   3.682   2.448   0.993  0.0962  0.1094  0.2614
 8669SOL    HW127448   3.691   2.395   1.072  0.7394 -2.3185 -1.3639
 8669SOL    HW227449   3.648   2.388   0.927  0.8027  1.7325 -1.6730
 8670SOL     OW27450   2.244   4.446   5.952 -0.4183 -0.4323  0.3911
 8670SOL    HW127451   2.291   4.427   5.871  2.8889  1.3613  1.6666
 8670SOL    HW227452   2.161   4.485   5.924  0.2859 -0.5861 -2.1096
 8671SOL     OW27453   1.476   6.750   6.562  0.6860  0.0752 -0.2717
 8671SOL    HW127454   1.513   6.739   6.475  0.8569 -0.5225 -0.1252
 8671SOL    HW227455   1.382   6.759   6.547  0.6624 -0.4846 -0.4870
 8672SOL     OW27456   7.459   7.837   7.623  0.0345 -0.1762 -0.1067
 8672SOL    HW127457   7.386   7.852   7.563 -0.4568  0.2552  0.5704
 8672SOL    HW227458   7.505   7.921   7.625  1.9246 -1.0651 -2.2505
 8673SOL     OW27459   3.978   0.306  11.056  0.0369  0.1425  0.0445
 8673SOL    HW127460   3.928   0.283  10.978  2.5575  0.1739 -1.6840
 8673SOL    HW227461   4.009   0.222  11.091 -0.3806  0.1880  0.5408
 8674SOL     OW27462   6.432   2.456   8.130 -0.1859 -0.4470  0.5565
 8674SOL    HW127463   6.520   2.491   8.119  0.0119 -0.0581  2.9100
 8674SOL    HW227464   6.373   2.529   8.112  0.0585 -0.1461  0.9766
 8675SOL     OW27465   6.224   3.656   5.566 -0.1929 -0.0590 -0.9970
 8675SOL    HW127466   6.259   3.718   5.630 -1.1354  0.7531 -1.2488
 8675SOL    HW227467   6.179   3.710   5.502 -1.9102 -1.0356 -0.6979
 8676SOL     OW27468   6.367   5.170  10.483 -0.5974 -0.1411  0.3736
 8676SOL    HW127469   6.291   5.113  10.496 -1.7574  0.6710 -2.2696
 8676SOL    HW227470   6.364   5.230  10.558 -1.9206 -0.8103  0.8988
 8677SOL     OW27471   7.821   3.659   0.673 -0.6918 -0.4672  0.1237
 8677SOL    HW127472   7.835   3.683   0.765 -2.0650  0.8467  0.0387
 8677SOL    HW227473   7.816   3.564   0.673 -3.0975 -0.4376  1.8578
 8678SOL     OW27474   4.005   6.331   8.125  0.0111  0.4170 -0.0466
 8678SOL    HW127475   3.954   6.264   8.170 -1.5287  0.2190 -1.9571
 8678SOL    HW227476   4.025   6.396   8.193 -3.5966  0.9776  0.6831
 8679SOL     OW27477   5.081   7.337   8.546 -0.0162 -0.3261 -0.3219
 8679SOL    HW127478   5.036   7.394   8.608  1.9368  0.4753  0.4462
 8679SOL    HW227479   5.089   7.391   8.466  1.8540  0.5659  0.4123
 8680SOL     OW27480   2.409   0.663  12.376 -0.8722 -0.3439  0.0577
 8680SOL    HW127481   2.502   0.638  12.371 -1.0882 -0.9134 -1.3565
 8680SOL    HW227482   2.405   0.748  12.333 -0.9259 -0.0710  0.5977
 8681SOL     OW27483   7.472   0.450   0.371 -0.2451  0.3036 -0.0257
 8681SOL    HW127484   7.427   0.534   0.368 -1.6243 -0.3464  1.2560
 8681SOL    HW227485   7.403   0.384   0.370  0.7697 -0.8095 -0.2679
 8682SOL     OW27486   5.107   7.050   5.107 -0.1801  0.0218 -0.2926
 8682SOL    HW127487   5.034   6.991   5.123  0.8448 -1.1618  0.1999
 8682SOL    HW227488   5.163   7.040   5.184  0.7367  0.5188 -0.8803
 8683SOL     OW27489   3.761   0.312   4.407  0.8276 -0.3072  0.1596
 8683SOL    HW127490   3.792   0.368   4.336  0.2850  1.1492  1.0272
 8683SOL    HW227491   3.838   0.297   4.462  0.7962  0.3255  0.3852
 8684SOL     OW27492   0.435   3.534  11.459 -0.3865 -0.1002 -0.1126
 8684SOL    HW127493   0.500   3.602  11.480 -1.0525  1.1247 -1.8013
 8684SOL    HW227494   0.356   3.583  11.438 -1.8317 -1.5544  1.6238
 8685SOL     OW27495   0.694   1.475   6.645  0.4882  0.6528  0.3181
 8685SOL    HW127496   0.666   1.384   6.646 -0.9315  1.0583 -0.0284
 8685SOL    HW227497   0.786   1.473   6.670  0.1454 -0.7480  1.5671
 8686SOL     OW27498   7.497   5.670   9.759  0.3112 -0.2819 -0.4877
 8686SOL    HW127499   7.568   5.733   9.745 -1.4793  1.4135 -2.6706
 8686SOL    HW227500   7.541   5.593   9.795  3.1008  1.0328 -0.7756
 8687SOL     OW27501   5.369   2.581   0.901  0.1906 -0.1368 -0.2898
 8687SOL    HW127502   5.320   2.501   0.919 -1.3665  0.4366 -1.6978
 8687SOL    HW227503   5.323   2.649   0.949  0.3352  0.2273 -0.6591
 8688SOL     OW27504   6.365   1.069   0.603  0.0120 -0.1012  0.5158
 8688SOL    HW127505   6.341   1.009   0.674 -1.8445 -0.6012 -0.4883
 8688SOL    HW227506   6.304   1.049   0.532  1.4096  0.8058 -1.0339
 8689SOL     OW27507   2.432   1.802   0.961  0.1007 -0.0297 -0.4821
 8689SOL    HW127508   2.363   1.736   0.953  0.7196 -0.5891 -1.4838
 8689SOL    HW227509   2.507   1.754   0.995  0.6963  0.0250 -1.6574
 8690SOL     OW27510   1.496   4.559   5.348  0.6122  0.4263  0.6596
 8690SOL    HW127511   1.538   4.523   5.426  3.0493 -2.5788 -1.7674
 8690SOL    HW227512   1.553   4.632   5.322  1.0201  0.0914  0.5901
 8691SOL     OW27513   2.576   4.292   5.402  0.2871 -0.2258  0.3874
 8691SOL    HW127514   2.560   4.380   5.366  0.0968 -0.1103  0.7497
 8691SOL    HW227515   2.489   4.256   5.417  0.3405 -1.0107 -1.0207
 8692SOL     OW27516   5.010   4.661   8.595 -0.4307 -0.6172  0.4758
 8692SOL    HW127517   5.059   4.743   8.582 -0.9466 -0.3731  0.0346
 8692SOL    HW227518   5.078   4.594   8.601  0.1562  0.0753  3.1419
 8693SOL     OW27519   5.164   4.589   4.131  0.5788 -0.2773 -0.0907
 8693SOL    HW127520   5.137   4.610   4.041 -0.2719 -1.6853 -0.1926
 8693SOL    HW227521   5.258   4.571   4.124  0.6742  0.3410 -0.5475
 8694SOL     OW27522   3.534   5.189   7.697 -0.4437 -0.1681  0.2959
 8694SOL    HW127523   3.566   5.216   7.783  1.3752  0.8835 -0.6423
 8694SOL    HW227524   3.590   5.115   7.673  0.6171  0.9503 -0.8719
 8695SOL     OW27525   7.561   4.704   9.916 -0.1907 -0.1585  0.3039
 8695SOL    HW127526   7.473   4.741   9.928 -0.1155 -0.4731  2.3160
 8695SOL    HW227527   7.613   4.776   9.881 -0.6493  0.8991  1.6770
 8696SOL     OW27528   6.585   7.877   3.277  0.1703  0.3025  1.0026
 8696SOL    HW127529   6.663   7.823   3.289 -0.0008  0.0439  0.9665
 8696SOL    HW227530   6.593   7.946   3.343  1.3731  1.3973 -0.2224
 8697SOL     OW27531   2.058   2.517  10.604 -0.2023  0.8649  0.1159
 8697SOL    HW127532   2.099   2.433  10.586 -0.4664  0.4628  1.2900
 8697SOL    HW227533   1.964   2.499  10.602 -0.2881  1.3703 -0.6864
 8698SOL     OW27534   5.547   1.419   9.462  0.3093 -0.8008 -0.3098
 8698SOL    HW127535   5.516   1.502   9.425  0.2988  0.2125  1.8352
 8698SOL    HW227536   5.469   1.362   9.460 -0.0485 -0.3125 -0.5678
 8699SOL     OW27537   3.203   2.493  12.192  0.5001 -0.3851 -0.0829
 8699SOL    HW127538   3.146   2.557  12.235 -3.2113 -3.6733  0.4895
 8699SOL    HW227539   3.157   2.470  12.111  2.7378 -0.9421 -1.2924
 8700SOL     OW27540   0.274   0.271   3.865 -0.0606  0.0607 -0.0422
 8700SOL    HW127541   0.370   0.272   3.867 -0.0218  2.5438  2.4419
 8700SOL    HW227542   0.250   0.196   3.920  0.4803  0.0104  0.1358
 8701SOL     OW27543   5.981   7.415  10.133  0.4840 -0.7235  0.4160
 8701SOL    HW127544   6.047   7.455  10.189  0.5619 -1.1759  0.6556
 8701SOL    HW227545   5.938   7.350  10.190  0.8540 -1.4963 -0.1642
 8702SOL     OW27546   2.913   1.823   3.723 -0.1349 -0.4675  0.1097
 8702SOL    HW127547   2.944   1.770   3.796  0.9903 -2.3099 -1.5866
 8702SOL    HW227548   2.818   1.818   3.727 -0.0619 -1.6876  0.6829
 8703SOL     OW27549   3.973   3.340   8.896 -0.4806  0.5519  0.6881
 8703SOL    HW127550   3.891   3.299   8.869  0.4770 -0.1336 -1.3076
 8703SOL    HW227551   3.947   3.428   8.925 -2.3486 -0.7626  3.5138
 8704SOL     OW27552   2.180   7.331  12.092 -0.4990 -0.7867 -0.4027
 8704SOL    HW127553   2.225   7.250  12.068 -0.3844 -0.2450 -2.1065
 8704SOL    HW227554   2.087   7.310  12.084 -0.4730 -0.7749 -0.7194
 8705SOL     OW27555   7.422   1.311   1.111 -0.0231  0.8138 -0.1633
 8705SOL    HW127556   7.399   1.273   1.196 -0.1448 -0.3326 -0.6939
 8705SOL    HW227557   7.433   1.236   1.053 -2.2956  1.6256 -1.7766
 8706SOL     OW27558   4.022   6.916   6.122 -0.3428 -0.2115 -0.1792
 8706SOL    HW127559   3.987   7.005   6.124  0.4919  0.1808 -1.4874
 8706SOL    HW227560   4.069   6.910   6.039  2.6560 -0.6975  1.3833
 8707SOL     OW27561   3.546   4.288   1.450  0.0078  0.1711  0.1166
 8707SOL    HW127562   3.468   4.343   1.448  1.0148  1.6902  0.5795
 8707SOL    HW227563   3.605   4.332   1.512  1.4195 -0.6466 -0.5840
 8708SOL     OW27564   2.356   1.205   5.597  0.1872  0.2421 -0.0465
 8708SOL    HW127565   2.429   1.150   5.626  0.6506  1.2062  0.6645
 8708SOL    HW227566   2.397   1.287   5.571 -0.7922  1.6983  2.6104
 8709SOL     OW27567   4.322   2.738   1.734 -0.3571 -0.0385 -0.0502
 8709SOL    HW127568   4.304   2.784   1.652 -0.2991 -0.7619 -0.4800
 8709SOL    HW227569   4.272   2.657   1.727 -0.4660 -0.0415  0.6992
 8710SOL     OW27570   2.386   2.604   4.277  0.5267 -0.4438 -0.1084
 8710SOL    HW127571   2.302   2.645   4.259 -0.2887 -1.7705  0.4732
 8710SOL    HW227572   2.445   2.637   4.209 -0.7259 -0.2696 -1.1370
 8711SOL     OW27573   1.689   0.847  11.086 -0.4487  0.7368  0.2564
 8711SOL    HW127574   1.776   0.825  11.119 -0.7476 -1.6049 -0.3141
 8711SOL    HW227575   1.629   0.802  11.144 -1.1475  0.2858 -0.7748
 8712SOL     OW27576   1.721   1.299   7.185  0.6863  0.2349 -0.0644
 8712SOL    HW127577   1.759   1.213   7.200  1.1018  0.1864 -1.2778
 8712SOL    HW227578   1.627   1.285   7.194  0.8409  0.0216  1.3938
 8713SOL     OW27579   3.715   4.375   8.805  0.0095 -0.5962  0.2647
 8713SOL    HW127580   3.744   4.300   8.856 -0.4208  0.2009  1.7409
 8713SOL    HW227581   3.722   4.449   8.865 -0.3254  0.4208 -0.9052
 8714SOL     OW27582   0.169   5.014   0.062  0.1965  0.5535 -0.0556
 8714SOL    HW127583   0.185   4.988  -0.029 -1.4937 -2.0564  0.2684
 8714SOL    HW227584   0.104   4.951   0.093  1.3688  0.8116  3.2543
 8715SOL     OW27585   4.384   4.939   8.224 -0.5707  0.0479 -0.2149
 8715SOL    HW127586   4.335   4.988   8.158 -0.9446 -0.2614 -0.1675
 8715SOL    HW227587   4.475   4.948   8.197 -0.5570  1.3716  0.1849
 8716SOL     OW27588   0.755   1.369   3.477  0.0396 -0.1980  0.5222
 8716SOL    HW127589   0.752   1.389   3.384 -0.5309 -0.1545  0.5500
 8716SOL    HW227590   0.686   1.422   3.516 -1.1636 -1.8011  0.6652
 8717SOL     OW27591   3.789   1.372   7.915  0.3048  0.3870  0.5254
 8717SOL    HW127592   3.702   1.335   7.930  1.5547 -2.0024  2.6934
 8717SOL    HW227593   3.816   1.335   7.831 -0.3344  0.2793  0.3575
 8718SOL     OW27594   1.990   5.798   8.218  0.5027  0.5933 -0.1613
 8718SOL    HW127595   1.921   5.837   8.165  0.8147  1.2410 -0.1070
 8718SOL    HW227596   1.983   5.842   8.303  0.6119  0.2457  0.0309
 8719SOL     OW27597   2.798   6.308   7.795 -0.3800 -0.3744  0.1756
 8719SOL    HW127598   2.811   6.310   7.701 -0.4765 -3.1785  0.0230
 8719SOL    HW227599   2.707   6.335   7.808 -0.5540 -0.5803 -0.5896
 8720SOL     OW27600   3.688   5.803   9.207  0.8434 -0.1096 -0.0383
 8720SOL    HW127601   3.704   5.896   9.192  0.0926  0.2143  1.0264
 8720SOL    HW227602   3.625   5.801   9.279  1.6806 -1.4618  0.7091
 8721SOL     OW27603   3.216   2.355   1.992 -0.1306 -0.7304  0.6396
 8721SOL    HW127604   3.289   2.353   1.930  1.1483 -0.9284  2.0711
 8721SOL    HW227605   3.173   2.270   1.982  1.5869 -1.7887  1.6942
 8722SOL     OW27606   5.239   2.701   5.448  0.1311 -0.1891 -0.0719
 8722SOL    HW127607   5.257   2.622   5.397 -2.5787 -0.2376 -1.1569
 8722SOL    HW227608   5.204   2.668   5.531 -1.1303 -0.1829 -0.5780
 8723SOL     OW27609   1.382   0.766   5.678 -0.1489 -0.1471  0.4919
 8723SOL    HW127610   1.358   0.682   5.718  0.6572 -0.5680  0.1254
 8723SOL    HW227611   1.474   0.779   5.704 -1.0416  2.1316  3.1374
 8724SOL     OW27612   6.950   5.181   2.169  0.0116 -0.5396 -0.0757
 8724SOL    HW127613   6.893   5.210   2.240 -1.4588 -0.0565 -1.4067
 8724SOL    HW227614   6.899   5.114   2.123  0.5584 -0.1936 -1.2261
 8725SOL     OW27615   4.677   1.137   4.799  0.0955  0.5486 -0.8466
 8725SOL    HW127616   4.656   1.216   4.849  0.3360 -0.2379  0.5465
 8725SOL    HW227617   4.750   1.097   4.847  0.0746 -0.4520 -1.6154
 8726SOL     OW27618   1.574   7.307  10.747  0.3851 -0.0892 -0.4609
 8726SOL    HW127619   1.539   7.320  10.659  0.8629 -0.9962 -0.7954
 8726SOL    HW227620   1.663   7.274  10.733  0.5961  0.0867  0.3687
 8727SOL     OW27621   3.433   1.726   3.789  0.4194  0.2388 -0.0330
 8727SOL    HW127622   3.479   1.789   3.845 -0.1758 -0.5557  1.4147
 8727SOL    HW227623   3.378   1.676   3.850 -0.5557 -0.4119 -1.3983
 8728SOL     OW27624   2.332   4.641  10.645 -0.5150 -0.4111 -0.4591
 8728SOL    HW127625   2.329   4.576  10.715 -1.4284 -0.5774 -0.6301
 8728SOL    HW227626   2.412   4.621  10.597  0.2631 -0.1269  0.6801
 8729SOL     OW27627   7.043   5.470   2.229 -0.2612 -0.5718  0.2691
 8729SOL    HW127628   7.031   5.386   2.184  0.1070  0.4717 -1.9552
 8729SOL    HW227629   6.961   5.518   2.212  0.1682  0.1070  0.0789
 8730SOL     OW27630   5.809   2.876   2.054  0.0781  0.3827 -0.1262
 8730SOL    HW127631   5.873   2.847   1.988 -0.5971 -0.7506 -0.3127
 8730SOL    HW227632   5.862   2.916   2.123  0.8478  1.0004 -1.0568
 8731SOL     OW27633   2.169   3.190  10.507 -0.3004  0.3731 -0.7949
 8731SOL    HW127634   2.126   3.276  10.508  1.4050  1.2788  0.8935
 8731SOL    HW227635   2.096   3.128  10.501 -1.7458  1.8745  0.0792
 8732SOL     OW27636   7.789   6.443   2.788 -0.7293 -0.0814  0.3040
 8732SOL    HW127637   7.737   6.394   2.725 -0.2364  0.8207 -0.8368
 8732SOL    HW227638   7.860   6.482   2.736  0.7255 -0.7553  1.7106
 8733SOL     OW27639   3.977   7.618   8.591 -0.0765 -0.6612  0.0658
 8733SOL    HW127640   4.011   7.539   8.549  1.0968 -0.3866  0.4649
 8733SOL    HW227641   4.053   7.657   8.634 -0.7335  0.4484  0.2583
 8734SOL     OW27642   1.836   1.548   0.079 -0.6112 -0.2668 -0.3012
 8734SOL    HW127643   1.828   1.551  -0.016  2.2739  1.0548 -0.6035
 8734SOL    HW227644   1.863   1.458   0.098 -1.7248 -0.6879 -0.6424
 8735SOL     OW27645   6.345   5.665   9.984 -0.1199  0.3402 -0.4337
 8735SOL    HW127646   6.439   5.671   9.967 -0.3445  0.6812 -1.7022
 8735SOL    HW227647   6.337   5.680  10.078  1.1814 -0.8254 -0.1040
 8736SOL     OW27648   2.434   2.586   1.920 -0.3372 -0.3397 -0.1980
 8736SOL    HW127649   2.430   2.639   2.000  1.3807 -0.5054  0.0431
 8736SOL    HW227650   2.370   2.627   1.861  0.1898  1.3780  0.3475
 8737SOL     OW27651   2.124   4.380   0.528  0.5103  0.3232 -0.0101
 8737SOL    HW127652   2.077   4.304   0.495 -0.8670  0.7229  0.9017
 8737SOL    HW227653   2.128   4.367   0.623  0.7244  1.1268  0.1008
 8738SOL     OW27654   7.880   0.740   7.493 -0.2825 -0.4592 -0.1793
 8738SOL    HW127655   7.797   0.775   7.527 -0.0791 -0.7384  0.6252
 8738SOL    HW227656   7.866   0.734   7.399 -0.6450  0.9256 -0.2335
 8739SOL     OW27657   3.899   2.167   2.844 -0.2596 -0.4587 -0.0922
 8739SOL    HW127658   3.896   2.071   2.836 -0.6012 -0.5721  1.2487
 8739SOL    HW227659   3.927   2.183   2.934 -1.7933  0.6900  0.2235
 8740SOL     OW27660   4.626   4.164   3.326  0.4613 -0.2181  0.1619
 8740SOL    HW127661   4.583   4.243   3.293 -0.5434 -0.4832  0.7824
 8740SOL    HW227662   4.630   4.176   3.421  1.3044 -0.4379  0.1633
 8741SOL     OW27663   1.280   5.622   6.641 -0.2237  0.7365 -0.2193
 8741SOL    HW127664   1.297   5.591   6.553 -1.2532  0.4415 -0.3250
 8741SOL    HW227665   1.364   5.614   6.686  0.2964  0.8495 -1.1518
 8742SOL     OW27666   7.388   3.333   3.746  0.0310 -0.0704 -1.2552
 8742SOL    HW127667   7.296   3.350   3.766  0.1458  0.7968 -1.4128
 8742SOL    HW227668   7.387   3.261   3.684 -0.6114  0.7046 -2.1659
 8743SOL     OW27669   5.643   7.413   2.073 -0.6720 -0.4088  0.1447
 8743SOL    HW127670   5.575   7.461   2.027 -1.9638 -2.1443  0.1262
 8743SOL    HW227671   5.699   7.378   2.004  1.3247  2.3798  0.2042
 8744SOL     OW27672   1.700   1.463   4.866  0.7205 -0.2260  0.5955
 8744SOL    HW127673   1.656   1.391   4.821  1.7849 -0.9342  0.6545
 8744SOL    HW227674   1.665   1.542   4.824 -1.3444 -0.6930  1.3325
 8745SOL     OW27675   6.275   6.954   5.276 -0.6009 -0.3242 -0.7154
 8745SOL    HW127676   6.344   6.946   5.343 -0.8039 -0.7601 -0.5528
 8745SOL    HW227677   6.223   6.874   5.287 -1.2455  0.0983 -0.7141
 8746SOL     OW27678   3.048   3.552   2.829  0.2785 -0.0215  0.0090
 8746SOL    HW127679   3.113   3.529   2.763 -0.9295  0.1711 -1.2982
 8746SOL    HW227680   2.988   3.477   2.832  0.1761  0.0834  0.6933
 8747SOL     OW27681   5.614   7.129   4.993 -0.0535 -0.3393 -0.2138
 8747SOL    HW127682   5.533   7.083   5.014 -1.9516  2.0713 -1.6871
 8747SOL    HW227683   5.649   7.084   4.917 -0.6548 -0.6886 -0.2923
 8748SOL     OW27684   6.914   4.928   3.331 -0.2607  0.8437  0.1567
 8748SOL    HW127685   6.983   4.877   3.287 -1.1953 -0.4252  0.1344
 8748SOL    HW227686   6.840   4.868   3.338 -1.1113  1.9461  0.8920
 8749SOL     OW27687   7.024   1.141   0.484  0.0294  0.0172 -0.0016
 8749SOL    HW127688   7.095   1.136   0.419 -0.2633 -0.7350 -0.2800
 8749SOL    HW227689   6.984   1.054   0.481 -0.7567  0.3632  0.3180
 8750SOL     OW27690   2.357   2.980  12.160  0.1883 -0.6812  0.2507
 8750SOL    HW127691   2.404   2.927  12.096  0.0929 -0.7696  0.2532
 8750SOL    HW227692   2.425   3.010  12.221  0.1466 -1.3813  0.6584
 8751SOL     OW27693   4.204   3.712   1.654 -0.7579  0.4475 -0.0851
 8751SOL    HW127694   4.138   3.718   1.724 -1.2331  1.8963 -0.6128
 8751SOL    HW227695   4.170   3.643   1.596 -0.4728 -0.6109  0.9646
 8752SOL     OW27696   0.912   0.520   2.600  0.3880 -0.2605 -0.3893
 8752SOL    HW127697   1.004   0.496   2.595  0.2031 -1.0925  0.1160
 8752SOL    HW227698   0.869   0.467   2.533 -0.1427 -2.0261  1.2589
 8753SOL     OW27699   7.579   2.072   9.984  0.3440  0.1451  0.0783
 8753SOL    HW127700   7.512   2.005   9.977  0.8704 -0.3123 -0.7077
 8753SOL    HW227701   7.612   2.083   9.895  2.1063 -0.4743  0.6220
 8754SOL     OW27702   7.789   0.180   0.674 -0.0021 -0.1053  0.2152
 8754SOL    HW127703   7.878   0.158   0.646 -0.2144 -1.0254  0.2471
 8754SOL    HW227704   7.740   0.193   0.593  0.0147 -0.1941  0.1909
 8755SOL     OW27705   3.668   0.263   8.861  0.2826 -0.0140  0.3818
 8755SOL    HW127706   3.593   0.245   8.918  0.0479  0.2345  0.1535
 8755SOL    HW227707   3.737   0.205   8.894  0.1236  0.0621  0.8641
 8756SOL     OW27708   6.534   2.162   0.881  0.9051 -0.7329  0.5906
 8756SOL    HW127709   6.621   2.187   0.849  0.2585  0.4821 -0.2499
 8756SOL    HW227710   6.511   2.229   0.945  0.5604 -1.0265  0.7801
 8757SOL     OW27711   6.928   6.388   8.320 -0.3347  0.3563 -0.2751
 8757SOL    HW127712   6.864   6.327   8.283 -2.3181  0.6554  2.3896
 8757SOL    HW227713   6.945   6.451   8.250 -1.0819 -1.1089 -1.8406
 8758SOL     OW27714   7.307   6.775   8.959  0.4358  0.6420  0.4772
 8758SOL    HW127715   7.391   6.758   9.003  0.4497  0.8344  0.5261
 8758SOL    HW227716   7.318   6.862   8.921  0.8631 -0.0048 -0.9284
 8759SOL     OW27717   2.894   5.147   9.618  0.1506  0.2630  0.4977
 8759SOL    HW127718   2.970   5.100   9.652  0.4351 -0.0845 -0.5651
 8759SOL    HW227719   2.869   5.098   9.540 -2.1698 -0.5911  1.6708
 8760SOL     OW27720   7.510   2.159   7.102 -0.1721  0.0603 -0.5146
 8760SOL    HW127721   7.481   2.190   7.016 -0.0683 -0.6549 -0.8106
 8760SOL    HW227722   7.515   2.064   7.094 -2.3382 -0.2668  0.9355
 8761SOL     OW27723   0.349   6.921   5.259 -0.5738 -0.0490 -0.4811
 8761SOL    HW127724   0.440   6.941   5.237 -1.1135  0.3509 -2.6120
 8761SOL    HW227725   0.326   6.982   5.329  0.5646  0.3315 -0.4297
 8762SOL     OW27726   7.913   1.717   0.901 -0.0714  0.1569 -0.1136
 8762SOL    HW127727   7.898   1.635   0.949  2.7903 -0.5271 -0.2393
 8762SOL    HW227728   7.865   1.783   0.951 -1.7959 -1.4164  0.4547
 8763SOL     OW27729   4.871   6.638   0.432 -0.3082 -0.3606 -0.0063
 8763SOL    HW127730   4.938   6.601   0.374  0.8008  0.1034  0.9430
 8763SOL    HW227731   4.856   6.726   0.397  0.8428  0.1655  0.7549
 8764SOL     OW27732   4.543   1.134  11.745 -0.2483  0.2956  0.6588
 8764SOL    HW127733   4.552   1.215  11.796  3.0790 -0.3826  1.3835
 8764SOL    HW227734   4.547   1.064  11.811  2.0953 -0.5324 -0.2616
 8765SOL     OW27735   2.880   2.606  10.646 -0.4592 -0.2886  0.1562
 8765SOL    HW127736   2.841   2.644  10.567 -1.0343  1.4975  1.2332
 8765SOL    HW227737   2.972   2.630  10.642 -0.0955 -1.7712 -0.8352
 8766SOL     OW27738   5.792   7.783   5.967 -0.1922  0.5912  0.0566
 8766SOL    HW127739   5.847   7.814   5.895 -0.6354 -1.3020 -1.1738
 8766SOL    HW227740   5.839   7.708   6.002 -1.0948  0.0889  0.2144
 8767SOL     OW27741   2.276   1.722  12.042 -0.3364 -0.1242 -0.6433
 8767SOL    HW127742   2.224   1.775  11.982  1.5021  0.2017 -2.0470
 8767SOL    HW227743   2.280   1.635  12.001 -0.4724 -0.3764 -0.1291
 8768SOL     OW27744   5.757   3.843   0.382  0.6105 -0.1019 -0.0863
 8768SOL    HW127745   5.792   3.770   0.433 -1.7706 -1.1386  0.1945
 8768SOL    HW227746   5.710   3.896   0.447  1.4258  1.1338 -0.4755
 8769SOL     OW27747   4.136   5.467   9.392 -0.1917 -1.1088 -0.3509
 8769SOL    HW127748   4.193   5.505   9.325 -0.9225  0.4211 -0.1539
 8769SOL    HW227749   4.194   5.446   9.465  0.0579  1.5543  0.3359
 8770SOL     OW27750   2.830   5.036   8.938  0.0679 -0.1146 -0.7480
 8770SOL    HW127751   2.872   5.071   9.016 -0.9708  1.9892 -1.0654
 8770SOL    HW227752   2.900   4.991   8.891  0.7339 -1.3664  1.3001
 8771SOL     OW27753   7.115   3.857   8.311  0.5353 -0.5284  0.2912
 8771SOL    HW127754   7.127   3.952   8.310 -0.2352 -0.3998  1.2828
 8771SOL    HW227755   7.186   3.823   8.257 -0.7558  0.7564 -2.3950
 8772SOL     OW27756   1.193   5.776  10.158 -0.3196 -0.1729 -0.4091
 8772SOL    HW127757   1.114   5.791  10.105 -0.0274  1.2035 -0.4819
 8772SOL    HW227758   1.173   5.697  10.207 -0.7556 -1.3003 -2.2847
 8773SOL     OW27759   0.641   3.586  10.877 -0.2223 -0.2968 -0.1390
 8773SOL    HW127760   0.669   3.544  10.958  0.6132  0.3013 -0.1069
 8773SOL    HW227761   0.703   3.658  10.864  0.4795 -1.1810 -2.0034
 8774SOL     OW27762   2.090   2.384   8.557 -0.0016  0.5225 -0.2574
 8774SOL    HW127763   2.141   2.462   8.536 -0.6478  0.9586 -0.2516
 8774SOL    HW227764   2.003   2.402   8.521  0.5179 -1.3211 -2.6978
 8775SOL     OW27765   1.148   0.839   4.889  0.4344 -0.1755 -1.0604
 8775SOL    HW127766   1.119   0.823   4.800 -0.5817 -1.4761 -0.5276
 8775SOL    HW227767   1.197   0.760   4.914  1.7252  0.6555 -0.8431
 8776SOL     OW27768   3.958   7.729  12.112  0.1083  0.0476  0.0035
 8776SOL    HW127769   3.939   7.752  12.203  0.3327 -1.1703  0.3779
 8776SOL    HW227770   3.875   7.694  12.079  0.2756 -0.4074  0.0488
 8777SOL     OW27771   0.454   1.166   4.968 -0.2735 -0.1147 -0.1684
 8777SOL    HW127772   0.395   1.093   4.988 -0.3954  0.1187  0.3310
 8777SOL    HW227773   0.532   1.124   4.932  0.0752 -0.5802  1.0771
 8778SOL     OW27774   6.747   1.625   6.655  0.5013 -0.0887  0.5706
 8778SOL    HW127775   6.659   1.607   6.622  0.3316 -0.6147  1.2944
 8778SOL    HW227776   6.780   1.539   6.684  1.6764 -0.1056 -0.6716
 8779SOL     OW27777   6.194   5.728   3.721  0.2261 -0.4801 -0.3754
 8779SOL    HW127778   6.265   5.790   3.704 -1.0928  1.0926 -0.3742
 8779SOL    HW227779   6.131   5.743   3.650 -1.1297 -0.2413  0.8260
 8780SOL     OW27780   5.210   0.294   8.330  0.2203 -0.3451 -0.0427
 8780SOL    HW127781   5.256   0.312   8.248 -0.3082  0.5778 -0.1576
 8780SOL    HW227782   5.222   0.373   8.382 -0.5280 -0.4138  0.2515
 8781SOL     OW27783   5.333   7.241  10.265 -0.5779 -0.1237 -0.5436
 8781SOL    HW127784   5.239   7.248  10.250 -0.9242 -1.9570  0.4759
 8781SOL    HW227785   5.342   7.170  10.329  1.4708  0.3210 -0.2650
 8782SOL     OW27786   1.480   6.343   5.570 -0.1688 -0.8407  0.1536
 8782SOL    HW127787   1.393   6.334   5.611 -1.6103 -2.0786 -2.8476
 8782SOL    HW227788   1.509   6.253   5.558  0.5205 -0.4995 -0.8278
 8783SOL     OW27789   2.074   4.394   8.612  0.0479  0.2182  0.0257
 8783SOL    HW127790   2.115   4.375   8.528 -1.1008 -0.4116 -0.4158
 8783SOL    HW227791   2.122   4.470   8.645  0.5973  0.4068 -1.1384
 8784SOL     OW27792   1.723   2.634   4.326  0.0558  0.5537 -0.5868
 8784SOL    HW127793   1.740   2.561   4.267 -0.6100  0.1028 -0.2294
 8784SOL    HW227794   1.747   2.712   4.276 -1.7606  0.2859 -1.9796
 8785SOL     OW27795   6.416   2.115   9.145 -0.0881 -0.3815  0.4453
 8785SOL    HW127796   6.338   2.165   9.169  0.1697  0.2713 -0.0324
 8785SOL    HW227797   6.383   2.028   9.124 -0.9359  0.2769 -1.2230
 8786SOL     OW27798   1.403   2.897   0.764  0.3373  0.4849 -0.1585
 8786SOL    HW127799   1.392   2.902   0.859  1.8732  0.1517  0.0651
 8786SOL    HW227800   1.314   2.894   0.730 -0.3457  3.3772  1.0669
 8787SOL     OW27801   3.342   6.913  10.824 -0.2570  0.0040  0.4199
 8787SOL    HW127802   3.335   6.995  10.775 -0.9850 -0.0292  0.4584
 8787SOL    HW227803   3.253   6.878  10.826  0.1392 -1.1026 -0.1173
 8788SOL     OW27804   7.578   3.633   5.163 -0.0212  0.0498 -0.4006
 8788SOL    HW127805   7.656   3.643   5.108  0.2117  1.1905  0.0997
 8788SOL    HW227806   7.535   3.718   5.159 -0.1729  0.0558  0.9087
 8789SOL     OW27807   3.987   1.206   4.769 -0.6068 -0.1199  0.7774
 8789SOL    HW127808   3.962   1.274   4.707  0.8147 -1.1561 -1.0660
 8789SOL    HW227809   4.072   1.234   4.803 -0.1850 -0.7721  0.2822
 8790SOL     OW27810   3.380   0.236   8.613  0.1674 -0.3497  0.0277
 8790SOL    HW127811   3.324   0.213   8.686 -0.4807 -0.5192 -0.5120
 8790SOL    HW227812   3.376   0.332   8.609  0.6391 -0.3029  0.5409
 8791SOL     OW27813   6.488   0.619   2.162 -0.1115  0.3997  0.2098
 8791SOL    HW127814   6.422   0.568   2.209 -0.2450  0.6340  0.2788
 8791SOL    HW227815   6.446   0.703   2.145  0.9245  1.4334  2.3157
 8792SOL     OW27816   1.228   1.537   5.733 -0.0578 -0.0851  0.0658
 8792SOL    HW127817   1.321   1.528   5.753  0.2085  3.6151  1.0819
 8792SOL    HW227818   1.185   1.482   5.799  1.3344 -0.0203  1.0889
 8793SOL     OW27819   2.656   2.626   9.576  0.1238 -0.5009 -0.1552
 8793SOL    HW127820   2.581   2.681   9.557  0.9946 -0.2061 -3.2778
 8793SOL    HW227821   2.731   2.685   9.572  0.8258 -1.4006 -0.6519
 8794SOL     OW27822   4.742   3.235   6.619 -0.0448 -0.1271  0.2710
 8794SOL    HW127823   4.753   3.288   6.541  0.3322  0.5449  0.7675
 8794SOL    HW227824   4.758   3.145   6.590 -0.8031  0.0069 -0.5970
 8795SOL     OW27825   0.028   6.483   1.745  0.2778 -0.2822 -0.2557
 8795SOL    HW127826   0.025   6.412   1.682  2.5200 -1.9370  1.3129
 8795SOL    HW227827   0.058   6.441   1.827 -0.2399  2.1270  1.2701
 8796SOL     OW27828   5.753   3.274  11.526 -0.2606 -0.2837 -0.4376
 8796SOL    HW127829   5.808   3.252  11.451  0.0608  0.0726 -0.3149
 8796SOL    HW227830   5.728   3.190  11.563 -0.6990 -0.4625 -1.1373
 8797SOL     OW27831   0.826   1.221   2.620  0.3227 -0.6225 -0.5420
 8797SOL    HW127832   0.790   1.227   2.709 -0.1866  0.7455 -0.8125
 8797SOL    HW227833   0.755   1.253   2.564  1.3749  0.5872 -1.2404
 8798SOL     OW27834   6.957   1.222   6.304 -0.0441  0.0962 -0.0587
 8798SOL    HW127835   6.871   1.263   6.315 -0.7637 -0.7858 -1.9663
 8798SOL    HW227836   7.018   1.296   6.298 -0.9903  0.8361 -0.9559
 8799SOL     OW27837   2.798   2.662   3.909  0.1998 -0.2110 -0.3210
 8799SOL    HW127838   2.793   2.748   3.867 -0.6027 -1.3210 -2.6525
 8799SOL    HW227839   2.762   2.602   3.845  1.0625 -2.3703  1.1117
 8800SOL     OW27840   6.769   3.655   3.437 -0.7116  0.0950  0.2918
 8800SOL    HW127841   6.731   3.650   3.525 -0.7536 -1.2255  0.2140
 8800SOL    HW227842   6.693   3.666   3.379 -0.6658  1.2363  0.4187
 8801SOL     OW27843   6.765   6.213  12.145  0.4441  0.8979  0.0956
 8801SOL    HW127844   6.795   6.201  12.055 -0.7257 -2.4058  0.0156
 8801SOL    HW227845   6.843   6.243  12.193  1.3862  1.5395 -1.7509
 8802SOL     OW27846   4.635   1.964   0.486  0.1835  0.1620  0.1130
 8802SOL    HW127847   4.657   1.888   0.432 -0.7924  1.1598 -1.7750
 8802SOL    HW227848   4.540   1.956   0.499  0.2966  0.3266  1.0962
 8803SOL     OW27849   4.652   1.920   2.643 -0.1928 -0.0470  0.6666
 8803SOL    HW127850   4.680   1.875   2.722 -0.1168 -0.5057  0.3811
 8803SOL    HW227851   4.616   2.003   2.674 -1.5202 -0.8331  1.3102
 8804SOL     OW27852   2.500   6.915   2.855  0.1609 -0.5164 -0.2329
 8804SOL    HW127853   2.482   7.007   2.837  0.8758 -0.2840  0.2270
 8804SOL    HW227854   2.560   6.889   2.785 -0.6183 -0.8506 -0.8029
 8805SOL     OW27855   0.555   4.269   5.860 -0.0519  0.4082  0.2791
 8805SOL    HW127856   0.562   4.317   5.777 -1.2130  2.6222  1.3654
 8805SOL    HW227857   0.640   4.282   5.902 -0.4100  1.7163  0.6332
 8806SOL     OW27858   5.399   1.130   3.226  0.3400 -0.2252  0.5385
 8806SOL    HW127859   5.433   1.050   3.267 -0.2025 -0.8548 -0.2046
 8806SOL    HW227860   5.441   1.201   3.274 -0.1089 -0.9324  2.0352
 8807SOL     OW27861   1.736   3.571  11.973 -0.1134  0.4516 -0.0079
 8807SOL    HW127862   1.702   3.653  11.939 -1.4416  0.7424  1.8685
 8807SOL    HW227863   1.661   3.531  12.018  0.8188 -1.2106  0.1484
 8808SOL     OW27864   1.556   6.098   6.447 -0.2456  0.0291  0.0217
 8808SOL    HW127865   1.467   6.108   6.483 -0.3427 -2.2251  0.5751
 8808SOL    HW227866   1.543   6.093   6.353 -0.8323 -1.0207  0.1389
 8809SOL     OW27867   2.867   6.502   3.026 -0.4797 -0.0610 -0.0612
 8809SOL    HW127868   2.886   6.468   2.939  0.8364 -0.8762  0.5073
 8809SOL    HW227869   2.787   6.553   3.015 -1.4176 -1.7180 -1.3572
 8810SOL     OW27870   4.852   2.259   3.185 -0.0988 -0.3458  0.4096
 8810SOL    HW127871   4.933   2.301   3.157  0.1383 -1.6213 -0.9159
 8810SOL    HW227872   4.785   2.290   3.125 -0.8110  1.2607  1.9284
 8811SOL     OW27873   2.617   2.568   3.289 -0.0142 -0.0820 -0.0423
 8811SOL    HW127874   2.551   2.543   3.224 -0.3151  0.5059  0.0257
 8811SOL    HW227875   2.640   2.486   3.333 -1.5405 -0.1422  0.7138
 8812SOL     OW27876   5.124   0.128   4.780  0.0853 -0.1504 -0.7590
 8812SOL    HW127877   5.061   0.131   4.708 -1.9185 -0.6791  0.8859
 8812SOL    HW227878   5.075   0.090   4.853  2.4182 -0.8587  0.5277
 8813SOL     OW27879   4.343   0.688  10.002  0.1352 -0.3291 -0.5115
 8813SOL    HW127880   4.371   0.623  10.067  1.3215 -0.0835 -0.7459
 8813SOL    HW227881   4.294   0.753  10.052  3.3665  1.3507  0.7592
 8814SOL     OW27882   7.722   4.764   0.905 -0.5910 -0.0630  0.1715
 8814SOL    HW127883   7.664   4.830   0.867 -0.1928  0.0604 -0.2223
 8814SOL    HW227884   7.705   4.685   0.853  0.2993  0.2311 -0.5900
 8815SOL     OW27885   1.089   6.158  11.227 -0.5674  0.0062 -0.2812
 8815SOL    HW127886   1.000   6.160  11.191 -0.3282  0.9405 -0.8436
 8815SOL    HW227887   1.091   6.230  11.290 -0.3131 -0.2442  0.0017
 8816SOL     OW27888   4.229   3.603  11.651  0.4231  0.4150 -0.3081
 8816SOL    HW127889   4.142   3.624  11.618 -0.6415 -0.7193  1.5612
 8816SOL    HW227890   4.255   3.679  11.703  0.1577  0.4217 -0.1856
 8817SOL     OW27891   0.466   7.880  11.780 -0.2092 -0.1803 -0.5709
 8817SOL    HW127892   0.421   7.884  11.865  2.8433 -1.9796  1.3419
 8817SOL    HW227893   0.396   7.872  11.716 -2.7381  2.5937  1.5641
 8818SOL     OW27894   7.901   2.794  12.068 -0.6648 -0.3187  0.1556
 8818SOL    HW127895   7.908   2.740  11.990  0.2083 -0.8997  0.6117
 8818SOL    HW227896   7.818   2.769  12.108 -0.2243 -1.4187  0.4112
 8819SOL     OW27897   3.558   2.373  11.031  0.4595  0.2067  0.7585
 8819SOL    HW127898   3.563   2.454  11.081 -1.0643  1.6549 -1.2981
 8819SOL    HW227899   3.561   2.400  10.939  1.0160 -2.1666 -0.0031
 8820SOL     OW27900   7.796   3.557   5.745 -0.6798  0.0441  0.4291
 8820SOL    HW127901   7.754   3.476   5.775  1.8988 -1.2490  0.8537
 8820SOL    HW227902   7.753   3.576   5.662 -0.1453 -2.9284 -0.6756
 8821SOL     OW27903   0.936   0.390   4.861 -0.5101  0.2066  0.0422
 8821SOL    HW127904   0.849   0.407   4.897 -0.4236 -0.7458  0.7350
 8821SOL    HW227905   0.996   0.403   4.935  0.2453  3.3138 -0.9850
 8822SOL     OW27906   0.488   2.564   0.711  0.0028  0.6992  0.0610
 8822SOL    HW127907   0.429   2.632   0.679  1.7180  0.6459 -3.8691
 8822SOL    HW227908   0.565   2.612   0.742 -0.2751  0.6397  0.8511
 8823SOL     OW27909   6.219   3.006   7.378 -0.0834  0.0086  0.2241
 8823SOL    HW127910   6.277   2.931   7.377  1.0295  0.7686  2.2448
 8823SOL    HW227911   6.220   3.037   7.468  0.5812  3.2307 -0.7301
 8824SOL     OW27912   1.892   0.541  11.168  0.3525 -0.0367 -0.5330
 8824SOL    HW127913   1.810   0.539  11.218  0.3052 -0.8847 -0.6310
 8824SOL    HW227914   1.900   0.632  11.138  0.4238  0.5299  1.0809
 8825SOL     OW27915   0.775   7.809   5.405 -1.1253  0.1034 -0.4745
 8825SOL    HW127916   0.796   7.899   5.429 -2.3001  0.6221 -1.2796
 8825SOL    HW227917   0.859   7.768   5.387 -0.4031  0.4374  1.8345
 8826SOL     OW27918   4.990   6.849   3.593 -0.2544  0.4995 -0.0075
 8826SOL    HW127919   5.039   6.931   3.583  0.9726 -0.1475  0.3969
 8826SOL    HW227920   5.029   6.809   3.671 -1.9216  0.2619  0.7361
 8827SOL     OW27921   0.430   3.924   9.015  0.0507 -0.1423  0.1447
 8827SOL    HW127922   0.482   3.881   9.082  0.8898  0.3600 -0.1727
 8827SOL    HW227923   0.351   3.954   9.061 -0.1789 -1.2973  0.5340
 8828SOL     OW27924   5.967   4.888   5.103  0.3761 -0.2912  0.1827
 8828SOL    HW127925   5.909   4.960   5.126 -0.8085 -1.3831  0.7884
 8828SOL    HW227926   5.987   4.846   5.187  0.6719 -0.9332 -0.1996
 8829SOL     OW27927   7.169   7.641   4.383  0.3808 -0.3662  0.2242
 8829SOL    HW127928   7.080   7.662   4.409  0.7907  1.0703  0.5417
 8829SOL    HW227929   7.224   7.691   4.442  1.3938 -0.7547 -0.3645
 8830SOL     OW27930   5.955   5.950   3.758  0.2952  0.3403 -1.0065
 8830SOL    HW127931   5.971   5.902   3.677 -1.0959  0.5158 -1.4120
 8830SOL    HW227932   6.020   6.020   3.758  0.8818 -0.1988 -1.5246
 8831SOL     OW27933   4.584   4.071   0.197 -0.0219  0.2612 -0.0045
 8831SOL    HW127934   4.562   4.122   0.119  0.6221  0.8652  0.1970
 8831SOL    HW227935   4.500   4.035   0.226 -0.6718  1.9599  0.3693
 8832SOL     OW27936   1.052   4.044   7.396 -0.8109  0.1836 -0.8123
 8832SOL    HW127937   1.144   4.064   7.411 -0.6582 -1.1632  0.2447
 8832SOL    HW227938   1.051   3.949   7.380 -1.9971  0.2041 -0.9385
 8833SOL     OW27939   6.480   3.649   2.364 -0.1269 -0.2275  0.3621
 8833SOL    HW127940   6.513   3.681   2.280  0.5420 -2.3093 -0.2246
 8833SOL    HW227941   6.402   3.600   2.342 -0.4477 -0.0486  1.0807
 8834SOL     OW27942   3.448   5.212   8.682 -0.3753 -0.1078 -0.1877
 8834SOL    HW127943   3.492   5.218   8.767 -0.6380  0.5809 -0.0931
 8834SOL    HW227944   3.441   5.118   8.665  1.0580 -0.2432 -0.1712
 8835SOL     OW27945   0.852   7.554  10.331 -0.2720  0.1676 -0.1540
 8835SOL    HW127946   0.941   7.557  10.294 -0.7451 -0.0390 -1.3427
 8835SOL    HW227947   0.834   7.461  10.341 -1.1882  0.0934 -2.0576
 8836SOL     OW27948   3.090   6.981  10.477  0.5209  0.2165 -0.3500
 8836SOL    HW127949   3.054   6.915  10.536 -0.9372  1.5777  0.3594
 8836SOL    HW227950   3.050   6.963  10.393  0.5213 -0.1048 -0.2823
 8837SOL     OW27951   4.158   7.155   7.741  0.1074  0.0171 -0.3682
 8837SOL    HW127952   4.087   7.208   7.703 -0.1329 -0.3322 -0.4189
 8837SOL    HW227953   4.195   7.210   7.809  0.9780  0.9281 -1.5266
 8838SOL     OW27954   4.895   1.489   2.687  0.0221  0.4790 -0.3199
 8838SOL    HW127955   4.913   1.435   2.610 -1.0923  1.0072 -0.9834
 8838SOL    HW227956   4.933   1.575   2.667 -0.9918  0.8652 -0.6649
 8839SOL     OW27957   6.712   5.354   2.819 -0.6433  0.0719  0.2632
 8839SOL    HW127958   6.668   5.280   2.777 -0.7675  0.4951 -0.3701
 8839SOL    HW227959   6.664   5.366   2.901 -1.2290  0.0389 -0.0625
 8840SOL     OW27960   2.187   1.548   3.306 -0.3865 -0.2998  0.1041
 8840SOL    HW127961   2.196   1.642   3.324 -2.2028 -0.1451  0.3531
 8840SOL    HW227962   2.241   1.534   3.228 -1.5815  1.3551 -1.0867
 8841SOL     OW27963   0.716   0.849   2.887 -0.0465  0.7158 -0.5440
 8841SOL    HW127964   0.802   0.808   2.886 -0.2204  0.3166  0.1779
 8841SOL    HW227965   0.669   0.808   2.814 -0.2738 -0.5147  0.2667
 8842SOL     OW27966   0.099   1.777   6.839  0.7968 -0.0157  0.2938
 8842SOL    HW127967   0.185   1.736   6.834  0.6694 -0.3482  0.7300
 8842SOL    HW227968   0.110   1.848   6.902  0.6321 -0.3756  0.7335
 8843SOL     OW27969   2.070   1.970  11.696  0.6168 -0.8299 -0.2709
 8843SOL    HW127970   2.047   2.058  11.726  0.3904 -0.8629 -0.3450
 8843SOL    HW227971   2.165   1.968  11.700  0.6388 -0.4874 -0.5343
 8844SOL     OW27972   3.236   3.296   4.455 -0.4547 -0.1324 -0.1265
 8844SOL    HW127973   3.174   3.335   4.393 -0.4329 -2.6065 -1.8565
 8844SOL    HW227974   3.192   3.301   4.539 -3.1417 -1.8817 -1.2899
 8845SOL     OW27975   5.484   1.732   4.106  0.4094 -0.1195  0.0938
 8845SOL    HW127976   5.508   1.729   4.013 -0.1177 -0.3451 -0.0430
 8845SOL    HW227977   5.503   1.822   4.133  0.7880 -0.1183 -0.1710
 8846SOL     OW27978   2.450   5.197   4.789 -0.6211  0.1639 -0.6540
 8846SOL    HW127979   2.439   5.226   4.699  3.3303  1.7375 -0.8232
 8846SOL    HW227980   2.410   5.266   4.842  2.5501  2.6649 -1.2272
 8847SOL     OW27981   0.178   1.557   1.402  0.3045 -0.3569 -0.3852
 8847SOL    HW127982   0.101   1.526   1.450  1.2737  0.5142  1.8734
 8847SOL    HW227983   0.225   1.477   1.377 -0.7048 -0.8517 -0.7700
 8848SOL     OW27984   2.571   4.549   3.660 -0.1294 -0.3198 -0.0888
 8848SOL    HW127985   2.522   4.565   3.741  2.9662  1.6813  1.5837
 8848SOL    HW227986   2.647   4.498   3.688  2.0382  2.0569 -1.2711
 8849SOL     OW27987   3.550   4.410   5.332  0.0668 -0.8934  0.1909
 8849SOL    HW127988   3.525   4.470   5.402 -0.2980 -0.9984  0.1537
 8849SOL    HW227989   3.634   4.443   5.301 -0.6545  0.2742 -0.5898
 8850SOL     OW27990   6.820   5.181   3.455  0.3337  0.2094 -0.1650
 8850SOL    HW127991   6.845   5.244   3.388  1.4096 -1.0114 -0.9529
 8850SOL    HW227992   6.850   5.097   3.422 -1.8843 -0.9015  0.4091
 8851SOL     OW27993   2.623   7.615   1.209 -0.0388  0.5547 -0.2817
 8851SOL    HW127994   2.643   7.705   1.235  0.7908  0.2236  0.2904
 8851SOL    HW227995   2.670   7.602   1.127  0.2711  0.4881 -0.0968
 8852SOL     OW27996   5.779   0.762   4.795 -0.0263  0.4210 -0.3148
 8852SOL    HW127997   5.846   0.798   4.853  0.6779 -0.5701 -0.4832
 8852SOL    HW227998   5.697   0.771   4.844  0.4207  0.4458  0.4419
 8853SOL     OW27999   0.659   0.163   5.222  0.4444  0.0829 -0.4672
 8853SOL    HW128000   0.596   0.097   5.249 -0.7060  1.2592 -0.1386
 8853SOL    HW228001   0.721   0.169   5.295 -1.1990  1.4659  0.9155
 8854SOL     OW28002   1.360   2.897   4.798  0.0419 -0.8766  0.1237
 8854SOL    HW128003   1.373   2.947   4.718  0.1550 -1.3194 -0.1360
 8854SOL    HW228004   1.445   2.897   4.842 -0.2734  0.2709  0.7802
 8855SOL     OW28005   3.574   2.208   6.341  0.2970  0.3715 -0.2642
 8855SOL    HW128006   3.575   2.248   6.428  2.1167 -0.9617  0.3813
 8855SOL    HW228007   3.574   2.282   6.281 -2.0578  1.3493  0.7972
 8856SOL     OW28008   1.731   4.407   6.057 -0.0264  0.2250 -0.1357
 8856SOL    HW128009   1.746   4.355   5.978  0.3698  1.2709 -0.7706
 8856SOL    HW228010   1.750   4.348   6.129 -1.0778 -0.9702 -0.7949
 8857SOL     OW28011   5.978   0.622  10.209 -0.4312 -0.0051  0.2159
 8857SOL    HW128012   5.891   0.657  10.230 -0.0037  0.9417  0.4286
 8857SOL    HW228013   6.003   0.666  10.128 -0.0381 -0.0923  0.2882
 8858SOL     OW28014   5.572   6.450   8.907  0.1455 -0.6133  0.1727
 8858SOL    HW128015   5.634   6.500   8.853 -0.3940  0.9817  0.9489
 8858SOL    HW228016   5.498   6.509   8.919 -1.3796 -2.3371 -0.3994
 8859SOL     OW28017   4.468   5.354   1.972  0.2590  0.6596 -0.0009
 8859SOL    HW128018   4.492   5.446   1.984  0.0526  0.7784 -0.4441
 8859SOL    HW228019   4.458   5.345   1.877 -0.6162  0.4137  0.1051
 8860SOL     OW28020   7.066   1.383  10.306 -0.0424  0.4242 -0.3933
 8860SOL    HW128021   7.139   1.386  10.367  0.1570  0.1072 -0.6128
 8860SOL    HW228022   7.077   1.300  10.260 -1.5639 -0.5319  0.8483
 8861SOL     OW28023   0.677   1.066   0.006  0.1660  0.0698 -0.2663
 8861SOL    HW128024   0.600   1.027   0.047  1.2216 -0.8311  0.9379
 8861SOL    HW228025   0.718   1.117   0.076  1.4724 -0.6964 -0.4488
 8862SOL     OW28026   3.784   1.576   8.607 -0.9770  0.1625 -0.4420
 8862SOL    HW128027   3.879   1.581   8.598 -1.0803  2.2922 -0.8848
 8862SOL    HW228028   3.765   1.616   8.692 -1.4668 -0.6881 -0.1347
 8863SOL     OW28029   3.398   0.837   6.386 -0.2753  0.4738 -0.2127
 8863SOL    HW128030   3.484   0.879   6.381 -0.4757  1.5075  2.8362
 8863SOL    HW228031   3.408   0.754   6.339  2.8364 -0.1171  1.2993
 8864SOL     OW28032   3.169   0.924  10.617 -0.5988 -0.0880 -0.1410
 8864SOL    HW128033   3.222   0.976  10.556 -0.5845 -0.6019 -0.5781
 8864SOL    HW228034   3.099   0.983  10.645  0.9707  1.0418  1.5269
 8865SOL     OW28035   5.274   1.655   3.730 -0.5218 -0.3068 -0.2838
 8865SOL    HW128036   5.212   1.693   3.792 -1.3413 -0.2651 -1.1207
 8865SOL    HW228037   5.290   1.567   3.764  0.8024  0.4633  1.2413
 8866SOL     OW28038   1.636   3.443   3.453 -0.0245  0.2391  0.2563
 8866SOL    HW128039   1.625   3.474   3.363 -2.0151 -0.7093  0.1183
 8866SOL    HW228040   1.633   3.522   3.506  2.9405  1.0315 -0.5286
 8867SOL     OW28041   0.813   2.267   1.187 -0.1606 -0.2573 -0.2049
 8867SOL    HW128042   0.821   2.344   1.130  0.6686 -2.0183 -2.6105
 8867SOL    HW228043   0.894   2.218   1.173  0.7597 -0.1266  3.6674
 8868SOL     OW28044   5.940   4.132   8.867  0.4657  0.1274 -0.1079
 8868SOL    HW128045   6.021   4.107   8.912 -0.2487 -0.6068  0.8150
 8868SOL    HW228046   5.908   4.051   8.827 -0.6990  0.0019  1.0096
 8869SOL     OW28047   6.828   3.716   7.880  0.3656 -0.2260  0.2158
 8869SOL    HW128048   6.919   3.737   7.858  0.1664 -0.6435 -1.0813
 8869SOL    HW228049   6.810   3.633   7.835  0.1870 -1.6809  2.7316
 8870SOL     OW28050   6.129   5.811   1.760  0.3078 -0.7056 -0.1247
 8870SOL    HW128051   6.085   5.892   1.737 -2.6004 -1.4618  2.1620
 8870SOL    HW228052   6.093   5.746   1.700 -1.7122 -1.2828  1.6073
 8871SOL     OW28053   6.055   0.011   8.533 -0.9441 -0.0918 -0.0491
 8871SOL    HW128054   5.991   0.007   8.604 -0.6672  0.8550  0.2656
 8871SOL    HW228055   6.115   0.081   8.559  0.2472 -0.9799 -0.3152
 8872SOL     OW28056   7.612   0.465   5.605  0.0675  0.1576 -0.5096
 8872SOL    HW128057   7.629   0.502   5.518  0.6012  0.4084 -0.3072
 8872SOL    HW228058   7.572   0.536   5.654  0.1914  0.1633 -0.4154
 8873SOL     OW28059   3.205   2.064   2.719  0.1340  0.1712 -0.2270
 8873SOL    HW128060   3.213   2.159   2.733  0.1796  0.0722  0.4582
 8873SOL    HW228061   3.295   2.032   2.729 -0.3349 -0.4167  3.3471
 8874SOL     OW28062   3.345   0.285   3.062 -0.3982  0.4189 -0.2699
 8874SOL    HW128063   3.352   0.197   3.098 -4.6293  0.1078  0.2467
 8874SOL    HW228064   3.369   0.275   2.970 -0.0623 -1.0858 -0.0372
 8875SOL     OW28065   6.630   0.568   8.386  0.0262  0.4166  0.1228
 8875SOL    HW128066   6.643   0.474   8.373 -0.3053  0.5537 -1.3666
 8875SOL    HW228067   6.715   0.599   8.417  0.3354 -0.2785  0.0070
 8876SOL     OW28068   3.979   5.159   7.677 -0.0809  0.6386  0.2627
 8876SOL    HW128069   3.999   5.236   7.623 -0.4581 -0.3333 -1.3399
 8876SOL    HW228070   3.988   5.190   7.767  2.6490  1.8144 -0.3117
 8877SOL     OW28071   1.116   0.154   2.084 -0.5591  0.5910 -0.0631
 8877SOL    HW128072   1.203   0.168   2.047 -0.5742 -0.1443 -0.3924
 8877SOL    HW228073   1.124   0.183   2.175  0.5342 -1.0544  0.4152
 8878SOL     OW28074   0.991   0.853   8.169  0.1504 -0.6343  0.2311
 8878SOL    HW128075   1.079   0.823   8.193  0.4665  0.5194  0.5675
 8878SOL    HW228076   0.932   0.806   8.228  0.4922 -1.6947 -0.2460
 8879SOL     OW28077   5.199   1.309   1.128  0.4761 -0.5785  0.6877
 8879SOL    HW128078   5.225   1.217   1.123 -0.9597 -1.1148  2.0879
 8879SOL    HW228079   5.225   1.337   1.216 -0.1122  0.0062  0.6894
 8880SOL     OW28080   0.540   0.660   2.443 -0.8695  0.1732 -0.0698
 8880SOL    HW128081   0.472   0.593   2.455 -0.4837  0.0835  1.9453
 8880SOL    HW228082   0.620   0.610   2.423 -1.3284  0.2805 -2.4835
 8881SOL     OW28083   5.380   1.670   5.423  0.7149  0.1740  0.2627
 8881SOL    HW128084   5.323   1.735   5.462  1.3355  0.7767  0.1795
 8881SOL    HW228085   5.430   1.718   5.357  0.8255 -0.4874 -0.1483
 8882SOL     OW28086   6.125   6.731   1.123  0.8693  0.2038  0.4166
 8882SOL    HW128087   6.210   6.766   1.146  0.4859  0.3359  1.7252
 8882SOL    HW228088   6.081   6.802   1.077  1.3412  0.2460  0.0288
 8883SOL     OW28089   2.320   2.246   9.236  0.4971  0.1286  0.1772
 8883SOL    HW128090   2.408   2.237   9.198  0.3132 -0.3094 -0.1496
 8883SOL    HW228091   2.333   2.305   9.311  0.9773  0.4832 -0.1737
 8884SOL     OW28092   4.031   5.484   4.228  0.1604 -0.1581  0.0854
 8884SOL    HW128093   4.103   5.424   4.247 -1.3133 -1.9983  0.1877
 8884SOL    HW228094   4.027   5.487   4.132  0.7490  0.4554  0.0736
 8885SOL     OW28095   0.587   6.676   9.284  0.2352 -0.3520 -0.6031
 8885SOL    HW128096   0.545   6.640   9.362  0.4149  1.9974  0.6594
 8885SOL    HW228097   0.667   6.717   9.316  0.2381  0.8049 -1.9818
 8886SOL     OW28098   2.839   1.763   0.574 -0.1579 -0.1718 -1.1454
 8886SOL    HW128099   2.895   1.796   0.645 -0.3446 -1.8731 -0.1452
 8886SOL    HW228100   2.894   1.765   0.497  1.3072 -1.6777 -0.2096
 8887SOL     OW28101   0.511   5.839  11.191 -0.4898 -0.4545  0.6328
 8887SOL    HW128102   0.483   5.783  11.119 -0.0416  0.2251 -0.0861
 8887SOL    HW228103   0.540   5.778  11.259  0.9767 -1.1284 -0.5275
 8888SOL     OW28104   3.112   5.247  10.570 -0.3017 -0.0979 -0.3296
 8888SOL    HW128105   3.167   5.191  10.624  1.5969  0.5761 -1.4664
 8888SOL    HW228106   3.116   5.333  10.612 -0.5382 -0.0688 -0.3668
 8889SOL     OW28107   1.921   5.997   9.140 -0.5568 -0.0713 -0.2846
 8889SOL    HW128108   1.935   6.091   9.152  1.0144 -0.0917 -1.6000
 8889SOL    HW228109   1.946   5.957   9.223 -1.0176  0.6441  0.2082
 8890SOL     OW28110   5.633   1.335   1.549  0.4263  0.2881  0.0827
 8890SOL    HW128111   5.625   1.371   1.637  3.3322 -0.1176  0.6099
 8890SOL    HW228112   5.674   1.405   1.498  2.0968 -0.6904  0.0204
 8891SOL     OW28113   3.036   3.372  10.868 -0.5790 -0.0398  0.6438
 8891SOL    HW128114   3.009   3.411  10.951 -0.1855  0.6026  0.4733
 8891SOL    HW228115   2.978   3.411  10.803 -3.5972 -3.4156  1.0268
 8892SOL     OW28116   5.442   0.995   0.370  0.3682  0.1499  0.3754
 8892SOL    HW128117   5.376   1.052   0.330  0.3905 -0.0189  0.0951
 8892SOL    HW228118   5.498   1.054   0.420  0.9450  0.5005 -0.6603
 8893SOL     OW28119   3.628   7.867   3.873  0.0324 -0.1096 -0.1590
 8893SOL    HW128120   3.543   7.905   3.897  0.3482  1.1014 -0.8542
 8893SOL    HW228121   3.691   7.934   3.899  0.8576 -1.2763  0.9752
 8894SOL     OW28122   7.558   7.300   2.906  0.1156  0.4221 -0.6378
 8894SOL    HW128123   7.612   7.341   2.839  0.9856  1.1764  0.4793
 8894SOL    HW228124   7.474   7.346   2.900  0.6024  1.3736 -0.3888
 8895SOL     OW28125   3.776   6.549   3.727 -0.5682  0.0968 -0.6074
 8895SOL    HW128126   3.727   6.501   3.661  0.1144 -0.4461 -0.7296
 8895SOL    HW228127   3.742   6.639   3.722 -4.5229 -0.9768  2.1189
 8896SOL     OW28128   5.070   2.149   9.548 -0.2642  0.5545  0.7582
 8896SOL    HW128129   5.037   2.231   9.509  0.3830  0.0590 -0.9618
 8896SOL    HW228130   5.135   2.118   9.485 -1.0017 -1.6706  1.0006
 8897SOL     OW28131   6.192   1.937   6.822 -0.2539  0.0987  0.1492
 8897SOL    HW128132   6.103   1.944   6.856  0.3296  0.4858  1.6895
 8897SOL    HW228133   6.223   1.852   6.854  0.2402  0.3820  0.4392
 8898SOL     OW28134   0.073   4.293   8.992 -0.0263 -0.5742  0.7478
 8898SOL    HW128135   0.064   4.377   9.038  0.2694 -0.5485  0.7636
 8898SOL    HW228136   0.160   4.298   8.952 -0.3020 -0.5790  0.1533
 8899SOL     OW28137   5.576   0.062  10.784 -0.7011  0.0237 -0.0349
 8899SOL    HW128138   5.492   0.017  10.788 -0.9677  0.3638 -1.2402
 8899SOL    HW228139   5.577   0.102  10.697 -0.0153  1.4281  0.5864
 8900SOL     OW28140   5.142   0.216   1.444  0.0752 -0.6987  0.0243
 8900SOL    HW128141   5.167   0.126   1.467 -1.4020 -1.2737 -0.5026
 8900SOL    HW228142   5.073   0.239   1.506  1.6076  0.7647  1.2924
 8901SOL     OW28143   6.351   7.152   5.061 -0.1335  0.5478 -0.8795
 8901SOL    HW128144   6.444   7.158   5.039  0.4642 -0.1182  1.1876
 8901SOL    HW228145   6.349   7.092   5.136 -2.2533  0.4448 -0.9740
 8902SOL     OW28146   0.443   5.377   8.520  0.0268  0.3322 -0.4250
 8902SOL    HW128147   0.498   5.440   8.567  0.9658 -0.4316 -0.4789
 8902SOL    HW228148   0.385   5.341   8.586  0.3908  0.2814 -0.1324
 8903SOL     OW28149   0.217   0.977   5.560  0.0632 -0.1069  0.0001
 8903SOL    HW128150   0.305   1.001   5.590  0.9084  0.3559 -2.6176
 8903SOL    HW228151   0.211   0.883   5.575 -0.0506  0.2322  2.5832
 8904SOL     OW28152   3.622   6.750   6.149  0.8881  0.1970  0.9392
 8904SOL    HW128153   3.569   6.830   6.146 -0.3270 -0.6018 -0.4926
 8904SOL    HW228154   3.674   6.759   6.229  0.8657  2.4483  0.7800
 8905SOL     OW28155   4.730   7.877   9.383  0.1360  0.5390  0.0262
 8905SOL    HW128156   4.790   7.929   9.436 -0.5161 -1.0557  2.4498
 8905SOL    HW228157   4.782   7.803   9.352 -0.0802  0.1512  0.5666
 8906SOL     OW28158   1.527   2.554   2.168  0.1679 -0.0256  0.0289
 8906SOL    HW128159   1.498   2.622   2.229 -0.3688  0.9476 -1.2753
 8906SOL    HW228160   1.611   2.525   2.204  0.1548  0.9411  0.8999
 8907SOL     OW28161   2.560   2.635  10.808  0.1575  0.2113  0.0915
 8907SOL    HW128162   2.608   2.561  10.844 -0.5717 -1.5112 -2.2081
 8907SOL    HW228163   2.468   2.615  10.827 -0.1227 -0.0234 -1.3736
 8908SOL     OW28164   5.245   5.916   8.687  0.1816  0.3721 -0.2696
 8908SOL    HW128165   5.340   5.904   8.691  0.4813  2.2886 -0.8402
 8908SOL    HW228166   5.231   5.975   8.613 -1.3225  1.3800  0.7591
 8909SOL     OW28167   7.445   7.154  10.638 -0.0263 -0.2930 -0.0125
 8909SOL    HW128168   7.457   7.220  10.569 -0.8540  1.0760  1.0903
 8909SOL    HW228169   7.364   7.108  10.614 -0.6714  0.6193  0.3453
 8910SOL     OW28170   5.221   6.200   5.805  0.3309  0.6379  0.6645
 8910SOL    HW128171   5.248   6.180   5.895 -1.2902 -0.5948  0.9175
 8910SOL    HW228172   5.288   6.159   5.750 -0.2712 -1.3066  1.2957
 8911SOL     OW28173   0.713   5.978  10.770  0.5851 -0.0993  0.0794
 8911SOL    HW128174   0.644   6.040  10.747 -0.3547 -1.1732 -0.0704
 8911SOL    HW228175   0.789   6.007  10.720 -0.3698 -0.1909 -1.4959
 8912SOL     OW28176   1.313   3.238   9.226 -0.3319  0.1665  0.2699
 8912SOL    HW128177   1.367   3.159   9.221  0.7596  0.9498 -0.7970
 8912SOL    HW228178   1.312   3.261   9.319  1.3917  0.2557  0.2933
 8913SOL     OW28179   4.944   4.284   3.053 -0.1984 -0.7545 -0.2684
 8913SOL    HW128180   4.927   4.376   3.031  1.4927 -0.0565  1.0757
 8913SOL    HW228181   4.858   4.242   3.050 -0.9392  0.7232 -1.4641
 8914SOL     OW28182   3.165   5.967  11.631 -0.1078 -0.6525  0.1313
 8914SOL    HW128183   3.118   5.916  11.564 -1.8727 -1.2479  1.7191
 8914SOL    HW228184   3.104   6.036  11.656  1.7798  1.5843 -1.0911
 8915SOL     OW28185   6.779   5.051   2.533 -0.7917 -0.2582  0.0131
 8915SOL    HW128186   6.703   5.076   2.586 -0.7385 -3.1934  1.6754
 8915SOL    HW228187   6.826   4.987   2.587  0.9632 -1.1399 -2.3833
 8916SOL     OW28188   0.091   4.399  10.784 -0.7242 -0.0213  0.3795
 8916SOL    HW128189   0.097   4.432  10.873  0.3042 -1.4678  0.8945
 8916SOL    HW228190   0.159   4.445  10.736 -2.7292  2.4500 -0.3108
 8917SOL     OW28191   3.109   6.344  11.851  0.6172  0.3254 -0.2844
 8917SOL    HW128192   3.074   6.281  11.788 -1.6179  0.1595  0.9898
 8917SOL    HW228193   3.105   6.299  11.935 -1.9143  2.3120  0.8194
 8918SOL     OW28194   2.881   4.324   9.779 -0.3408  0.1907 -0.6001
 8918SOL    HW128195   2.876   4.382   9.703  1.4677  1.0601 -0.1292
 8918SOL    HW228196   2.939   4.253   9.751  2.2351  1.6779  0.5458
 8919SOL     OW28197   1.616   6.542   7.292  0.6543 -0.4637 -0.2293
 8919SOL    HW128198   1.615   6.473   7.225 -2.1389  0.4274 -1.2580
 8919SOL    HW228199   1.547   6.602   7.265 -0.5156  0.0496  3.3863
 8920SOL     OW28200   5.789   0.202   0.295 -0.7446  0.2821  0.0635
 8920SOL    HW128201   5.799   0.126   0.353 -2.6300 -0.4691 -0.5233
 8920SOL    HW228202   5.720   0.177   0.235 -0.7360  2.1221 -0.7757
 8921SOL     OW28203   7.700   3.870   2.346 -0.1957 -0.7067  0.3711
 8921SOL    HW128204   7.759   3.812   2.297  0.4342  0.0202  0.2487
 8921SOL    HW228205   7.613   3.832   2.333  0.1446 -1.3370 -0.1291
 8922SOL     OW28206   7.598   5.975   3.537 -0.2754 -0.1215  0.4642
 8922SOL    HW128207   7.675   6.005   3.585 -0.4584  1.3781 -0.1433
 8922SOL    HW228208   7.551   6.055   3.514 -2.1017 -1.0062  0.9358
 8923SOL     OW28209   2.689   2.131  11.249  0.4414 -0.0881 -0.4294
 8923SOL    HW128210   2.743   2.079  11.190 -0.2137 -1.3331  0.0226
 8923SOL    HW228211   2.624   2.171  11.192  1.2805  0.6960 -0.8540
 8924SOL     OW28212   5.238   6.334   0.456  0.3019 -0.2105  0.3891
 8924SOL    HW128213   5.230   6.410   0.514 -1.0341  0.7187 -0.9241
 8924SOL    HW228214   5.149   6.322   0.422  1.0402 -0.7549 -1.3999
 8925SOL     OW28215   3.790   4.000   9.861 -0.4358 -0.9599 -0.1531
 8925SOL    HW128216   3.795   3.905   9.862 -0.6516 -0.9677  0.5177
 8925SOL    HW228217   3.716   4.022   9.918 -1.3926 -0.4428 -1.5338
 8926SOL     OW28218   4.054   0.105   8.644  0.1415 -0.3520 -0.3787
 8926SOL    HW128219   4.149   0.114   8.649 -0.0015  1.4025 -0.1747
 8926SOL    HW228220   4.025   0.180   8.592 -1.3801  1.0040  2.2031
 8927SOL     OW28221   2.264   1.371   1.977  0.0737  0.0506 -0.1104
 8927SOL    HW128222   2.218   1.289   1.962 -1.5341  0.9243 -0.2687
 8927SOL    HW228223   2.197   1.429   2.014  1.1813  1.2647  0.0700
 8928SOL     OW28224   0.976   7.516   1.608 -0.4752  0.5139  0.1862
 8928SOL    HW128225   0.960   7.547   1.518  0.5557 -0.0180 -0.1932
 8928SOL    HW228226   1.020   7.590   1.651 -0.2897  0.4962  0.0289
 8929SOL     OW28227   3.388   0.198  11.838 -0.0078  0.4063  0.6228
 8929SOL    HW128228   3.293   0.211  11.838 -0.0712 -0.0363  0.2533
 8929SOL    HW228229   3.418   0.239  11.758  0.3996  2.4486  1.7588
 8930SOL     OW28230   3.618   3.580   4.595  0.4219 -0.7505  0.4027
 8930SOL    HW128231   3.660   3.527   4.527  0.6774 -2.2184  1.6438
 8930SOL    HW228232   3.566   3.517   4.645 -1.5924  0.6699  0.2149
 8931SOL     OW28233   2.602   6.308   4.619  0.1750  0.3501 -0.1808
 8931SOL    HW128234   2.548   6.358   4.680  3.4111 -1.6863  5.1835
 8931SOL    HW228235   2.563   6.221   4.618  0.9180  0.0010  0.2085
 8932SOL     OW28236   7.762   6.423   7.372 -0.2139 -0.3579  0.0711
 8932SOL    HW128237   7.794   6.442   7.284  0.4248 -0.9527  0.1650
 8932SOL    HW228238   7.784   6.331   7.386  0.3685 -0.0720  1.1396
 8933SOL     OW28239   1.435   6.767   4.297 -0.0814 -0.1777 -0.8595
 8933SOL    HW128240   1.452   6.779   4.391 -1.5228  2.2289 -0.8307
 8933SOL    HW228241   1.404   6.677   4.290  0.6453 -0.6075  0.8715
 8934SOL     OW28242   1.457   7.026   8.152  0.6515 -0.2366 -0.1225
 8934SOL    HW128243   1.532   7.073   8.116  2.3493 -1.2546  1.8735
 8934SOL    HW228244   1.450   6.947   8.097  1.2411 -0.2781 -0.1426
 8935SOL     OW28245   0.061   1.415  12.205 -0.2441 -0.1603  0.3138
 8935SOL    HW128246   0.122   1.352  12.167 -3.1657 -3.8697  1.1382
 8935SOL    HW228247   0.075   1.408  12.300 -0.1003  1.0826  0.4036
 8936SOL     OW28248   5.140   1.516   5.753  0.0903  0.0386 -0.0051
 8936SOL    HW128249   5.236   1.514   5.743  0.2443  0.0761  1.3687
 8936SOL    HW228250   5.109   1.444   5.699  0.8557  0.3084 -0.8349
 8937SOL     OW28251   7.039   7.915   2.501  0.2705 -0.1213  0.0501
 8937SOL    HW128252   7.112   7.954   2.550  0.0144  1.5266 -0.8255
 8937SOL    HW228253   6.976   7.987   2.490 -0.5926 -0.9929 -0.9244
 8938SOL     OW28254   0.571   5.728   6.151  0.4805  0.0563 -0.4499
 8938SOL    HW128255   0.477   5.710   6.150  0.7145 -1.3948 -1.9972
 8938SOL    HW228256   0.596   5.727   6.058  1.5317  3.4730 -0.3485
 8939SOL     OW28257   3.521   3.894  11.051 -0.5656 -0.1237  0.3491
 8939SOL    HW128258   3.439   3.909  11.003  0.0660 -1.1476 -1.1111
 8939SOL    HW228259   3.498   3.912  11.142 -3.2130 -3.0004  0.4424
 8940SOL     OW28260   0.410   0.001   5.518 -0.0054  0.4094 -0.1074
 8940SOL    HW128261   0.391  -0.085   5.558  0.6112  0.6089  0.6374
 8940SOL    HW228262   0.331   0.021   5.467  0.1683 -0.9766 -0.9692
 8941SOL     OW28263   1.372   5.877   6.299  0.6339 -0.1580 -0.5004
 8941SOL    HW128264   1.463   5.851   6.303  0.3598 -1.0170  0.8680
 8941SOL    HW228265   1.345   5.886   6.390 -0.8436 -0.6498 -0.8483
 8942SOL     OW28266   1.805   3.723   4.094  0.4701  0.3090  0.4205
 8942SOL    HW128267   1.754   3.768   4.162 -0.8500 -0.6330  0.0989
 8942SOL    HW228268   1.822   3.636   4.130  1.2025  0.3564  0.2017
 8943SOL     OW28269   0.554   0.250   5.972 -0.3575 -0.4228  0.7277
 8943SOL    HW128270   0.615   0.263   6.044  0.4613 -0.7852  0.1147
 8943SOL    HW228271   0.610   0.236   5.895 -1.2117 -0.3004  0.0697
 8944SOL     OW28272   2.358   0.585  10.328  0.2210  0.4231  0.0629
 8944SOL    HW128273   2.429   0.606  10.389 -0.6665  1.1792  0.8678
 8944SOL    HW228274   2.306   0.519  10.374 -2.1860  3.1614  1.5314
 8945SOL     OW28275   6.616   0.568   3.166 -0.2429 -0.6369 -0.0232
 8945SOL    HW128276   6.645   0.659   3.161  1.6308 -1.2317 -1.2905
 8945SOL    HW228277   6.609   0.550   3.260 -1.1966  0.9280  0.2544
 8946SOL     OW28278   5.103   5.522   0.062 -0.2788  0.4240 -0.2927
 8946SOL    HW128279   5.057   5.590   0.112  0.3137  0.7503 -0.1749
 8946SOL    HW228280   5.160   5.571   0.002 -0.6520  0.0315 -0.9760
 8947SOL     OW28281   7.501   2.413  12.126 -0.0136 -1.3264 -0.2329
 8947SOL    HW128282   7.472   2.468  12.053  0.5573 -2.4501 -1.3379
 8947SOL    HW228283   7.503   2.325  12.091 -0.6210 -2.0490  1.4355
 8948SOL     OW28284   2.470   1.271   6.969  0.4584 -0.0359  0.1831
 8948SOL    HW128285   2.523   1.318   6.905  0.3325 -0.1168  0.0164
 8948SOL    HW228286   2.532   1.218   7.019  0.5230 -0.2059 -0.0766
 8949SOL     OW28287   7.430   6.912   7.934  0.6717 -0.8698 -0.4489
 8949SOL    HW128288   7.370   6.959   7.877  0.8454 -0.7505 -0.5336
 8949SOL    HW228289   7.427   6.960   8.017  0.4624 -1.0106 -0.3729
 8950SOL     OW28290   6.374   2.648   1.115  0.3773 -0.2938  0.1507
 8950SOL    HW128291   6.392   2.659   1.209  0.2479 -0.3865  0.1857
 8950SOL    HW228292   6.459   2.623   1.077  0.3085 -0.8044  0.3262
 8951SOL     OW28293   6.908   5.533   6.803 -0.4039 -0.2046  0.1293
 8951SOL    HW128294   6.917   5.619   6.844 -0.1776  0.1108 -0.5745
 8951SOL    HW228295   6.838   5.545   6.739  0.6430 -0.1360 -1.0237
 8952SOL     OW28296   5.439   0.972  11.182 -0.6365 -0.1645 -0.3295
 8952SOL    HW128297   5.501   1.019  11.237 -0.7557 -0.3814 -0.0086
 8952SOL    HW228298   5.355   1.015  11.199 -0.6558 -0.1677 -0.4175
 8953SOL     OW28299   0.095   7.479   6.248  0.0937 -0.0415  0.3365
 8953SOL    HW128300   0.010   7.521   6.264 -0.4654 -1.9146  2.9814
 8953SOL    HW228301   0.125   7.516   6.165 -3.2638  0.7389 -0.6807
 8954SOL     OW28302   3.613   6.336  11.871 -0.3069  0.4000 -1.0727
 8954SOL    HW128303   3.705   6.315  11.886 -0.5558 -1.1958 -1.5689
 8954SOL    HW228304   3.581   6.365  11.956  0.1117 -1.2601 -0.3034
 8955SOL     OW28305   7.250   2.752  12.226  0.4497  0.2283 -0.1431
 8955SOL    HW128306   7.293   2.819  12.173  1.6758  0.6173  1.2824
 8955SOL    HW228307   7.309   2.738  12.300 -1.3038 -0.1027  1.2622
 8956SOL     OW28308   4.350   4.403   8.199 -0.3764  0.5336 -0.5244
 8956SOL    HW128309   4.289   4.440   8.136 -1.0091 -1.2749 -1.0413
 8956SOL    HW228310   4.406   4.345   8.147 -1.1561 -1.3028  0.5742
 8957SOL     OW28311   5.579   0.996   1.277  0.0680 -0.6127 -0.4212
 8957SOL    HW128312   5.546   0.909   1.300  1.2292 -0.4091  2.4051
 8957SOL    HW228313   5.671   0.981   1.255 -0.0204 -0.2370 -1.0667
 8958SOL     OW28314   3.507   2.573   2.935  0.4147 -0.0112  0.2524
 8958SOL    HW128315   3.559   2.500   2.899  0.4774 -0.2155  0.7444
 8958SOL    HW228316   3.525   2.571   3.029  0.4642  0.6831  0.2646
 8959SOL     OW28317   2.346   7.148   5.574 -0.2089 -0.1947 -0.3558
 8959SOL    HW128318   2.268   7.185   5.534  0.6946 -0.8646 -2.9738
 8959SOL    HW228319   2.414   7.213   5.559 -0.0880  0.1431  1.4105
 8960SOL     OW28320   2.875   6.259  10.286  0.2195  0.4235 -0.3903
 8960SOL    HW128321   2.848   6.315  10.213 -2.0809  0.1245  0.1478
 8960SOL    HW228322   2.838   6.173  10.265 -0.6079  0.3639  1.1580
 8961SOL     OW28323   7.885   1.062   9.580 -0.2874 -0.1202 -0.6558
 8961SOL    HW128324   7.882   0.967   9.569  0.1841 -0.0123 -1.8541
 8961SOL    HW228325   7.829   1.079   9.655  0.2416 -1.4174  0.0654
 8962SOL     OW28326   0.358   5.434   5.919  0.3869  0.6759 -0.3935
 8962SOL    HW128327   0.312   5.353   5.898  1.0919 -0.3118  1.5801
 8962SOL    HW228328   0.289   5.500   5.928 -0.6584 -0.5709  1.6510
 8963SOL     OW28329   7.874   6.176   2.804  0.0287 -0.1173  0.5874
 8963SOL    HW128330   7.948   6.167   2.864  2.0708  0.6049 -1.6649
 8963SOL    HW228331   7.841   6.265   2.820  0.9649  0.3032  0.2505
 8964SOL     OW28332   0.701   5.664   4.472  0.3859  0.2472  0.0718
 8964SOL    HW128333   0.729   5.573   4.484 -3.1369 -0.8628  1.1663
 8964SOL    HW228334   0.632   5.659   4.406  0.6319  2.2530 -0.3762
 8965SOL     OW28335   7.062   6.559  10.601  0.1064  0.2398 -0.3159
 8965SOL    HW128336   7.152   6.529  10.616  0.8417  2.2608 -0.3393
 8965SOL    HW228337   7.019   6.553  10.686  0.5436  0.0708 -0.1064
 8966SOL     OW28338   1.583   1.618   4.660  0.3860 -0.1139 -0.4265
 8966SOL    HW128339   1.497   1.575   4.664  0.2004  0.2572 -0.4196
 8966SOL    HW228340   1.629   1.571   4.591 -0.6506  1.1499 -2.0630
 8967SOL     OW28341   6.024   2.448   1.727 -0.1743  0.0770  0.5423
 8967SOL    HW128342   5.958   2.414   1.788 -0.1576 -1.9596 -0.5051
 8967SOL    HW228343   6.043   2.536   1.760 -2.0930  0.0511  1.9120
 8968SOL     OW28344   6.804   6.594   0.589 -0.2085 -0.1336  0.1935
 8968SOL    HW128345   6.842   6.554   0.511  0.0719  1.9175 -0.7826
 8968SOL    HW228346   6.857   6.561   0.661  1.7722  0.6113 -0.8540
 8969SOL     OW28347   3.754   1.857   3.936  0.1967 -0.2983 -0.0741
 8969SOL    HW128348   3.766   1.790   4.004  0.3919 -0.2776 -0.0881
 8969SOL    HW228349   3.666   1.891   3.952 -0.6662 -1.8405 -1.2123
 8970SOL     OW28350   0.590   7.776   1.229 -0.6433 -0.1851  0.2281
 8970SOL    HW128351   0.599   7.698   1.175 -0.3587 -0.5827  0.8343
 8970SOL    HW228352   0.553   7.843   1.170  0.7468 -0.2509 -0.7508
 8971SOL     OW28353   6.088   5.811   0.435  0.1602  0.1381 -0.0089
 8971SOL    HW128354   5.994   5.827   0.430 -0.0447  0.0106  2.4356
 8971SOL    HW228355   6.128   5.898   0.424 -0.2945  0.3602  0.0881
 8972SOL     OW28356   1.581   5.751   0.166 -0.4410  0.8999 -0.3104
 8972SOL    HW128357   1.566   5.677   0.107  1.1473 -0.1471  0.5367
 8972SOL    HW228358   1.583   5.827   0.109  2.0159 -0.1805 -1.7945
 8973SOL     OW28359   1.785   3.392   5.468  0.5408  0.2317  0.2578
 8973SOL    HW128360   1.815   3.428   5.551  1.5060 -0.7367  0.3531
 8973SOL    HW228361   1.847   3.322   5.448 -1.6839 -1.9183  0.4731
 8974SOL     OW28362   0.147   2.058   8.027 -0.6343 -0.0290  0.0180
 8974SOL    HW128363   0.099   2.042   7.946 -0.8132  0.8654 -0.0604
 8974SOL    HW228364   0.237   2.075   8.000 -1.0444  2.0733 -0.1792
 8975SOL     OW28365   7.903   5.538   2.441 -0.3984 -0.5108 -0.7780
 8975SOL    HW128366   7.860   5.573   2.519 -0.6703 -1.9401 -0.2548
 8975SOL    HW228367   7.853   5.575   2.368 -0.4793  0.4038 -0.2767
 8976SOL     OW28368   0.133   3.838   4.803  0.0474 -0.0864  0.0211
 8976SOL    HW128369   0.064   3.904   4.804 -0.3149 -0.4639  0.8405
 8976SOL    HW228370   0.191   3.862   4.875  1.0846  0.5250 -0.9799
 8977SOL     OW28371   2.510   2.901  11.364 -0.0904 -0.2265  0.1653
 8977SOL    HW128372   2.447   2.971  11.346 -0.2812 -0.6081 -0.6552
 8977SOL    HW228373   2.502   2.841  11.290  0.7908 -0.6040  0.3631
 8978SOL     OW28374   4.475   6.184   5.826  0.0767  0.2572 -0.4504
 8978SOL    HW128375   4.467   6.277   5.849 -0.1586  0.6704 -2.0901
 8978SOL    HW228376   4.569   6.167   5.827  0.3035  1.1131 -2.1943
 8979SOL     OW28377   6.772   1.216   2.215  0.4171  0.4237  0.0444
 8979SOL    HW128378   6.827   1.273   2.270 -0.7759  1.6308  0.0304
 8979SOL    HW228379   6.708   1.275   2.176  0.3460 -0.6521 -1.5298
 8980SOL     OW28380   2.596   0.419   0.160 -0.1021  0.0460  0.3463
 8980SOL    HW128381   2.644   0.473   0.096  0.2585 -0.5166  0.1343
 8980SOL    HW228382   2.613   0.461   0.244 -2.7078  2.3650 -0.1640
 8981SOL     OW28383   2.883   1.668   0.026  0.0976  0.0333  0.4433
 8981SOL    HW128384   2.818   1.706  -0.032  0.6583 -1.2817 -1.1248
 8981SOL    HW228385   2.849   1.581   0.047  0.9161 -0.3424  0.2831
 8982SOL     OW28386   1.352   6.105   4.945 -0.0633  0.7150  0.1739
 8982SOL    HW128387   1.259   6.108   4.967 -0.2399 -1.6619  0.0111
 8982SOL    HW228388   1.389   6.040   5.005  1.1242  0.3782 -0.8688
 8983SOL     OW28389   1.324   7.150   7.248 -0.1061  0.1356 -0.7919
 8983SOL    HW128390   1.330   7.121   7.156  0.6630 -0.4768 -0.5640
 8983SOL    HW228391   1.230   7.154   7.266 -0.2749 -1.7470 -1.0143
 8984SOL     OW28392   1.857   4.098  11.880 -0.5587  0.0303 -0.0417
 8984SOL    HW128393   1.837   4.127  11.969 -0.1577  0.6458 -0.1448
 8984SOL    HW228394   1.805   4.154  11.823  1.5349  1.8252 -0.3216
 8985SOL     OW28395   3.201   2.811   1.506  0.0485 -0.3934  0.8104
 8985SOL    HW128396   3.195   2.786   1.598  0.0243 -1.8778  0.4280
 8985SOL    HW228397   3.261   2.885   1.505  0.4540 -0.6896  1.9594
 8986SOL     OW28398   4.578   2.562   6.665 -0.1360  0.3735  0.4123
 8986SOL    HW128399   4.629   2.636   6.698  0.6597 -0.0829  0.2406
 8986SOL    HW228400   4.644   2.502   6.631 -0.7784 -0.3944  0.5105
 8987SOL     OW28401   5.087   3.980   9.532  0.2537  0.0524  0.1127
 8987SOL    HW128402   5.061   3.890   9.552 -0.2672  0.2792  0.5041
 8987SOL    HW228403   5.112   3.978   9.440  4.0884 -1.3507  0.9719
 8988SOL     OW28404   5.886   4.632  10.873 -0.0378  0.2318  0.3600
 8988SOL    HW128405   5.921   4.589  10.951 -0.3961 -1.4115 -0.3477
 8988SOL    HW228406   5.938   4.711  10.864  2.1852 -1.1392  0.4744
 8989SOL     OW28407   2.186   2.337   1.253  0.1370 -0.4248 -0.0866
 8989SOL    HW128408   2.254   2.370   1.311 -0.3599  0.9626 -0.2507
 8989SOL    HW228409   2.154   2.257   1.296 -0.1525  0.5150  1.5210
 8990SOL     OW28410   7.772   3.516  12.182 -0.2431  0.1756 -0.1785
 8990SOL    HW128411   7.692   3.556  12.146  0.1606  1.1227 -0.0638
 8990SOL    HW228412   7.799   3.453  12.115  0.0912  1.3856 -1.2406
 8991SOL     OW28413   2.641   6.778   6.077 -0.1106  0.0883  0.7889
 8991SOL    HW128414   2.580   6.788   6.150  0.0319  1.9216  0.7064
 8991SOL    HW228415   2.686   6.863   6.071  0.2382 -0.1750 -1.0961
 8992SOL     OW28416   0.069   1.133   2.461  0.1270 -0.1638 -0.1559
 8992SOL    HW128417  -0.020   1.167   2.466  0.7701  1.8798 -1.4628
 8992SOL    HW228418   0.089   1.105   2.551 -1.1534  1.2026  0.6015
 8993SOL     OW28419   4.813   7.372  10.930  0.5592 -1.1300  0.1171
 8993SOL    HW128420   4.747   7.385  10.997 -0.0104 -1.4110 -0.3763
 8993SOL    HW228421   4.893   7.410  10.966 -0.2823  0.8441  0.0049
 8994SOL     OW28422   1.415   2.740   2.325  0.6705  0.6527  0.1560
 8994SOL    HW128423   1.462   2.764   2.405  3.6862  0.7603 -1.4879
 8994SOL    HW228424   1.378   2.823   2.293  2.7245  1.4132 -0.4417
 8995SOL     OW28425   7.895   5.276   0.684  0.1513  0.2469 -0.1057
 8995SOL    HW128426   7.895   5.195   0.633 -0.8547 -1.1362  1.9572
 8995SOL    HW228427   7.831   5.332   0.639  0.9164 -0.0369 -1.6038
 8996SOL     OW28428   0.101   2.893   2.690  0.0772 -0.0095  0.0249
 8996SOL    HW128429   0.146   2.917   2.771 -0.4549  0.2499  0.2493
 8996SOL    HW228430   0.018   2.940   2.694  0.0008 -0.0772 -0.6248
 8997SOL     OW28431   0.572   4.807   9.681  0.1336  0.0888  0.1029
 8997SOL    HW128432   0.551   4.748   9.753 -1.2743  1.3742  0.8103
 8997SOL    HW228433   0.641   4.864   9.715 -0.2423  0.4283  0.3088
 8998SOL     OW28434   1.155   7.653   0.675  0.1709 -0.3198  0.0706
 8998SOL    HW128435   1.219   7.591   0.640 -0.0418 -0.7625  0.4585
 8998SOL    HW228436   1.117   7.608   0.751  0.8895  0.7433  1.1041
 8999SOL     OW28437   0.068   4.520   3.742  0.3099 -0.2718 -0.0593
 8999SOL    HW128438   0.067   4.602   3.693  0.8091  1.4599  2.6332
 8999SOL    HW228439   0.149   4.477   3.716  1.0336  1.0547 -0.0683
 9000SOL     OW28440   7.308   2.985  10.202 -0.2050  0.0890  0.1021
 9000SOL    HW128441   7.216   3.010  10.205  0.1422  1.4750 -0.1565
 9000SOL    HW228442   7.307   2.890  10.189 -1.5993  0.3219 -1.7986
 9001SOL     OW28443   4.916   4.539   1.438 -0.4332 -0.2303 -0.0858
 9001SOL    HW128444   4.948   4.629   1.434  0.6294 -0.6423 -2.9166
 9001SOL    HW228445   4.988   4.486   1.404 -1.8036 -1.9177 -0.5023
 9002SOL     OW28446   5.433   1.700  10.830  0.1055  0.6601 -0.1986
 9002SOL    HW128447   5.357   1.758  10.842 -0.4373 -0.1375  0.3564
 9002SOL    HW228448   5.506   1.759  10.813 -0.8763  1.4064 -2.1328
 9003SOL     OW28449   0.963   7.466   0.054 -0.4687 -0.4595  0.4796
 9003SOL    HW128450   0.909   7.539   0.024 -0.9606 -0.6229  0.9479
 9003SOL    HW228451   0.951   7.399  -0.013  0.7479  0.2275 -0.4508
 9004SOL     OW28452   1.330   6.594   3.571 -0.1147  0.5043  0.2023
 9004SOL    HW128453   1.327   6.642   3.488  0.5885 -1.7038 -1.1937
 9004SOL    HW228454   1.419   6.605   3.603  0.4502 -0.8415 -0.7994
 9005SOL     OW28455   2.570   4.818   3.609 -0.4252  0.2711  0.2570
 9005SOL    HW128456   2.642   4.831   3.670 -0.5548  1.8504  0.1055
 9005SOL    HW228457   2.560   4.723   3.604  1.2891  0.0354  0.6763
 9006SOL     OW28458   3.792   0.805  11.831 -0.2314 -0.0322 -0.3091
 9006SOL    HW128459   3.795   0.737  11.898  1.9418  0.6394  0.3569
 9006SOL    HW228460   3.723   0.864  11.861  1.2727  0.7325  1.9183
 9007SOL     OW28461   3.118   0.379   9.438  0.0118  0.3167 -0.2905
 9007SOL    HW128462   3.165   0.331   9.370  1.9573  1.2522  0.3116
 9007SOL    HW228463   3.134   0.471   9.418 -0.5359  0.6375  0.6517
 9008SOL     OW28464   2.993   1.556   3.598  0.8105  0.3936  0.4903
 9008SOL    HW128465   2.952   1.509   3.671  0.7548  1.1250  0.9416
 9008SOL    HW228466   2.944   1.528   3.521  1.2344 -0.8241  0.6473
 9009SOL     OW28467   6.999   4.945   5.277  0.7417  0.2050  0.9135
 9009SOL    HW128468   7.054   4.909   5.347  0.5636  0.7067  1.3152
 9009SOL    HW228469   6.998   4.876   5.211  2.8381  0.6492  0.3472
 9010SOL     OW28470   7.630   3.463   7.164  0.7009 -0.1236 -0.5609
 9010SOL    HW128471   7.598   3.553   7.156  2.1765  0.6094  0.9293
 9010SOL    HW228472   7.570   3.421   7.226  0.5039  0.1005 -0.5985
 9011SOL     OW28473   5.337   3.312  11.552 -0.1469 -0.1432  0.1872
 9011SOL    HW128474   5.355   3.406  11.543 -0.6400 -0.1419 -0.8682
 9011SOL    HW228475   5.381   3.272  11.476 -0.1487 -0.7417  0.4964
 9012SOL     OW28476   1.394   5.218  11.936  0.5162 -0.1649 -0.5553
 9012SOL    HW128477   1.311   5.182  11.906  0.5961  0.6018 -1.7572
 9012SOL    HW228478   1.458   5.151  11.913  0.2979 -0.5514 -0.0550
 9013SOL     OW28479   4.192   5.608   2.630 -0.1141 -0.3688 -0.6224
 9013SOL    HW128480   4.253   5.658   2.684  0.5725 -0.1202 -1.5863
 9013SOL    HW228481   4.194   5.652   2.545 -2.9493  0.6986 -0.2499
 9014SOL     OW28482   5.821   0.281   6.415  0.0743  0.1890  0.2583
 9014SOL    HW128483   5.765   0.315   6.346  0.2617  0.3022  0.1598
 9014SOL    HW228484   5.816   0.186   6.406  0.2629  0.2064 -0.0458
 9015SOL     OW28485   5.244   4.858  11.795 -0.0712  0.4149 -0.7241
 9015SOL    HW128486   5.176   4.794  11.817  0.5964  0.3114  1.1967
 9015SOL    HW228487   5.317   4.805  11.763  0.0272  0.3044 -0.3256
 9016SOL     OW28488   6.412   1.420  12.082  0.5407 -0.2358  0.0076
 9016SOL    HW128489   6.422   1.436  12.175 -0.8267 -4.2351  1.0601
 9016SOL    HW228490   6.329   1.461  12.059  1.1011  1.1553  0.3841
 9017SOL     OW28491   6.548   2.825  11.062  0.1873 -0.2544  0.2541
 9017SOL    HW128492   6.613   2.775  11.111 -1.3003 -0.7022  1.8601
 9017SOL    HW228493   6.470   2.824  11.117 -0.9046  1.0770 -1.1751
 9018SOL     OW28494   6.927   7.864   5.716  0.1164  0.8579 -0.1445
 9018SOL    HW128495   6.960   7.780   5.685  0.8229 -0.1337  2.9491
 9018SOL    HW228496   6.996   7.927   5.694  0.7799  0.1200 -0.2189
 9019SOL     OW28497   5.196   7.277   9.529  0.4179 -0.3564  0.5875
 9019SOL    HW128498   5.141   7.220   9.474  0.6607  0.4703 -0.5427
 9019SOL    HW228499   5.135   7.338   9.570  0.3268 -0.4581  0.6037
 9020SOL     OW28500   3.806   7.346   6.634  0.6172 -0.1061  0.2186
 9020SOL    HW128501   3.767   7.391   6.709  1.3512 -0.7459  1.0011
 9020SOL    HW228502   3.894   7.382   6.627  1.0073 -0.9714  0.4924
 9021SOL     OW28503   5.242   7.865   6.517  0.0688  0.4276  0.1302
 9021SOL    HW128504   5.229   7.840   6.609  2.2451  2.8489  1.2348
 9021SOL    HW228505   5.329   7.832   6.495 -0.2779  0.2061 -0.9387
 9022SOL     OW28506   5.364   5.728   9.023  0.1338 -0.1811 -0.2074
 9022SOL    HW128507   5.354   5.820   9.049 -1.3294 -0.5516  0.6871
 9022SOL    HW228508   5.342   5.678   9.102  0.8617 -1.3090 -0.6878
 9023SOL     OW28509   1.659   5.840   9.538  0.2205 -0.1814  0.0837
 9023SOL    HW128510   1.627   5.762   9.494  1.0941 -0.9755  0.8039
 9023SOL    HW228511   1.694   5.808   9.621  0.9614  0.9151  0.2183
 9024SOL     OW28512   0.739   1.016  10.675 -0.2485  0.5111 -0.1706
 9024SOL    HW128513   0.805   1.082  10.695 -1.0810  1.2602  0.1915
 9024SOL    HW228514   0.749   0.949  10.742  0.1281  0.6217 -0.1150
 9025SOL     OW28515   0.304   3.443   4.217  0.2024 -0.3811  0.2690
 9025SOL    HW128516   0.279   3.380   4.149  0.9980 -0.2374 -0.1679
 9025SOL    HW228517   0.230   3.504   4.221  0.2978 -0.1811 -0.7346
 9026SOL     OW28518   5.124   4.787   4.648  0.3328 -0.2719  0.2576
 9026SOL    HW128519   5.097   4.699   4.672  0.9310 -0.5851 -0.1947
 9026SOL    HW228520   5.089   4.843   4.717  2.0527 -1.1475  1.9273
 9027SOL     OW28521   4.487   4.899   0.947  0.2960 -0.7752  0.2276
 9027SOL    HW128522   4.447   4.813   0.957 -0.3852 -0.4104  0.7275
 9027SOL    HW228523   4.504   4.928   1.037 -1.0784  0.3345  0.1554
 9028SOL     OW28524   6.903   0.520   3.091 -0.7255 -0.0180 -0.4918
 9028SOL    HW128525   6.830   0.461   3.111  0.1563 -1.1348 -0.4579
 9028SOL    HW228526   6.979   0.462   3.088  0.4974  1.3764  1.5082
 9029SOL     OW28527   5.708   3.112   1.115 -0.3309 -0.1182  0.0656
 9029SOL    HW128528   5.627   3.063   1.101 -0.8774  0.8836 -0.3905
 9029SOL    HW228529   5.703   3.185   1.053  1.2241 -0.3887 -0.4264
 9030SOL     OW28530   5.613   0.246   3.428  0.1667  0.1170 -0.0546
 9030SOL    HW128531   5.556   0.177   3.394  1.5471 -0.9201 -0.3267
 9030SOL    HW228532   5.552   0.314   3.459 -1.3935 -2.2094  2.4971
 9031SOL     OW28533   2.256   4.094   1.669 -0.2713  0.0190  0.3070
 9031SOL    HW128534   2.284   4.185   1.657  0.5365 -0.1868  0.5059
 9031SOL    HW228535   2.324   4.042   1.625 -0.4975 -0.5051  0.5627
 9032SOL     OW28536   7.312   1.367   8.077 -0.5166  0.3366 -0.6380
 9032SOL    HW128537   7.394   1.327   8.108 -0.7033 -0.5174 -1.2170
 9032SOL    HW228538   7.339   1.447   8.033 -0.1887  1.2810  1.1902
 9033SOL     OW28539   0.645   1.152   9.449 -0.1494 -0.0176 -0.1413
 9033SOL    HW128540   0.653   1.216   9.521 -1.6055  1.2281 -1.0158
 9033SOL    HW228541   0.553   1.159   9.421 -0.0295 -1.6541 -1.0702
 9034SOL     OW28542   1.805   2.233   5.198  0.5080  0.1889 -0.2987
 9034SOL    HW128543   1.788   2.237   5.293  1.4647 -0.0543 -0.1098
 9034SOL    HW228544   1.801   2.324   5.169  1.9796  0.4730  0.3057
 9035SOL     OW28545   0.770   5.681   9.269 -0.1219 -0.0043 -0.3018
 9035SOL    HW128546   0.791   5.734   9.347  0.7053  0.9037 -1.1085
 9035SOL    HW228547   0.818   5.724   9.198  0.8379 -2.0505 -0.9385
 9036SOL     OW28548   7.027   7.516   2.802 -0.4020 -0.1331 -0.2338
 9036SOL    HW128549   6.970   7.440   2.812 -0.6156 -0.0080 -0.4984
 9036SOL    HW228550   7.036   7.552   2.890 -2.4340  1.0817 -0.4665
 9037SOL     OW28551   3.842   0.111   8.389 -0.1825  0.5099 -0.1441
 9037SOL    HW128552   3.746   0.115   8.387 -0.1911  0.2678 -0.1663
 9037SOL    HW228553   3.863   0.091   8.481 -0.1307  1.1592 -0.0052
 9038SOL     OW28554   1.217   0.709   9.715 -0.3212 -0.0863  0.5000
 9038SOL    HW128555   1.135   0.660   9.723 -0.2820  0.0284  1.7512
 9038SOL    HW228556   1.190   0.800   9.716 -0.3410 -0.0482 -1.2264
 9039SOL     OW28557   7.009   1.972   5.023 -1.0977 -0.3890  0.0463
 9039SOL    HW128558   6.991   2.065   5.013 -0.0953 -0.2634 -0.6821
 9039SOL    HW228559   7.088   1.968   5.076 -0.1130 -0.7473 -1.3867
 9040SOL     OW28560   3.803   6.427   3.009 -0.0871 -0.0742 -0.2015
 9040SOL    HW128561   3.777   6.462   2.923 -0.9943 -1.2094 -0.4035
 9040SOL    HW228562   3.733   6.454   3.068 -0.0846 -0.3506 -0.0711
 9041SOL     OW28563   1.501   1.103   8.183 -0.5821  0.2612 -0.0869
 9041SOL    HW128564   1.472   1.181   8.231  0.1482 -0.5735  1.7968
 9041SOL    HW228565   1.420   1.065   8.148 -1.0471  1.3312 -0.2095
 9042SOL     OW28566   2.730   0.110  11.736 -0.4045 -0.2824 -0.1956
 9042SOL    HW128567   2.747   0.106  11.642 -2.2465 -0.6921 -0.5614
 9042SOL    HW228568   2.699   0.022  11.758  0.7908 -0.4325  0.9882
 9043SOL     OW28569   2.692   5.052   6.719 -0.1120  0.1820 -0.3394
 9043SOL    HW128570   2.744   4.990   6.770 -1.2059 -1.9586 -1.6657
 9043SOL    HW228571   2.756   5.117   6.689  1.3259 -0.9282  0.1858
 9044SOL     OW28572   6.778   1.440   4.939 -0.5343 -0.5165 -0.0017
 9044SOL    HW128573   6.687   1.412   4.940 -0.6852 -0.2629 -1.8520
 9044SOL    HW228574   6.773   1.536   4.931 -0.0952 -0.4334  0.6694
 9045SOL     OW28575   7.843   5.834   6.590  0.3580  0.0986  0.5977
 9045SOL    HW128576   7.852   5.838   6.495  0.2040 -0.3762  0.5646
 9045SOL    HW228577   7.842   5.741   6.611 -0.7009  0.1842  0.9661
 9046SOL     OW28578   6.234   7.188   4.679 -0.4266 -0.2325 -0.3013
 9046SOL    HW128579   6.171   7.126   4.644 -1.1712 -1.2280  2.5087
 9046SOL    HW228580   6.200   7.210   4.766  1.0548  2.3136 -0.2599
 9047SOL     OW28581   1.596   4.438   2.564 -0.4557 -0.1963 -0.2746
 9047SOL    HW128582   1.620   4.447   2.656 -0.0192 -1.6307 -0.2264
 9047SOL    HW228583   1.680   4.433   2.518 -0.6666 -0.5138 -0.6351
 9048SOL     OW28584   1.440   7.745  11.797  0.0214 -0.0483 -0.0228
 9048SOL    HW128585   1.361   7.755  11.851  0.4004 -0.2514  0.5767
 9048SOL    HW228586   1.490   7.825  11.813  1.3169 -1.1755  1.9049
 9049SOL     OW28587   6.537   1.952   2.884 -0.0733  0.0937  0.0888
 9049SOL    HW128588   6.442   1.941   2.878 -0.0944  0.2577  0.1032
 9049SOL    HW228589   6.568   1.875   2.932 -0.0073 -0.7896 -1.3222
 9050SOL     OW28590   5.241   0.943  10.807  0.3617 -0.0629  0.7544
 9050SOL    HW128591   5.241   0.863  10.754  0.1287  0.1541  0.4251
 9050SOL    HW228592   5.159   0.987  10.784 -0.2983 -0.5111  2.1088
 9051SOL     OW28593   5.930   1.782   9.398 -0.3127 -0.4713 -0.1944
 9051SOL    HW128594   6.005   1.836   9.422  0.9120 -0.7929 -2.8873
 9051SOL    HW228595   5.874   1.782   9.475  2.2754  0.0758  1.8080
 9052SOL     OW28596   0.409   5.098   1.950  0.5095 -0.0685  0.0696
 9052SOL    HW128597   0.481   5.157   1.975  0.4140  0.6198 -1.1924
 9052SOL    HW228598   0.448   5.011   1.952  1.0214  0.1650  0.6651
 9053SOL     OW28599   1.878   1.833   6.849  0.1120 -0.2691  0.2609
 9053SOL    HW128600   1.919   1.909   6.805 -0.5221 -0.4569 -0.6940
 9053SOL    HW228601   1.943   1.805   6.913  0.4980  0.8817  0.4019
 9054SOL     OW28602   1.789   5.326  11.037 -0.0591  0.0284  0.4336
 9054SOL    HW128603   1.768   5.393  10.972  0.9523  0.9260  0.9996
 9054SOL    HW228604   1.763   5.365  11.120  0.7109 -0.1960  0.7884
 9055SOL     OW28605   2.544   4.060   1.721 -0.4835  0.5465 -0.1104
 9055SOL    HW128606   2.514   4.058   1.812  3.3983 -0.1524  1.3387
 9055SOL    HW228607   2.577   3.972   1.705  1.6772  1.4635 -1.0726
 9056SOL     OW28608   6.651   0.834   3.163  0.1716 -0.1501  0.2516
 9056SOL    HW128609   6.579   0.896   3.174  0.0157 -0.6313  2.4655
 9056SOL    HW228610   6.728   0.889   3.150 -0.4876  0.3776 -1.7930
 9057SOL     OW28611   7.549   7.393  11.226  0.0286 -0.2531 -0.5367
 9057SOL    HW128612   7.621   7.370  11.284 -1.9775 -0.1276  2.1887
 9057SOL    HW228613   7.499   7.312  11.216 -1.8972  0.6009  1.3983
 9058SOL     OW28614   3.952   5.081   3.886 -0.5483 -0.0985 -0.3161
 9058SOL    HW128615   3.950   5.060   3.980 -0.7400  1.0164 -0.0581
 9058SOL    HW228616   3.899   5.012   3.846 -1.3555  0.0003  0.5299
 9059SOL     OW28617   2.186   2.626   8.477  0.6336  0.2471  0.0968
 9059SOL    HW128618   2.107   2.681   8.477  1.2688  1.2036 -0.9387
 9059SOL    HW228619   2.245   2.669   8.539  0.4518 -0.3161  0.6674
 9060SOL     OW28620   6.707   1.228  10.587  0.3330  0.0305 -0.5495
 9060SOL    HW128621   6.742   1.297  10.531  1.1547 -0.4575 -0.6511
 9060SOL    HW228622   6.756   1.149  10.563 -1.3192 -0.8579 -1.1911
 9061SOL     OW28623   4.582   4.733  11.181  0.7818 -0.3059  0.3285
 9061SOL    HW128624   4.570   4.722  11.087  1.8974  2.3278 -0.2174
 9061SOL    HW228625   4.493   4.742  11.216  0.3852 -0.5730 -0.5803
 9062SOL     OW28626   5.655   3.336  10.426 -0.0590  0.2606  0.1567
 9062SOL    HW128627   5.665   3.302  10.515 -0.2443 -0.7137 -0.1833
 9062SOL    HW228628   5.564   3.364  10.422  0.1821  1.1560  0.5449
 9063SOL     OW28629   6.082   2.728   5.781 -0.5239 -0.0767  0.2547
 9063SOL    HW128630   6.110   2.820   5.781 -0.3507 -0.0992  1.7128
 9063SOL    HW228631   6.149   2.683   5.831 -0.7605 -0.9590 -0.2062
 9064SOL     OW28632   1.698   2.051   7.510 -0.2615  0.0289 -0.4932
 9064SOL    HW128633   1.687   1.996   7.588  1.5516 -0.9035 -0.8314
 9064SOL    HW228634   1.626   2.024   7.452 -0.4915 -0.6511  0.0881
 9065SOL     OW28635   2.918   1.434   3.876  0.3519  0.0261 -0.5245
 9065SOL    HW128636   2.921   1.522   3.913 -0.3314 -0.2055  0.1041
 9065SOL    HW228637   2.959   1.379   3.943  0.5143 -0.1694 -0.7873
 9066SOL     OW28638   7.128   4.886   3.502  1.0811  0.3317 -0.0253
 9066SOL    HW128639   7.035   4.893   3.480  0.8969 -0.0360  0.6045
 9066SOL    HW228640   7.170   4.956   3.452  0.3047  1.2298  0.5570
 9067SOL     OW28641   6.641   4.565   8.080 -0.1021  0.3913  0.0096
 9067SOL    HW128642   6.620   4.615   8.158 -1.8475 -0.3070  0.0343
 9067SOL    HW228643   6.653   4.475   8.111  2.1124  0.5784 -0.1565
 9068SOL     OW28644   6.672   7.754  11.447 -0.1040  0.5396  0.1694
 9068SOL    HW128645   6.585   7.736  11.482 -0.1000 -1.1826 -0.6035
 9068SOL    HW228646   6.731   7.737  11.521 -0.3825  1.2318  0.5569
 9069SOL     OW28647   4.951   1.814   8.261 -0.5788 -0.3252 -0.1272
 9069SOL    HW128648   4.930   1.806   8.168  1.1357 -1.9089 -0.4405
 9069SOL    HW228649   5.047   1.816   8.264 -0.5558  2.2726  1.4672
 9070SOL     OW28650   1.486   5.534   4.346  0.3220 -0.3762 -0.0277
 9070SOL    HW128651   1.428   5.574   4.411  1.2394  0.7283  0.1514
 9070SOL    HW228652   1.437   5.460   4.311 -0.9994  0.2549  0.4487
 9071SOL     OW28653   6.614   3.404   1.404 -0.1585 -0.2217 -0.1469
 9071SOL    HW128654   6.587   3.313   1.404  1.7389 -0.8227  0.2087
 9071SOL    HW228655   6.627   3.426   1.497  1.5717 -0.3250 -0.3234
 9072SOL     OW28656   7.496   3.367   3.414  0.2428  0.4106  0.2260
 9072SOL    HW128657   7.510   3.273   3.424 -0.0663  0.4083  0.6429
 9072SOL    HW228658   7.524   3.386   3.324  1.7019  0.1862  0.6030
 9073SOL     OW28659   4.771   3.746   4.704 -0.1344  0.0165 -0.4061
 9073SOL    HW128660   4.686   3.791   4.705 -1.5140 -2.3761 -0.8607
 9073SOL    HW228661   4.776   3.702   4.789  0.2973 -0.4470 -0.6670
 9074SOL     OW28662   6.829   0.604   6.215  0.1107  0.4415 -0.7100
 9074SOL    HW128663   6.845   0.520   6.171 -0.5230  0.1482 -0.4055
 9074SOL    HW228664   6.889   0.605   6.289 -0.9414 -0.4701  0.2022
 9075SOL     OW28665   5.606   1.952   8.044 -0.0598 -0.7614  0.3788
 9075SOL    HW128666   5.550   1.985   7.973  0.6270 -0.4354 -0.0258
 9075SOL    HW228667   5.629   1.863   8.017  0.3660 -0.5678  0.0742
 9076SOL     OW28668   3.554   7.856  11.506 -0.0179  0.5548 -0.2341
 9076SOL    HW128669   3.512   7.915  11.442 -2.1239 -1.3939 -0.7836
 9076SOL    HW228670   3.536   7.768  11.472  3.0973 -0.4916  0.4968
 9077SOL     OW28671   6.592   6.731   0.518  0.4984  0.1612 -0.1207
 9077SOL    HW128672   6.519   6.695   0.568 -0.2506 -0.0156 -1.2971
 9077SOL    HW228673   6.668   6.681   0.546  0.2279  0.4701  1.2618
 9078SOL     OW28674   0.792   5.767   6.503 -0.2487  0.0193  0.2387
 9078SOL    HW128675   0.853   5.798   6.435 -0.7488 -0.6867 -0.5412
 9078SOL    HW228676   0.836   5.788   6.586  1.5119 -1.2985 -0.2957
 9079SOL     OW28677   7.579   2.551   2.369  0.2437  0.0593  0.3795
 9079SOL    HW128678   7.586   2.501   2.450  1.7382  0.0913  0.2872
 9079SOL    HW228679   7.610   2.491   2.301  0.8136  0.6735  0.0923
 9080SOL     OW28680   2.884   6.596   9.626 -0.5761  0.2194 -0.0459
 9080SOL    HW128681   2.826   6.672   9.631 -2.1852 -1.0182  1.3376
 9080SOL    HW228682   2.865   6.557   9.540 -1.1523  0.3210  0.0317
 9081SOL     OW28683   5.749   2.928   8.727  0.1334  0.2990  0.1865
 9081SOL    HW128684   5.754   2.846   8.775 -0.0974  0.2013  0.0438
 9081SOL    HW228685   5.656   2.939   8.708  0.1263  0.7398  0.4565
 9082SOL     OW28686   0.553   5.865   5.192  0.5450  0.3096 -0.3363
 9082SOL    HW128687   0.570   5.786   5.242 -0.0697  1.5825  2.0220
 9082SOL    HW228688   0.468   5.850   5.152  0.8791 -0.5857 -0.7419
 9083SOL     OW28689   0.094   6.754   1.783 -0.0932  0.4518 -0.4882
 9083SOL    HW128690   0.052   6.669   1.772  1.0156 -0.4743  1.7236
 9083SOL    HW228691   0.142   6.767   1.701 -0.0281 -1.2114 -0.7615
 9084SOL     OW28692   2.687   5.665   0.057 -0.5120  0.3135  0.2495
 9084SOL    HW128693   2.648   5.599   0.114  1.2863 -0.3232  0.8050
 9084SOL    HW228694   2.781   5.659   0.074 -0.1339  1.6787 -1.1378
 9085SOL     OW28695   0.461   5.561   7.556 -0.4869 -0.5651  0.4152
 9085SOL    HW128696   0.492   5.494   7.617 -2.5111 -0.1899  1.9622
 9085SOL    HW228697   0.369   5.541   7.542 -0.6172  0.6636 -0.8135
 9086SOL     OW28698   6.581   2.142   9.850  0.3083  0.6346 -0.5838
 9086SOL    HW128699   6.579   2.048   9.829 -1.0230  0.9909 -2.2731
 9086SOL    HW228700   6.583   2.145   9.946 -0.6116 -1.1229 -0.4725
 9087SOL     OW28701   4.591   0.072   1.471  0.0651  0.0996 -0.8729
 9087SOL    HW128702   4.553  -0.011   1.500  0.3398  0.1572 -0.3408
 9087SOL    HW228703   4.683   0.051   1.451  0.1819  0.3089 -0.5673
 9088SOL     OW28704   7.189   1.170   0.686  0.0258  0.1059  0.1627
 9088SOL    HW128705   7.263   1.207   0.637  0.2532 -0.8307 -0.2230
 9088SOL    HW228706   7.126   1.145   0.618  0.5616 -1.6732  0.2621
 9089SOL     OW28707   1.244   7.418   4.108  0.9641 -0.7238 -0.0574
 9089SOL    HW128708   1.210   7.447   4.193  2.6716 -1.1877  0.8361
 9089SOL    HW228709   1.166   7.393   4.058 -0.2005  0.9741  0.8021
 9090SOL     OW28710   7.030   2.038   8.484 -0.2725  0.2034 -0.0671
 9090SOL    HW128711   6.997   1.949   8.472 -0.1742  0.0238  0.9292
 9090SOL    HW228712   7.124   2.031   8.471 -0.1895  0.0448  0.6016
 9091SOL     OW28713   1.556   0.286   9.753  0.0626  0.1893  0.0678
 9091SOL    HW128714   1.552   0.351   9.824 -2.1280  0.5372 -0.2938
 9091SOL    HW228715   1.485   0.225   9.773 -0.5996  0.2836 -1.8103
 9092SOL     OW28716   4.647   1.959   4.478  0.2314 -0.3521 -0.1888
 9092SOL    HW128717   4.601   1.888   4.434 -1.2029  0.4392 -0.0085
 9092SOL    HW228718   4.723   1.916   4.519 -1.6439 -2.2004  1.5896
 9093SOL     OW28719   6.037   2.067   5.228  0.5932 -0.3925  0.2102
 9093SOL    HW128720   5.983   2.008   5.281  0.1430  0.7039  1.0209
 9093SOL    HW228721   5.984   2.087   5.152 -0.6686  1.5306  1.5150
 9094SOL     OW28722   1.701   4.464   5.538 -0.1992  0.1403  0.2354
 9094SOL    HW128723   1.662   4.494   5.620 -0.0796 -1.5085  0.9221
 9094SOL    HW228724   1.701   4.369   5.544  1.1599  0.0210 -1.0542
 9095SOL     OW28725   3.513   7.230  12.359 -0.4150 -0.1763 -0.0616
 9095SOL    HW128726   3.583   7.220  12.294 -1.3369  0.6285 -1.2390
 9095SOL    HW228727   3.460   7.303  12.326 -0.0159  1.3776  2.4631
 9096SOL     OW28728   0.269   7.785   4.536 -0.4734  0.3490  0.3232
 9096SOL    HW128729   0.353   7.827   4.555  0.7178 -2.1435  0.9775
 9096SOL    HW228730   0.262   7.715   4.601 -0.7846 -2.4947 -2.5172
 9097SOL     OW28731   5.475   5.803   5.377  0.2007 -0.5209  0.1912
 9097SOL    HW128732   5.562   5.833   5.352  0.8566 -0.4174  2.3814
 9097SOL    HW228733   5.491   5.742   5.449 -1.5852  0.5988  1.6230
 9098SOL     OW28734   6.386   3.566  10.140  0.4088  0.0585 -0.2170
 9098SOL    HW128735   6.322   3.504  10.106  1.4626 -0.1919 -1.8176
 9098SOL    HW228736   6.351   3.652  10.116  0.6326 -0.0746 -1.0340
 9099SOL     OW28737   5.345   4.265   6.276 -0.8365 -0.0263  0.0377
 9099SOL    HW128738   5.403   4.288   6.203 -1.4485  0.5012 -0.2934
 9099SOL    HW228739   5.402   4.266   6.353  0.1440 -2.0627 -0.6032
 9100SOL     OW28740   5.906   4.791   3.675  0.5927 -0.3866  0.3269
 9100SOL    HW128741   5.952   4.874   3.682  0.5738 -0.4463  1.2199
 9100SOL    HW228742   5.841   4.793   3.745  0.1836 -0.9026 -0.0270
 9101SOL     OW28743   5.466   1.345  11.928 -0.0185 -0.4105 -0.0121
 9101SOL    HW128744   5.373   1.365  11.933 -0.2149 -0.9930 -1.0536
 9101SOL    HW228745   5.495   1.386  11.846  1.3036  2.2160  1.6323
 9102SOL     OW28746   1.821   1.976   5.102  0.3119  0.4409  0.6684
 9102SOL    HW128747   1.801   2.066   5.129 -0.3557  0.4572  0.1487
 9102SOL    HW228748   1.736   1.939   5.079  0.8076  0.3626 -1.1899
 9103SOL     OW28749   7.926   2.392   2.099  0.2517 -0.0840  0.2671
 9103SOL    HW128750   7.886   2.463   2.048  0.2900 -0.9792 -1.0704
 9103SOL    HW228751   8.018   2.419   2.107  0.1516  0.2783  0.2211
 9104SOL     OW28752   3.534   6.349   9.266 -0.5994 -0.2967 -0.1675
 9104SOL    HW128753   3.440   6.363   9.280 -0.3331  0.7714  0.6662
 9104SOL    HW228754   3.576   6.391   9.340  0.5137 -1.7665  0.0920
 9105SOL     OW28755   1.833   7.065   9.051 -0.1277 -0.1294  0.3193
 9105SOL    HW128756   1.897   7.051   8.981  0.3690 -1.1007  0.9625
 9105SOL    HW228757   1.878   7.120   9.115  0.3507 -1.4615  1.1474
 9106SOL     OW28758   7.269   4.402   9.103 -0.2766  0.3376 -0.0608
 9106SOL    HW128759   7.339   4.365   9.050 -0.7493  0.1849 -0.5904
 9106SOL    HW228760   7.189   4.359   9.070 -0.7421  1.2767 -0.1848
 9107SOL     OW28761   6.118   1.466  10.550  0.4236 -0.3130 -0.6728
 9107SOL    HW128762   6.148   1.385  10.591  0.4479 -0.2353 -0.5363
 9107SOL    HW228763   6.123   1.448  10.456  0.3146 -0.5097 -0.6412
 9108SOL     OW28764   5.908   0.265   3.791 -0.2989  0.9452  0.1539
 9108SOL    HW128765   5.982   0.239   3.737  0.8937  1.4480  1.4887
 9108SOL    HW228766   5.840   0.200   3.773 -0.2156  1.4684 -2.4117
 9109SOL     OW28767   2.450   2.615   3.798  0.1691 -0.1176  0.4904
 9109SOL    HW128768   2.441   2.669   3.719  1.9349  0.8684  0.9256
 9109SOL    HW228769   2.359   2.596   3.823 -0.4545 -0.6206 -1.8485
 9110SOL     OW28770   6.606   6.916  10.128  0.1461 -0.1472  0.4959
 9110SOL    HW128771   6.601   6.953  10.039 -0.6215  0.6252  0.8403
 9110SOL    HW228772   6.562   6.981  10.183  0.8572 -0.4895  1.4898
 9111SOL     OW28773   2.851   5.141   7.618 -0.4118 -0.4231  0.0054
 9111SOL    HW128774   2.830   5.222   7.664 -1.3223 -2.1182  2.8264
 9111SOL    HW228775   2.946   5.132   7.627 -0.5861 -0.7757  1.7640
 9112SOL     OW28776   4.576   4.435   9.696 -0.0647 -0.0750 -0.0900
 9112SOL    HW128777   4.643   4.486   9.650 -0.4497  0.3877 -0.1542
 9112SOL    HW228778   4.529   4.500   9.749 -0.5025 -0.3791 -0.0982
 9113SOL     OW28779   0.813   4.736  10.329  0.4047  0.5691  0.2935
 9113SOL    HW128780   0.785   4.656  10.373 -0.2183  0.5969 -0.0400
 9113SOL    HW228781   0.808   4.803  10.398 -2.3218  0.9847 -0.1680
 9114SOL     OW28782   0.957   4.088  10.149 -0.0955  0.1995  0.3089
 9114SOL    HW128783   0.919   4.095  10.061 -0.7977  0.1039  0.6036
 9114SOL    HW228784   0.888   4.050  10.202  0.3263  0.2701  0.9136
 9115SOL     OW28785   5.060   7.322   5.520  0.2439 -0.4057  0.3028
 9115SOL    HW128786   5.037   7.230   5.536 -1.8810 -0.2432 -1.3022
 9115SOL    HW228787   4.995   7.372   5.570  1.3197  0.2445  1.0804
 9116SOL     OW28788   2.675   1.219   2.982 -0.7407 -0.3073  0.5917
 9116SOL    HW128789   2.742   1.287   2.992  0.9631 -1.7607 -0.3533
 9116SOL    HW228790   2.653   1.194   3.072  1.5755 -1.2260  0.9695
 9117SOL     OW28791   2.838   1.238  10.795 -0.2061  0.4476  0.1381
 9117SOL    HW128792   2.796   1.309  10.747  1.1715  0.2343 -1.4662
 9117SOL    HW228793   2.915   1.277  10.835  0.2377  0.0075 -0.2632
 9118SOL     OW28794   6.618   5.283  11.594 -0.5978  0.5929  0.0165
 9118SOL    HW128795   6.711   5.261  11.589 -0.8460 -0.7153  0.6967
 9118SOL    HW228796   6.603   5.303  11.687 -1.1581 -0.0588  0.0770
 9119SOL     OW28797   3.333   4.307   7.576 -0.1728  1.0930  0.5214
 9119SOL    HW128798   3.426   4.308   7.556 -0.3139  0.6223 -0.2123
 9119SOL    HW228799   3.290   4.328   7.493 -0.7707 -0.5310  0.3730
 9120SOL     OW28800   4.953   4.080   8.278 -0.4282 -0.1758 -0.3620
 9120SOL    HW128801   4.949   4.156   8.336  1.1524 -1.0213  0.9217
 9120SOL    HW228802   4.937   4.005   8.335 -1.2751 -0.8808 -1.4849
 9121SOL     OW28803   7.488   4.250  11.550  0.8310 -0.3691 -0.1036
 9121SOL    HW128804   7.395   4.233  11.558  0.9116 -0.7506  0.0410
 9121SOL    HW228805   7.498   4.341  11.580  0.6595 -0.6894  0.9930
 9122SOL     OW28806   0.758   5.208   4.738  0.2388  0.4213  0.1305
 9122SOL    HW128807   0.807   5.140   4.784  1.3293  1.8303  1.1541
 9122SOL    HW228808   0.802   5.289   4.762 -1.7267  1.6242 -0.1125
 9123SOL     OW28809   6.156   4.792   4.324 -0.5023  0.6365  0.0531
 9123SOL    HW128810   6.127   4.830   4.407 -2.1208  2.9025 -1.4437
 9123SOL    HW228811   6.101   4.714   4.313  0.6036 -0.4551  1.6066
 9124SOL     OW28812   7.300   5.376   5.456  0.0493  0.3739 -0.2362
 9124SOL    HW128813   7.301   5.283   5.478 -0.8493 -0.1942 -2.2824
 9124SOL    HW228814   7.260   5.418   5.532  1.4696 -0.7330  1.1906
 9125SOL     OW28815   2.746   3.514   6.106  0.0836  0.0697  0.0180
 9125SOL    HW128816   2.810   3.516   6.178 -1.5914 -2.8207  1.7961
 9125SOL    HW228817   2.786   3.457   6.041  0.5291  0.6171 -0.1913
 9126SOL     OW28818   6.784   1.167  11.709  0.0335  0.3404 -0.4603
 9126SOL    HW128819   6.787   1.199  11.619  1.2244 -1.0818 -0.9434
 9126SOL    HW228820   6.865   1.118  11.721 -0.6989 -0.5880  0.9797
 9127SOL     OW28821   3.247   2.810  12.387 -0.2417 -0.4328 -0.1305
 9127SOL    HW128822   3.316   2.760  12.343  0.3506 -0.3335  0.6764
 9127SOL    HW228823   3.166   2.764  12.364  0.0560 -0.4361 -1.2429
 9128SOL     OW28824   7.236   1.492  11.443 -0.1345  0.5507 -0.8986
 9128SOL    HW128825   7.301   1.504  11.374 -1.4968 -0.4937 -2.4385
 9128SOL    HW228826   7.237   1.574  11.492  2.5030  0.4572 -0.6991
 9129SOL     OW28827   0.327   6.100   8.986  1.0128 -0.1553  0.3568
 9129SOL    HW128828   0.347   6.007   8.977  0.9090 -0.1316 -0.1320
 9129SOL    HW228829   0.251   6.103   9.045  0.9572 -0.3817  0.2956
 9130SOL     OW28830   5.205   0.852   3.019  0.4024  0.0476 -0.0572
 9130SOL    HW128831   5.132   0.850   3.080  1.3141 -0.2582  1.0567
 9130SOL    HW228832   5.260   0.777   3.044  1.7465  0.9974 -0.0291
 9131SOL     OW28833   7.433   2.734   6.736 -0.5790  0.7829  0.1317
 9131SOL    HW128834   7.349   2.714   6.778  0.8597  0.3333  3.0424
 9131SOL    HW228835   7.433   2.829   6.727 -0.2022  1.1618  3.1248
 9132SOL     OW28836   4.261   2.130   6.862  0.1987 -0.1923  0.6176
 9132SOL    HW128837   4.274   2.208   6.808  0.6859 -0.4342  0.3800
 9132SOL    HW228838   4.280   2.057   6.803 -1.4918 -0.5450  0.4749
 9133SOL     OW28839   5.054   2.494   8.484  0.5302 -0.5306  0.3258
 9133SOL    HW128840   4.972   2.510   8.437  1.5585 -0.3900 -1.5377
 9133SOL    HW228841   5.052   2.556   8.557 -1.2938 -0.9952  0.7155
 9134SOL     OW28842   2.838   4.409   9.521  0.1189  0.4169 -0.4241
 9134SOL    HW128843   2.922   4.452   9.507  1.6565 -2.3267 -0.2435
 9134SOL    HW228844   2.800   4.401   9.434  1.0337 -0.1876 -0.7715
 9135SOL     OW28845   0.916   3.037  11.526 -0.1971  0.2858 -0.2949
 9135SOL    HW128846   0.986   3.094  11.558 -0.0922  0.4932 -0.8908
 9135SOL    HW228847   0.914   2.965  11.589 -1.0360  1.4474  1.0630
 9136SOL     OW28848   4.147   1.927   4.205 -0.4059 -0.3309 -0.1279
 9136SOL    HW128849   4.068   1.935   4.153 -0.6557 -2.7526 -0.2336
 9136SOL    HW228850   4.219   1.928   4.142 -0.3757  1.0482 -0.0992
 9137SOL     OW28851   4.879   6.724   3.155 -0.2680 -0.1838  0.3143
 9137SOL    HW128852   4.900   6.692   3.243  1.6937  0.3591  0.0800
 9137SOL    HW228853   4.915   6.657   3.096 -0.6115 -0.0001 -0.1114
 9138SOL     OW28854   3.379   7.485   4.983 -0.0543 -0.6910  0.0950
 9138SOL    HW128855   3.431   7.544   4.928 -1.0622 -1.4971 -1.8162
 9138SOL    HW228856   3.442   7.448   5.044  1.1556  0.1502 -0.5920
 9139SOL     OW28857   1.047   6.965   1.853 -0.3402  0.1722 -0.0849
 9139SOL    HW128858   1.109   7.034   1.876  0.9451 -1.8745  3.2844
 9139SOL    HW228859   1.085   6.924   1.776  0.0790  1.7176 -0.7470
 9140SOL     OW28860   1.693   2.228   4.796 -0.2272  0.1685  0.2132
 9140SOL    HW128861   1.627   2.225   4.866  1.1282  0.1570  1.5504
 9140SOL    HW228862   1.722   2.319   4.796 -1.0867  0.4737 -1.2315
 9141SOL     OW28863   3.931   6.626   7.715  0.7225 -0.1069  0.5313
 9141SOL    HW128864   3.839   6.621   7.742  0.0862  1.7481 -1.0619
 9141SOL    HW228865   3.980   6.595   7.792 -1.1699  0.2107  1.9399
 9142SOL     OW28866   7.785   4.654  10.425 -0.8038 -0.4748  0.0926
 9142SOL    HW128867   7.862   4.597  10.425 -1.5716 -1.6047 -1.8861
 9142SOL    HW228868   7.739   4.633  10.344 -2.0351  1.7683  0.1116
 9143SOL     OW28869   3.729   1.131  11.447 -0.1048  0.1782  0.1287
 9143SOL    HW128870   3.637   1.109  11.461 -0.5703  2.4790  1.0927
 9143SOL    HW228871   3.766   1.132  11.535  0.9030 -0.8105 -0.2603
 9144SOL     OW28872   3.166   7.250   6.871 -0.0337 -0.5116  0.0650
 9144SOL    HW128873   3.219   7.268   6.948 -1.7800  0.1558  1.1631
 9144SOL    HW228874   3.078   7.237   6.904 -1.0335  0.7808 -1.8861
 9145SOL     OW28875   3.317   0.392   5.174  0.1555 -0.0059 -1.0564
 9145SOL    HW128876   3.371   0.328   5.220  1.5151  0.8228 -1.4505
 9145SOL    HW228877   3.368   0.472   5.174 -1.8571  1.3667  0.1655
 9146SOL     OW28878   1.467   5.930   7.213  0.0407 -0.3369 -0.1982
 9146SOL    HW128879   1.561   5.940   7.231 -0.1912 -0.5291  1.2213
 9146SOL    HW228880   1.464   5.870   7.138  1.0939  1.6779 -1.9431
 9147SOL     OW28881   6.051   3.608   6.759 -0.6563  0.1102 -0.0029
 9147SOL    HW128882   6.134   3.644   6.726 -0.8377 -0.5892 -1.2327
 9147SOL    HW228883   6.077   3.560   6.838  0.4102 -1.4970 -1.2485
 9148SOL     OW28884   0.833   4.345   2.696 -0.2300  0.1086 -0.0233
 9148SOL    HW128885   0.889   4.352   2.774 -0.5396  1.1220  0.1281
 9148SOL    HW228886   0.779   4.424   2.700 -0.2821  0.1388 -1.2451
 9149SOL     OW28887   6.084   0.142  11.980 -0.4930 -0.4320 -0.5178
 9149SOL    HW128888   6.137   0.137  11.901  2.1996 -0.0052  1.1248
 9149SOL    HW228889   6.003   0.185  11.952  1.1928  1.6291 -2.6621
 9150SOL     OW28890   4.623   0.112  11.979 -0.1428 -0.0623 -0.1073
 9150SOL    HW128891   4.685   0.045  11.948  0.2914  0.8724 -1.3509
 9150SOL    HW228892   4.676   0.168  12.036 -0.9471 -1.7944  2.5112
 9151SOL     OW28893   1.488   5.596  10.469 -0.9659 -0.5153 -0.1698
 9151SOL    HW128894   1.528   5.562  10.549 -1.7818  0.4206  0.6654
 9151SOL    HW228895   1.490   5.691  10.480 -1.2166 -0.3852 -1.1984
 9152SOL     OW28896   0.309   1.493   8.472  0.1173  0.1179 -0.1715
 9152SOL    HW128897   0.292   1.581   8.506 -1.4998 -0.4545  0.5725
 9152SOL    HW228898   0.344   1.509   8.384  0.5615  1.5120  0.2226
 9153SOL     OW28899   0.621   6.883   4.578  0.0897  0.1609 -0.8086
 9153SOL    HW128900   0.537   6.877   4.623  0.6701  0.5682  0.3760
 9153SOL    HW228901   0.661   6.963   4.612  0.3501  0.7801 -2.4532
 9154SOL     OW28902   5.819   1.245   9.287  0.2980  0.1914 -0.4706
 9154SOL    HW128903   5.792   1.335   9.273  0.5329  0.1425 -1.3075
 9154SOL    HW228904   5.912   1.244   9.262  1.0062  0.2647  1.9048
 9155SOL     OW28905   1.658   1.688   1.992 -0.6882 -0.0583  0.0092
 9155SOL    HW128906   1.641   1.665   2.083  0.8580 -2.5236 -0.2197
 9155SOL    HW228907   1.749   1.718   1.991 -0.1181 -1.6648 -0.9005
 9156SOL     OW28908   7.264   6.873   1.364  0.3264  0.3904 -0.2916
 9156SOL    HW128909   7.181   6.826   1.360  0.9779 -0.7796 -0.5964
 9156SOL    HW228910   7.328   6.812   1.326  1.0886  1.7901 -1.3257
 9157SOL     OW28911   2.461   4.905   3.858  0.1129  0.6791  0.0074
 9157SOL    HW128912   2.417   4.987   3.881  1.7079  1.6194 -0.1121
 9157SOL    HW228913   2.468   4.908   3.763  1.0830  0.9169  0.0762
 9158SOL     OW28914   1.368   6.893  12.169  0.0715  0.1818  0.4194
 9158SOL    HW128915   1.348   6.891  12.263 -0.5288  0.2893  0.3005
 9158SOL    HW228916   1.385   6.985  12.150 -1.1572  0.3780  0.1659
 9159SOL     OW28917   3.254   7.023   0.147 -0.4868  0.4247 -0.0653
 9159SOL    HW128918   3.346   7.040   0.168 -0.6167  2.1085 -0.7404
 9159SOL    HW228919   3.205   7.060   0.220 -0.6456 -1.1549  0.6799
 9160SOL     OW28920   2.398   3.008   4.042  0.2779  0.0024  0.1122
 9160SOL    HW128921   2.410   3.075   4.110  0.1543  0.0345  0.1028
 9160SOL    HW228922   2.461   2.939   4.065  0.5296  0.1987  0.0244
 9161SOL     OW28923   4.742   1.714   9.522 -0.3598  0.2240 -0.0318
 9161SOL    HW128924   4.767   1.801   9.553 -2.0060  0.6524  0.2266
 9161SOL    HW228925   4.648   1.721   9.505 -0.1048 -0.8654 -2.2235
 9162SOL     OW28926   0.599   2.945   0.087  0.0929  0.1439  0.3618
 9162SOL    HW128927   0.656   2.954   0.010  0.3406 -0.8831  0.4059
 9162SOL    HW228928   0.512   2.965   0.055  0.3150  0.5529  0.0065
 9163SOL     OW28929   6.934   3.258   2.742  0.3380 -0.2688 -0.2210
 9163SOL    HW128930   6.973   3.206   2.813  0.9222  1.4212  0.7741
 9163SOL    HW228931   6.860   3.302   2.783  0.5862  0.6103 -0.6830
 9164SOL     OW28932   6.417   2.008   1.447  0.3798 -0.2206  0.0462
 9164SOL    HW128933   6.415   1.951   1.370  1.8548 -1.6971  1.0272
 9164SOL    HW228934   6.328   2.004   1.482  0.3833 -1.7495 -0.0625
 9165SOL     OW28935   4.880   1.035   4.978  0.6907 -0.1771 -0.0429
 9165SOL    HW128936   4.916   1.118   5.010 -1.8838  0.8492  0.3728
 9165SOL    HW228937   4.847   0.991   5.056 -0.1739 -0.4484 -0.5531
 9166SOL     OW28938   0.218   7.364   7.155 -0.0709 -0.1850 -0.0628
 9166SOL    HW128939   0.284   7.299   7.132  0.6874 -0.1564  1.8389
 9166SOL    HW228940   0.141   7.313   7.179 -0.6986 -0.2267 -1.9697
 9167SOL     OW28941   3.492   5.954   3.405 -0.5399  0.2547 -0.7034
 9167SOL    HW128942   3.543   6.031   3.432 -1.2650  0.5491 -0.1598
 9167SOL    HW228943   3.422   5.991   3.350 -0.5171 -0.0899 -0.9662
 9168SOL     OW28944   0.260   0.324   0.496  0.3392  0.0886 -0.2258
 9168SOL    HW128945   0.276   0.415   0.522  0.0502  1.1400 -3.2779
 9168SOL    HW228946   0.336   0.300   0.444 -0.3413 -0.8034 -0.8493
 9169SOL     OW28947   5.777   3.137   4.993 -0.0680  0.0058 -0.2837
 9169SOL    HW128948   5.804   3.064   5.049  0.1154  0.9848  0.9423
 9169SOL    HW228949   5.695   3.167   5.030  0.9337  1.8008  0.5934
 9170SOL     OW28950   6.310   6.240   6.712  1.2815 -0.1035 -0.0544
 9170SOL    HW128951   6.390   6.205   6.751  1.1495 -1.4840 -0.9444
 9170SOL    HW228952   6.321   6.227   6.618  0.7498  1.3194 -0.3286
 9171SOL     OW28953   2.313   0.084   0.167  0.3492 -0.3537  0.5456
 9171SOL    HW128954   2.283   0.151   0.229  0.8058  0.0415  0.3402
 9171SOL    HW228955   2.407   0.099   0.158  0.3895 -0.7830  0.2012
 9172SOL     OW28956   5.868   4.527   7.979 -0.3422 -0.7891 -0.5278
 9172SOL    HW128957   5.932   4.472   7.934 -0.2766 -1.1680  0.0163
 9172SOL    HW228958   5.842   4.593   7.914  1.0831 -0.2259 -0.5461
 9173SOL     OW28959   2.373   3.755  10.828 -0.3357 -0.2338  0.0318
 9173SOL    HW128960   2.298   3.765  10.887  0.3010  1.4586  0.6200
 9173SOL    HW228961   2.447   3.734  10.886  0.2013  0.9825 -0.1761
 9174SOL     OW28962   4.670   0.017  10.340  0.2134 -0.1492 -0.4037
 9174SOL    HW128963   4.676   0.091  10.401  1.3478  0.5145 -1.2863
 9174SOL    HW228964   4.693  -0.060  10.392 -0.3645  0.1952  0.3731
 9175SOL     OW28965   0.145   3.335   7.830  0.1122 -0.6373  1.0870
 9175SOL    HW128966   0.102   3.398   7.887 -0.2080 -1.1363  1.4064
 9175SOL    HW228967   0.077   3.271   7.809  0.2093 -0.4400  0.0995
 9176SOL     OW28968   6.684   4.195   3.107 -0.5702  0.1073  0.2505
 9176SOL    HW128969   6.714   4.286   3.113  3.2192 -1.0344  1.6724
 9176SOL    HW228970   6.696   4.172   3.015 -0.7144  0.7732  0.0591
 9177SOL     OW28971   6.051   2.513   3.524  0.2370 -0.4598 -0.7301
 9177SOL    HW128972   6.075   2.585   3.466  1.0312  0.4617  0.6802
 9177SOL    HW228973   6.101   2.529   3.604  0.9064 -2.9335 -0.5760
 9178SOL     OW28974   6.619   2.712  12.142  0.6942 -0.0094 -0.2353
 9178SOL    HW128975   6.648   2.704  12.232  2.1572  0.5175 -0.6295
 9178SOL    HW228976   6.524   2.723  12.148  0.9522  1.8579  1.3652
 9179SOL     OW28977   5.126   5.628   4.070  0.1141 -0.2879 -0.4041
 9179SOL    HW128978   5.097   5.542   4.100  0.1526 -0.9229 -2.0824
 9179SOL    HW228979   5.102   5.631   3.977 -0.0338  1.5856 -0.3421
 9180SOL     OW28980   5.407   1.758   2.425 -0.2876 -0.5476 -0.7484
 9180SOL    HW128981   5.476   1.726   2.367 -0.2931 -2.9389  0.4410
 9180SOL    HW228982   5.329   1.763   2.370 -0.3234 -2.8729 -1.0109
 9181SOL     OW28983   0.104   0.990   4.626  0.1099  0.1504 -0.1979
 9181SOL    HW128984   0.129   0.969   4.716 -0.4090 -1.0236 -0.2959
 9181SOL    HW228985   0.010   0.972   4.623 -0.0325  0.9496 -0.7701
 9182SOL     OW28986   7.428   4.637   9.607 -0.0700  0.2492  0.6651
 9182SOL    HW128987   7.493   4.568   9.594 -1.2422 -0.9708  1.0980
 9182SOL    HW228988   7.393   4.654   9.519 -2.2219 -2.2409  0.9045
 9183SOL     OW28989   7.647   2.707   3.472  0.1797  0.0683  0.1864
 9183SOL    HW128990   7.569   2.664   3.438 -1.0457  1.2446  1.3793
 9183SOL    HW228991   7.681   2.646   3.538 -0.9531  0.4325  1.1425
 9184SOL     OW28992   7.510   7.651   8.208  0.2120  0.3170 -0.2559
 9184SOL    HW128993   7.493   7.558   8.227 -0.0384 -0.0264 -1.9868
 9184SOL    HW228994   7.536   7.688   8.293  1.0759 -1.4985  0.3319
 9185SOL     OW28995   5.182   6.616   0.990 -0.4952  0.4861 -0.1503
 9185SOL    HW128996   5.151   6.602   1.080  0.5325  0.2252  0.1824
 9185SOL    HW228997   5.194   6.710   0.983  2.7415  0.3084  1.2007
 9186SOL     OW28998   7.593   2.557   1.861  0.0867  0.2519 -0.2601
 9186SOL    HW128999   7.555   2.540   1.947 -1.7371 -0.3269 -1.1330
 9186SOL    HW229000   7.611   2.651   1.860 -0.6054  0.3931  0.4690
 9187SOL     OW29001   7.307   4.450   4.449  0.1945 -0.1476  0.1987
 9187SOL    HW129002   7.252   4.376   4.423 -0.1813  0.2552 -0.1529
 9187SOL    HW229003   7.319   4.501   4.369  0.5187  0.1326  0.4234
 9188SOL     OW29004   3.747   1.343   3.308 -0.2367  0.3912  0.5199
 9188SOL    HW129005   3.688   1.301   3.371  0.4849 -1.9357 -0.2481
 9188SOL    HW229006   3.688   1.382   3.243 -1.0144 -1.6113 -0.0686
 9189SOL     OW29007   2.739   3.577   0.334 -0.3995 -1.0957  0.0697
 9189SOL    HW129008   2.713   3.656   0.287 -0.9280 -1.2222  0.1314
 9189SOL    HW229009   2.815   3.603   0.386 -1.6730 -0.0976  1.5328
 9190SOL     OW29010   4.496   4.877   9.376 -0.0167  0.7827 -0.1188
 9190SOL    HW129011   4.493   4.852   9.284  0.5660  0.4859 -0.0564
 9190SOL    HW229012   4.587   4.900   9.392  0.0404  0.1148  0.5759
 9191SOL     OW29013   7.734   3.857   4.987 -0.2916  0.1849  0.4238
 9191SOL    HW129014   7.673   3.907   5.043 -0.6994 -0.5989  0.6907
 9191SOL    HW229015   7.679   3.822   4.917 -0.2459 -0.8877  0.9043
 9192SOL     OW29016   0.094   5.995   9.731  0.0848 -0.2096  0.0747
 9192SOL    HW129017   0.085   5.932   9.803  0.1380 -0.9907 -0.5910
 9192SOL    HW229018   0.128   5.943   9.658 -1.0738  0.3231 -0.8765
 9193SOL     OW29019   3.131   4.051   8.163  0.3452  0.1519 -0.1403
 9193SOL    HW129020   3.152   3.983   8.099 -2.2421 -0.3824 -0.5488
 9193SOL    HW229021   3.191   4.122   8.143  1.6287 -1.1584 -1.1635
 9194SOL     OW29022   6.439   2.813   7.369  0.1273 -0.4075  0.1845
 9194SOL    HW129023   6.478   2.817   7.282 -1.0768  0.1321 -0.3546
 9194SOL    HW229024   6.504   2.856   7.426  0.3666  0.4023 -0.6700
 9195SOL     OW29025   6.072   7.696   4.603  0.1425 -0.2100  0.5816
 9195SOL    HW129026   5.994   7.642   4.595  0.9028 -1.3495  0.5678
 9195SOL    HW229027   6.137   7.653   4.547  1.1741 -0.0593  1.6188
 9196SOL     OW29028   5.096   5.867   8.902 -0.2041 -0.1704  0.1844
 9196SOL    HW129029   5.138   5.789   8.937  0.0285 -0.1034  0.0576
 9196SOL    HW229030   5.137   5.880   8.816 -1.6619 -1.0901 -0.7163
 9197SOL     OW29031   1.394   4.022   6.181  0.2224 -0.3648 -0.5852
 9197SOL    HW129032   1.384   3.930   6.205 -0.9043  0.2270  1.5019
 9197SOL    HW229033   1.312   4.044   6.137  1.2860 -0.7997 -2.9415
 9198SOL     OW29034   0.347   6.631  12.248  0.7924  0.0122 -0.1268
 9198SOL    HW129035   0.380   6.543  12.227 -0.9369 -0.6041 -0.4965
 9198SOL    HW229036   0.417   6.672  12.298  2.3936 -0.9094 -1.4877
 9199SOL     OW29037   4.560   3.402   1.690 -0.2399  0.1684  0.9478
 9199SOL    HW129038   4.592   3.336   1.629 -0.9254  0.2435  0.5007
 9199SOL    HW229039   4.637   3.457   1.708 -0.3012  0.9042 -0.8345
 9200SOL     OW29040   4.167   7.644   4.625  0.4495 -0.1586 -0.0656
 9200SOL    HW129041   4.103   7.586   4.667  0.8947 -0.4275  0.2607
 9200SOL    HW229042   4.237   7.652   4.690  0.4470  0.6628 -0.1539
 9201SOL     OW29043   2.100   1.140  10.554  0.4818  0.6399  0.2165
 9201SOL    HW129044   2.160   1.069  10.575  2.9237  2.4571 -0.0657
 9201SOL    HW229045   2.083   1.183  10.638  0.1424  0.5466  0.1963
 9202SOL     OW29046   1.060   2.961   6.186 -0.5849 -0.4141  0.1675
 9202SOL    HW129047   1.079   2.875   6.223  0.3369  0.4341  1.8272
 9202SOL    HW229048   1.146   3.000   6.173 -0.9896  0.2002 -0.6993
 9203SOL     OW29049   2.619   6.009   5.215  0.9113 -0.8299  0.6326
 9203SOL    HW129050   2.650   6.099   5.203  0.1117 -0.6620 -0.3693
 9203SOL    HW229051   2.527   6.019   5.240  0.9627 -1.3591  1.0501
 9204SOL     OW29052   0.489   5.207   6.347 -0.0146 -0.1268 -0.0108
 9204SOL    HW129053   0.503   5.270   6.277  2.0894 -1.8111 -1.2432
 9204SOL    HW229054   0.537   5.242   6.422 -0.3170  0.5610 -0.1392
 9205SOL     OW29055   2.895   1.686   6.300 -0.2515 -0.2810  0.0513
 9205SOL    HW129056   2.845   1.608   6.324  0.9602 -1.5936 -1.4461
 9205SOL    HW229057   2.945   1.659   6.223  1.0118  1.6732  0.1280
 9206SOL     OW29058   5.597   0.040   5.360  0.4180 -0.2058  0.0348
 9206SOL    HW129059   5.639  -0.014   5.293  0.4306  1.7108 -1.5848
 9206SOL    HW229060   5.504   0.024   5.349  0.4440 -0.2924 -0.0614
 9207SOL     OW29061   1.429   7.086   9.435  0.4853 -0.5389 -0.5059
 9207SOL    HW129062   1.346   7.112   9.395  0.1360 -1.5267 -0.4677
 9207SOL    HW229063   1.418   7.107   9.528 -0.2051 -1.7124 -0.2880
 9208SOL     OW29064   6.924   7.048   8.753 -0.3578  0.0394 -0.1081
 9208SOL    HW129065   6.985   6.993   8.704  0.7567 -0.8431  2.1014
 9208SOL    HW229066   6.878   6.987   8.811 -0.2005  1.2224  1.3306
 9209SOL     OW29067   3.098   4.257   1.400 -0.2667 -0.5814  0.6535
 9209SOL    HW129068   3.015   4.282   1.441 -0.0049  3.1274 -0.7218
 9209SOL    HW229069   3.160   4.324   1.427  0.8285 -0.0543 -2.7515
 9210SOL     OW29070   4.973   2.338  11.119  0.2164  0.0436 -0.4022
 9210SOL    HW129071   4.952   2.394  11.044  1.0299  0.7708 -0.0969
 9210SOL    HW229072   5.053   2.375  11.155 -0.1009 -0.3659  0.7697
 9211SOL     OW29073   6.442   4.207   7.181  0.2085  0.3204  0.1510
 9211SOL    HW129074   6.450   4.178   7.272 -1.8220  0.4413  0.4156
 9211SOL    HW229075   6.523   4.177   7.139  1.5098  0.8583  2.1239
 9212SOL     OW29076   0.468   7.509  11.152  0.3339  0.3544  0.0645
 9212SOL    HW129077   0.391   7.453  11.140  1.7102 -1.1371 -2.7313
 9212SOL    HW229078   0.525   7.459  11.209  0.8922 -0.4659 -1.1633
 9213SOL     OW29079   1.450   4.082   5.499 -0.1420  0.5758  0.2274
 9213SOL    HW129080   1.416   4.129   5.423 -1.5193  1.1260  1.1426
 9213SOL    HW229081   1.520   4.027   5.464 -1.8235 -0.4451 -1.7325
 9214SOL     OW29082   3.423   2.014   7.870 -0.6033  0.0727  0.1625
 9214SOL    HW129083   3.506   2.050   7.838 -0.0779 -0.3275  1.0115
 9214SOL    HW229084   3.356   2.066   7.828  0.1103  1.0460  0.2004
 9215SOL     OW29085   5.563   3.653   2.804  0.5442  0.2570 -0.5392
 9215SOL    HW129086   5.631   3.720   2.798  0.0617  0.7565 -0.5492
 9215SOL    HW229087   5.591   3.584   2.743  1.0636  0.4329 -0.4987
 9216SOL     OW29088   4.413   6.958   8.883 -0.0749 -0.3047 -0.1020
 9216SOL    HW129089   4.320   6.949   8.901  0.2353 -2.8653  0.7473
 9216SOL    HW229090   4.456   6.929   8.964  1.4527  0.0006 -0.7566
 9217SOL     OW29091   7.865   0.554   4.052 -0.5574 -0.1328  0.2608
 9217SOL    HW129092   7.779   0.578   4.016  0.0550 -1.3324 -2.2575
 9217SOL    HW229093   7.922   0.627   4.031 -0.2877 -0.6708 -0.9638
 9218SOL     OW29094   7.868   6.492   6.771  0.0789 -0.4702  0.2890
 9218SOL    HW129095   7.905   6.417   6.725 -0.2639 -1.0114  0.8612
 9218SOL    HW229096   7.911   6.568   6.734 -1.3264 -0.7330 -2.0740
 9219SOL     OW29097   4.491   1.781   5.776 -0.0756  0.2314 -0.1334
 9219SOL    HW129098   4.532   1.728   5.844  1.2031  0.1745 -0.8959
 9219SOL    HW229099   4.479   1.867   5.816  0.7710  0.2331  0.1466
 9220SOL     OW29100   0.686   0.579   3.247  0.5021  0.0178 -0.5629
 9220SOL    HW129101   0.721   0.498   3.285 -0.1670 -0.1091 -0.2100
 9220SOL    HW229102   0.592   0.565   3.243  0.3589  0.8776 -0.2758
 9221SOL     OW29103   5.122   1.272   2.906 -0.1807 -0.3623 -0.3277
 9221SOL    HW129104   5.124   1.363   2.875  0.3552 -0.1740  0.2452
 9221SOL    HW229105   5.214   1.247   2.912 -0.2600 -0.4040  1.0565
 9222SOL     OW29106   1.683   0.922  12.229 -0.1370 -0.4297  0.4549
 9222SOL    HW129107   1.771   0.892  12.253 -0.0958 -1.1794 -0.5774
 9222SOL    HW229108   1.634   0.841  12.211 -0.1467  0.0412 -1.9980
 9223SOL     OW29109   1.669   5.423   7.720  0.1000  0.3018 -0.5478
 9223SOL    HW129110   1.613   5.401   7.795  2.1170 -1.9692  0.4392
 9223SOL    HW229111   1.683   5.517   7.727 -0.1469  0.2267  1.7010
 9224SOL     OW29112   4.313   0.498   2.839 -0.6815 -0.2979 -0.6473
 9224SOL    HW129113   4.348   0.586   2.854  0.7161 -0.8601 -0.4268
 9224SOL    HW229114   4.225   0.513   2.805 -0.6092  1.1779 -0.2833
 9225SOL     OW29115   0.811   2.914   8.895  0.2921 -0.2552  0.2034
 9225SOL    HW129116   0.752   2.913   8.970  0.4769  2.9496  0.5026
 9225SOL    HW229117   0.763   2.961   8.827  1.5955  0.2702 -0.3769
 9226SOL     OW29118   5.609   4.508   1.679  1.0271  0.5651 -0.2862
 9226SOL    HW129119   5.578   4.598   1.686 -0.0083  0.2174 -0.1992
 9226SOL    HW229120   5.634   4.484   1.768  0.8386  0.6037 -0.2235
 9227SOL     OW29121   6.662   1.039   6.013 -0.2615 -0.1243 -0.0392
 9227SOL    HW129122   6.749   1.075   6.032 -0.5351  0.7675 -0.4197
 9227SOL    HW229123   6.642   0.983   6.089  0.0168  0.8415  0.7632
 9228SOL     OW29124   1.353   4.378  10.220  0.4645  0.0528 -0.2987
 9228SOL    HW129125   1.272   4.429  10.227 -0.7427 -2.0409  2.8854
 9228SOL    HW229126   1.330   4.305  10.162  0.1485 -0.3585  0.3353
 9229SOL     OW29127   0.460   0.995   4.565 -0.0869  0.3472 -0.0963
 9229SOL    HW129128   0.386   1.012   4.507 -1.5624 -1.3575  1.1767
 9229SOL    HW229129   0.441   1.046   4.643  1.2792  1.6714 -0.5746
 9230SOL     OW29130   2.548   0.378   4.891 -0.4388 -0.2536  0.4029
 9230SOL    HW129131   2.497   0.348   4.816 -1.0122 -0.1417  0.7458
 9230SOL    HW229132   2.596   0.300   4.920 -0.8915 -0.5148  0.4580
 9231SOL     OW29133   1.767   3.236   8.483  0.1218  0.3558  0.5854
 9231SOL    HW129134   1.841   3.252   8.541 -1.5979  0.0963  2.9911
 9231SOL    HW229135   1.741   3.322   8.451  0.2045  0.6635  1.3546
 9232SOL     OW29136   6.524   3.348   0.474  0.2315  0.1580 -0.4028
 9232SOL    HW129137   6.557   3.430   0.511  0.6007  0.8286 -2.1341
 9232SOL    HW229138   6.579   3.280   0.512  0.3201  0.7593  0.5865
 9233SOL     OW29139   6.346   2.470  11.221 -0.0561 -0.5864  0.3854
 9233SOL    HW129140   6.436   2.450  11.195 -0.6749 -1.5599 -1.1792
 9233SOL    HW229141   6.326   2.406  11.289  0.3522 -0.5111  0.5799
 9234SOL     OW29142   0.698   3.993  10.218 -0.1432  0.4450 -0.3235
 9234SOL    HW129143   0.643   4.051  10.166 -0.7854 -0.0648 -0.2271
 9234SOL    HW229144   0.686   4.021  10.308 -0.8964 -0.1713 -0.2151
 9235SOL     OW29145   6.280   2.325   9.977 -0.6228 -0.0525 -0.1835
 9235SOL    HW129146   6.321   2.280  10.051 -0.3730 -0.7584 -0.7380
 9235SOL    HW229147   6.205   2.271   9.955 -0.7191  0.1793 -0.4206
 9236SOL     OW29148   2.112   3.994   5.572 -0.5288 -0.1629 -0.9624
 9236SOL    HW129149   2.055   3.958   5.639  0.0458 -0.1186 -0.4404
 9236SOL    HW229150   2.128   3.920   5.512 -2.1533  0.1557 -1.8512
 9237SOL     OW29151   7.289   4.331   3.099  0.0575  0.0360  0.0483
 9237SOL    HW129152   7.264   4.373   3.182  0.3777  1.5620 -0.6050
 9237SOL    HW229153   7.205   4.311   3.057 -0.1279  1.6584 -0.4179
 9238SOL     OW29154   0.661   4.337   5.045  0.0232 -0.0478 -0.6335
 9238SOL    HW129155   0.673   4.257   5.096 -1.5674 -0.3367 -0.6653
 9238SOL    HW229156   0.747   4.353   5.006  1.0846 -0.2328  1.5055
 9239SOL     OW29157   4.544   4.271   8.054  0.0856  0.2218 -0.6698
 9239SOL    HW129158   4.608   4.316   7.998  0.6821  2.1111  1.3747
 9239SOL    HW229159   4.598   4.214   8.110 -0.4721 -1.4268 -1.7493
 9240SOL     OW29160   2.870   4.346   5.840 -0.3611  0.7334  0.1836
 9240SOL    HW129161   2.828   4.400   5.907 -1.1527 -0.7340  0.9175
 9240SOL    HW229162   2.938   4.298   5.887 -0.8313 -0.2071 -0.0683
 9241SOL     OW29163   5.799   5.394   2.164  0.3742  0.1152 -0.3876
 9241SOL    HW129164   5.861   5.357   2.101  0.6909 -2.0414  1.0927
 9241SOL    HW229165   5.757   5.318   2.205 -0.5406  1.4414  1.2825
 9242SOL     OW29166   2.316   2.525   6.329  0.0506  0.4017 -0.2404
 9242SOL    HW129167   2.346   2.615   6.343  0.0028  0.4468 -0.4259
 9242SOL    HW229168   2.363   2.474   6.395 -1.3020  0.8171  1.0829
 9243SOL     OW29169   6.539   3.929   4.197  0.3236  0.0374  0.2350
 9243SOL    HW129170   6.604   3.861   4.212 -1.4694 -1.5516  1.3983
 9243SOL    HW229171   6.518   3.961   4.285  0.2606  1.2546 -0.2048
 9244SOL     OW29172   2.518   3.496   3.394 -0.1780 -0.1654  0.2866
 9244SOL    HW129173   2.473   3.512   3.311  2.2290  0.1886 -1.0276
 9244SOL    HW229174   2.555   3.581   3.418 -0.9965 -0.2205  1.8596
 9245SOL     OW29175   6.699   3.676   6.265  0.1564 -0.2116 -0.0456
 9245SOL    HW129176   6.792   3.693   6.253 -0.0685  0.1776 -1.4024
 9245SOL    HW229177   6.692   3.581   6.273  0.5065 -0.4141 -1.7730
 9246SOL     OW29178   6.347   3.517   3.009 -0.4888  0.0926 -0.1766
 9246SOL    HW129179   6.400   3.483   2.937  2.2896  1.8643  0.8717
 9246SOL    HW229180   6.306   3.440   3.048  0.0763 -1.1787 -1.9833
 9247SOL     OW29181   4.755   0.320   3.401  0.0768 -0.1523 -0.1901
 9247SOL    HW129182   4.676   0.308   3.349 -0.6846  1.1446  0.6000
 9247SOL    HW229183   4.783   0.410   3.383 -0.0421  0.2383  1.3603
 9248SOL     OW29184   1.235   2.257   3.147  0.8355  0.5310 -0.3203
 9248SOL    HW129185   1.141   2.249   3.162  1.0749  1.8871  2.5143
 9248SOL    HW229186   1.274   2.194   3.208  1.8008  1.7449  0.3444
 9249SOL     OW29187   2.820   3.016   1.754 -0.3386  0.4685  0.2352
 9249SOL    HW129188   2.900   2.964   1.760 -0.3221  0.0294 -2.4553
 9249SOL    HW229189   2.761   2.978   1.818  1.0619 -0.2084  1.1659
 9250SOL     OW29190   0.877   4.444  12.191 -0.2638 -0.4143  0.3730
 9250SOL    HW129191   0.942   4.441  12.120 -1.4930 -3.4265 -0.7731
 9250SOL    HW229192   0.826   4.523  12.173  1.0394  0.2493 -0.5843
 9251SOL     OW29193   2.201   2.941   2.488  0.0356  0.3387  0.8113
 9251SOL    HW129194   2.238   2.956   2.400  1.2536 -1.9688  0.8619
 9251SOL    HW229195   2.114   2.980   2.483  0.9727  2.5377 -0.5791
 9252SOL     OW29196   3.447   1.302   5.557  0.0523  0.3318 -0.2550
 9252SOL    HW129197   3.468   1.287   5.650  1.0112 -0.6977 -0.6192
 9252SOL    HW229198   3.434   1.214   5.521  1.2009  0.6201 -1.4374
 9253SOL     OW29199   6.321   0.660   7.599  0.0929  0.6132  0.3050
 9253SOL    HW129200   6.408   0.672   7.561  0.6781  0.5364  1.5595
 9253SOL    HW229201   6.338   0.642   7.692 -1.2943  2.0748  0.9042
 9254SOL     OW29202   5.365   0.316   3.983  0.3465 -0.6677 -0.1653
 9254SOL    HW129203   5.408   0.254   3.924 -0.6320 -2.3642  0.8301
 9254SOL    HW229204   5.272   0.293   3.979 -0.2992  1.7500 -0.8976
 9255SOL     OW29205   2.206   3.316  11.059  0.0648 -0.0201  0.0557
 9255SOL    HW129206   2.113   3.337  11.066 -0.1028 -1.0552  1.3083
 9255SOL    HW229207   2.249   3.378  11.117 -0.0909 -0.9413  1.1862
 9256SOL     OW29208   7.143   5.894   4.989  0.2595  0.0292  0.0876
 9256SOL    HW129209   7.121   5.832   5.059 -0.0265 -1.8665 -1.5954
 9256SOL    HW229210   7.238   5.889   4.982  0.3672  0.7934  0.7988
 9257SOL     OW29211   7.235   7.183   2.841 -0.4018 -0.2515  0.9416
 9257SOL    HW129212   7.274   7.111   2.792 -2.9268 -1.5504  0.6720
 9257SOL    HW229213   7.278   7.262   2.806  1.2161 -1.4630  0.0407
 9258SOL     OW29214   7.657   4.341   7.464 -0.2621 -0.5022 -0.3154
 9258SOL    HW129215   7.720   4.396   7.417  0.0433 -0.0163  0.6418
 9258SOL    HW229216   7.590   4.402   7.494  0.1941 -0.6024  0.9549
 9259SOL     OW29217   2.908   4.701  10.257  0.1702  0.5084  0.0298
 9259SOL    HW129218   2.822   4.672  10.288  1.1012 -1.5112  0.9303
 9259SOL    HW229219   2.938   4.764  10.323  0.3836 -0.6445  1.0634
 9260SOL     OW29220   5.789   7.885   1.273  0.6831  0.1515  0.4523
 9260SOL    HW129221   5.723   7.826   1.236  1.2702 -1.1111  1.3604
 9260SOL    HW229222   5.873   7.849   1.243  1.1254 -0.3694  2.2039
 9261SOL     OW29223   5.237   3.043   1.769 -0.5063 -0.0944 -0.0187
 9261SOL    HW129224   5.184   2.993   1.707  0.0276  0.5352 -1.0091
 9261SOL    HW229225   5.205   3.016   1.855  0.2510 -2.7166 -0.4559
 9262SOL     OW29226   1.973   2.366   3.949  0.5805 -0.3199  0.0946
 9262SOL    HW129227   1.918   2.315   3.889  1.7238  1.0634 -2.2992
 9262SOL    HW229228   2.045   2.306   3.971  1.2743 -0.2109 -1.7043
 9263SOL     OW29229   5.602   1.003   0.999 -0.2368 -0.5067 -0.5943
 9263SOL    HW129230   5.683   0.978   1.042 -0.2835  0.3363 -0.0048
 9263SOL    HW229231   5.537   1.005   1.069 -0.6167 -0.4800 -0.9424
 9264SOL     OW29232   6.294   2.431   5.652  0.1008 -0.5872 -0.4023
 9264SOL    HW129233   6.302   2.527   5.648 -0.6995 -0.5223 -0.5359
 9264SOL    HW229234   6.367   2.404   5.708  1.0112 -0.0004 -1.2553
 9265SOL     OW29235   1.804   5.611   5.060 -0.1182 -0.1019  0.5955
 9265SOL    HW129236   1.822   5.667   4.986  0.1726 -0.1087  0.6585
 9265SOL    HW229237   1.796   5.523   5.023  0.0104 -0.1026  0.5686
 9266SOL     OW29238   1.130   3.781   5.355 -0.1042  0.0199 -0.0246
 9266SOL    HW129239   1.183   3.738   5.288  0.9984  0.5268  0.4920
 9266SOL    HW229240   1.187   3.785   5.431 -0.3696  1.8837  0.1178
 9267SOL     OW29241   1.738   3.148   8.786 -0.4118 -0.1845  0.9653
 9267SOL    HW129242   1.801   3.203   8.739 -0.7336 -0.7172 -0.1163
 9267SOL    HW229243   1.657   3.200   8.787 -0.4244 -0.2035  0.8821
 9268SOL     OW29244   1.376   6.382   8.735  0.1841  0.0856  0.1184
 9268SOL    HW129245   1.408   6.314   8.675 -1.7141 -0.7924  0.0508
 9268SOL    HW229246   1.449   6.444   8.741  0.6213 -0.0396 -2.7192
 9269SOL     OW29247   6.202   6.268   3.099  0.1957 -0.1598 -0.1085
 9269SOL    HW129248   6.209   6.223   3.183  1.3641 -0.4251 -0.3295
 9269SOL    HW229249   6.290   6.299   3.081  0.4717 -1.9323 -2.2173
 9270SOL     OW29250   6.270   4.644   9.195  0.2217  0.0219  0.4588
 9270SOL    HW129251   6.365   4.634   9.201  0.1491 -0.4502  0.8469
 9270SOL    HW229252   6.242   4.661   9.285 -0.0867 -0.0305  0.3734
 9271SOL     OW29253   1.463   4.267   5.924  0.3965 -0.3444 -0.0537
 9271SOL    HW129254   1.498   4.351   5.951  3.8515 -2.0974  1.6050
 9271SOL    HW229255   1.386   4.288   5.871 -1.3067  3.6536  3.4542
 9272SOL     OW29256   3.931   6.760   2.556 -0.2157 -0.4012 -0.0659
 9272SOL    HW129257   3.903   6.818   2.486  0.6309 -1.1961 -1.0936
 9272SOL    HW229258   3.860   6.695   2.562 -0.8696  0.3503  0.6722
 9273SOL     OW29259   4.682   1.363  11.378 -0.2711  0.3414  0.4577
 9273SOL    HW129260   4.697   1.454  11.406 -1.0066  0.7674 -0.4460
 9273SOL    HW229261   4.602   1.337  11.425 -1.6516  1.1434 -1.3189
 9274SOL     OW29262   0.881   1.050   6.732 -0.2312 -0.3828  0.4541
 9274SOL    HW129263   0.800   1.091   6.765  0.7005  1.3853  0.6672
 9274SOL    HW229264   0.883   1.073   6.640  0.7992  0.9816  0.7880
 9275SOL     OW29265   5.968   6.454   5.842 -0.0852 -0.3999 -0.1822
 9275SOL    HW129266   6.041   6.515   5.842 -0.9452  0.6991  1.0426
 9275SOL    HW229267   5.891   6.510   5.855 -0.7065 -1.8778  3.5283
 9276SOL     OW29268   5.914   6.688   9.622 -0.0352 -0.4328  0.4693
 9276SOL    HW129269   5.840   6.642   9.582  0.0245  0.3568 -0.5916
 9276SOL    HW229270   5.988   6.630   9.608 -0.2603 -0.7522  0.5928
 9277SOL     OW29271   6.486   6.125  11.130  0.0002 -0.6836 -0.4541
 9277SOL    HW129272   6.503   6.109  11.223  0.6381 -1.2475 -0.6579
 9277SOL    HW229273   6.443   6.210  11.128  0.6736 -0.3078  0.2941
 9278SOL     OW29274   0.270   4.126   2.747  0.9994 -0.3695  0.0161
 9278SOL    HW129275   0.342   4.188   2.733  0.0133  0.4833 -1.5777
 9278SOL    HW229276   0.230   4.115   2.661 -0.8747 -0.6752  0.8560
 9279SOL     OW29277   0.885   1.487   1.911  0.5967  0.6129 -0.0595
 9279SOL    HW129278   0.903   1.550   1.981  0.0211 -0.3701  1.0138
 9279SOL    HW229279   0.802   1.446   1.937  0.4850  0.0764 -1.2159
 9280SOL     OW29280   0.927   2.526   1.412 -0.0632  0.0318  0.1050
 9280SOL    HW129281   0.997   2.590   1.414 -0.1875  0.1492  1.2802
 9280SOL    HW229282   0.969   2.445   1.381  0.0299  0.7182 -1.6773
 9281SOL     OW29283   3.111   3.624   4.703 -0.2787 -0.2756 -0.3815
 9281SOL    HW129284   3.022   3.659   4.698 -0.6822 -1.1212  0.5330
 9281SOL    HW229285   3.163   3.684   4.650 -1.1648  1.0007  0.1369
 9282SOL     OW29286   5.000   6.206   3.210  0.7369 -0.1749  0.1189
 9282SOL    HW129287   4.995   6.145   3.136  0.7852 -0.2836  0.2043
 9282SOL    HW229288   4.909   6.216   3.239  0.8312 -1.0134  0.7525
 9283SOL     OW29289   4.389   1.228   5.717  0.2089 -0.1135 -0.1655
 9283SOL    HW129290   4.430   1.285   5.783 -0.7023  0.6507 -0.2516
 9283SOL    HW229291   4.311   1.275   5.689 -0.2215 -1.1228 -0.7102
 9284SOL     OW29292   2.755   1.538   0.895  0.2059 -0.1966  0.4812
 9284SOL    HW129293   2.801   1.558   0.813 -1.8696  0.1041 -0.6974
 9284SOL    HW229294   2.813   1.478   0.942  2.0218  0.6238 -0.6158
 9285SOL     OW29295   2.655   7.610  10.568 -0.1292  0.3956 -0.0412
 9285SOL    HW129296   2.733   7.583  10.615 -1.0791 -1.0544  0.7731
 9285SOL    HW229297   2.679   7.604  10.475  0.5375 -0.6023  0.1857
 9286SOL     OW29298   2.423   4.759   1.264  0.0607 -0.5076  0.0828
 9286SOL    HW129299   2.505   4.806   1.249  0.1517 -1.0468 -1.3144
 9286SOL    HW229300   2.363   4.793   1.197  0.0356 -2.0978 -0.7629
 9287SOL     OW29301   0.080   6.959   1.593 -0.6210  0.2778 -1.0943
 9287SOL    HW129302  -0.004   6.999   1.571 -0.2333  1.1358 -1.0563
 9287SOL    HW229303   0.111   6.921   1.511 -0.8155  0.3975 -1.2248
 9288SOL     OW29304   0.950   1.256   3.222 -0.2404  0.2270  0.3531
 9288SOL    HW129305   1.034   1.278   3.181  0.4816 -0.5754  1.3436
 9288SOL    HW229306   0.965   1.171   3.263 -1.9635 -0.6005 -0.6010
 9289SOL     OW29307   0.373   7.822   3.946 -0.1167  0.2579 -0.3647
 9289SOL    HW129308   0.311   7.888   3.977  0.9729  1.0047  0.2887
 9289SOL    HW229309   0.459   7.858   3.966  0.5391 -0.8273 -1.1075
 9290SOL     OW29310   3.868   6.821  11.295 -0.0266 -0.2685  0.1234
 9290SOL    HW129311   3.871   6.740  11.345  1.2178 -0.9671 -0.9888
 9290SOL    HW229312   3.818   6.800  11.217 -0.9125  0.4564  0.4807
 9291SOL     OW29313   2.511   3.567  11.208  0.2129  0.3842 -0.0039
 9291SOL    HW129314   2.548   3.593  11.293  2.2614  0.0446 -0.7219
 9291SOL    HW229315   2.428   3.525  11.230 -0.1530  1.8540  1.6715
 9292SOL     OW29316   6.089   3.107   2.406 -0.3578 -0.0388  0.1626
 9292SOL    HW129317   6.167   3.082   2.357 -2.0352 -1.0985 -2.1319
 9292SOL    HW229318   6.111   3.087   2.497  1.5478 -1.6212 -0.5703
 9293SOL     OW29319   5.166   3.185   1.284 -0.9345 -0.0918  0.3377
 9293SOL    HW129320   5.106   3.136   1.229 -1.0612  0.3426  0.0860
 9293SOL    HW229321   5.198   3.256   1.229  0.5668 -0.8712  0.1582
 9294SOL     OW29322   2.844   4.697  11.653  0.0157  0.0127  0.0214
 9294SOL    HW129323   2.904   4.733  11.587  0.3047  1.9526  1.2717
 9294SOL    HW229324   2.893   4.701  11.735 -1.0769 -0.3871  0.7111
 9295SOL     OW29325   2.356   3.652   0.683  0.4824  0.4402 -0.3753
 9295SOL    HW129326   2.274   3.699   0.670  0.9925  0.9622 -1.9149
 9295SOL    HW229327   2.405   3.665   0.602  1.7526 -0.5484  0.1857
 9296SOL     OW29328   5.111   7.693   8.118 -0.1823  0.2662  0.5993
 9296SOL    HW129329   5.050   7.639   8.068  1.8441 -0.1053 -1.6591
 9296SOL    HW229330   5.103   7.780   8.079  2.3158 -0.3009 -1.4465
 9297SOL     OW29331   2.047   5.963   4.324 -0.0615 -0.2501 -0.2211
 9297SOL    HW129332   2.079   5.874   4.341  1.0128  0.4533  1.8678
 9297SOL    HW229333   2.126   6.017   4.325 -0.8428  0.9212  0.0098
 9298SOL     OW29334   2.607   3.172   4.765 -0.2963  0.2963  0.0649
 9298SOL    HW129335   2.585   3.185   4.673 -2.1444  0.1185  0.4464
 9298SOL    HW229336   2.697   3.139   4.764  0.0468  1.2114 -1.6077
 9299SOL     OW29337   7.574   4.602   2.328 -0.1783 -0.1545 -0.1921
 9299SOL    HW129338   7.565   4.692   2.296 -1.2849 -0.9869 -2.4949
 9299SOL    HW229339   7.564   4.609   2.423  1.8090  2.3559 -0.0653
 9300SOL     OW29340   2.550   5.500  11.320 -0.6889 -0.7031  0.4106
 9300SOL    HW129341   2.588   5.425  11.274  0.7693 -0.3157  0.9373
 9300SOL    HW229342   2.519   5.465  11.403  1.2514 -0.5026  1.2550
 9301SOL     OW29343   0.077   2.751   8.656 -0.5004 -0.4635 -0.0674
 9301SOL    HW129344   0.043   2.666   8.626  2.3839 -1.6520 -0.2407
 9301SOL    HW229345   0.117   2.732   8.741  0.3056  0.6895 -0.1684
 9302SOL     OW29346   4.683   2.379   1.839 -0.0229  0.1023 -0.2041
 9302SOL    HW129347   4.767   2.402   1.879 -0.2501  1.3040 -0.3585
 9302SOL    HW229348   4.620   2.435   1.884 -0.9904 -1.7887  0.9290
 9303SOL     OW29349   2.817   3.528   4.046 -0.0449 -0.0066 -0.3945
 9303SOL    HW129350   2.900   3.575   4.051  0.2559 -0.5898  0.4030
 9303SOL    HW229351   2.753   3.595   4.024  0.2466  0.9536  1.4321
 9304SOL     OW29352   3.595   0.856   2.279  0.1879  0.3278 -0.3194
 9304SOL    HW129353   3.688   0.836   2.288 -0.2987 -2.0535  0.2245
 9304SOL    HW229354   3.571   0.821   2.194 -0.1918  1.0514 -0.5139
 9305SOL     OW29355   4.498   7.670   6.476 -0.0841  0.2112 -0.4566
 9305SOL    HW129356   4.512   7.586   6.433 -1.1275 -1.4118  2.1736
 9305SOL    HW229357   4.582   7.692   6.515  0.4455  0.9320 -1.9110
 9306SOL     OW29358   0.829   5.582  10.499  0.1761 -0.2299 -0.2505
 9306SOL    HW129359   0.909   5.596  10.549  0.5050  0.2424 -0.9004
 9306SOL    HW229360   0.783   5.665  10.503 -0.3264 -0.5232  0.1847
 9307SOL     OW29361   0.597   5.281   0.743  0.5798 -0.0582  0.3862
 9307SOL    HW129362   0.668   5.303   0.683  0.4851  0.0516  0.3142
 9307SOL    HW229363   0.517   5.288   0.690  0.3077  1.8959  0.9992
 9308SOL     OW29364   2.190   4.140   8.074  0.2602 -0.2218 -0.0269
 9308SOL    HW129365   2.278   4.137   8.112 -0.7031 -0.9476  2.3511
 9308SOL    HW229366   2.132   4.116   8.146 -1.8787 -0.2066 -1.6376
 9309SOL     OW29367   1.522   2.967   2.674  0.1346  0.2112 -0.4894
 9309SOL    HW129368   1.541   2.873   2.664 -0.5403  0.0282 -0.1317
 9309SOL    HW229369   1.486   2.974   2.762  0.4328  0.8568 -0.4181
 9310SOL     OW29370   6.509   1.862   5.941  0.0594 -0.2713 -0.5997
 9310SOL    HW129371   6.534   1.870   6.033  2.5824  2.1586 -1.3551
 9310SOL    HW229372   6.533   1.772   5.917  2.4752  0.0609  0.3391
 9311SOL     OW29373   5.378   4.616   0.834  1.1048  0.6447  0.3686
 9311SOL    HW129374   5.322   4.641   0.760  1.9682  1.1477 -0.1346
 9311SOL    HW229375   5.419   4.534   0.807  0.8390  0.4315  0.6111
 9312SOL     OW29376   5.162   5.324  11.770 -0.1483 -0.1802  0.3731
 9312SOL    HW129377   5.247   5.327  11.814  0.5575  0.9761 -1.0109
 9312SOL    HW229378   5.182   5.325  11.677 -1.6570 -1.1381 -0.0024
 9313SOL     OW29379   4.277   6.204  10.811 -0.1441 -0.4706  0.8274
 9313SOL    HW129380   4.263   6.128  10.867  0.3587 -0.9240  0.3439
 9313SOL    HW229381   4.241   6.277  10.862 -0.1946 -0.9497  1.5031
 9314SOL     OW29382   2.262   5.903   2.783  0.2543  0.1150  0.0400
 9314SOL    HW129383   2.288   5.956   2.859 -0.3127  2.8003 -1.4904
 9314SOL    HW229384   2.168   5.891   2.793 -0.0569  1.5770 -0.7840
 9315SOL     OW29385   3.485   2.727   5.568 -0.2938  0.3143 -0.6322
 9315SOL    HW129386   3.544   2.795   5.536 -0.6905  0.6979 -0.5714
 9315SOL    HW229387   3.410   2.731   5.507 -0.8494  0.7431  0.0573
 9316SOL     OW29388   0.273   6.371   5.929  0.2029 -0.1418  0.0557
 9316SOL    HW129389   0.180   6.378   5.952  0.2523 -0.6419  0.4349
 9316SOL    HW229390   0.275   6.385   5.834 -0.2947 -0.3866  0.0048
 9317SOL     OW29391   0.216   1.438   0.837 -0.3071 -0.2342  0.4307
 9317SOL    HW129392   0.131   1.400   0.815  0.0834 -1.7016  1.3288
 9317SOL    HW229393   0.252   1.465   0.752 -1.6248  0.3720  0.0328
 9318SOL     OW29394   2.128   0.325  11.751  0.1714  0.1277  0.5832
 9318SOL    HW129395   2.122   0.418  11.731  2.0572  1.3275  4.6763
 9318SOL    HW229396   2.037   0.297  11.761 -0.4384  1.3889 -0.9789
 9319SOL     OW29397   1.234   5.607   3.910 -0.1095 -0.3324  0.0712
 9319SOL    HW129398   1.197   5.544   3.847  0.7472  0.0940 -0.8970
 9319SOL    HW229399   1.216   5.693   3.871 -2.1921  0.1412  1.8831
 9320SOL     OW29400   2.496   2.117   5.722  0.1014  0.3488  0.3506
 9320SOL    HW129401   2.485   2.032   5.763  1.8412 -0.0296  0.1087
 9320SOL    HW229402   2.577   2.109   5.671 -0.7463  1.5173 -1.2945
 9321SOL     OW29403   3.310   3.239  10.781  0.4262 -0.0972  0.3539
 9321SOL    HW129404   3.398   3.262  10.811  0.2395  0.7532  0.2876
 9321SOL    HW229405   3.266   3.207  10.859  0.4984  0.4059  0.6071
 9322SOL     OW29406   1.319   1.873  10.693  0.1774  0.0475 -0.1128
 9322SOL    HW129407   1.350   1.797  10.644 -1.2676 -0.8446  0.2914
 9322SOL    HW229408   1.224   1.869  10.686  0.0204  1.0538  1.0588
 9323SOL     OW29409   7.721   4.431   2.599  0.2114 -0.4697  0.1578
 9323SOL    HW129410   7.749   4.436   2.690 -0.7425  0.6070  0.4190
 9323SOL    HW229411   7.786   4.481   2.551  0.8647 -1.2653  0.1979
 9324SOL     OW29412   4.237   5.353   7.991  0.1629  0.1899 -0.1590
 9324SOL    HW129413   4.311   5.398   7.950 -0.4872 -0.7384 -2.5357
 9324SOL    HW229414   4.244   5.375   8.084  4.3467 -1.1510  0.0545
 9325SOL     OW29415   4.233   7.520   6.778  0.2578  0.2864 -0.7411
 9325SOL    HW129416   4.234   7.496   6.871 -3.0796 -0.9408 -0.8609
 9325SOL    HW229417   4.295   7.591   6.770  0.7911  0.2990  2.4049
 9326SOL     OW29418   1.489   5.997   5.843 -0.5703  0.9709  0.2189
 9326SOL    HW129419   1.445   6.073   5.881 -0.4179  0.0106  2.4496
 9326SOL    HW229420   1.546   5.965   5.912  1.9393  0.7643 -1.8096
 9327SOL     OW29421   2.242   4.408   8.038  0.2229  0.1284 -0.2544
 9327SOL    HW129422   2.230   4.313   8.043  0.9203  0.0672  0.7188
 9327SOL    HW229423   2.310   4.420   7.971  0.7156 -0.1262  0.1916
 9328SOL     OW29424   6.030   6.875   7.025 -0.0455 -0.1654  0.4361
 9328SOL    HW129425   6.036   6.875   7.121 -0.4089  1.4475  0.4869
 9328SOL    HW229426   5.954   6.820   7.006 -0.2366 -0.1429  1.0965
 9329SOL     OW29427   3.548   0.510   7.845  0.1446  0.4576 -0.0386
 9329SOL    HW129428   3.459   0.524   7.813 -0.4119  1.4283  1.8260
 9329SOL    HW229429   3.562   0.415   7.837 -1.4570  0.1338  0.6169
 9330SOL     OW29430   0.366   1.881  11.107 -0.0415 -0.1477 -0.1648
 9330SOL    HW129431   0.309   1.856  11.179 -1.6239  0.7013 -1.0602
 9330SOL    HW229432   0.428   1.942  11.145 -0.0685 -0.6498  0.7128
 9331SOL     OW29433   0.300   2.445   4.569  0.1277 -0.7891 -0.2196
 9331SOL    HW129434   0.298   2.473   4.660 -2.2197 -0.1954 -0.3983
 9331SOL    HW229435   0.289   2.350   4.573  2.1390 -1.0628  0.1365
 9332SOL     OW29436   5.186   0.878   7.980  0.6260  0.6220  0.3154
 9332SOL    HW129437   5.218   0.857   7.892  0.3308  0.3939  0.2591
 9332SOL    HW229438   5.099   0.839   7.983  0.6732  0.5506  0.7452
 9333SOL     OW29439   0.148   7.818   8.719 -0.2695 -0.6277 -0.1084
 9333SOL    HW129440   0.196   7.759   8.661 -1.4700 -1.8431  0.0663
 9333SOL    HW229441   0.205   7.830   8.795  0.4553 -0.6703 -0.6412
 9334SOL     OW29442   3.965   7.168   2.933  0.8279  0.3111  0.4368
 9334SOL    HW129443   4.057   7.144   2.942  1.0424  1.4934  1.7159
 9334SOL    HW229444   3.949   7.230   3.004 -1.1660 -0.4461  0.7156
 9335SOL     OW29445   3.986   3.317   5.897 -0.0445  0.1450  0.6659
 9335SOL    HW129446   3.942   3.343   5.816 -0.1955 -0.2286  0.6263
 9335SOL    HW229447   4.022   3.231   5.878 -0.7726 -0.3015  1.2542
 9336SOL     OW29448   5.882   1.672   3.466 -0.6474 -0.0498  0.2119
 9336SOL    HW129449   5.956   1.657   3.525 -0.7839 -1.0076  0.1620
 9336SOL    HW229450   5.916   1.731   3.399  0.1569 -0.6742  0.0530
 9337SOL     OW29451   3.567   3.560   2.181 -0.0172  0.0186 -0.4248
 9337SOL    HW129452   3.517   3.598   2.109  0.5625  0.9495 -0.3457
 9337SOL    HW229453   3.560   3.465   2.167 -0.5378  0.1690 -1.2665
 9338SOL     OW29454   4.189   7.532  10.093 -0.2291 -0.1221 -0.5241
 9338SOL    HW129455   4.176   7.626  10.106 -0.3585 -0.4028  1.7196
 9338SOL    HW229456   4.137   7.511  10.014 -0.9550  1.5069 -0.5123
 9339SOL     OW29457   3.915   4.834   2.199 -0.5459 -0.4581  0.4530
 9339SOL    HW129458   3.903   4.836   2.104 -1.1072 -0.1838  0.5237
 9339SOL    HW229459   3.840   4.785   2.232 -0.3881 -0.4961  0.7579
 9340SOL     OW29460   6.117   7.649   4.901 -0.0936  0.3561 -0.3272
 9340SOL    HW129461   6.151   7.561   4.895 -0.3317  0.2200  0.2029
 9340SOL    HW229462   6.126   7.685   4.813  0.8353  0.1209 -0.3386
 9341SOL     OW29463   5.338   3.188  10.072 -0.5682  0.3356 -0.3414
 9341SOL    HW129464   5.271   3.256  10.084  1.0216  1.8574  0.3839
 9341SOL    HW229465   5.401   3.227  10.011 -0.6754 -1.3618 -1.6126
 9342SOL     OW29466   3.451   0.783   5.369 -0.2299  0.2626 -0.3693
 9342SOL    HW129467   3.455   0.720   5.441 -0.7916  0.5229 -0.1045
 9342SOL    HW229468   3.493   0.738   5.295 -0.0599 -0.1769 -0.0086
 9343SOL     OW29469   0.838   4.768   1.145  0.0961  0.2518 -0.0854
 9343SOL    HW129470   0.930   4.777   1.120  0.6991 -0.2944  1.7498
 9343SOL    HW229471   0.797   4.850   1.117  1.5407  1.2758  0.6620
 9344SOL     OW29472   0.250   2.837   2.466  0.5926 -0.1847 -0.5566
 9344SOL    HW129473   0.180   2.817   2.403 -1.2508  2.0638  0.6337
 9344SOL    HW229474   0.206   2.834   2.551  2.3967 -0.4236  0.4041
 9345SOL     OW29475   4.163   6.083   8.186 -0.0309  0.0288 -0.4680
 9345SOL    HW129476   4.153   5.995   8.150 -2.2682 -0.5061  1.2430
 9345SOL    HW229477   4.176   6.139   8.110 -0.7243 -1.5104 -1.7627
 9346SOL     OW29478   4.461   0.462   0.295  0.2232  0.0198  0.3958
 9346SOL    HW129479   4.507   0.498   0.370  0.4796  0.3098  0.0985
 9346SOL    HW229480   4.426   0.538   0.249  1.4201 -0.0320 -0.6559
 9347SOL     OW29481   1.167   4.674  11.772 -0.3390  0.0280  0.2036
 9347SOL    HW129482   1.076   4.670  11.743 -0.5914 -0.8240  1.0545
 9347SOL    HW229483   1.177   4.599  11.831  1.3901 -0.9208 -1.1711
 9348SOL     OW29484   7.634   5.309   3.836  0.2560  0.0011  0.0961
 9348SOL    HW129485   7.656   5.397   3.868 -0.0388 -0.0071  0.3242
 9348SOL    HW229486   7.715   5.278   3.794  0.3287  0.4255 -0.0899
 9349SOL     OW29487   3.471   1.249  11.568  0.2669 -0.2908 -0.1726
 9349SOL    HW129488   3.556   1.277  11.601 -0.4388  0.1970  1.2858
 9349SOL    HW229489   3.447   1.173  11.622 -1.4836  1.2948  1.4409
 9350SOL     OW29490   4.981   2.201   3.769 -0.5891 -0.2069 -0.2699
 9350SOL    HW129491   4.945   2.288   3.751 -0.5258 -0.1804 -0.2679
 9350SOL    HW229492   4.904   2.148   3.788 -0.6363 -0.1743 -0.3659
 9351SOL     OW29493   7.054   0.873   2.780  0.3336 -0.2296  0.2117
 9351SOL    HW129494   7.145   0.897   2.800  0.1960  0.7179 -0.2462
 9351SOL    HW229495   7.017   0.846   2.864  0.7540  0.3446  0.5892
 9352SOL     OW29496   0.139   7.625   1.319 -0.3675  0.2138 -0.1321
 9352SOL    HW129497   0.149   7.551   1.379  1.4020 -0.2360 -0.9172
 9352SOL    HW229498   0.157   7.588   1.233 -0.3803  1.3702 -0.6420
 9353SOL     OW29499   4.648   6.967   4.724  0.1692  0.4285  0.2185
 9353SOL    HW129500   4.573   7.025   4.708  0.3470  0.3516 -1.0349
 9353SOL    HW229501   4.630   6.927   4.809 -0.8313  0.9917  0.2863
 9354SOL     OW29502   2.009   4.378   1.670  0.3275 -0.6651 -0.1795
 9354SOL    HW129503   1.973   4.452   1.622 -0.9414 -0.5689  0.8627
 9354SOL    HW229504   1.936   4.345   1.722  1.2460 -1.7426  0.4758
 9355SOL     OW29505   7.610   3.502   3.130  0.3799  0.0266 -0.0942
 9355SOL    HW129506   7.581   3.518   3.040  1.2446 -1.4769 -0.6716
 9355SOL    HW229507   7.692   3.454   3.121 -0.0823 -1.1470  1.4817
 9356SOL     OW29508   3.999   4.307   8.764 -0.4500 -0.3259 -0.1102
 9356SOL    HW129509   3.989   4.395   8.727 -1.4236 -0.6582 -0.6726
 9356SOL    HW229510   4.023   4.322   8.855  0.1782  0.5160 -0.3945
 9357SOL     OW29511   7.739   2.700   7.871  0.1007 -0.2078 -0.4050
 9357SOL    HW129512   7.673   2.631   7.868  1.5093 -1.6544  0.4134
 9357SOL    HW229513   7.818   2.656   7.902  0.7543  2.0022  1.2985
 9358SOL     OW29514   6.434   3.638   9.849 -0.3683 -0.1476  0.3563
 9358SOL    HW129515   6.398   3.570   9.906 -1.5512  0.2681  0.1312
 9358SOL    HW229516   6.422   3.719   9.898  0.4645 -0.0193  0.3607
 9359SOL     OW29517   5.065   5.918   2.757  0.0756 -0.2374  0.1217
 9359SOL    HW129518   4.986   5.961   2.725  0.4495 -0.0211 -0.5287
 9359SOL    HW229519   5.137   5.972   2.723  0.5230 -0.8910  0.0088
 9360SOL     OW29520   5.303   1.525   1.898  0.4894 -0.1949 -0.1566
 9360SOL    HW129521   5.348   1.484   1.972  2.2550 -1.2302 -1.7085
 9360SOL    HW229522   5.254   1.454   1.858 -0.4932  0.3727  0.0191
 9361SOL     OW29523   7.095   0.460   8.723  0.2999 -0.4287  0.8608
 9361SOL    HW129524   7.050   0.379   8.700 -0.1151  0.0844 -0.2309
 9361SOL    HW229525   7.188   0.442   8.704  0.0916 -0.3582 -0.2705
 9362SOL     OW29526   6.091   7.609   9.733 -0.3014 -0.3347  0.4513
 9362SOL    HW129527   6.185   7.610   9.715 -0.2876  2.4056  0.2815
 9362SOL    HW229528   6.050   7.601   9.647 -0.1723  2.4079  0.0488
 9363SOL     OW29529   0.910   1.830   0.202  0.1133  0.3138 -0.2305
 9363SOL    HW129530   0.856   1.851   0.126  0.3743  0.0799 -0.4831
 9363SOL    HW229531   0.947   1.914   0.230  1.3395  0.1833 -1.3769
 9364SOL     OW29532   4.367   2.290   3.839 -0.2142 -0.4330  0.1013
 9364SOL    HW129533   4.320   2.269   3.758 -1.5096  0.4226  0.5910
 9364SOL    HW229534   4.423   2.214   3.855 -0.6800 -1.0489 -1.0571
 9365SOL     OW29535   0.470   5.975   9.509 -0.2600  0.0084 -0.0350
 9365SOL    HW129536   0.480   5.883   9.485 -2.2458 -0.8744  2.1827
 9365SOL    HW229537   0.560   6.007   9.515  0.4834 -1.7543 -0.8843
 9366SOL     OW29538   4.595   5.252   2.189 -0.3626 -0.0674  0.3197
 9366SOL    HW129539   4.684   5.287   2.190 -0.6808  0.7512  1.5373
 9366SOL    HW229540   4.555   5.291   2.112  0.4107 -0.6928 -0.4216
 9367SOL     OW29541   2.174   7.015  12.262  0.0977  0.6014  0.3765
 9367SOL    HW129542   2.210   7.056  12.184 -3.2957 -1.8509 -2.8458
 9367SOL    HW229543   2.091   7.061  12.278 -0.7932 -0.9611  0.4826
 9368SOL     OW29544   3.214   7.605  10.142 -0.2141  0.3839  0.1059
 9368SOL    HW129545   3.227   7.700  10.137  0.9141  0.4125  2.5955
 9368SOL    HW229546   3.262   7.577  10.219  1.7484 -2.6778 -2.0078
 9369SOL     OW29547   5.876   1.146   7.775  0.0108 -0.0033 -0.1840
 9369SOL    HW129548   5.877   1.227   7.725 -2.2958  0.7479  0.8298
 9369SOL    HW229549   5.798   1.099   7.744  0.3947 -1.0565  0.3832
 9370SOL     OW29550   3.024   2.417  11.997  0.0352 -0.3146  0.0054
 9370SOL    HW129551   3.027   2.346  11.934  0.1423 -0.0245 -0.3170
 9370SOL    HW229552   2.940   2.460  11.981 -0.3121 -0.7394  0.6163
 9371SOL     OW29553   2.453   4.077   6.919 -0.8648 -0.5545  0.2319
 9371SOL    HW129554   2.504   4.121   6.987  3.0891 -3.5477 -0.4072
 9371SOL    HW229555   2.430   4.146   6.858 -3.0309  1.9429  3.5471
 9372SOL     OW29556   7.101   7.103   4.380  0.6185  0.3754  0.4074
 9372SOL    HW129557   7.163   7.078   4.312  0.3654 -0.7310  0.5754
 9372SOL    HW229558   7.116   7.197   4.392  0.6838  0.5903 -1.1527
 9373SOL     OW29559   1.513   2.804   6.127 -0.3508  0.3428 -0.2866
 9373SOL    HW129560   1.441   2.809   6.065 -0.0386 -2.2191 -1.0148
 9373SOL    HW229561   1.578   2.866   6.094 -0.1364 -1.0168 -2.7369
 9374SOL     OW29562   6.679   1.706   4.851  0.5760  0.0208  0.7581
 9374SOL    HW129563   6.686   1.665   4.765 -1.2730 -0.2981  0.7177
 9374SOL    HW229564   6.593   1.747   4.851  0.3609 -0.3475  2.6224
 9375SOL     OW29565   7.299   0.573  11.790  0.2871 -0.3151  0.4617
 9375SOL    HW129566   7.368   0.639  11.797  1.4272 -1.6234  3.2648
 9375SOL    HW229567   7.277   0.552  11.880 -2.1283 -1.6929 -0.3632
 9376SOL     OW29568   4.561   5.275   4.265 -0.1953 -0.0143 -0.1646
 9376SOL    HW129569   4.589   5.291   4.355  0.7006  0.9153 -0.6008
 9376SOL    HW229570   4.565   5.360   4.223 -0.9933 -0.3745 -0.9928
 9377SOL     OW29571   7.737   4.024   8.527  0.4792 -0.3586  0.6528
 9377SOL    HW129572   7.683   4.102   8.540 -0.8965 -1.0454 -0.6384
 9377SOL    HW229573   7.765   3.999   8.615 -1.4713 -0.0511  1.3993
 9378SOL     OW29574   2.065   3.509   0.490  0.0201  0.4217 -0.4166
 9378SOL    HW129575   1.973   3.516   0.464 -0.0321 -1.6932 -1.0139
 9378SOL    HW229576   2.075   3.418   0.517  2.3099  0.1649 -1.8302
 9379SOL     OW29577   4.920   2.742   7.192 -0.5374 -0.0430  0.0650
 9379SOL    HW129578   4.958   2.789   7.118  0.5385 -1.7875 -0.5551
 9379SOL    HW229579   4.858   2.681   7.153 -0.1440 -0.8075  0.6005
 9380SOL     OW29580   0.930   2.802   5.659 -0.7468 -0.0349  0.1165
 9380SOL    HW129581   0.965   2.822   5.746 -0.7020  0.0757  0.0725
 9380SOL    HW229582   0.971   2.866   5.601 -1.1955  0.2418  0.0999
 9381SOL     OW29583   1.084   4.054   2.135  0.0098  0.2543  0.0881
 9381SOL    HW129584   1.153   4.119   2.124 -0.6957  1.2575  1.3900
 9381SOL    HW229585   1.008   4.091   2.091  0.1792 -0.7099 -1.0763
 9382SOL     OW29586   2.438   1.449   6.744  0.3629 -0.0304 -0.0928
 9382SOL    HW129587   2.441   1.442   6.648 -1.7410  1.3616 -0.3195
 9382SOL    HW229588   2.471   1.537   6.762 -1.9474  0.8307  0.1804
 9383SOL     OW29589   6.949   3.589   4.287  0.3252 -0.1233  0.0819
 9383SOL    HW129590   6.970   3.617   4.198 -1.3979 -1.1272 -0.7035
 9383SOL    HW229591   7.029   3.603   4.337  0.8663  1.9555 -1.2473
 9384SOL     OW29592   5.651   6.991   6.822 -0.3744 -0.0813  0.0966
 9384SOL    HW129593   5.716   7.028   6.762 -0.2470  1.2917  1.0457
 9384SOL    HW229594   5.691   6.909   6.853  0.0792 -0.1918 -0.7355
 9385SOL     OW29595   0.597   3.931   9.262 -0.1501  0.2888  0.6537
 9385SOL    HW129596   0.680   3.953   9.218 -0.2415  1.1553  0.8981
 9385SOL    HW229597   0.606   3.968   9.350 -1.1243  1.1179  0.4154
 9386SOL     OW29598   5.475   1.254   1.801 -0.5402  0.6059 -0.1520
 9386SOL    HW129599   5.387   1.256   1.764 -0.0472  0.6474 -1.3771
 9386SOL    HW229600   5.468   1.198   1.878 -1.5105  0.1211 -0.5778
 9387SOL     OW29601   0.560   4.495  11.143  0.2744  0.3459  0.6868
 9387SOL    HW129602   0.533   4.496  11.234  2.5687  1.2908  1.4311
 9387SOL    HW229603   0.583   4.586  11.124  2.1187 -0.2307 -0.0564
 9388SOL     OW29604   6.637   1.173   8.809  0.2400  0.7150  0.2131
 9388SOL    HW129605   6.571   1.113   8.775  1.6316  0.0317 -1.4303
 9388SOL    HW229606   6.699   1.116   8.856  0.8046  1.0318 -0.1323
 9389SOL     OW29607   4.107   1.994   8.740  0.0649  0.2501 -0.2139
 9389SOL    HW129608   4.055   2.074   8.728  0.5070  0.6125  0.2237
 9389SOL    HW229609   4.079   1.959   8.825  1.5382  1.2483  0.7388
 9390SOL     OW29610   2.174   7.860  11.891  0.1139 -0.3518 -0.1804
 9390SOL    HW129611   2.098   7.826  11.844  0.9978 -0.3016 -1.6988
 9390SOL    HW229612   2.248   7.839  11.835  1.1450  0.3479  0.8736
 9391SOL     OW29613   2.102   1.721   3.899 -0.8262 -0.1661 -0.6284
 9391SOL    HW129614   2.093   1.703   3.805 -0.3776  0.6358 -0.8365
 9391SOL    HW229615   2.036   1.788   3.917 -1.1037 -0.5225 -0.3069
 9392SOL     OW29616   6.734   1.259  11.462 -0.5205  0.0208  0.3863
 9392SOL    HW129617   6.703   1.220  11.381 -2.3253 -0.0847  1.0867
 9392SOL    HW229618   6.822   1.293  11.441 -0.5302 -0.9275 -1.2850
 9393SOL     OW29619   7.151   2.082  10.169 -0.0672 -0.4514 -0.1385
 9393SOL    HW129620   7.232   2.070  10.220 -0.5745 -1.9353  0.3546
 9393SOL    HW229621   7.090   2.123  10.230  0.7462  2.2157 -0.9721
 9394SOL     OW29622   2.445   3.059   9.680 -0.1890 -0.1922 -0.0448
 9394SOL    HW129623   2.419   3.150   9.662  2.2549  0.7229  0.5653
 9394SOL    HW229624   2.410   3.009   9.606 -2.2234  1.0937 -0.0252
 9395SOL     OW29625   4.030   4.748   7.639 -0.0579  0.6221 -0.0587
 9395SOL    HW129626   3.950   4.696   7.649 -0.1446  1.2394  4.0977
 9395SOL    HW229627   4.075   4.708   7.565 -2.3013 -2.3565 -0.0044
 9396SOL     OW29628   4.759   5.885  11.335 -0.0713 -0.6858  0.1510
 9396SOL    HW129629   4.849   5.918  11.331 -0.1659 -0.5160 -0.8363
 9396SOL    HW229630   4.728   5.911  11.422  0.5878 -0.1105  0.2269
 9397SOL     OW29631   3.900   3.608  11.161 -0.4044  0.4531  0.5537
 9397SOL    HW129632   3.874   3.572  11.076  1.6238 -0.8109  0.4120
 9397SOL    HW229633   3.911   3.702  11.145 -1.2506  0.4246 -0.2609
 9398SOL     OW29634   4.381   2.243   9.478 -0.1569  0.1585 -0.1471
 9398SOL    HW129635   4.462   2.258   9.428 -0.2095 -1.0368 -0.6082
 9398SOL    HW229636   4.311   2.261   9.415 -0.2822  1.4210  0.3162
 9399SOL     OW29637   6.884   3.136   6.770 -0.2204  0.1391 -0.1015
 9399SOL    HW129638   6.807   3.117   6.717  0.2703 -1.6595 -0.2245
 9399SOL    HW229639   6.877   3.077   6.845 -0.2809  1.7986  1.2777
 9400SOL     OW29640   2.168   0.435   7.918  0.0137 -0.2284  0.1677
 9400SOL    HW129641   2.104   0.504   7.932 -1.1928 -0.9263 -1.4638
 9400SOL    HW229642   2.184   0.436   7.824  0.0696 -2.0349  0.1131
 9401SOL     OW29643   6.773   5.019   8.292  0.3873  0.0082  0.4326
 9401SOL    HW129644   6.826   4.943   8.316  1.9389  1.5281  2.2233
 9401SOL    HW229645   6.689   5.005   8.335  1.0681 -0.1844  1.7581
 9402SOL     OW29646   3.126   5.377   7.418 -0.1340 -0.2444  0.5311
 9402SOL    HW129647   3.051   5.426   7.452  0.2881  0.4053  0.5383
 9402SOL    HW229648   3.103   5.359   7.327 -1.2189 -1.8925  1.0801
 9403SOL     OW29649   2.700   3.959   4.592 -0.1799 -0.3413  0.1363
 9403SOL    HW129650   2.630   3.979   4.530 -0.0281  1.8045  0.5786
 9403SOL    HW229651   2.658   3.961   4.678  0.2130 -0.0615  0.3262
 9404SOL     OW29652   6.950   4.417   5.386  0.3710 -0.0780  0.3126
 9404SOL    HW129653   6.983   4.329   5.405 -1.4779 -0.8322  0.2115
 9404SOL    HW229654   6.898   4.407   5.306 -0.2105  1.0125  0.5299
 9405SOL     OW29655   2.115   2.471   4.451  0.3563  0.1459 -0.3254
 9405SOL    HW129656   2.021   2.450   4.452 -0.3340  2.7960 -0.5455
 9405SOL    HW229657   2.136   2.491   4.542  0.3103  0.9055 -0.4684
 9406SOL     OW29658   0.835   7.090   2.936  0.0625  0.8027 -0.4125
 9406SOL    HW129659   0.771   7.133   2.992 -1.4742 -0.8099 -0.8324
 9406SOL    HW229660   0.803   7.104   2.847 -0.0253 -0.4593 -0.5983
 9407SOL     OW29661   6.259   1.790   5.144 -0.2092  0.0955  0.1023
 9407SOL    HW129662   6.293   1.802   5.056  0.4690 -1.7525  0.0504
 9407SOL    HW229663   6.164   1.803   5.136 -0.3563 -1.4993 -1.2432
 9408SOL     OW29664   5.419   5.394   8.630 -0.5327 -0.0155  0.0930
 9408SOL    HW129665   5.475   5.372   8.556 -1.0386  0.1873 -0.3636
 9408SOL    HW229666   5.469   5.457   8.681  0.6064 -1.5894  0.9875
 9409SOL     OW29667   0.277   2.348   7.815 -0.6650  0.7532 -0.4581
 9409SOL    HW129668   0.216   2.302   7.757 -0.0464 -0.2953 -0.3039
 9409SOL    HW229669   0.338   2.280   7.844 -1.2137  1.1333  1.7849
 9410SOL     OW29670   3.288   3.646  10.197  0.1287  0.6261 -0.1551
 9410SOL    HW129671   3.350   3.583  10.160 -0.5621  0.3522 -0.8543
 9410SOL    HW229672   3.292   3.630  10.292  0.9520  0.4597 -0.2067
 9411SOL     OW29673   6.822   1.029  10.466  0.3115 -0.0866 -0.0188
 9411SOL    HW129674   6.825   1.044  10.371 -0.0831 -1.0903 -0.2053
 9411SOL    HW229675   6.899   0.975  10.484 -0.0725 -0.6015  0.0915
 9412SOL     OW29676   7.348   4.707   7.690 -0.0724 -0.2351  0.5224
 9412SOL    HW129677   7.338   4.801   7.677  0.7136 -0.3109 -0.7501
 9412SOL    HW229678   7.416   4.680   7.629  0.7468 -1.4045  1.8660
 9413SOL     OW29679   3.092   4.620  10.631  0.0491  0.2409 -0.0360
 9413SOL    HW129680   3.168   4.678  10.624  0.3839 -0.3594 -2.4577
 9413SOL    HW229681   3.120   4.539  10.589 -1.7494 -0.1903 -0.4942
 9414SOL     OW29682   1.108   3.521   6.358 -0.2483  0.5518 -0.3366
 9414SOL    HW129683   1.087   3.553   6.446 -3.9694  1.4278 -1.3844
 9414SOL    HW229684   1.031   3.472   6.331  1.5575 -1.3724 -2.4558
 9415SOL     OW29685   5.788   6.570   5.118  0.2755  0.0904 -1.0394
 9415SOL    HW129686   5.818   6.653   5.155 -1.0212  0.2828 -0.3737
 9415SOL    HW229687   5.712   6.546   5.170 -0.3226 -0.7192 -2.2301
 9416SOL     OW29688   4.600   1.139   8.907 -0.0843  0.5492 -0.0794
 9416SOL    HW129689   4.544   1.069   8.873 -0.2913  0.5586  0.2301
 9416SOL    HW229690   4.625   1.108   8.994  1.3980 -0.0207 -0.6703
 9417SOL     OW29691   2.532   3.560   9.373  0.0095  0.4026 -0.1424
 9417SOL    HW129692   2.457   3.562   9.433  0.6125 -1.1594  0.7269
 9417SOL    HW229693   2.592   3.626   9.408  0.7390 -1.0838  1.5930
 9418SOL     OW29694   4.510   1.817  11.235  0.0613 -0.2854  0.0166
 9418SOL    HW129695   4.537   1.816  11.327 -0.5116 -0.4920  0.1876
 9418SOL    HW229696   4.418   1.791  11.237  0.0742 -0.3952 -0.6273
 9419SOL     OW29697   4.249   6.464   8.650  0.7115 -0.1199  0.0481
 9419SOL    HW129698   4.318   6.409   8.614  1.1000 -0.8195  1.7523
 9419SOL    HW229699   4.292   6.513   8.720  0.2115  1.8752 -0.9691
 9420SOL     OW29700   6.333   1.023   1.381  0.3090 -0.0426  0.4266
 9420SOL    HW129701   6.265   1.052   1.320 -0.2845 -1.5911  0.3099
 9420SOL    HW229702   6.392   1.098   1.388  0.6344  0.0815 -2.3955
 9421SOL     OW29703   7.788   7.578  11.544  0.2630 -0.1322  0.3009
 9421SOL    HW129704   7.790   7.637  11.619 -1.5863 -2.0610  2.0257
 9421SOL    HW229705   7.740   7.626  11.476 -2.3257  0.0323  2.0805
 9422SOL     OW29706   5.262   0.929  11.571  0.2596 -0.8083  0.2347
 9422SOL    HW129707   5.352   0.902  11.553  0.1028 -0.4965 -1.0952
 9422SOL    HW229708   5.210   0.850  11.555  0.2483 -0.8887  0.6469
 9423SOL     OW29709   2.636   4.728   2.319 -0.3280  0.0263  0.0202
 9423SOL    HW129710   2.590   4.801   2.359 -0.7834 -1.2790  2.0336
 9423SOL    HW229711   2.727   4.758   2.311 -0.9220  1.6068 -1.4049
 9424SOL     OW29712   6.127   3.071   9.140 -0.0004 -0.0896  0.0346
 9424SOL    HW129713   6.098   3.047   9.052 -1.0352  0.2136  0.2841
 9424SOL    HW229714   6.080   3.152   9.159  0.3366 -0.0702  0.8041
 9425SOL     OW29715   4.681   3.471   5.648  0.0573 -0.3350 -0.4872
 9425SOL    HW129716   4.694   3.513   5.564 -1.4540  1.1372 -0.0594
 9425SOL    HW229717   4.608   3.411   5.634 -0.6240  0.3817 -0.1157
 9426SOL     OW29718   5.563   6.741   4.102  0.7124  0.3689 -0.0137
 9426SOL    HW129719   5.651   6.757   4.067  0.2129  1.3637 -0.8708
 9426SOL    HW229720   5.526   6.828   4.113 -0.6007 -0.0801 -0.7881
 9427SOL     OW29721   7.277   0.552  12.080  0.0915  0.5919  0.1981
 9427SOL    HW129722   7.364   0.525  12.111  1.1340  1.6997 -1.5070
 9427SOL    HW229723   7.239   0.600  12.153  0.3240 -1.0543  1.4485
 9428SOL     OW29724   5.757   0.056  11.755  0.1390  0.3662  0.7431
 9428SOL    HW129725   5.753  -0.038  11.776 -2.1216  0.5480  1.4168
 9428SOL    HW229726   5.666   0.080  11.736  0.9032  2.0752 -1.1568
 9429SOL     OW29727   4.256   4.631   2.244 -0.2081  0.0015 -0.1185
 9429SOL    HW129728   4.330   4.570   2.248 -0.2843 -0.0192  1.2161
 9429SOL    HW229729   4.266   4.686   2.321 -0.0645  1.7980 -1.3770
 9430SOL     OW29730   2.479   6.895  10.055  0.1866  0.0174 -0.2644
 9430SOL    HW129731   2.552   6.924  10.110  0.6931 -1.1717 -0.2790
 9430SOL    HW229732   2.454   6.810  10.091 -1.0325  0.2968 -0.4276
 9431SOL     OW29733   3.562   0.351   0.788  0.3655  0.5588  0.0994
 9431SOL    HW129734   3.512   0.334   0.868 -0.1793  2.9842  0.3536
 9431SOL    HW229735   3.648   0.378   0.819  0.9147 -0.6900 -0.2563
 9432SOL     OW29736   1.215   7.359   2.230 -0.3737 -0.0069 -0.0528
 9432SOL    HW129737   1.276   7.404   2.289 -1.2986  1.0355  0.1340
 9432SOL    HW229738   1.260   7.277   2.209  1.0529  0.6825  0.1439
 9433SOL     OW29739   6.400   1.067  11.949 -0.0499  0.3390 -0.2563
 9433SOL    HW129740   6.383   1.112  12.031  0.8064 -0.8047  0.5872
 9433SOL    HW229741   6.365   0.979  11.963  0.7419 -0.0841 -0.8369
 9434SOL     OW29742   5.522   6.885   5.821 -0.0059 -0.2667  0.0189
 9434SOL    HW129743   5.485   6.911   5.736  0.0746 -1.3539 -0.3658
 9434SOL    HW229744   5.576   6.959   5.848  1.8326 -0.7880 -1.9868
 9435SOL     OW29745   4.199   5.381   9.822 -0.2250 -0.0724 -0.2695
 9435SOL    HW129746   4.222   5.396   9.731 -0.4744  0.0458 -0.3159
 9435SOL    HW229747   4.120   5.327   9.818  0.4000 -1.0248 -0.1103
 9436SOL     OW29748   6.781   2.318   6.892  0.5333 -0.1512  0.6109
 9436SOL    HW129749   6.867   2.276   6.889 -0.4146 -2.1782 -0.2415
 9436SOL    HW229750   6.795   2.403   6.850  1.3892 -2.0401 -3.4929
 9437SOL     OW29751   2.291   7.643   5.453  0.1997  0.1837  0.2496
 9437SOL    HW129752   2.338   7.596   5.384  0.9691  1.6435 -0.2554
 9437SOL    HW229753   2.224   7.581   5.483  0.7982 -1.0029 -0.7866
 9438SOL     OW29754   1.999   0.180  11.983  0.1946  0.0879 -0.5739
 9438SOL    HW129755   2.082   0.154  11.944 -0.9198 -0.8644 -2.4732
 9438SOL    HW229756   1.933   0.132  11.933 -1.4924  0.5505  1.0890
 9439SOL     OW29757   6.268   6.316   9.345  0.3545  0.0624 -0.1439
 9439SOL    HW129758   6.230   6.235   9.312  0.6331 -0.2044  0.1781
 9439SOL    HW229759   6.280   6.371   9.267 -1.9939  0.7338 -0.0860
 9440SOL     OW29760   5.116   2.274   7.202 -0.4027  0.2952  0.0206
 9440SOL    HW129761   5.052   2.237   7.264 -0.4357 -0.3288 -0.3763
 9440SOL    HW229762   5.115   2.213   7.128 -0.8646  1.4047 -0.9040
 9441SOL     OW29763   4.051   6.685  11.084 -0.1200  0.1241 -0.0952
 9441SOL    HW129764   4.122   6.733  11.127  0.3273 -0.1294 -0.5311
 9441SOL    HW229765   4.039   6.607  11.138  0.9843 -0.5930 -0.8378
 9442SOL     OW29766   0.869   6.606  10.955  0.1515  0.1703  0.5850
 9442SOL    HW129767   0.856   6.529  10.899 -1.5095  0.5282  0.3985
 9442SOL    HW229768   0.810   6.672  10.917  0.4708  1.0660  1.6033
 9443SOL     OW29769   5.270   3.921   0.762  0.1093  0.1455 -0.0854
 9443SOL    HW129770   5.355   3.907   0.721 -0.0795  0.5421 -0.6226
 9443SOL    HW229771   5.288   3.922   0.856  0.2615 -2.9296  0.0118
 9444SOL     OW29772   5.136   0.453   1.720 -0.1535  0.6751  0.2365
 9444SOL    HW129773   5.181   0.527   1.680 -1.5199  2.0938  1.2052
 9444SOL    HW229774   5.055   0.444   1.670 -0.5165  0.5789  0.8275
 9445SOL     OW29775   0.471   2.932   7.415 -0.0555  0.3004 -0.1491
 9445SOL    HW129776   0.416   3.002   7.450 -1.1329 -0.7163  0.2446
 9445SOL    HW229777   0.410   2.869   7.378  0.8927 -0.4265 -0.5196
 9446SOL     OW29778   6.222   5.148  11.927 -0.0674 -0.1823 -0.2654
 9446SOL    HW129779   6.272   5.224  11.957  0.9040 -0.5309 -0.9651
 9446SOL    HW229780   6.135   5.184  11.906 -0.3786  0.3028  1.6429
 9447SOL     OW29781   0.732   4.325   9.746  0.6934 -0.1716 -0.6109
 9447SOL    HW129782   0.712   4.242   9.702  0.2318  0.0690 -0.8639
 9447SOL    HW229783   0.659   4.382   9.722 -0.1073 -0.3180  1.2491
 9448SOL     OW29784   4.378   5.001  11.439 -0.6464 -0.2362 -0.1155
 9448SOL    HW129785   4.363   4.910  11.413 -1.5778 -0.5503  1.3461
 9448SOL    HW229786   4.297   5.027  11.482 -1.0203  1.8641 -1.9222
 9449SOL     OW29787   3.671   1.373   4.907  0.2174 -0.1308 -0.4524
 9449SOL    HW129788   3.649   1.304   4.969  1.3067 -1.6984 -1.7111
 9449SOL    HW229789   3.763   1.392   4.923 -0.2286  1.5527  0.3193
 9450SOL     OW29790   1.838   6.219   5.979 -0.4149  0.1956 -0.0607
 9450SOL    HW129791   1.839   6.189   5.888 -3.0873  0.2673 -0.1960
 9450SOL    HW229792   1.900   6.162   6.024  0.4353 -0.3100 -1.7657
 9451SOL     OW29793   3.440   7.709   6.240 -0.0181 -0.0374 -0.8580
 9451SOL    HW129794   3.425   7.802   6.252  1.8178  0.2154 -0.2743
 9451SOL    HW229795   3.358   7.676   6.203 -2.4371  0.9693  3.0225
 9452SOL     OW29796   1.205   4.310   7.276  0.4528  0.0927 -0.0915
 9452SOL    HW129797   1.238   4.285   7.189  0.2496  0.0920 -0.1707
 9452SOL    HW229798   1.256   4.258   7.337 -0.4556 -1.0790 -0.2876
 9453SOL     OW29799   6.435   3.227   1.548  0.4599 -0.1612  0.3796
 9453SOL    HW129800   6.349   3.266   1.536  1.1814  1.2312 -0.5876
 9453SOL    HW229801   6.450   3.229   1.642 -0.2867  0.1877  0.4979
 9454SOL     OW29802   1.398   6.206  12.386 -0.2398  0.3219 -0.1462
 9454SOL    HW129803   1.402   6.265  12.311 -0.0093  1.1550  0.4896
 9454SOL    HW229804   1.369   6.263  12.458 -1.5503 -0.6984  0.1629
 9455SOL     OW29805   5.271   4.890   8.715  0.0713  0.2451 -0.2904
 9455SOL    HW129806   5.204   4.943   8.672  0.1153  1.5147  1.1089
 9455SOL    HW229807   5.277   4.927   8.803  1.0553 -1.2718  0.3100
 9456SOL     OW29808   5.481   2.749  11.782 -0.4499  0.2329 -0.3903
 9456SOL    HW129809   5.441   2.814  11.840 -1.8740 -0.4647 -0.5421
 9456SOL    HW229810   5.414   2.732  11.716  0.3740 -0.4961 -1.0589
 9457SOL     OW29811   5.920   1.159   5.441 -0.2378 -0.8789  0.4769
 9457SOL    HW129812   5.958   1.227   5.498  3.7495 -2.8128  0.4194
 9457SOL    HW229813   5.908   1.203   5.357 -0.1867  0.3722  1.0878
 9458SOL     OW29814   1.222   3.239  10.377  0.0930 -0.2500 -0.2933
 9458SOL    HW129815   1.127   3.229  10.382  0.0614 -0.0165 -0.4175
 9458SOL    HW229816   1.257   3.151  10.393 -0.1884 -0.6987 -1.9919
 9459SOL     OW29817   0.503   1.495   7.459 -0.1165  0.5923 -0.2127
 9459SOL    HW129818   0.436   1.518   7.395  0.6311  0.3251 -1.1181
 9459SOL    HW229819   0.470   1.415   7.500 -0.2796  0.3652 -0.7726
 9460SOL     OW29820   5.683   4.393   8.155 -0.8416 -0.5385  0.3512
 9460SOL    HW129821   5.591   4.379   8.135 -0.4408 -1.2914 -1.0978
 9460SOL    HW229822   5.716   4.445   8.083  0.4467 -2.5141 -0.5825
 9461SOL     OW29823   4.572   6.150   3.762 -0.3525 -0.2372  0.0903
 9461SOL    HW129824   4.490   6.123   3.721 -0.7258 -0.8033  1.1753
 9461SOL    HW229825   4.572   6.246   3.755 -0.8588 -0.2664 -0.3660
 9462SOL     OW29826   3.035   7.247   0.069  0.5327 -0.0425 -0.3304
 9462SOL    HW129827   2.942   7.224   0.063  0.5042  0.4731 -2.2489
 9462SOL    HW229828   3.077   7.165   0.094 -0.4148 -0.2943  0.5233
 9463SOL     OW29829   0.948   2.307   2.612  0.1755 -0.5235  0.1254
 9463SOL    HW129830   0.995   2.298   2.529 -1.1373 -0.5807 -0.6395
 9463SOL    HW229831   0.899   2.225   2.621  0.0374 -0.3738  0.7873
 9464SOL     OW29832   7.006   4.905   4.560  0.6795  0.5569 -0.3240
 9464SOL    HW129833   6.950   4.981   4.545 -1.2251 -0.6855  0.1315
 9464SOL    HW229834   7.052   4.925   4.642  0.3664  1.3004 -0.3217
 9465SOL     OW29835   6.456   3.330   5.890 -0.4227  0.4039 -0.0513
 9465SOL    HW129836   6.370   3.356   5.923 -0.3604  1.4490 -0.6698
 9465SOL    HW229837   6.444   3.323   5.795 -0.3759 -1.6671  0.0540
 9466SOL     OW29838   5.941   7.500   2.116 -0.1130  0.6751  0.5412
 9466SOL    HW129839   6.014   7.440   2.101  0.6343  1.3738  1.3138
 9466SOL    HW229840   5.887   7.456   2.181 -0.7298 -0.1192 -0.4763
 9467SOL     OW29841   6.791   7.865   5.050 -0.3651  0.2300 -0.0472
 9467SOL    HW129842   6.748   7.911   4.977  1.9587  1.1632 -0.9305
 9467SOL    HW229843   6.798   7.931   5.119  0.0635  0.2282 -0.0875
 9468SOL     OW29844   2.333   7.592   3.931  0.3842 -0.5306  0.1449
 9468SOL    HW129845   2.308   7.546   4.011 -0.7929 -0.2484 -0.0399
 9468SOL    HW229846   2.397   7.657   3.959 -1.6510  1.0937  1.2977
 9469SOL     OW29847   7.265   3.597   2.405 -0.0544  0.5484 -0.2879
 9469SOL    HW129848   7.252   3.546   2.324 -2.0993  1.4141 -0.5771
 9469SOL    HW229849   7.230   3.541   2.474  0.7399  0.2380 -0.1243
 9470SOL     OW29850   3.567   4.798   0.623  0.4780  0.2716 -0.4320
 9470SOL    HW129851   3.516   4.793   0.704  0.1069  0.5961 -0.6412
 9470SOL    HW229852   3.581   4.891   0.610  1.5625  0.1676 -0.1158
 9471SOL     OW29853   5.761   0.591   7.388  0.4614 -0.6978 -0.5121
 9471SOL    HW129854   5.719   0.674   7.411  0.9736 -1.1354  2.4744
 9471SOL    HW229855   5.690   0.538   7.352 -0.3629  0.3238 -0.4343
 9472SOL     OW29856   4.892   2.975   2.566  0.0883  0.9232 -0.0186
 9472SOL    HW129857   4.874   2.974   2.661 -2.0252 -0.0002 -0.3620
 9472SOL    HW229858   4.878   2.884   2.539 -1.4825  1.5748 -1.5439
 9473SOL     OW29859   2.817   0.886   2.847 -0.5482 -0.9470 -0.2513
 9473SOL    HW129860   2.772   0.809   2.810 -2.6160  0.1661 -0.1944
 9473SOL    HW229861   2.826   0.866   2.940 -0.0702 -1.5508 -0.4130
 9474SOL     OW29862   2.885   2.365   5.013 -0.2640 -0.1851  0.4259
 9474SOL    HW129863   2.904   2.459   5.013  1.6446 -0.5210 -1.0039
 9474SOL    HW229864   2.829   2.352   4.936 -1.5087 -0.0757  1.2893
 9475SOL     OW29865   4.006   1.018   5.970  0.3050  0.1706 -0.0581
 9475SOL    HW129866   3.936   1.009   6.035  1.1899  1.0078  1.0514
 9475SOL    HW229867   4.013   1.112   5.955  1.0950  0.0835 -0.2712
 9476SOL     OW29868   0.458   0.034  11.380  0.3110  0.1767  0.4899
 9476SOL    HW129869   0.451  -0.061  11.385  2.1335 -0.0299 -0.1403
 9476SOL    HW229870   0.535   0.055  11.434  1.1048  1.0625 -0.9221
 9477SOL     OW29871   2.938   5.560   3.636  0.2554 -0.7235 -0.0627
 9477SOL    HW129872   2.927   5.515   3.553  1.9752 -3.9355  1.2766
 9477SOL    HW229873   2.899   5.502   3.701  0.4671  0.8753  1.5985
 9478SOL     OW29874   4.885   1.216   3.486 -0.0317  0.2422 -0.1401
 9478SOL    HW129875   4.810   1.196   3.429 -0.7980 -0.4812  1.0787
 9478SOL    HW229876   4.955   1.158   3.455  0.2931  1.4213 -1.7463
 9479SOL     OW29877   3.267   4.746   4.832 -0.5371  0.3717  0.3653
 9479SOL    HW129878   3.297   4.665   4.790 -2.7967 -0.3256 -0.0455
 9479SOL    HW229879   3.312   4.815   4.785  2.1357 -0.5960  1.2877
 9480SOL     OW29880   1.808   7.493   6.651  0.6546 -0.1237 -0.4770
 9480SOL    HW129881   1.768   7.408   6.667  1.0653 -0.8135 -2.6890
 9480SOL    HW229882   1.785   7.546   6.727 -0.5362 -1.8725  0.4385
 9481SOL     OW29883   3.831   0.944   1.887 -0.0849 -0.0021  0.1943
 9481SOL    HW129884   3.909   0.900   1.920  0.6059 -0.4746 -1.9435
 9481SOL    HW229885   3.832   1.030   1.929  2.3060  0.4972 -0.7414
 9482SOL     OW29886   4.786   5.153   1.036  0.1022  0.7106  0.4993
 9482SOL    HW129887   4.735   5.205   1.099 -0.9833 -0.5769  0.7362
 9482SOL    HW229888   4.875   5.189   1.042 -0.1400  1.1191  2.2104
 9483SOL     OW29889   7.571   3.144   7.214  0.3254 -0.0222 -0.1646
 9483SOL    HW129890   7.480   3.147   7.182  0.1455  0.0746  0.3559
 9483SOL    HW229891   7.574   3.209   7.284  1.3285  1.4593 -1.5181
 9484SOL     OW29892   1.784   0.824   8.919 -0.0859  0.1310  0.4091
 9484SOL    HW129893   1.751   0.757   8.979 -0.0057 -1.0689 -0.8402
 9484SOL    HW229894   1.826   0.889   8.976  0.4697 -1.2412  1.6252
 9485SOL     OW29895   3.276   1.879   4.123 -0.0983  0.3714 -0.2472
 9485SOL    HW129896   3.188   1.852   4.095 -0.3926 -1.0331  1.7866
 9485SOL    HW229897   3.267   1.972   4.144 -1.7016 -0.1595  1.8050
 9486SOL     OW29898   2.253   2.991   1.342 -0.1573 -0.7740 -0.7027
 9486SOL    HW129899   2.202   2.939   1.404  0.3165 -0.1662  0.2247
 9486SOL    HW229900   2.329   3.020   1.392  0.9268 -1.3580 -1.9476
 9487SOL     OW29901   2.334   0.154   2.757  0.0118  0.0414  0.0343
 9487SOL    HW129902   2.338   0.248   2.740 -0.3336 -0.4753 -3.6426
 9487SOL    HW229903   2.417   0.120   2.724 -0.4427 -1.1027  0.0198
 9488SOL     OW29904   3.927   6.296   1.747  0.0289  0.2365  0.1715
 9488SOL    HW129905   3.915   6.289   1.842 -0.7474 -0.2816  0.0370
 9488SOL    HW229906   3.873   6.226   1.710  0.6536  0.1663 -0.6355
 9489SOL     OW29907   6.165   0.749   5.853  0.2801  0.3680  0.2091
 9489SOL    HW129908   6.190   0.797   5.932  0.5655  1.0021 -0.2504
 9489SOL    HW229909   6.235   0.769   5.790 -0.5549  0.8594 -0.5878
 9490SOL     OW29910   4.246   6.672   5.130 -0.4123 -0.2045  0.0686
 9490SOL    HW129911   4.209   6.584   5.126 -0.5379 -0.3060  2.1254
 9490SOL    HW229912   4.175   6.726   5.166  0.5938  0.0728  1.7644
 9491SOL     OW29913   6.165   4.255   2.779  0.8293 -0.4862  0.2941
 9491SOL    HW129914   6.087   4.285   2.825  1.8369  0.7416  1.2682
 9491SOL    HW229915   6.170   4.311   2.701  0.6049 -0.7322  0.1028
 9492SOL     OW29916   2.290   7.662   8.054 -0.4196  0.0027 -0.1391
 9492SOL    HW129917   2.277   7.690   7.963  0.4986 -0.3569 -0.3936
 9492SOL    HW229918   2.319   7.741   8.100  0.4176 -0.1091 -0.4602
 9493SOL     OW29919   6.707   6.369   1.765 -0.0693  0.3340  0.2318
 9493SOL    HW129920   6.699   6.399   1.675 -2.8978 -1.0118 -0.0465
 9493SOL    HW229921   6.646   6.424   1.814  0.6755  0.3591  1.1621
 9494SOL     OW29922   3.540   0.535   8.244 -0.6814  0.3130  0.1854
 9494SOL    HW129923   3.586   0.553   8.162  1.7389 -0.1562  1.3478
 9494SOL    HW229924   3.606   0.551   8.312 -2.3012 -0.3375  1.9861
 9495SOL     OW29925   3.898   5.391   1.753 -0.0228  0.1249 -0.0112
 9495SOL    HW129926   3.968   5.456   1.757  0.2453 -0.1166 -0.6621
 9495SOL    HW229927   3.864   5.386   1.842  2.9223 -2.1343  1.1361
 9496SOL     OW29928   7.165   2.836   6.899 -0.0062  0.2075 -0.2205
 9496SOL    HW129929   7.071   2.832   6.880 -0.2704 -0.3087  1.1133
 9496SOL    HW229930   7.171   2.887   6.980  0.6949 -1.1492  0.6253
 9497SOL     OW29931   2.567   3.359  12.146 -0.1526  0.3150 -0.1652
 9497SOL    HW129932   2.619   3.426  12.190 -0.7836  1.3661 -0.9588
 9497SOL    HW229933   2.550   3.293  12.213  1.4652  0.3662  0.3234
 9498SOL     OW29934   2.979   2.876   2.184  0.1984  0.0540 -0.0315
 9498SOL    HW129935   2.981   2.792   2.230 -0.3709  0.5701  0.9762
 9498SOL    HW229936   2.886   2.893   2.168  0.3592  0.1250 -0.9421
 9499SOL     OW29937   7.692   4.538   6.567  0.6966 -0.0071  0.1590
 9499SOL    HW129938   7.615   4.586   6.536  0.3054  0.0487  1.2001
 9499SOL    HW229939   7.695   4.554   6.661  2.6905  0.9893 -0.0190
 9500SOL     OW29940   1.553   1.112   6.648  0.0291 -0.4608 -0.2801
 9500SOL    HW129941   1.625   1.160   6.607  0.5048  0.4094  1.4306
 9500SOL    HW229942   1.476   1.167   6.633  0.7104  1.4558  2.3842
 9501SOL     OW29943   6.873   7.462   4.100 -0.3719  0.6711 -0.2164
 9501SOL    HW129944   6.856   7.371   4.125  2.5690  0.5867  1.9166
 9501SOL    HW229945   6.804   7.512   4.143 -0.0670 -0.2689  1.4237
 9502SOL     OW29946   2.433   1.446   8.488  0.1937  0.1611  0.1871
 9502SOL    HW129947   2.425   1.354   8.464 -0.5272 -0.1090  1.3884
 9502SOL    HW229948   2.353   1.466   8.535  0.3294  1.4248 -0.0635
 9503SOL     OW29949   4.321   0.898   2.488 -0.8662 -0.3802  0.3212
 9503SOL    HW129950   4.297   0.850   2.567 -1.5413  1.7763  1.5167
 9503SOL    HW229951   4.415   0.887   2.480 -0.9714 -1.7078  0.6358
 9504SOL     OW29952   6.775   1.771   5.480 -0.2706  0.2726  0.4707
 9504SOL    HW129953   6.708   1.830   5.514 -0.1327  0.5593  0.2495
 9504SOL    HW229954   6.858   1.814   5.500 -0.1401 -0.1972  0.9577
 9505SOL     OW29955   1.784   3.416  10.328  0.2414  0.4075  0.0063
 9505SOL    HW129956   1.697   3.394  10.295  0.6856  1.2374 -1.8284
 9505SOL    HW229957   1.844   3.380  10.262  1.1744  2.0441 -0.0776
 9506SOL     OW29958   6.637   3.142   3.096 -0.4318  0.1779 -0.3629
 9506SOL    HW129959   6.593   3.202   3.156 -0.6139  1.0055 -1.2978
 9506SOL    HW229960   6.566   3.103   3.045 -0.4565 -1.8942  1.1200
 9507SOL     OW29961   7.631   6.516   9.217  0.3505 -0.3511  0.1606
 9507SOL    HW129962   7.542   6.486   9.234 -0.0387  0.9255  0.4645
 9507SOL    HW229963   7.620   6.603   9.178  1.4845  0.2149  1.0615
 9508SOL     OW29964   5.272   3.190   5.347  0.3247  0.3048 -1.0534
 9508SOL    HW129965   5.191   3.179   5.396  1.6283  0.2904  1.2032
 9508SOL    HW229966   5.312   3.269   5.384  1.5331  0.1006 -1.8558
 9509SOL     OW29967   0.370   5.887   2.532 -0.2370 -0.4411  0.4047
 9509SOL    HW129968   0.398   5.817   2.473  1.6184 -0.2548  1.0089
 9509SOL    HW229969   0.293   5.852   2.576 -1.9705 -0.4371 -2.3607
 9510SOL     OW29970   3.958   7.863   7.581  0.1645  0.1606 -0.0374
 9510SOL    HW129971   3.931   7.944   7.538 -0.2188 -0.1964 -0.4880
 9510SOL    HW229972   4.021   7.824   7.521  0.5710  0.2638  0.3171
 9511SOL     OW29973   4.159   5.822  11.914  0.2632 -0.1552  0.3191
 9511SOL    HW129974   4.125   5.870  11.839 -0.3571 -1.3014 -0.1684
 9511SOL    HW229975   4.088   5.762  11.939 -0.1106  1.1435  2.7328
 9512SOL     OW29976   7.345   1.350  10.692 -0.2081 -0.3646  0.2053
 9512SOL    HW129977   7.313   1.394  10.613 -0.7644 -0.0180  0.6180
 9512SOL    HW229978   7.315   1.260  10.683 -1.5156  0.0070  0.6904
 9513SOL     OW29979   3.270   0.324   7.535 -0.5840  0.0055  0.0489
 9513SOL    HW129980   3.230   0.314   7.622 -1.0320  0.2286 -0.1274
 9513SOL    HW229981   3.300   0.236   7.512  1.0298  0.2346  1.1347
 9514SOL     OW29982   4.341   1.088   4.274 -0.1983  0.1002  0.6371
 9514SOL    HW129983   4.298   1.145   4.210  0.8702  1.6629  1.2431
 9514SOL    HW229984   4.334   1.000   4.237 -0.9526  0.7649 -0.8706
 9515SOL     OW29985   1.441   5.430   5.600  0.2930 -0.0353 -0.1817
 9515SOL    HW129986   1.406   5.513   5.634 -1.5160 -1.0087  0.4696
 9515SOL    HW229987   1.446   5.374   5.678  1.5252 -0.5410 -0.6120
 9516SOL     OW29988   2.589   0.802   4.574  0.1284  0.5789  0.1312
 9516SOL    HW129989   2.607   0.894   4.592  1.3610  0.4654 -0.3733
 9516SOL    HW229990   2.495   0.793   4.584  0.3110  1.1752  3.3784
 9517SOL     OW29991   5.199   5.292  10.745  0.5906  0.3958  0.3058
 9517SOL    HW129992   5.160   5.219  10.697 -0.0405  0.6623  0.3969
 9517SOL    HW229993   5.226   5.254  10.829  0.4602  0.2158  0.2662
 9518SOL     OW29994   1.408   5.040   8.143 -0.5701 -0.3978  0.0809
 9518SOL    HW129995   1.363   4.991   8.074  0.1152 -1.3263  0.2809
 9518SOL    HW229996   1.473   4.979   8.178  0.1169  0.5588  0.5269
 9519SOL     OW29997   3.160   6.022  11.076 -0.0443 -0.6534  0.1024
 9519SOL    HW129998   3.188   5.931  11.076 -0.0276 -0.6518  0.5336
 9519SOL    HW229999   3.114   6.033  10.993  1.3580 -0.6044 -0.6825
 9520SOL     OW30000   4.838   5.880   5.284 -1.1501  0.5417 -0.0500
 9520SOL    HW130001   4.770   5.813   5.275 -1.1037  0.4895 -0.0170
 9520SOL    HW230002   4.793   5.955   5.324 -1.1039  0.3741  0.3217
 9521SOL     OW30003   3.182   0.171   2.179  0.8610 -0.2376 -0.5037
 9521SOL    HW130004   3.130   0.090   2.183  0.5241 -0.0741 -1.2356
 9521SOL    HW230005   3.218   0.172   2.090  0.6541  0.5369 -0.5888
 9522SOL     OW30006   3.082   0.006   4.697 -0.4398 -0.3049  0.0525
 9522SOL    HW130007   3.155   0.030   4.640 -0.8244  0.2733 -0.2039
 9522SOL    HW230008   3.011   0.066   4.672 -0.7748 -0.3868  0.7819
 9523SOL     OW30009   2.550   2.257   4.394  0.3333 -0.2382 -0.5299
 9523SOL    HW130010   2.541   2.202   4.471 -3.0970  0.0960 -0.5099
 9523SOL    HW230011   2.608   2.208   4.336 -0.2963 -2.4969  0.6263
 9524SOL     OW30012   3.474   4.280   0.767 -0.2214 -0.7112  0.6336
 9524SOL    HW130013   3.556   4.292   0.815  0.7939  0.1556 -1.2442
 9524SOL    HW230014   3.444   4.368   0.747 -0.7636 -1.0590 -0.1281
 9525SOL     OW30015   6.688   6.965   8.382  0.0051 -0.4054 -0.3214
 9525SOL    HW130016   6.775   6.999   8.360 -0.0761  0.2663  0.3620
 9525SOL    HW230017   6.638   6.975   8.301 -0.5326  2.8517  0.2692
 9526SOL     OW30018   1.853   1.729   1.081  0.1100 -0.6400 -0.2901
 9526SOL    HW130019   1.803   1.778   1.147  1.0922 -0.4480  0.3402
 9526SOL    HW230020   1.790   1.713   1.011 -0.6370  0.2473  0.1410
 9527SOL     OW30021   3.785   6.892   9.688  0.1298  0.1692 -0.8755
 9527SOL    HW130022   3.784   6.948   9.766 -0.9109 -0.8710 -0.0988
 9527SOL    HW230023   3.770   6.952   9.616  2.7027  1.4055 -0.5125
 9528SOL     OW30024   1.070   0.224  10.097  0.2708  0.1260 -0.3403
 9528SOL    HW130025   1.010   0.283  10.142  0.1922 -0.5828  0.5040
 9528SOL    HW230026   1.104   0.276  10.024 -0.9919  0.6913 -0.5556
 9529SOL     OW30027   6.896   1.601   3.521  0.1654  0.2473  0.1561
 9529SOL    HW130028   6.968   1.537   3.526 -0.1426 -0.1106  0.0619
 9529SOL    HW230029   6.837   1.566   3.455 -1.3167 -0.7258  1.8793
 9530SOL     OW30030   6.594   0.522  10.936 -0.0009 -0.3816 -0.3037
 9530SOL    HW130031   6.508   0.483  10.956  0.0130 -1.1151 -1.5375
 9530SOL    HW230032   6.595   0.604  10.985 -1.1230 -0.6896  0.2851
 9531SOL     OW30033   6.956   7.321   0.153  0.1982 -0.6801 -0.0763
 9531SOL    HW130034   6.901   7.267   0.210 -0.3341  0.9345  1.0332
 9531SOL    HW230035   6.912   7.319   0.068 -1.7802  0.7334  0.8327
 9532SOL     OW30036   5.843   2.842   1.201 -0.0935  0.1047  0.5172
 9532SOL    HW130037   5.889   2.758   1.198  1.5478  0.9740 -1.9069
 9532SOL    HW230038   5.891   2.894   1.264  1.1957  0.3890 -0.6539
 9533SOL     OW30039   5.848   7.232   6.102 -0.2033 -0.1398  0.5973
 9533SOL    HW130040   5.886   7.176   6.170 -2.2628 -1.4310  0.8066
 9533SOL    HW230041   5.917   7.242   6.037  1.1851 -0.4795  1.9610
 9534SOL     OW30042   1.845   0.262   3.329 -0.5080 -0.4852 -0.6843
 9534SOL    HW130043   1.839   0.292   3.238  1.3511  0.4267 -0.5582
 9534SOL    HW230044   1.917   0.199   3.329  0.7237  0.8292  0.4177
 9535SOL     OW30045   5.039   4.389   0.708  0.1869  0.0695  0.3650
 9535SOL    HW130046   5.106   4.457   0.715  0.8339 -0.6743  1.7332
 9535SOL    HW230047   5.071   4.318   0.763 -1.2893 -0.6867  0.2956
 9536SOL     OW30048   5.638   2.027   2.728 -0.1630  0.0371 -0.5437
 9536SOL    HW130049   5.699   2.001   2.796 -0.3256 -0.9220 -0.7566
 9536SOL    HW230050   5.642   2.123   2.728  0.4866  0.0197  0.2101
 9537SOL     OW30051   5.016   3.643   3.666 -0.3960 -0.2113 -0.0351
 9537SOL    HW130052   4.952   3.674   3.601 -1.3161  0.7060  1.2720
 9537SOL    HW230053   5.100   3.643   3.618 -0.8214  1.6807 -0.8898
 9538SOL     OW30054   0.626   5.466   5.772  0.2275  0.2040 -0.5842
 9538SOL    HW130055   0.673   5.395   5.816  0.2831 -0.0669 -1.0712
 9538SOL    HW230056   0.536   5.459   5.804  0.3003  0.1050 -0.3985
 9539SOL     OW30057   6.643   3.811   7.701 -0.1703 -0.2184  0.1816
 9539SOL    HW130058   6.564   3.762   7.722 -1.0117  0.7665 -0.5940
 9539SOL    HW230059   6.698   3.801   7.779 -1.6257  0.1991  1.3078
 9540SOL     OW30060   3.677   0.990   9.669 -0.6263  0.1720  0.5928
 9540SOL    HW130061   3.605   0.932   9.645  0.7117 -1.3158 -0.0638
 9540SOL    HW230062   3.641   1.078   9.661 -2.1590 -0.4991 -0.4345
 9541SOL     OW30063   1.656   1.344  10.528  0.2063 -0.2551  0.2909
 9541SOL    HW130064   1.731   1.293  10.498 -0.9294 -0.8858 -1.6107
 9541SOL    HW230065   1.688   1.390  10.606  1.9283 -2.1259  0.7780
 9542SOL     OW30066   1.816   6.657   4.377 -0.3494 -0.1102 -0.7874
 9542SOL    HW130067   1.787   6.733   4.326 -1.8929 -1.0251 -1.3514
 9542SOL    HW230068   1.808   6.583   4.317  1.1165 -0.7546 -0.2465
 9543SOL     OW30069   2.274   4.256   0.155 -0.4147 -0.1659  0.2481
 9543SOL    HW130070   2.307   4.177   0.112 -0.7518 -0.0366 -0.2582
 9543SOL    HW230071   2.305   4.328   0.100  0.6953  0.1187  1.2323
 9544SOL     OW30072   6.052   7.664   9.112 -0.8993 -0.5964 -0.4176
 9544SOL    HW130073   6.007   7.700   9.188  1.6879  0.2710  0.8208
 9544SOL    HW230074   6.066   7.572   9.134  1.1091 -0.0360  0.9139
 9545SOL     OW30075   3.440   7.602  11.408  0.2253  0.3950  0.5323
 9545SOL    HW130076   3.398   7.605  11.322  0.5485 -0.6368  0.3351
 9545SOL    HW230077   3.474   7.513  11.416 -0.2576  0.3127  1.9513
 9546SOL     OW30078   1.067   5.090   9.250  0.5096 -0.4745  0.0429
 9546SOL    HW130079   1.111   5.023   9.197 -0.7907 -0.2691 -1.3711
 9546SOL    HW230080   1.002   5.128   9.191 -0.4756  0.3287  1.5788
 9547SOL     OW30081   0.891   7.841   2.743  0.1267 -0.4405 -0.5604
 9547SOL    HW130082   0.963   7.881   2.791  2.4455 -2.8882 -1.7083
 9547SOL    HW230083   0.830   7.811   2.811  1.2139 -0.1219  0.5880
 9548SOL     OW30084   2.348   1.846  10.844  0.4324 -0.1846  0.3750
 9548SOL    HW130085   2.324   1.930  10.880  1.1363  0.0072  0.4232
 9548SOL    HW230086   2.324   1.851  10.751  1.8419  0.6445  0.0287
 9549SOL     OW30087   3.340   1.067   3.895  0.2887  0.0647 -0.0352
 9549SOL    HW130088   3.422   1.089   3.941 -1.2176  0.4962  2.6746
 9549SOL    HW230089   3.303   1.151   3.871  0.8763 -0.1524 -1.8013
 9550SOL     OW30090   1.460   5.040   0.497  0.5192  0.2875 -0.1351
 9550SOL    HW130091   1.432   5.064   0.408  0.8180  2.3293  0.2639
 9550SOL    HW230092   1.448   4.945   0.501  0.3028  0.1677 -2.2819
 9551SOL     OW30093   6.921   4.680   5.481  0.0026 -0.3653  0.0091
 9551SOL    HW130094   6.942   4.602   5.429  2.6467  1.5630 -2.0994
 9551SOL    HW230095   7.004   4.727   5.489 -1.5296  2.4614  0.8149
 9552SOL     OW30096   2.521   6.970   7.028 -0.5134  0.2476  0.0164
 9552SOL    HW130097   2.456   7.023   7.075 -0.0066  1.3770 -0.5084
 9552SOL    HW230098   2.533   7.016   6.945  0.4792 -0.3066 -0.1586
 9553SOL     OW30099   1.205   4.715   8.283 -0.0376  0.5691 -0.1186
 9553SOL    HW130100   1.135   4.716   8.218 -0.8773  0.7710  0.7689
 9553SOL    HW230101   1.163   4.742   8.364  0.7272 -0.7911  0.7732
 9554SOL     OW30102   4.174   7.110   6.449 -0.1926 -0.0211 -0.0248
 9554SOL    HW130103   4.199   7.168   6.521  0.8008  2.3430 -2.1514
 9554SOL    HW230104   4.078   7.115   6.447 -0.3647 -1.3323  1.9921
 9555SOL     OW30105   6.837   5.883  10.572  0.5395  0.4534  0.0495
 9555SOL    HW130106   6.894   5.937  10.517 -0.3519 -0.8528 -2.3088
 9555SOL    HW230107   6.845   5.795  10.536 -2.4278  0.0861 -0.0012
 9556SOL     OW30108   1.506   0.957   0.778 -0.2891  0.0721 -0.1840
 9556SOL    HW130109   1.579   0.928   0.723  0.1563 -0.6309  0.7534
 9556SOL    HW230110   1.439   0.890   0.765 -1.6362  1.7457 -2.6313
 9557SOL     OW30111   0.353   5.877   7.432 -0.7472 -0.0860  0.3907
 9557SOL    HW130112   0.316   5.922   7.508 -0.5621  0.2489  0.2820
 9557SOL    HW230113   0.336   5.936   7.358 -1.9666 -0.9235 -0.0315
 9558SOL     OW30114   6.007   0.660   4.364 -0.0967  0.0362 -0.2976
 9558SOL    HW130115   5.990   0.635   4.455  0.7887 -0.9965 -0.3889
 9558SOL    HW230116   6.087   0.612   4.340 -0.0407  0.6613 -1.4723
 9559SOL     OW30117   5.689   2.866   9.304 -0.3973  0.7378  0.4726
 9559SOL    HW130118   5.663   2.775   9.318 -0.8504  0.7644 -0.1612
 9559SOL    HW230119   5.651   2.913   9.377 -1.5844  0.6688 -0.0827
 9560SOL     OW30120   2.833   4.298   1.429 -0.3353 -0.2864 -0.0590
 9560SOL    HW130121   2.758   4.260   1.476 -0.0427  0.6239  1.1792
 9560SOL    HW230122   2.801   4.308   1.339 -2.8505  2.8092  0.9640
 9561SOL     OW30123   0.954   1.229  10.910 -0.1963  0.4047 -0.8197
 9561SOL    HW130124   0.874   1.177  10.920  0.4702 -1.0780 -2.4720
 9561SOL    HW230125   1.025   1.165  10.921  1.0596  2.2492  4.1943
 9562SOL     OW30126   4.233   1.745   2.896 -0.3278 -0.0639 -0.2316
 9562SOL    HW130127   4.239   1.659   2.855  1.2015 -1.0818  1.8927
 9562SOL    HW230128   4.186   1.729   2.978 -1.0539  1.3751 -0.3430
 9563SOL     OW30129   4.534   2.036   1.498  0.8332  0.0051  0.6505
 9563SOL    HW130130   4.540   2.081   1.413 -0.9428 -1.6658 -0.4589
 9563SOL    HW230131   4.576   1.951   1.483 -0.6503 -0.8313  0.9899
 9564SOL     OW30132   7.763   3.237   9.562  0.1133 -0.5211  0.0733
 9564SOL    HW130133   7.734   3.233   9.471 -1.2421  1.7303  0.3220
 9564SOL    HW230134   7.703   3.180   9.609 -1.2913  0.8190 -0.0323
 9565SOL     OW30135   0.539   1.974   2.210 -0.3200 -0.2995  0.4887
 9565SOL    HW130136   0.470   2.041   2.215  1.1073  1.2286  0.7478
 9565SOL    HW230137   0.538   1.946   2.119  0.0739  1.2781 -0.0447
 9566SOL     OW30138   1.719   1.806  11.393 -0.0050  0.5407 -0.0787
 9566SOL    HW130139   1.740   1.893  11.428  2.3143 -0.5530  1.5404
 9566SOL    HW230140   1.648   1.775  11.449  2.2246 -0.3184  2.5174
 9567SOL     OW30141   0.419   4.381   1.333 -0.1891 -0.6355 -0.6522
 9567SOL    HW130142   0.436   4.288   1.352  1.8098 -0.1571  0.1805
 9567SOL    HW230143   0.334   4.398   1.372 -0.9729 -2.2944 -1.5065
 9568SOL     OW30144   3.347   3.020   5.575 -0.1835  0.0392  0.1567
 9568SOL    HW130145   3.258   2.985   5.584 -0.4690  0.6045 -0.4535
 9568SOL    HW230146   3.339   3.092   5.514  0.6851  0.1663  0.1792
 9569SOL     OW30147   4.555   4.920   7.178 -0.1102  0.8401  0.1782
 9569SOL    HW130148   4.623   4.871   7.224 -0.3470 -0.3395 -0.6939
 9569SOL    HW230149   4.491   4.942   7.245 -0.6705 -1.2284  0.3798
 9570SOL     OW30150   0.714   7.154   8.776 -0.3103 -0.5756 -0.1240
 9570SOL    HW130151   0.631   7.153   8.728 -0.6710 -0.4099  0.4910
 9570SOL    HW230152   0.738   7.246   8.781  0.5997 -0.7160 -1.4586
 9571SOL     OW30153   1.530   2.738   9.613 -0.2047 -0.2464 -0.0907
 9571SOL    HW130154   1.619   2.708   9.595  0.3380  0.9225  0.4489
 9571SOL    HW230155   1.519   2.723   9.707 -0.7475 -0.7849 -0.2365
 9572SOL     OW30156   2.785   7.314   3.708  0.1296 -0.0419  0.4925
 9572SOL    HW130157   2.693   7.304   3.732  0.2392 -2.3751  0.1807
 9572SOL    HW230158   2.789   7.290   3.616  1.1360 -0.6807  0.6812
 9573SOL     OW30159   5.764   5.440   0.972  0.2521  0.4288 -0.2729
 9573SOL    HW130160   5.764   5.515   0.912  0.2023 -0.1254 -0.9826
 9573SOL    HW230161   5.672   5.417   0.982  0.2749  0.4023 -0.1194
 9574SOL     OW30162   7.491   2.295   6.257  0.3816  0.1324 -0.0439
 9574SOL    HW130163   7.440   2.218   6.232  0.4507  0.1120 -0.1239
 9574SOL    HW230164   7.569   2.292   6.201 -0.5375  1.3407 -1.4492
 9575SOL     OW30165   3.777   4.526   5.688  0.0850 -0.0380  0.5665
 9575SOL    HW130166   3.829   4.549   5.611 -1.4340  0.6024 -0.3166
 9575SOL    HW230167   3.829   4.460   5.734  1.1279 -0.2786 -0.9009
 9576SOL     OW30168   1.158   6.626   1.852  0.0287 -0.1743  0.1354
 9576SOL    HW130169   1.242   6.669   1.868 -0.3358  0.1696  1.2088
 9576SOL    HW230170   1.098   6.668   1.913 -0.5457 -1.5783  0.5607
 9577SOL     OW30171   3.466   0.741  10.943 -0.8763  0.0743 -0.2863
 9577SOL    HW130172   3.408   0.751  11.019  1.1533  0.3847  1.3012
 9577SOL    HW230173   3.462   0.648  10.923 -0.1260 -0.3524  1.3482
 9578SOL     OW30174   2.543   2.385   6.007  0.4294  0.0237 -0.9557
 9578SOL    HW130175   2.595   2.354   6.081 -1.4624 -0.3566  0.2574
 9578SOL    HW230176   2.532   2.479   6.024 -0.5632 -0.1875 -0.3771
 9579SOL     OW30177   6.272   2.055   4.164 -0.1944  0.4599  0.4474
 9579SOL    HW130178   6.208   2.082   4.098  0.5498  0.8134 -0.1547
 9579SOL    HW230179   6.327   2.133   4.177  0.7480 -0.1392  0.1673
 9580SOL     OW30180   4.573   7.219   4.074  0.0354 -0.3629  0.2879
 9580SOL    HW130181   4.643   7.155   4.087  0.0805 -0.4911 -0.5271
 9580SOL    HW230182   4.602   7.271   3.999 -0.4876 -0.0623  0.2885
 9581SOL     OW30183   4.245   2.514   9.634 -0.1310 -0.3024 -0.3231
 9581SOL    HW130184   4.340   2.513   9.621 -0.0064  0.7149  0.3794
 9581SOL    HW230185   4.216   2.596   9.592 -0.5639 -0.1412  0.2762
 9582SOL     OW30186   1.814   2.879   8.756  0.1506  0.0774  0.5216
 9582SOL    HW130187   1.791   2.970   8.740 -0.7195 -0.1407  0.4532
 9582SOL    HW230188   1.903   2.882   8.791  0.5325  0.8646 -0.4730
 9583SOL     OW30189   2.026   0.257   2.118  0.0919  0.8141  0.1751
 9583SOL    HW130190   2.042   0.295   2.204 -3.4263  1.4128  0.7053
 9583SOL    HW230191   2.058   0.324   2.057 -2.2748  2.9465  1.1001
 9584SOL     OW30192   5.200   4.375   3.819 -0.0409  0.2832 -0.3589
 9584SOL    HW130193   5.141   4.350   3.748 -0.9420 -1.6515  0.9776
 9584SOL    HW230194   5.273   4.418   3.775 -0.0950 -1.6581 -2.5646
 9585SOL     OW30195   1.335   5.140   5.304 -0.0340  0.4258 -0.3625
 9585SOL    HW130196   1.270   5.071   5.313  1.2278 -0.6753  0.5609
 9585SOL    HW230197   1.354   5.143   5.210 -1.0568  0.4580 -0.5837
 9586SOL     OW30198   0.851   0.141   2.018 -0.5952 -0.1655 -0.6173
 9586SOL    HW130199   0.944   0.133   2.041 -0.9050  0.7474  1.1413
 9586SOL    HW230200   0.823   0.051   2.002  0.2386 -0.6237  0.3736
 9587SOL     OW30201   7.594   7.500   3.158 -0.1964 -0.0528 -0.8770
 9587SOL    HW130202   7.571   7.441   3.086  3.2195 -1.2015 -1.2422
 9587SOL    HW230203   7.629   7.577   3.113  0.1938  0.0256 -0.4370
 9588SOL     OW30204   5.106   1.111   9.067  0.2247 -0.1196  0.8957
 9588SOL    HW130205   5.128   1.027   9.028  0.3073  0.0945  0.4768
 9588SOL    HW230206   5.049   1.153   9.003  1.4306  0.7987  0.3752
 9589SOL     OW30207   5.325   4.031   9.318 -0.1058 -0.0279  0.2380
 9589SOL    HW130208   5.333   3.935   9.314  0.1602  0.0273 -0.9620
 9589SOL    HW230209   5.346   4.060   9.229 -2.0541  1.0084  0.0649
 9590SOL     OW30210   7.012   2.472   5.025 -0.0356 -0.1648 -0.3020
 9590SOL    HW130211   6.960   2.405   5.070  0.2217  0.3988  0.8810
 9590SOL    HW230212   6.973   2.478   4.938  0.9033 -2.9207 -0.9942
 9591SOL     OW30213   7.577   4.038   7.096  0.1395  0.0455 -0.4172
 9591SOL    HW130214   7.562   4.033   7.191  1.1847  0.6135 -0.2093
 9591SOL    HW230215   7.650   3.979   7.081 -0.0328 -0.0504 -0.8854
 9592SOL     OW30216   7.600   1.429   3.481  0.6896 -0.0731  0.6328
 9592SOL    HW130217   7.582   1.377   3.559 -1.4983 -3.5453 -1.8770
 9592SOL    HW230218   7.677   1.387   3.442  0.5438  0.2907 -0.0655
 9593SOL     OW30219   5.575   2.529   3.880  0.0150 -0.0531 -0.8551
 9593SOL    HW130220   5.500   2.579   3.849  0.2063  1.6855  1.2269
 9593SOL    HW230221   5.643   2.595   3.896  0.7486 -1.1197  0.6942
 9594SOL     OW30222   6.602   0.467   8.704 -0.2456  0.7084  0.7684
 9594SOL    HW130223   6.582   0.487   8.795  0.4204  1.7913  0.7027
 9594SOL    HW230224   6.691   0.499   8.692  0.3743 -1.1049  0.2192
 9595SOL     OW30225   2.220   6.418   6.470 -0.1834  0.3725 -0.4401
 9595SOL    HW130226   2.193   6.362   6.543 -0.9704  0.2690 -0.7994
 9595SOL    HW230227   2.192   6.506   6.496  0.9437  0.5877  0.0698
 9596SOL     OW30228   0.330   6.883  11.595 -0.7080  0.0500 -1.0086
 9596SOL    HW130229   0.352   6.794  11.625  0.6698  0.7420  0.2224
 9596SOL    HW230230   0.316   6.932  11.676  1.0056  1.5158 -1.5354
 9597SOL     OW30231   5.648   0.975  10.795 -0.2997  0.3173 -0.0467
 9597SOL    HW130232   5.616   1.059  10.764 -2.3124 -0.3617  0.0623
 9597SOL    HW230233   5.615   0.911  10.732  0.4785 -0.4929  0.3353
 9598SOL     OW30234   0.190   4.196   5.814 -0.0781 -0.1470 -0.3561
 9598SOL    HW130235   0.267   4.140   5.811  0.1720  0.2260 -1.3333
 9598SOL    HW230236   0.174   4.210   5.907  1.1140 -0.1226 -0.1378
 9599SOL     OW30237   5.423   4.928   9.644 -0.3317  0.5821 -0.5251
 9599SOL    HW130238   5.410   4.871   9.720  0.5331  1.3649  0.2172
 9599SOL    HW230239   5.508   4.903   9.609  0.7470  2.4032  0.6921
 9600SOL     OW30240   5.404   1.657   6.499  0.4565  0.1462  0.1461
 9600SOL    HW130241   5.480   1.600   6.512  0.1997 -0.2511 -0.0550
 9600SOL    HW230242   5.350   1.643   6.576  0.7877  0.7597  0.4988
 9601SOL     OW30243   7.774   1.696   1.226  0.2124  0.0358  0.3468
 9601SOL    HW130244   7.713   1.687   1.299  0.2272 -0.2524  0.3215
 9601SOL    HW230245   7.777   1.610   1.185 -0.0203  0.2722 -0.1750
 9602SOL     OW30246   5.349   7.207   7.822  0.2335  0.0446  0.1135
 9602SOL    HW130247   5.355   7.258   7.741  1.6184 -1.0258 -0.4891
 9602SOL    HW230248   5.284   7.139   7.803 -0.4824  0.6331  0.4008
 9603SOL     OW30249   0.770   4.843   4.348  0.1225 -0.1703 -0.0935
 9603SOL    HW130250   0.711   4.861   4.275  0.1306 -0.7791 -0.2585
 9603SOL    HW230251   0.770   4.923   4.400 -1.5290 -0.4495  0.3868
 9604SOL     OW30252   1.832   5.267   8.047  0.1833  0.5543 -0.7796
 9604SOL    HW130253   1.839   5.360   8.029  2.7682  0.0228 -3.2471
 9604SOL    HW230254   1.918   5.231   8.026 -0.9698 -2.5516 -0.8566
 9605SOL     OW30255   3.513   4.236   8.671 -0.4542  0.2811  0.0091
 9605SOL    HW130256   3.583   4.275   8.724 -0.6393  0.6157  0.0116
 9605SOL    HW230257   3.432   4.259   8.717 -0.6678  1.1958 -0.7922
 9606SOL     OW30258   7.337   7.483   2.889  0.1017 -0.1519  0.0989
 9606SOL    HW130259   7.292   7.479   2.974 -0.8625 -2.0834 -0.4450
 9606SOL    HW230260   7.305   7.563   2.849 -1.1361 -0.3353  0.6739
 9607SOL     OW30261   4.359   0.689   1.814  0.3564 -0.6972  0.3531
 9607SOL    HW130262   4.311   0.662   1.736 -0.1260  1.7295 -0.2630
 9607SOL    HW230263   4.386   0.779   1.796 -0.2127  0.1451  3.1770
 9608SOL     OW30264   2.319   2.230   0.559  0.0412  0.0748  0.3839
 9608SOL    HW130265   2.256   2.159   0.569 -0.8336  0.6602 -0.6479
 9608SOL    HW230266   2.400   2.187   0.534  0.0455 -0.6853  1.6266
 9609SOL     OW30267   4.607   2.837   2.029  0.2293 -0.1566  0.1961
 9609SOL    HW130268   4.540   2.806   2.090 -0.4221 -1.3177 -1.0704
 9609SOL    HW230269   4.558   2.891   1.966  0.4023 -1.2797 -0.9284
 9610SOL     OW30270   0.224   2.746   8.097 -0.3339  0.7152  0.0803
 9610SOL    HW130271   0.195   2.835   8.115 -0.0504  0.6652  0.8322
 9610SOL    HW230272   0.319   2.749   8.105 -0.4423 -0.2971  3.4498
 9611SOL     OW30273   3.220   6.841   5.017  0.0560 -0.0377 -0.6921
 9611SOL    HW130274   3.265   6.922   5.040 -0.6937 -0.2751  1.9747
 9611SOL    HW230275   3.163   6.865   4.944 -0.0663  1.8268 -0.0256
 9612SOL     OW30276   6.656   0.468   1.009 -0.3418  0.5010  0.1005
 9612SOL    HW130277   6.708   0.392   1.033 -0.7587  0.4084  0.7517
 9612SOL    HW230278   6.708   0.543   1.037  0.9430  0.5801 -2.2347
 9613SOL     OW30279   6.534   1.282   7.429  0.1458 -0.5573  0.2304
 9613SOL    HW130280   6.552   1.285   7.335 -0.1885 -1.1549  0.1445
 9613SOL    HW230281   6.482   1.203   7.441 -2.0325  0.8428  0.5560
 9614SOL     OW30282   1.280   4.153   3.838 -0.3769 -0.3778 -0.0024
 9614SOL    HW130283   1.346   4.201   3.788 -0.8721 -1.2546 -1.6061
 9614SOL    HW230284   1.229   4.106   3.771 -1.1210 -1.5858  1.3404
 9615SOL     OW30285   4.000   7.576   9.390  0.2049  0.4857 -0.2331
 9615SOL    HW130286   3.987   7.487   9.355  0.5103  0.5414 -0.4870
 9615SOL    HW230287   4.092   7.595   9.375  0.0353  1.0289 -0.5946
 9616SOL     OW30288   0.274   4.005  11.619  0.1463 -0.2849 -0.7075
 9616SOL    HW130289   0.327   4.068  11.667  2.1388 -0.6790 -2.2058
 9616SOL    HW230290   0.259   4.046  11.534 -1.8537 -0.2805 -0.3879
 9617SOL     OW30291   2.381   3.647   3.054 -0.1660  0.3150  0.3525
 9617SOL    HW130292   2.344   3.558   3.058  1.4658 -0.5222 -1.6425
 9617SOL    HW230293   2.317   3.697   3.003 -0.8221  0.1723  1.0108
 9618SOL     OW30294   1.641   5.769  11.630  0.0731 -0.0788 -0.4347
 9618SOL    HW130295   1.692   5.842  11.664  1.5006 -1.7789  1.3450
 9618SOL    HW230296   1.587   5.807  11.560 -0.5050  2.9718  1.4792
 9619SOL     OW30297   0.173   4.544   6.656 -0.4906  0.1609 -0.3719
 9619SOL    HW130298   0.174   4.479   6.585 -0.7086  1.6556 -1.8220
 9619SOL    HW230299   0.245   4.603   6.635 -1.3854  1.3958 -0.1192
 9620SOL     OW30300   1.078   6.222  10.011 -0.5217  0.3740  0.0754
 9620SOL    HW130301   1.130   6.162  10.066  1.4879  0.6454 -1.4000
 9620SOL    HW230302   1.005   6.169   9.981  0.7365 -1.1293 -0.4855
 9621SOL     OW30303   0.804   7.714   5.051 -0.3845  0.5241  0.3196
 9621SOL    HW130304   0.744   7.789   5.053 -0.8233  0.1728  0.4756
 9621SOL    HW230305   0.880   7.746   5.002 -0.6608  1.0014  0.1904
 9622SOL     OW30306   5.309   7.556   8.613 -0.3409  0.2980 -0.2615
 9622SOL    HW130307   5.362   7.611   8.671 -1.7977 -0.6446  2.1645
 9622SOL    HW230308   5.228   7.605   8.602 -0.4976 -0.0272 -0.5578
 9623SOL     OW30309   1.487   0.512   8.156 -0.2455 -0.2622 -0.0370
 9623SOL    HW130310   1.471   0.520   8.250 -1.1255 -1.2547 -0.0906
 9623SOL    HW230311   1.581   0.529   8.147 -0.5233  2.0700  0.7195
 9624SOL     OW30312   6.840   3.875   7.497 -0.0545 -0.1415  0.0463
 9624SOL    HW130313   6.758   3.863   7.544 -0.8270 -0.2134 -1.2940
 9624SOL    HW230314   6.907   3.846   7.559 -1.1009 -0.9619  0.8291
 9625SOL     OW30315   6.097   7.210  12.228  0.2199 -0.3435  0.5419
 9625SOL    HW130316   6.119   7.237  12.317  0.6426  1.4063 -0.0556
 9625SOL    HW230317   6.134   7.122  12.220  1.8215  0.1998  1.4991
 9626SOL     OW30318   4.483   1.140   1.271  0.5232  0.4224 -0.6124
 9626SOL    HW130319   4.501   1.146   1.365  2.3518  1.1482 -0.9593
 9626SOL    HW230320   4.489   1.046   1.252 -0.9411  0.1457  0.1530
 9627SOL     OW30321   5.002   4.647   6.614 -0.1635  0.2360  0.4599
 9627SOL    HW130322   4.913   4.659   6.645  0.0630  1.5631  0.6793
 9627SOL    HW230323   4.998   4.668   6.520  0.1697  1.8701  0.7737
 9628SOL     OW30324   6.973   5.865   7.679 -0.3435 -0.3916  0.2430
 9628SOL    HW130325   6.977   5.906   7.766 -1.1079 -0.4009  0.2850
 9628SOL    HW230326   6.901   5.803   7.684  0.0612 -0.9164 -0.1882
 9629SOL     OW30327   5.840   6.987  10.656 -0.3333 -0.3413  0.2234
 9629SOL    HW130328   5.888   6.990  10.572  0.2858 -0.8762  0.5472
 9629SOL    HW230329   5.902   6.947  10.717 -0.3181  1.1658  1.2522
 9630SOL     OW30330   3.909   2.969   9.898 -0.1569 -0.8478  0.3108
 9630SOL    HW130331   3.824   2.955   9.856 -0.3586  0.2425  0.3423
 9630SOL    HW230332   3.919   2.893   9.956 -1.1529 -0.9397  0.3899
 9631SOL     OW30333   6.754   4.102   4.124 -0.3159  0.3498 -0.0915
 9631SOL    HW130334   6.716   4.185   4.151 -1.1984 -0.5372  1.5571
 9631SOL    HW230335   6.685   4.037   4.141  1.2267 -1.0611  1.2569
 9632SOL     OW30336   4.303   7.826   1.625  0.6167 -0.5639 -0.2825
 9632SOL    HW130337   4.262   7.785   1.549 -1.2492  0.0114  0.3741
 9632SOL    HW230338   4.347   7.754   1.670 -0.8929 -1.5005 -0.2417
 9633SOL     OW30339   0.585   7.033   9.335 -0.2779 -0.3877 -0.4899
 9633SOL    HW130340   0.678   7.037   9.357  0.0236 -2.7181 -1.0909
 9633SOL    HW230341   0.541   7.019   9.419 -0.2108  1.4945 -0.0987
 9634SOL     OW30342   3.355   0.312   6.950 -0.0979  0.0395  0.6636
 9634SOL    HW130343   3.437   0.338   6.992  1.2701 -1.6118 -0.8376
 9634SOL    HW230344   3.374   0.316   6.856 -1.4631 -1.1634  0.3068
 9635SOL     OW30345   5.420   7.465   8.375 -0.2925 -0.1273  0.1597
 9635SOL    HW130346   5.387   7.378   8.355 -0.2621  0.2932 -2.0590
 9635SOL    HW230347   5.396   7.481   8.466 -0.7921 -2.2080  0.4264
 9636SOL     OW30348   2.688   6.215   1.563 -0.3797 -0.2446  0.1452
 9636SOL    HW130349   2.703   6.274   1.490 -0.3580  1.1450  1.2270
 9636SOL    HW230350   2.756   6.238   1.627 -2.5273  1.1206  2.0889
 9637SOL     OW30351   7.236   5.828   5.457 -0.1089 -0.5541 -0.6822
 9637SOL    HW130352   7.190   5.776   5.390  1.8711 -1.7882 -1.1857
 9637SOL    HW230353   7.309   5.771   5.484  0.1908  0.6754  1.2063
 9638SOL     OW30354   6.899   5.369   3.280 -0.5930  0.3277  0.5421
 9638SOL    HW130355   6.868   5.455   3.251  0.0229  0.4729  0.2844
 9638SOL    HW230356   6.983   5.358   3.235 -0.8550 -0.5856  0.2555
 9639SOL     OW30357   1.915   4.816   4.157  0.1326  0.1998 -0.3129
 9639SOL    HW130358   1.855   4.786   4.225  0.7294  1.2560  0.7024
 9639SOL    HW230359   1.883   4.774   4.077 -0.7886 -0.7832  0.5441
 9640SOL     OW30360   4.199   6.938  11.273 -0.2812  0.3939  0.1735
 9640SOL    HW130361   4.122   6.972  11.319  0.3735 -0.1313  1.7235
 9640SOL    HW230362   4.273   6.980  11.316  0.3841 -0.4063 -0.1666
 9641SOL     OW30363   7.577   5.587   7.187 -0.0547 -0.1764  0.3473
 9641SOL    HW130364   7.533   5.671   7.199 -2.3661 -1.3990  1.1278
 9641SOL    HW230365   7.518   5.537   7.130  1.6383 -1.0381 -0.7329
 9642SOL     OW30366   3.777   4.912   5.482 -0.3553 -0.1135  0.1659
 9642SOL    HW130367   3.855   4.867   5.515 -1.0843 -0.5103  1.4315
 9642SOL    HW230368   3.794   5.005   5.496  0.6637 -0.0422 -1.3491
 9643SOL     OW30369   7.498   0.716   6.681  0.4339  0.1277  0.6752
 9643SOL    HW130370   7.501   0.670   6.597  0.6217 -0.6073  1.0687
 9643SOL    HW230371   7.559   0.788   6.672  2.7483 -1.6528  1.1247
 9644SOL     OW30372   7.460   3.962   6.593 -0.4245 -0.1580 -0.2587
 9644SOL    HW130373   7.551   3.955   6.620 -0.6886 -0.2712  0.6455
 9644SOL    HW230374   7.446   4.056   6.581 -0.0886 -0.1719 -0.7711
 9645SOL     OW30375   5.544   4.976   8.382  0.2490  0.1942  0.5975
 9645SOL    HW130376   5.558   4.970   8.477  1.8222 -0.2635  0.3695
 9645SOL    HW230377   5.632   4.982   8.345 -0.3175 -0.0157 -0.8731
 9646SOL     OW30378   6.162   2.569   3.789 -0.1547  0.4674  0.1988
 9646SOL    HW130379   6.252   2.548   3.815 -0.8689  0.1598  2.7238
 9646SOL    HW230380   6.108   2.516   3.848 -2.0099  1.0232 -0.9269
 9647SOL     OW30381   6.276   3.082  12.077 -0.3041  0.0182 -0.5326
 9647SOL    HW130382   6.310   3.037  12.000 -1.0613  1.0845 -1.5379
 9647SOL    HW230383   6.181   3.085  12.064 -0.4906 -0.1541  0.6587
 9648SOL     OW30384   5.697   3.208   2.416 -0.2043  0.0672  0.2267
 9648SOL    HW130385   5.641   3.132   2.428 -2.0803  1.3264 -0.1763
 9648SOL    HW230386   5.728   3.230   2.504  1.5310 -1.9534  0.1852
 9649SOL     OW30387   2.351   4.419   9.661  0.4520 -0.3003  0.2782
 9649SOL    HW130388   2.299   4.349   9.701 -0.5006  0.3616  0.2192
 9649SOL    HW230389   2.439   4.406   9.697 -0.0023 -0.7444  1.2681
 9650SOL     OW30390   6.919   5.028  10.323  0.3464 -0.1521  0.1753
 9650SOL    HW130391   6.993   5.057  10.270 -0.6498 -1.2915 -1.9934
 9650SOL    HW230392   6.845   5.078  10.289 -0.6691 -2.2646 -0.9526
 9651SOL     OW30393   3.224   2.259   1.058 -1.0124 -0.3868 -0.4448
 9651SOL    HW130394   3.259   2.343   1.088 -1.7128 -0.8465  1.8787
 9651SOL    HW230395   3.133   2.279   1.033 -1.7075 -0.6566  1.6444
 9652SOL     OW30396   5.054   4.667   3.873  0.0012  0.5477  0.3537
 9652SOL    HW130397   5.090   4.669   3.784 -0.7240  0.2972  0.0468
 9652SOL    HW230398   4.975   4.614   3.865  0.6883 -0.6813  1.4335
 9653SOL     OW30399   1.664   7.647   4.650  0.3750 -0.3457 -0.3968
 9653SOL    HW130400   1.755   7.654   4.622  0.2615  0.7684 -0.5384
 9653SOL    HW230401   1.669   7.609   4.738  0.9877 -0.1137 -0.3281
 9654SOL     OW30402   3.374   0.058   3.892  0.0491 -0.0740 -0.0735
 9654SOL    HW130403   3.399   0.102   3.811 -1.6554 -0.0631 -0.6315
 9654SOL    HW230404   3.315   0.120   3.936  1.1586  0.0331  1.3285
 9655SOL     OW30405   1.731   2.271  11.093  0.1698 -0.0852 -0.2205
 9655SOL    HW130406   1.638   2.246  11.086  0.4161 -1.3517  0.7745
 9655SOL    HW230407   1.766   2.257  11.005 -0.3118 -0.7312 -0.3148
 9656SOL     OW30408   3.700   0.921  10.455  0.2086  0.3053  0.3086
 9656SOL    HW130409   3.730   0.974  10.529 -0.6460  1.1950  0.0459
 9656SOL    HW230410   3.632   0.865  10.491  0.1292  0.3921  0.2928
 9657SOL     OW30411   1.690   1.250   9.293 -0.1540 -0.0649 -0.3763
 9657SOL    HW130412   1.719   1.226   9.381  0.9859  0.2008 -0.6729
 9657SOL    HW230413   1.643   1.332   9.306 -1.8984 -1.1059  0.2753
 9658SOL     OW30414   2.917   3.382   3.397 -0.6493  0.1114  0.1471
 9658SOL    HW130415   2.963   3.434   3.332  0.7377 -1.4682 -0.2124
 9658SOL    HW230416   2.911   3.439   3.474 -1.3710  1.6229 -0.9783
 9659SOL     OW30417   6.986   2.417   9.552 -0.3409 -0.1645 -0.5708
 9659SOL    HW130418   7.018   2.326   9.553 -1.2482 -0.4849  0.2224
 9659SOL    HW230419   6.903   2.412   9.505 -1.7384 -0.2361  1.7929
 9660SOL     OW30420   4.013   2.595   7.039  0.1101  0.6196  0.4513
 9660SOL    HW130421   4.048   2.509   7.017  0.7262  1.1452 -0.7526
 9660SOL    HW230422   3.919   2.586   7.027  0.3065  0.5385 -1.3943
 9661SOL     OW30423   1.450   7.819   3.605  0.1335  0.4029  0.2498
 9661SOL    HW130424   1.432   7.756   3.536 -2.3098  0.8216  0.4135
 9661SOL    HW230425   1.520   7.779   3.657  0.2496 -1.0732 -0.9783
 9662SOL     OW30426   7.863   3.390   4.981 -0.4441  0.5224 -0.2345
 9662SOL    HW130427   7.853   3.297   4.963  0.6083  0.0320  1.5048
 9662SOL    HW230428   7.935   3.418   4.924 -1.0552  0.3938 -1.0839
 9663SOL     OW30429   3.689   5.128   4.226 -0.6831 -0.0496  0.1160
 9663SOL    HW130430   3.661   5.216   4.201 -1.3230 -0.4783 -0.7526
 9663SOL    HW230431   3.707   5.134   4.319 -1.2071  0.8791  0.1742
 9664SOL     OW30432   6.816   7.380   2.571 -0.0317  0.6138 -0.7382
 9664SOL    HW130433   6.785   7.438   2.502  1.7601  0.7806 -1.4510
 9664SOL    HW230434   6.816   7.434   2.650 -0.8530  0.7970 -0.8504
 9665SOL     OW30435   0.283   5.538  12.303 -0.1935  0.1194  0.3400
 9665SOL    HW130436   0.355   5.505  12.357 -0.8020 -0.4230  0.8439
 9665SOL    HW230437   0.217   5.567  12.366 -0.1857  1.1503 -0.1104
 9666SOL     OW30438   2.770   2.296   1.241 -0.6600  0.0970 -0.0488
 9666SOL    HW130439   2.813   2.313   1.158 -1.4145  3.0148  0.0325
 9666SOL    HW230440   2.792   2.372   1.295  0.8066 -2.2267  2.9113
 9667SOL     OW30441   7.147   1.670   7.478 -0.0749  0.1864 -0.2737
 9667SOL    HW130442   7.093   1.628   7.410 -0.3372 -0.4229  0.3026
 9667SOL    HW230443   7.235   1.636   7.462 -0.2864 -0.6248  0.1983
 9668SOL     OW30444   0.238   2.450   8.900 -0.5851  0.1336  0.0696
 9668SOL    HW130445   0.308   2.385   8.900  0.7323  1.4748 -0.9410
 9668SOL    HW230446   0.176   2.419   8.835  0.3012  0.1360 -0.7936
 9669SOL     OW30447   4.104   6.497   3.002 -0.3519  0.2325 -0.0358
 9669SOL    HW130448   4.157   6.574   3.025 -0.8881  0.4423  0.5487
 9669SOL    HW230449   4.083   6.508   2.910 -0.2062  0.6553 -0.0186
 9670SOL     OW30450   3.942   6.149   0.302 -0.5337 -0.1274 -0.1719
 9670SOL    HW130451   3.879   6.105   0.245  0.2138 -1.5090  0.0113
 9670SOL    HW230452   4.026   6.141   0.256 -0.5649  2.3330 -0.7611
 9671SOL     OW30453   2.696   3.539   3.176  0.2240 -0.6628 -0.0240
 9671SOL    HW130454   2.702   3.482   3.252 -0.9442 -1.0577 -0.2095
 9671SOL    HW230455   2.733   3.622   3.205  0.4182 -1.0221  0.7613
 9672SOL     OW30456   7.821   0.406  11.841  1.1344  0.7404 -0.3833
 9672SOL    HW130457   7.847   0.497  11.826  1.0546  1.2062  1.9404
 9672SOL    HW230458   7.897   0.367  11.886  0.1735  0.4333  1.0305
 9673SOL     OW30459   6.307   4.416   7.076  0.7062 -0.0668  0.0538
 9673SOL    HW130460   6.357   4.340   7.107  0.1806  0.1405  1.5139
 9673SOL    HW230461   6.341   4.489   7.128  1.0502  0.6638 -1.1773
 9674SOL     OW30462   0.859   4.703   2.957  0.1030 -0.2062  0.4040
 9674SOL    HW130463   0.934   4.658   2.996 -1.0020 -1.3969  1.2531
 9674SOL    HW230464   0.834   4.647   2.883  0.1174  0.2495  0.0490
 9675SOL     OW30465   1.296   0.916   5.881 -0.0606  0.2564 -0.5893
 9675SOL    HW130466   1.363   0.886   5.942  0.1571 -0.2285 -1.0541
 9675SOL    HW230467   1.331   0.893   5.795  0.6069  2.7977 -1.0678
 9676SOL     OW30468   5.069   7.241   9.235  0.6775 -0.3395  0.3511
 9676SOL    HW130469   5.018   7.199   9.165 -0.2603 -2.3466  2.1138
 9676SOL    HW230470   5.038   7.331   9.237 -1.9989 -1.1823  0.5462
 9677SOL     OW30471   0.376   3.665   9.210 -0.0723 -0.6749  0.0839
 9677SOL    HW130472   0.372   3.584   9.260 -1.1539  0.6734  2.4082
 9677SOL    HW230473   0.297   3.713   9.236  1.7446  2.1904  0.8524
 9678SOL     OW30474   2.509   1.713  11.756 -0.9821 -0.5684  0.4191
 9678SOL    HW130475   2.548   1.704  11.669  0.3144  0.9378  0.8007
 9678SOL    HW230476   2.438   1.649  11.757 -1.3965 -0.2460 -1.9559
 9679SOL     OW30477   2.403   3.543   5.112  0.0603 -0.2814 -0.0283
 9679SOL    HW130478   2.447   3.619   5.073  1.3743 -0.1601  1.5585
 9679SOL    HW230479   2.469   3.474   5.112 -0.3256 -0.6684  0.7695
 9680SOL     OW30480   4.132   5.389   1.133  0.1198  0.2804  0.2731
 9680SOL    HW130481   4.094   5.349   1.211  1.1001 -0.8611  0.1779
 9680SOL    HW230482   4.210   5.435   1.165  0.4104 -0.0192 -0.0058
 9681SOL     OW30483   2.795   7.306   2.207  0.5193  0.1690 -0.2885
 9681SOL    HW130484   2.869   7.288   2.265  0.6530 -0.4183 -0.6278
 9681SOL    HW230485   2.779   7.222   2.162  1.0203  0.8248 -1.7724
 9682SOL     OW30486   5.327   4.194   6.643 -0.1418 -0.1158  0.0560
 9682SOL    HW130487   5.410   4.182   6.691  1.2852  1.1389 -1.9353
 9682SOL    HW230488   5.282   4.263   6.692  0.5354 -0.0021  0.5480
 9683SOL     OW30489   3.988   7.488   4.780 -0.6877 -0.2793 -0.8282
 9683SOL    HW130490   3.978   7.431   4.856 -0.2153 -0.3095 -0.7849
 9683SOL    HW230491   3.905   7.480   4.732 -1.4449  0.6033  0.2659
 9684SOL     OW30492   6.236   1.284   5.374 -0.1063  0.0210  0.1034
 9684SOL    HW130493   6.221   1.195   5.342  2.0479 -0.7347  1.0148
 9684SOL    HW230494   6.232   1.339   5.295  0.9852 -1.2292 -0.8609
 9685SOL     OW30495   3.011   7.830   9.059 -0.2379 -0.4739 -0.0977
 9685SOL    HW130496   2.952   7.905   9.063  1.6759  1.1683 -0.9722
 9685SOL    HW230497   2.986   7.784   8.978 -0.9013 -0.3441  0.0282
 9686SOL     OW30498   5.295   6.234   0.836  0.0608 -0.7678  0.1494
 9686SOL    HW130499   5.323   6.324   0.817  1.1444 -0.3585  3.0846
 9686SOL    HW230500   5.359   6.179   0.791 -0.4628 -0.0855 -1.4743
 9687SOL     OW30501   7.237   0.279   0.411  0.0007 -0.5774 -0.3493
 9687SOL    HW130502   7.207   0.197   0.371 -0.0382 -0.0463 -1.4478
 9687SOL    HW230503   7.161   0.338   0.405  0.4264 -0.0605 -0.7452
 9688SOL     OW30504   1.093   7.831   5.706 -0.1318 -0.3427 -0.2784
 9688SOL    HW130505   0.999   7.850   5.712 -0.2387 -0.8600 -0.3156
 9688SOL    HW230506   1.123   7.833   5.797 -0.7871 -3.2250  0.0838
 9689SOL     OW30507   4.465   1.019   8.584 -0.6266  0.1122  0.2741
 9689SOL    HW130508   4.555   1.006   8.613  0.7115  0.3262 -3.3583
 9689SOL    HW230509   4.457   1.113   8.569 -0.5023 -0.2103 -2.0371
 9690SOL     OW30510   7.396   6.697   1.593 -0.6430  0.1619 -0.0931
 9690SOL    HW130511   7.393   6.665   1.684  1.0201 -1.4639 -0.5493
 9690SOL    HW230512   7.381   6.619   1.540 -0.9651  0.9799 -1.2365
 9691SOL     OW30513   6.339   1.510   9.945 -0.1414  0.1182 -0.1401
 9691SOL    HW130514   6.333   1.417   9.927  0.5947  0.3556 -1.7792
 9691SOL    HW230515   6.268   1.527  10.008  0.7455 -1.8069  1.4984
 9692SOL     OW30516   7.162   3.419   2.150 -0.0260 -0.3057  0.0723
 9692SOL    HW130517   7.190   3.358   2.218  1.1576 -0.8252 -0.8273
 9692SOL    HW230518   7.228   3.408   2.081  0.8152  2.6718  0.2610
 9693SOL     OW30519   0.568   6.866   9.810  0.3885  0.1559 -0.3453
 9693SOL    HW130520   0.609   6.787   9.775  1.7002  0.4137  0.5255
 9693SOL    HW230521   0.506   6.833   9.875  0.4645 -0.1986 -0.4487
 9694SOL     OW30522   4.189   6.485   3.700  0.4195  0.2415  0.5272
 9694SOL    HW130523   4.180   6.566   3.650  0.7397 -0.0480  0.0032
 9694SOL    HW230524   4.165   6.416   3.639 -0.6520 -0.0176  1.2016
 9695SOL     OW30525   6.615   1.022   9.782 -0.8275  0.2127 -0.1292
 9695SOL    HW130526   6.673   0.962   9.829  0.1391  0.6557 -0.7388
 9695SOL    HW230527   6.562   0.966   9.726  0.4481 -0.0441 -1.1010
 9696SOL     OW30528   5.873   1.425   1.092  0.3636  0.6474  0.1285
 9696SOL    HW130529   5.791   1.471   1.109 -0.0321  0.0023  0.0123
 9696SOL    HW230530   5.933   1.492   1.060 -1.2672  0.5528 -3.5798
 9697SOL     OW30531   3.245   0.265   4.399  0.0440  0.1694 -0.3232
 9697SOL    HW130532   3.161   0.220   4.387  0.3160 -0.2824 -0.5642
 9697SOL    HW230533   3.286   0.263   4.312  0.4008  0.1788 -0.1570
 9698SOL     OW30534   7.139   0.563   5.046 -0.2831 -0.6647 -0.4244
 9698SOL    HW130535   7.153   0.625   4.974 -0.9503 -0.8988 -0.7577
 9698SOL    HW230536   7.071   0.604   5.100  0.9469  0.0270  0.6876
 9699SOL     OW30537   2.259   2.276   4.335  0.5663 -0.3747 -0.0792
 9699SOL    HW130538   2.214   2.359   4.351 -1.4260 -1.3361 -0.4532
 9699SOL    HW230539   2.350   2.302   4.318 -0.6259  2.1674 -4.0890
 9700SOL     OW30540   3.921   5.000   6.484 -0.3089  0.0375  0.1082
 9700SOL    HW130541   3.980   5.071   6.459 -1.7316  0.9893 -0.7053
 9700SOL    HW230542   3.937   4.931   6.419  1.1203 -0.4469  0.9358
 9701SOL     OW30543   7.103   6.838   5.933  0.0307  0.5021 -0.7518
 9701SOL    HW130544   7.013   6.859   5.907 -0.1407 -0.2006 -0.7439
 9701SOL    HW230545   7.152   6.837   5.851  0.1492  1.4195 -0.7011
 9702SOL     OW30546   5.331   2.722   2.136 -0.7072  0.0634  0.1558
 9702SOL    HW130547   5.262   2.785   2.113  0.1581  1.3252  0.8617
 9702SOL    HW230548   5.407   2.777   2.158 -0.4550 -1.1143  2.6309
 9703SOL     OW30549   7.544   4.054  10.367  0.2163 -0.3548  0.4341
 9703SOL    HW130550   7.452   4.061  10.394 -0.2545 -0.9640 -0.9410
 9703SOL    HW230551   7.593   4.068  10.448 -1.0486  0.9876  1.0211
 9704SOL     OW30552   1.948   0.922   4.498 -0.1787 -0.3521  0.1643
 9704SOL    HW130553   1.916   0.844   4.543 -0.8705 -0.5052 -0.5847
 9704SOL    HW230554   2.043   0.921   4.513  0.1440 -2.4564 -1.5102
 9705SOL     OW30555   5.527   6.461   2.134 -0.3896 -0.2210  0.2784
 9705SOL    HW130556   5.525   6.447   2.040 -2.0522 -1.6774  0.4550
 9705SOL    HW230557   5.536   6.555   2.145 -0.8313  0.0402 -1.3425
 9706SOL     OW30558   0.921   0.779   1.958 -0.2465  0.3571  0.1534
 9706SOL    HW130559   0.888   0.690   1.944 -0.1186 -0.0148  1.9726
 9706SOL    HW230560   1.014   0.774   1.939 -0.2311  0.0937  0.3008
 9707SOL     OW30561   7.743   3.677   6.900 -0.6901  0.2194  0.2890
 9707SOL    HW130562   7.786   3.655   6.983  0.7956  1.6418 -0.0540
 9707SOL    HW230563   7.779   3.616   6.837 -0.9531 -0.1151  0.4606
 9708SOL     OW30564   0.246   2.560   1.252  0.4255  0.1936  0.1039
 9708SOL    HW130565   0.312   2.580   1.317  1.2531  0.3574 -0.7639
 9708SOL    HW230566   0.296   2.543   1.172 -0.5214 -0.6876 -0.3206
 9709SOL     OW30567   7.009   6.739   5.079  0.3013 -0.4591 -0.2353
 9709SOL    HW130568   7.100   6.764   5.061 -0.3401  1.2126 -1.3828
 9709SOL    HW230569   6.986   6.679   5.008 -0.0331  0.5278 -0.9692
 9710SOL     OW30570   6.364   4.800  10.440 -0.2676  0.1368  0.3356
 9710SOL    HW130571   6.375   4.722  10.494  0.9649  0.7524  0.9969
 9710SOL    HW230572   6.451   4.839  10.435 -0.9460  1.7568  0.4437
 9711SOL     OW30573   1.622   7.678   3.799 -0.2330 -0.0441  0.3097
 9711SOL    HW130574   1.669   7.594   3.800 -0.7868 -0.3579  0.6517
 9711SOL    HW230575   1.655   7.725   3.875  0.0379  0.0239  0.1498
 9712SOL     OW30576   5.038   6.407   0.854 -0.4303 -0.0218  0.1463
 9712SOL    HW130577   5.080   6.476   0.906  0.4425 -0.6724  0.3220
 9712SOL    HW230578   5.109   6.369   0.803 -1.1148 -0.0270 -0.8198
 9713SOL     OW30579   2.074   6.694   0.934  0.1237  0.1156 -0.4825
 9713SOL    HW130580   2.117   6.748   0.999  1.5585 -1.8312  0.2943
 9713SOL    HW230581   2.136   6.689   0.862  0.0683 -0.5919 -0.4889
 9714SOL     OW30582   1.067   5.417   1.774  0.3600 -0.7477 -0.4221
 9714SOL    HW130583   0.984   5.411   1.727 -0.8782 -0.4154  1.5791
 9714SOL    HW230584   1.041   5.428   1.866  2.6316 -1.0532  0.3129
 9715SOL     OW30585   2.268   5.665   2.990  0.0766  0.6209 -0.1155
 9715SOL    HW130586   2.308   5.752   2.988  1.0882  0.2833  2.2681
 9715SOL    HW230587   2.182   5.679   3.031  0.1534  0.5306  0.0772
 9716SOL     OW30588   2.583   7.169  11.899  0.6173  0.2043 -0.6893
 9716SOL    HW130589   2.671   7.206  11.903  1.0662 -0.8477 -0.5804
 9716SOL    HW230590   2.583   7.115  11.820 -0.3234  1.1421 -1.3608
 9717SOL     OW30591   1.242   4.512  10.624  0.0766 -0.3998  0.0016
 9717SOL    HW130592   1.152   4.501  10.654  0.0328 -0.0745 -0.0083
 9717SOL    HW230593   1.274   4.588  10.673 -0.7110  1.5790 -2.3580
 9718SOL     OW30594   7.816   1.741   0.111 -0.2567  0.0453  0.1128
 9718SOL    HW130595   7.909   1.764   0.109  0.3591 -1.7441  2.6712
 9718SOL    HW230596   7.787   1.767   0.199 -1.8244 -0.6577 -0.1602
 9719SOL     OW30597   2.395   7.262   8.486  0.0726 -0.3255 -0.0176
 9719SOL    HW130598   2.419   7.343   8.440 -0.6632  0.4447  0.8894
 9719SOL    HW230599   2.417   7.279   8.577  0.7314 -1.5068  0.0608
 9720SOL     OW30600   5.671   7.414   5.959  0.3171 -0.0819  0.1153
 9720SOL    HW130601   5.734   7.345   5.980 -0.0268 -0.4810 -0.1404
 9720SOL    HW230602   5.715   7.470   5.896  0.4669 -0.2744  0.0504
 9721SOL     OW30603   4.417   4.001   1.751 -0.5223  0.5166 -0.8532
 9721SOL    HW130604   4.440   4.018   1.660 -1.2054  0.7843 -0.9798
 9721SOL    HW230605   4.337   4.052   1.766 -1.0508 -0.4101 -0.4237
 9722SOL     OW30606   0.167   0.699   2.143 -0.2621  0.3099 -0.2725
 9722SOL    HW130607   0.238   0.638   2.120  0.7319  1.3204  0.0228
 9722SOL    HW230608   0.120   0.713   2.061  0.6052  0.5378 -0.7488
 9723SOL     OW30609   0.606   4.417   7.730  0.2310  0.2771 -0.2623
 9723SOL    HW130610   0.613   4.512   7.737 -0.0244  0.2059  1.1677
 9723SOL    HW230611   0.687   4.390   7.685 -0.1056  1.2298 -1.4915
 9724SOL     OW30612   1.309   0.954  11.798  0.7047  0.0522 -0.2945
 9724SOL    HW130613   1.310   1.049  11.786 -2.3359  0.4458  1.5066
 9724SOL    HW230614   1.395   0.935  11.837  2.1221  1.6899 -2.3545
 9725SOL     OW30615   5.721   1.123   9.822 -0.1348  0.3221 -0.4020
 9725SOL    HW130616   5.638   1.090   9.788  0.4961  0.0272 -1.7179
 9725SOL    HW230617   5.757   1.176   9.751  0.5381  0.9326  0.3696
 9726SOL     OW30618   2.831   5.686   0.705 -0.6386  0.1533 -0.0435
 9726SOL    HW130619   2.868   5.745   0.639 -0.2805  1.2425  1.0772
 9726SOL    HW230620   2.773   5.742   0.757  1.3323  0.1126  2.3759
 9727SOL     OW30621   1.871   7.330   3.426 -0.5981  0.3505  0.0304
 9727SOL    HW130622   1.777   7.314   3.438 -0.2646 -0.8340  1.2395
 9727SOL    HW230623   1.912   7.295   3.505  0.9194  0.4367 -0.6864
 9728SOL     OW30624   0.209   2.953   6.753  0.2159 -0.1560 -0.6818
 9728SOL    HW130625   0.205   3.017   6.681  0.7916  0.1952 -0.4178
 9728SOL    HW230626   0.124   2.959   6.795 -0.6174 -1.3139 -2.1122
 9729SOL     OW30627   4.442   3.031   0.743  0.3093 -0.0454  0.4939
 9729SOL    HW130628   4.370   2.969   0.746  1.3385 -1.2396  2.1702
 9729SOL    HW230629   4.416   3.102   0.801 -0.3600  0.5491 -0.5034
 9730SOL     OW30630   4.201   1.023   3.682  0.3198  0.7105  0.1821
 9730SOL    HW130631   4.133   0.965   3.647  0.8390  0.1440  0.0925
 9730SOL    HW230632   4.154   1.104   3.704 -0.6538 -0.1680  1.5003
 9731SOL     OW30633   2.569   4.955   2.436  1.0834 -0.1554  0.6391
 9731SOL    HW130634   2.569   5.045   2.469  0.2767 -0.2977  1.0579
 9731SOL    HW230635   2.496   4.913   2.482  1.0750 -0.8598  0.0022
 9732SOL     OW30636   1.883   3.086   4.761 -0.1998  0.5568  0.2408
 9732SOL    HW130637   1.955   3.147   4.743  1.9617 -1.7994  0.2364
 9732SOL    HW230638   1.835   3.126   4.834  1.6692  1.8233  0.8578
 9733SOL     OW30639   0.811   7.079   3.627 -0.4547 -0.1830  0.0979
 9733SOL    HW130640   0.820   6.985   3.613 -0.5886 -0.2715  0.5881
 9733SOL    HW230641   0.856   7.119   3.552 -1.8166 -0.6251 -1.0019
 9734SOL     OW30642   0.643   7.449   3.470  0.3919  0.3265 -0.0302
 9734SOL    HW130643   0.691   7.423   3.549  0.3092 -0.9031 -0.3558
 9734SOL    HW230644   0.618   7.366   3.430 -1.0610  0.9427 -0.4431
 9735SOL     OW30645   5.387   7.762   7.153 -0.5749 -0.0041  0.0651
 9735SOL    HW130646   5.440   7.781   7.076 -0.7608 -3.8254 -1.2088
 9735SOL    HW230647   5.449   7.761   7.226  0.3959 -0.5233 -0.7543
 9736SOL     OW30648   7.855   5.209   1.146  0.4549  0.0724 -0.0057
 9736SOL    HW130649   7.785   5.226   1.083  0.2837  0.9666  0.4102
 9736SOL    HW230650   7.933   5.247   1.106  0.8184 -1.2745 -0.6535
 9737SOL     OW30651   1.855   6.228   4.206 -0.0963 -0.0150 -0.3483
 9737SOL    HW130652   1.913   6.167   4.160  1.0726  0.3172  0.6394
 9737SOL    HW230653   1.897   6.313   4.197 -0.2282  0.1783  0.6812
 9738SOL     OW30654   0.257   3.499   3.029  0.3136  0.0309  0.2388
 9738SOL    HW130655   0.250   3.421   3.084 -0.5688  0.7571  1.2010
 9738SOL    HW230656   0.220   3.473   2.945 -0.0595 -0.5567  0.5824
 9739SOL     OW30657   0.884   3.572  10.073  0.1417 -0.1184  0.1491
 9739SOL    HW130658   0.796   3.609  10.073 -0.1275 -0.7477  0.2670
 9739SOL    HW230659   0.890   3.524   9.991  0.7944  0.8803 -0.4015
 9740SOL     OW30660   6.770   6.777   5.486  0.0736  0.0518  0.0998
 9740SOL    HW130661   6.684   6.814   5.464 -0.0471 -1.5602 -2.5132
 9740SOL    HW230662   6.832   6.843   5.457 -0.2274  0.5739  0.6139
 9741SOL     OW30663   1.716   1.037   6.341 -0.2192 -0.5686 -0.5821
 9741SOL    HW130664   1.732   0.966   6.404  0.3944 -0.3742 -0.5151
 9741SOL    HW230665   1.757   1.114   6.381 -1.6434  0.0426 -0.2288
 9742SOL     OW30666   5.108   3.388   2.690 -0.0958  0.2348 -0.1823
 9742SOL    HW130667   5.025   3.342   2.704 -0.6568  1.5223  1.0172
 9742SOL    HW230668   5.124   3.434   2.772  2.0261 -0.2735 -0.2595
 9743SOL     OW30669   3.886   5.408   4.533  0.5395  0.0816 -0.0281
 9743SOL    HW130670   3.858   5.460   4.608 -0.8106  0.6025 -0.8484
 9743SOL    HW230671   3.884   5.470   4.459 -0.4701 -0.9584 -0.9089
 9744SOL     OW30672   2.069   4.776   2.084  0.3816  0.1738 -0.2462
 9744SOL    HW130673   1.989   4.775   2.031 -0.8851 -1.3476  1.5754
 9744SOL    HW230674   2.102   4.866   2.077 -0.8339  0.5251 -1.9489
 9745SOL     OW30675   3.083   6.972   4.809  0.2185  0.2354  0.1008
 9745SOL    HW130676   3.120   7.042   4.754  0.9955  0.3362  0.7179
 9745SOL    HW230677   3.045   7.018   4.883  0.7098  0.0164  0.4976
 9746SOL     OW30678   2.160   1.605   5.071  0.3085 -0.0289 -0.3319
 9746SOL    HW130679   2.254   1.605   5.091  0.4223 -1.0998 -0.8032
 9746SOL    HW230680   2.140   1.696   5.050  0.7716  0.6553  1.8785
 9747SOL     OW30681   7.381   3.921   0.670 -0.3831  0.4334  0.3783
 9747SOL    HW130682   7.296   3.878   0.675 -0.9606  1.4898 -0.0598
 9747SOL    HW230683   7.442   3.851   0.645 -0.9624 -0.5081  1.4882
 9748SOL     OW30684   3.185   0.919   8.114  0.0795  0.0422  0.1702
 9748SOL    HW130685   3.242   0.871   8.174  0.6035  0.1072 -0.2645
 9748SOL    HW230686   3.118   0.855   8.089  1.4223 -0.9006 -1.3162
 9749SOL     OW30687   5.686   1.424   5.478 -0.0450 -0.3707  0.3142
 9749SOL    HW130688   5.670   1.464   5.393  0.4975 -0.2075  0.2821
 9749SOL    HW230689   5.766   1.466   5.509  0.0145 -0.7593  0.6956
 9750SOL     OW30690   3.076   7.186   5.218  0.2435  0.0925  0.3295
 9750SOL    HW130691   3.085   7.243   5.294 -0.6710  0.4756  0.1719
 9750SOL    HW230692   3.163   7.148   5.205  0.4103  0.0393  1.5393
 9751SOL     OW30693   2.687   3.351   0.574 -0.5676  0.2489  0.2759
 9751SOL    HW130694   2.603   3.327   0.612 -0.2971  0.6992  1.1817
 9751SOL    HW230695   2.751   3.328   0.642 -0.0502  0.7961 -0.0193
 9752SOL     OW30696   5.203   4.692   9.523 -0.1119  0.5079  0.2391
 9752SOL    HW130697   5.153   4.772   9.539 -2.2068 -0.5264 -0.8571
 9752SOL    HW230698   5.165   4.627   9.583 -1.0895 -0.6536 -1.5653
 9753SOL     OW30699   4.775   4.049  11.468 -0.2747 -0.0200 -0.9220
 9753SOL    HW130700   4.681   4.063  11.471 -0.2079  0.5569 -1.2726
 9753SOL    HW230701   4.786   3.961  11.432 -0.6922 -0.5382  0.1690
 9754SOL     OW30702   3.729   4.267  12.239  0.1849 -0.6433 -0.0364
 9754SOL    HW130703   3.822   4.246  12.244  0.6878  1.4507  0.3292
 9754SOL    HW230704   3.717   4.299  12.149  0.6695  2.4375  0.8899
 9755SOL     OW30705   0.178   5.263  11.653  0.1664 -0.2725  0.1353
 9755SOL    HW130706   0.182   5.356  11.673 -0.0704 -0.1281 -0.4596
 9755SOL    HW230707   0.133   5.224  11.728  1.8994 -0.1999  1.2669
 9756SOL     OW30708   3.431   6.185   1.671  0.0334  0.6409  0.2200
 9756SOL    HW130709   3.389   6.144   1.746  0.1264 -0.3063 -0.2373
 9756SOL    HW230710   3.515   6.217   1.705  1.2427 -2.0446 -0.0138
 9757SOL     OW30711   1.323   5.243   0.625 -0.0853  0.0878 -0.0376
 9757SOL    HW130712   1.375   5.179   0.575  0.6983 -1.8375  2.9722
 9757SOL    HW230713   1.365   5.327   0.605 -0.7037 -0.2668 -3.5780
 9758SOL     OW30714   7.907   1.353   5.845 -0.1538 -0.1384  0.4141
 9758SOL    HW130715   7.910   1.337   5.750 -0.7415 -0.3789  0.4350
 9758SOL    HW230716   7.952   1.278   5.883  1.2460  0.5879  0.2709
 9759SOL     OW30717   6.322   7.000   1.034 -0.1770 -0.7827  0.1023
 9759SOL    HW130718   6.372   7.061   0.980 -1.0207  0.2027  0.4063
 9759SOL    HW230719   6.272   7.055   1.093 -1.3257 -1.7429  0.0679
 9760SOL     OW30720   3.021   6.657   7.711 -0.0773  0.0663 -0.3137
 9760SOL    HW130721   3.109   6.658   7.671  0.1537  0.2668  0.1965
 9760SOL    HW230722   2.962   6.643   7.637  0.3373  0.5920 -0.7535
 9761SOL     OW30723   6.733   1.544   1.190  0.2067 -0.2990 -0.0462
 9761SOL    HW130724   6.778   1.628   1.180  0.1156  0.0200  1.8726
 9761SOL    HW230725   6.767   1.490   1.120  0.8981  1.0692 -0.8126
 9762SOL     OW30726   7.683   5.342   1.706  0.2506  0.3505  0.5317
 9762SOL    HW130727   7.661   5.388   1.625  1.1587 -1.0267 -0.5492
 9762SOL    HW230728   7.601   5.298   1.731 -0.0094  0.7095  0.3257
 9763SOL     OW30729   1.711   5.107   0.391  0.9757  0.4190 -0.2156
 9763SOL    HW130730   1.620   5.100   0.422  1.0936  1.2721  0.3677
 9763SOL    HW230731   1.708   5.175   0.325  1.2035  0.4997 -0.1440
 9764SOL     OW30732   2.274   6.886  11.060  0.0761  0.0659  0.2376
 9764SOL    HW130733   2.281   6.826  11.134  1.4660 -0.6265 -0.4261
 9764SOL    HW230734   2.228   6.837  10.992  0.4867  0.0378 -0.0217
 9765SOL     OW30735   7.606   6.494  10.718  0.4908  0.8990  0.1512
 9765SOL    HW130736   7.652   6.539  10.648  0.4846 -0.8944 -1.0725
 9765SOL    HW230737   7.648   6.408  10.722 -0.4260  0.4887  1.4320
 9766SOL     OW30738   2.023   6.784   7.100  0.1084 -0.1668  0.7560
 9766SOL    HW130739   1.935   6.747   7.091  0.7311 -1.7322  0.7275
 9766SOL    HW230740   2.051   6.803   7.010  0.3209 -1.0064  0.6336
 9767SOL     OW30741   7.450   5.465   0.815 -0.0850 -0.2591 -0.2579
 9767SOL    HW130742   7.519   5.483   0.750 -1.0906 -0.3029 -1.3582
 9767SOL    HW230743   7.408   5.385   0.784  1.2842 -1.9952  2.0529
 9768SOL     OW30744   4.604   3.668   2.593  0.5695  0.5918  0.1028
 9768SOL    HW130745   4.681   3.611   2.586  0.2376  0.1433  0.0760
 9768SOL    HW230746   4.632   3.738   2.653  0.7775  0.0677  0.6314
 9769SOL     OW30747   7.483   2.808   5.365 -0.3587 -0.3135 -0.4953
 9769SOL    HW130748   7.576   2.791   5.380 -0.8583 -1.8175  1.2594
 9769SOL    HW230749   7.449   2.725   5.330 -0.6920  0.8881 -3.3214
 9770SOL     OW30750   5.145   0.078  12.220 -0.0238  0.8783 -0.2245
 9770SOL    HW130751   5.156   0.008  12.155 -1.4297  0.0084  0.4198
 9770SOL    HW230752   5.184   0.043  12.300 -2.2424  0.0501  0.5714
 9771SOL     OW30753   4.196   5.002  11.160 -1.0181  0.0974  0.3766
 9771SOL    HW130754   4.114   4.982  11.115 -0.2669 -0.2084 -0.9058
 9771SOL    HW230755   4.219   4.920  11.204  0.0165 -0.7270 -1.5975
 9772SOL     OW30756   0.666   4.746   5.004  0.0948  0.6654  0.0780
 9772SOL    HW130757   0.610   4.804   5.057 -0.3194 -0.2789  0.7016
 9772SOL    HW230758   0.752   4.753   5.044 -0.0120  0.6631  0.3107
 9773SOL     OW30759   0.544   2.884  11.374 -0.0439  0.0770  0.0649
 9773SOL    HW130760   0.610   2.868  11.307  0.9254 -1.4938  1.3111
 9773SOL    HW230761   0.463   2.849  11.338 -0.1944  1.7734 -1.3737
 9774SOL     OW30762   0.047   2.714   5.089 -0.2138  0.0377 -0.1832
 9774SOL    HW130763   0.092   2.733   5.006  0.1041 -1.3331 -0.3386
 9774SOL    HW230764   0.116   2.716   5.155  0.4459 -3.3868 -0.5928
 9775SOL     OW30765   5.829   7.917   4.457 -0.7548 -0.1074 -0.1421
 9775SOL    HW130766   5.893   7.975   4.501 -1.0518  0.5633 -0.5765
 9775SOL    HW230767   5.874   7.889   4.377 -0.9674  0.3039 -0.4103
 9776SOL     OW30768   7.886   4.180   0.277  0.3805  0.1280  0.1813
 9776SOL    HW130769   7.806   4.231   0.291  0.6581  0.2610  1.3696
 9776SOL    HW230770   7.914   4.204   0.189 -1.9738 -1.4363 -1.1189
 9777SOL     OW30771   6.834   7.299  10.006 -0.2237  0.3534  0.4920
 9777SOL    HW130772   6.903   7.271  10.066  1.4511  1.3531 -0.8931
 9777SOL    HW230773   6.824   7.392  10.023 -0.9418  0.3082  0.3516
 9778SOL     OW30774   7.548   4.599   7.531 -0.1737  0.2803 -0.1421
 9778SOL    HW130775   7.520   4.582   7.441  0.8136  0.0184 -0.4075
 9778SOL    HW230776   7.621   4.660   7.523  2.6862 -2.8188  0.1298
 9779SOL     OW30777   2.043   6.616   0.511 -0.3374 -0.5225 -0.1793
 9779SOL    HW130778   2.020   6.556   0.440 -3.6103  1.0227 -0.6141
 9779SOL    HW230779   1.967   6.615   0.569  0.6926  1.0709  1.2950
 9780SOL     OW30780   6.276   3.217   6.767  0.1331  0.1706  0.0977
 9780SOL    HW130781   6.307   3.205   6.678 -1.4255 -2.5992 -0.2039
 9780SOL    HW230782   6.181   3.211   6.761 -0.1285  1.7867  1.7389
 9781SOL     OW30783   6.989   6.303  12.263  0.8294  0.1627  0.5989
 9781SOL    HW130784   7.073   6.336  12.232  1.3123 -0.4723  1.1854
 9781SOL    HW230785   6.981   6.340  12.351  0.7569 -0.2178  0.7529
 9782SOL     OW30786   7.425   0.896   6.221 -0.2202 -0.1293  0.1083
 9782SOL    HW130787   7.509   0.857   6.246 -0.7156 -1.1927  0.1444
 9782SOL    HW230788   7.374   0.824   6.185 -1.4148  0.3460  0.7871
 9783SOL     OW30789   4.540   7.258   2.367 -0.0989  0.0002 -0.0574
 9783SOL    HW130790   4.515   7.281   2.277  1.6094 -0.4206 -0.6873
 9783SOL    HW230791   4.636   7.265   2.367  0.0226 -1.2556  1.3657
 9784SOL     OW30792   5.614   0.701   2.912  0.0223 -0.0228  0.1077
 9784SOL    HW130793   5.628   0.784   2.866 -1.2638  1.1708  1.7481
 9784SOL    HW230794   5.613   0.635   2.843  0.7771  1.3525 -1.2731
 9785SOL     OW30795   2.282   7.264   5.923  0.1274  0.4624 -0.7918
 9785SOL    HW130796   2.327   7.343   5.893  2.6997  0.2542  2.0461
 9785SOL    HW230797   2.239   7.291   6.004  0.4927 -0.8534 -0.1349
 9786SOL     OW30798   1.438   1.994   3.088  0.2451 -0.0064 -0.1746
 9786SOL    HW130799   1.424   1.900   3.099  3.1324 -0.7184 -1.7417
 9786SOL    HW230800   1.419   2.031   3.175 -0.0073 -2.1596  0.7452
 9787SOL     OW30801   3.023   5.370   9.604 -0.1461 -0.1379 -0.0149
 9787SOL    HW130802   2.984   5.445   9.649 -0.5917  0.8606 -1.9659
 9787SOL    HW230803   2.954   5.304   9.603 -1.0051  0.7336 -1.3169
 9788SOL     OW30804   7.894   3.215   8.793  0.0091  0.0185  0.5829
 9788SOL    HW130805   7.973   3.190   8.746 -0.1341  0.4949  0.0831
 9788SOL    HW230806   7.926   3.259   8.872  0.3475  3.7610 -1.4240
 9789SOL     OW30807   6.311   0.122   3.827 -0.0024 -0.4635  0.2391
 9789SOL    HW130808   6.390   0.067   3.821 -1.0152 -1.9862  0.2245
 9789SOL    HW230809   6.271   0.095   3.910 -2.0840 -1.9831 -1.1652
 9790SOL     OW30810   0.288   1.254  12.116  0.1048 -0.2118 -0.0615
 9790SOL    HW130811   0.272   1.232  12.024  0.3325 -3.4930  0.5516
 9790SOL    HW230812   0.381   1.233  12.129 -0.0161 -0.1226  0.9988
 9791SOL     OW30813   5.080   7.493   0.873 -0.2217 -0.5467 -0.3742
 9791SOL    HW130814   5.163   7.452   0.850  1.1409  0.5020  2.2297
 9791SOL    HW230815   5.031   7.425   0.919  0.3641 -0.4485  0.4256
 9792SOL     OW30816   0.669   1.746   3.993 -0.4573  0.2489 -0.0581
 9792SOL    HW130817   0.759   1.735   4.023 -0.8486  1.9667  1.9875
 9792SOL    HW230818   0.675   1.741   3.898  1.5635 -0.9933  0.0729
 9793SOL     OW30819   3.087   3.932   0.506  0.2387  0.5445  0.3984
 9793SOL    HW130820   2.992   3.940   0.501  0.2822  1.0367  0.3305
 9793SOL    HW230821   3.108   3.859   0.447 -0.5158 -2.9568  3.9942
 9794SOL     OW30822   1.108   6.783   4.444 -0.4116  0.0951 -0.4081
 9794SOL    HW130823   1.064   6.707   4.405 -0.4560  0.2022 -0.5684
 9794SOL    HW230824   1.049   6.811   4.514 -0.0856 -0.4080  0.0713
 9795SOL     OW30825   1.219   4.858  11.315  0.4938  0.5949 -0.3075
 9795SOL    HW130826   1.134   4.898  11.334  0.4264  0.4627 -0.3286
 9795SOL    HW230827   1.249   4.825  11.399  0.2542  0.1237 -0.4044
 9796SOL     OW30828   3.300   5.810   4.476  0.3501 -0.6980 -0.0073
 9796SOL    HW130829   3.273   5.731   4.428  1.6245 -1.0977 -0.1080
 9796SOL    HW230830   3.256   5.802   4.560 -0.6646 -0.7907 -0.5306
 9797SOL     OW30831   0.019   7.787   9.630  0.3702  0.2006  0.0115
 9797SOL    HW130832   0.100   7.767   9.584  0.1409 -1.6109  0.3275
 9797SOL    HW230833   0.046   7.841   9.704  1.7799 -2.6402  1.7533
 9798SOL     OW30834   5.315   5.457   7.150  0.0047  0.2083  0.0637
 9798SOL    HW130835   5.399   5.416   7.168  0.3724  0.7571 -0.3731
 9798SOL    HW230836   5.332   5.551   7.154  0.0719  0.3937 -2.7627
 9799SOL     OW30837   3.978   0.649   7.442  0.8396 -0.3804  0.1308
 9799SOL    HW130838   4.013   0.650   7.353  1.0206  0.9312  0.1936
 9799SOL    HW230839   3.992   0.738   7.474 -0.0694 -0.5839  1.1436
 9800SOL     OW30840   0.627   7.276  10.132 -0.8055  0.1672 -0.7764
 9800SOL    HW130841   0.552   7.289  10.074 -0.8220 -0.0165 -0.7976
 9800SOL    HW230842   0.588   7.267  10.219 -0.6441  2.7460 -0.3703
 9801SOL     OW30843   3.818   0.122   4.891  0.1634  0.3828  0.1813
 9801SOL    HW130844   3.799   0.193   4.953  0.1365 -0.8821  1.6624
 9801SOL    HW230845   3.908   0.096   4.911  1.2080  1.7583 -2.2076
 9802SOL     OW30846   4.381   3.433   5.660  0.8670 -0.7859  0.6826
 9802SOL    HW130847   4.358   3.408   5.749 -2.4583 -2.9668 -0.6138
 9802SOL    HW230848   4.322   3.505   5.638  1.4346 -0.4781  0.1057
 9803SOL     OW30849   7.286   0.826   3.842  0.2970 -0.0546  0.0148
 9803SOL    HW130850   7.379   0.844   3.836  0.2469  0.5609  0.9189
 9803SOL    HW230851   7.276   0.773   3.921 -0.0920 -0.3568 -0.2273
 9804SOL     OW30852   7.201   4.250   5.639 -0.1782 -0.2241  0.2784
 9804SOL    HW130853   7.240   4.251   5.726  0.7040 -1.2854 -0.0839
 9804SOL    HW230854   7.113   4.214   5.653 -0.6141  1.0321  0.9224
 9805SOL     OW30855   3.759   4.938   0.192 -0.1659  0.7331 -0.7816
 9805SOL    HW130856   3.723   4.958   0.106 -1.6503  0.1593 -0.3229
 9805SOL    HW230857   3.684   4.909   0.244  0.8495  0.1347  0.4239
 9806SOL     OW30858   4.938   1.587   4.220 -0.0857 -0.6094  0.1972
 9806SOL    HW130859   4.971   1.504   4.255 -0.6409 -0.8426  0.1818
 9806SOL    HW230860   4.863   1.562   4.166  1.3827 -0.3724 -2.0663
 9807SOL     OW30861   2.257   6.809   9.593  0.0984 -0.2058  0.2756
 9807SOL    HW130862   2.198   6.836   9.523 -0.1501 -1.1475  0.1102
 9807SOL    HW230863   2.201   6.804   9.671  0.1058 -0.4210  0.2675
 9808SOL     OW30864   0.098   2.664   7.727 -0.4697 -0.1195 -0.7162
 9808SOL    HW130865   0.188   2.634   7.733  0.3880  2.3284 -0.3046
 9808SOL    HW230866   0.046   2.584   7.734  1.6294 -1.5964 -0.9321
 9809SOL     OW30867   2.146   1.712   6.014  0.2062 -0.0805 -0.0621
 9809SOL    HW130868   2.232   1.674   5.997  1.0577  1.3912  0.7267
 9809SOL    HW230869   2.165   1.800   6.047 -1.6129  0.3298 -0.0103
 9810SOL     OW30870   4.312   0.160   8.929 -0.3272  0.7462 -0.0118
 9810SOL    HW130871   4.375   0.151   8.857  0.6865  0.2003  0.9032
 9810SOL    HW230872   4.346   0.232   8.982 -1.1187  1.2119 -0.1303
 9811SOL     OW30873   4.547   6.069   4.537 -0.2597  0.2935 -0.0811
 9811SOL    HW130874   4.493   6.032   4.606 -2.2489  2.2529 -0.4550
 9811SOL    HW230875   4.618   6.113   4.583 -0.9258  0.6043  0.6716
 9812SOL     OW30876   6.802   4.161   8.969  0.1115 -0.5943  0.3427
 9812SOL    HW130877   6.758   4.179   8.885  0.1511 -1.9729  0.0029
 9812SOL    HW230878   6.825   4.068   8.964 -0.7618 -0.9537  2.2883
 9813SOL     OW30879   1.069   2.933   5.472 -0.3846 -0.1957  0.2471
 9813SOL    HW130880   1.058   2.949   5.379  1.3154  0.2493  0.0977
 9813SOL    HW230881   1.134   2.863   5.477  1.4042  1.4507  1.0952
 9814SOL     OW30882   1.799   3.502   7.266 -0.2799 -0.0296 -0.2658
 9814SOL    HW130883   1.858   3.573   7.239  0.2393  0.4799  2.0133
 9814SOL    HW230884   1.847   3.422   7.244  0.3378  0.3625 -0.3697
 9815SOL     OW30885   7.626   1.810   2.890  0.2015 -0.2949  0.4856
 9815SOL    HW130886   7.706   1.757   2.891 -1.0129 -2.2251  0.1451
 9815SOL    HW230887   7.627   1.853   2.805 -0.8079 -3.1206 -1.0639
 9816SOL     OW30888   0.580   1.995   6.666 -1.0243 -0.1480  0.2162
 9816SOL    HW130889   0.595   2.087   6.645  1.5830 -1.2271 -3.5350
 9816SOL    HW230890   0.490   1.978   6.637 -0.8626  0.8109 -0.9216
 9817SOL     OW30891   2.344   7.538  11.086  1.0500  0.1187  0.5974
 9817SOL    HW130892   2.267   7.482  11.078 -0.6667  2.4912 -1.1566
 9817SOL    HW230893   2.343   7.568  11.177 -1.1780  1.4141  0.2172
 9818SOL     OW30894   7.757   7.607   8.846 -0.4127  0.1051 -0.0744
 9818SOL    HW130895   7.677   7.632   8.892 -0.3485  1.4326 -0.6510
 9818SOL    HW230896   7.790   7.531   8.895 -1.2284  0.4499  1.0483
 9819SOL     OW30897   1.791   3.413   6.261  0.3982 -0.2518 -0.6290
 9819SOL    HW130898   1.768   3.321   6.279  0.1964 -0.6191 -2.5022
 9819SOL    HW230899   1.832   3.410   6.174  0.0498  1.4863 -0.8826
 9820SOL     OW30900   1.752   7.378  11.053 -0.7542  0.1559 -0.1858
 9820SOL    HW130901   1.752   7.283  11.066 -1.8476  0.4550  2.5693
 9820SOL    HW230902   1.667   7.396  11.012 -0.9751  0.0535  0.2284
 9821SOL     OW30903   0.825   2.400   7.741 -0.2215  0.6732 -0.0707
 9821SOL    HW130904   0.792   2.315   7.711 -1.2707  0.8459  0.5588
 9821SOL    HW230905   0.769   2.464   7.697  1.5970  1.1460 -1.8467
 9822SOL     OW30906   5.169   3.563   2.919  0.1308  0.3413  0.2098
 9822SOL    HW130907   5.225   3.626   2.963 -1.5444  0.9702  1.5580
 9822SOL    HW230908   5.113   3.616   2.862  0.4927 -0.2155 -0.6843
 9823SOL     OW30909   7.300   1.157   3.303  0.3450 -0.2165  0.3752
 9823SOL    HW130910   7.261   1.210   3.372 -1.3190 -0.0022 -0.6819
 9823SOL    HW230911   7.343   1.220   3.245 -1.6123  0.0655 -0.8682
 9824SOL     OW30912   4.736   7.403   4.387 -0.3145 -0.0921  0.2960
 9824SOL    HW130913   4.654   7.441   4.353 -0.9858 -0.5320  1.3830
 9824SOL    HW230914   4.709   7.355   4.465  1.0271 -0.0670  0.7891
 9825SOL     OW30915   4.576   7.582   3.306 -0.3292  0.3909  0.2786
 9825SOL    HW130916   4.550   7.490   3.318 -1.4041  0.8842  2.0273
 9825SOL    HW230917   4.536   7.607   3.223 -2.4925  0.0546  1.1464
 9826SOL     OW30918   7.831   1.713   0.595  0.3130  0.1564 -0.0205
 9826SOL    HW130919   7.859   1.699   0.685  1.4996 -2.1747 -0.6602
 9826SOL    HW230920   7.909   1.696   0.542 -0.5158  0.8007 -1.5281
 9827SOL     OW30921   5.375   5.607   2.674 -0.1255  0.0513 -0.0861
 9827SOL    HW130922   5.424   5.651   2.744 -0.8856  2.2692 -0.8721
 9827SOL    HW230923   5.364   5.673   2.607 -2.4889 -0.9533 -0.7957
 9828SOL     OW30924   4.154   5.319   1.671 -0.2149  0.0371  0.5182
 9828SOL    HW130925   4.083   5.338   1.732  0.2793  3.6411  0.1524
 9828SOL    HW230926   4.115   5.326   1.584  0.2543  0.4053  0.3346
 9829SOL     OW30927   1.638   0.387   0.402 -0.0714  0.0159  0.0264
 9829SOL    HW130928   1.728   0.376   0.372 -0.2905 -1.6338 -0.1138
 9829SOL    HW230929   1.604   0.298   0.411 -1.3171  0.5647  1.2293
 9830SOL     OW30930   2.405   0.649   0.265 -0.8116  0.1710 -0.5822
 9830SOL    HW130931   2.395   0.632   0.171 -1.4528  0.5813 -0.5977
 9830SOL    HW230932   2.361   0.733   0.278 -0.9323  0.0016  0.1275
 9831SOL     OW30933   1.658   6.419  11.826  0.0224  0.2283 -0.2725
 9831SOL    HW130934   1.716   6.373  11.886 -2.1527 -0.0570  1.7987
 9831SOL    HW230935   1.584   6.359  11.813 -1.5227  1.9284  0.1836
 9832SOL     OW30936   3.429   1.408  10.590 -0.4671  0.3502 -0.0748
 9832SOL    HW130937   3.380   1.489  10.602  0.3373  0.8592 -0.2042
 9832SOL    HW230938   3.401   1.376  10.504 -0.3807  0.7736 -0.2632
 9833SOL     OW30939   7.289   5.316  11.830 -0.4743 -0.3254 -0.4865
 9833SOL    HW130940   7.286   5.298  11.736  0.8113 -0.3430 -0.5546
 9833SOL    HW230941   7.274   5.232  11.871  0.7050 -0.6736 -0.7234
 9834SOL     OW30942   1.640   4.448   4.808  0.0676 -0.4398  0.7419
 9834SOL    HW130943   1.583   4.518   4.839  0.9491  0.2528  0.8484
 9834SOL    HW230944   1.727   4.472   4.840  0.7987 -0.3723 -1.1412
 9835SOL     OW30945   2.277   3.368   7.090  0.1964  0.2216 -0.0120
 9835SOL    HW130946   2.211   3.400   7.152  1.2032  1.7882  0.3170
 9835SOL    HW230947   2.259   3.275   7.082 -0.5816  0.1593  1.9098
 9836SOL     OW30948   7.617   4.167   6.055 -0.0378 -0.1031 -0.0018
 9836SOL    HW130949   7.593   4.227   6.125  1.1597  0.4878 -0.0699
 9836SOL    HW230950   7.709   4.147   6.070 -0.4699 -2.2171  0.2147
 9837SOL     OW30951   2.669   2.459   2.663 -0.1906 -0.3335  0.2745
 9837SOL    HW130952   2.737   2.493   2.604  0.4491 -0.1940  1.0725
 9837SOL    HW230953   2.663   2.525   2.732 -0.7067 -0.6498  0.5331
 9838SOL     OW30954   5.963   0.455   8.529 -0.3978 -0.6971  0.9176
 9838SOL    HW130955   6.047   0.417   8.556 -0.1263 -0.8309 -0.0862
 9838SOL    HW230956   5.903   0.381   8.527 -1.0138 -0.3616  3.2844
 9839SOL     OW30957   7.271   7.680   2.727 -0.3023  0.1816 -0.3772
 9839SOL    HW130958   7.186   7.643   2.751 -0.1952 -0.4662 -0.9499
 9839SOL    HW230959   7.260   7.775   2.737 -0.5421  0.0090  1.2508
 9840SOL     OW30960   1.134   2.528  10.015 -0.0983 -0.7834  0.0817
 9840SOL    HW130961   1.126   2.524   9.920 -0.2388 -1.2279  0.1094
 9840SOL    HW230962   1.043   2.526  10.047 -0.1566  1.3290  0.1665
 9841SOL     OW30963   3.783   3.352   2.133 -0.2098  0.2061  0.0459
 9841SOL    HW130964   3.824   3.389   2.055 -0.7442 -0.3567 -0.5181
 9841SOL    HW230965   3.755   3.427   2.184  0.8787  0.5874  0.0951
 9842SOL     OW30966   1.094   0.747  11.388 -0.7687  0.0405 -0.0560
 9842SOL    HW130967   1.076   0.796  11.308  0.7040 -0.2360 -0.5904
 9842SOL    HW230968   1.142   0.809  11.443  1.0813 -0.7279 -0.7237
 9843SOL     OW30969   6.997   1.048   4.505 -0.0901 -0.4193  0.2557
 9843SOL    HW130970   6.973   0.987   4.435  1.1002  1.0426 -1.5073
 9843SOL    HW230971   7.075   1.092   4.473  0.7540  0.0307  2.7256
 9844SOL     OW30972   5.608   7.822   7.843  0.4586 -0.2623  0.2465
 9844SOL    HW130973   5.604   7.902   7.895  0.1455  0.3836 -0.7514
 9844SOL    HW230974   5.517   7.794   7.834  0.6581 -1.5435  1.7839
 9845SOL     OW30975   6.209   6.201   5.372 -0.1691  0.3861  0.2493
 9845SOL    HW130976   6.241   6.224   5.459  0.9105 -0.3590  0.0590
 9845SOL    HW230977   6.118   6.231   5.372 -0.4482 -0.3498  1.9258
 9846SOL     OW30978   2.432   6.726   4.117 -0.1702  0.1302  0.1206
 9846SOL    HW130979   2.423   6.820   4.097  0.6986  0.0295 -0.8669
 9846SOL    HW230980   2.346   6.700   4.150 -0.3586  1.3218  0.6342
 9847SOL     OW30981   4.083   5.602   1.763 -0.0204  0.2380  0.0657
 9847SOL    HW130982   4.148   5.590   1.832  1.0860  0.0883 -0.9534
 9847SOL    HW230983   4.123   5.666   1.704  0.0916 -1.2802 -1.5935
 9848SOL     OW30984   2.026   4.793  11.551  0.4790  0.2679 -0.3535
 9848SOL    HW130985   1.987   4.781  11.464  2.9065 -0.9533 -1.3638
 9848SOL    HW230986   2.120   4.794  11.536  0.9751  0.7490  2.2196
 9849SOL     OW30987   4.740   5.007   4.929 -0.3001 -0.2168  0.2242
 9849SOL    HW130988   4.739   5.027   4.836  0.3035 -0.3046  0.1960
 9849SOL    HW230989   4.824   4.964   4.944 -0.9053 -1.3011  0.5912
 9850SOL     OW30990   5.546   5.016   8.672  0.2401 -0.2674 -0.7094
 9850SOL    HW130991   5.593   5.081   8.724 -0.3569  0.6589 -1.2977
 9850SOL    HW230992   5.561   4.933   8.717 -0.0016  0.4549  0.7449
 9851SOL     OW30993   4.155   1.932   5.858 -0.2509  0.4045  0.8201
 9851SOL    HW130994   4.144   1.868   5.788 -0.8866  1.1054  0.2644
 9851SOL    HW230995   4.124   1.888   5.936  0.9365 -0.5733  0.7806
 9852SOL     OW30996   2.649   6.785   7.957 -0.0234 -0.1054 -0.2043
 9852SOL    HW130997   2.677   6.793   7.866 -1.8097  2.6390 -0.6433
 9852SOL    HW230998   2.564   6.741   7.951 -1.0613  1.7616 -0.1729
 9853SOL     OW30999   3.929   6.881   2.154 -0.8157  0.1022  0.1397
 9853SOL    HW131000   3.883   6.896   2.236  0.7897  2.5802  0.7287
 9853SOL    HW231001   3.861   6.886   2.087 -1.9927 -0.8564  1.2128
 9854SOL     OW31002   2.167   5.215   6.141  0.0886 -0.5714  0.2643
 9854SOL    HW131003   2.229   5.262   6.198  0.8748 -0.5997 -0.5381
 9854SOL    HW231004   2.180   5.254   6.054 -1.2558 -0.3687  0.1380
 9855SOL     OW31005   1.380   5.764  12.101 -0.1008  0.0255 -0.5890
 9855SOL    HW131006   1.379   5.764  12.005 -0.8322  2.0245 -0.6344
 9855SOL    HW231007   1.452   5.705  12.124 -0.6458 -1.3991 -2.3237
 9856SOL     OW31008   5.367   1.999   5.459 -0.1331 -0.1457 -0.2160
 9856SOL    HW131009   5.287   1.954   5.431 -0.2090 -0.6948  0.8365
 9856SOL    HW231010   5.351   2.020   5.551  1.6717 -1.9868  0.5830
 9857SOL     OW31011   3.990   5.229   3.026  0.1684 -0.2246  0.2648
 9857SOL    HW131012   4.018   5.152   3.075 -1.5465 -0.6427  0.6899
 9857SOL    HW231013   3.925   5.196   2.964  0.0993  0.7359 -0.1909
 9858SOL     OW31014   2.618   1.849   3.996  0.1057 -0.3384  0.4787
 9858SOL    HW131015   2.551   1.844   4.064  0.6260 -0.1939  1.0015
 9858SOL    HW231016   2.689   1.795   4.028  1.0390  1.0574  0.8252
 9859SOL     OW31017   2.753   7.901  11.503  0.0020 -0.3583  0.1807
 9859SOL    HW131018   2.796   7.817  11.518 -1.2328 -0.9275  0.6072
 9859SOL    HW231019   2.709   7.891  11.418  3.1858  1.2933 -1.8865
 9860SOL     OW31020   4.675   7.392   3.882 -0.3511  0.1762  0.0023
 9860SOL    HW131021   4.712   7.413   3.968  2.5133 -2.1857 -0.4852
 9860SOL    HW231022   4.729   7.442   3.820 -2.0028  1.3929 -0.5072
 9861SOL     OW31023   7.059   2.180  11.097  0.0221  0.7223 -0.0489
 9861SOL    HW131024   7.041   2.261  11.146 -1.0481 -0.2483  1.2294
 9861SOL    HW231025   7.047   2.110  11.162 -0.5211 -0.5601 -1.4830
 9862SOL     OW31026   6.569   6.759  10.940 -0.1104  0.2927 -0.2026
 9862SOL    HW131027   6.586   6.817  11.014  0.4776  2.2324 -1.7794
 9862SOL    HW231028   6.521   6.813  10.877 -0.1804 -1.1425 -1.4526
 9863SOL     OW31029   6.334   6.114   0.894 -0.0785  0.1354 -0.0331
 9863SOL    HW131030   6.329   6.139   0.802  1.5344 -1.2438 -0.5369
 9863SOL    HW231031   6.327   6.018   0.894 -0.0641  0.1056  1.2909
 9864SOL     OW31032   1.021   6.084  12.046  0.3179 -0.0825 -0.1817
 9864SOL    HW131033   1.065   6.002  12.068  0.1106 -0.4003 -0.9518
 9864SOL    HW231034   1.066   6.150  12.100  0.1361 -0.7654  0.8420
 9865SOL     OW31035   5.484   4.354   8.401 -0.2172  0.5157 -0.5171
 9865SOL    HW131036   5.522   4.440   8.384  1.6877 -0.7020 -3.1372
 9865SOL    HW231037   5.536   4.319   8.474 -0.1687  1.1000 -0.2685
 9866SOL     OW31038   4.751   6.387   2.080 -0.8355 -0.4638  0.2044
 9866SOL    HW131039   4.827   6.342   2.045 -0.5417  0.1929 -0.0054
 9866SOL    HW231040   4.677   6.332   2.056 -0.6100 -0.1885 -1.1734
 9867SOL     OW31041   3.436   4.548   5.568 -0.2934 -0.1365 -0.3355
 9867SOL    HW131042   3.464   4.636   5.593 -1.2373 -0.1215  0.7654
 9867SOL    HW231043   3.462   4.493   5.642 -0.6138 -0.6003 -0.5626
 9868SOL     OW31044   2.568   7.854   6.375 -0.3538  0.0383 -0.2600
 9868SOL    HW131045   2.624   7.905   6.317 -0.1618 -0.1954 -0.2816
 9868SOL    HW231046   2.486   7.842   6.326 -0.2245 -0.0830 -0.4450
 9869SOL     OW31047   6.436   6.757   9.872  0.5938 -0.0762  0.8117
 9869SOL    HW131048   6.439   6.844   9.833  2.1258  0.0227  1.0767
 9869SOL    HW231049   6.453   6.697   9.799 -2.2459 -0.3577  0.2513
 9870SOL     OW31050   5.511   1.012   0.047  0.1244 -0.0338 -0.2557
 9870SOL    HW131051   5.422   1.040   0.067  0.4626  0.3503  0.7903
 9870SOL    HW231052   5.561   1.032   0.126  0.8600 -1.5026 -0.3105
 9871SOL     OW31053   2.801   0.405   9.608  0.1021 -0.6132  0.4460
 9871SOL    HW131054   2.838   0.493   9.624  1.3167 -1.1327  0.6294
 9871SOL    HW231055   2.708   0.415   9.626 -0.0094  0.9429 -0.7581
 9872SOL     OW31056   2.707   4.295   0.329  0.4145  0.5482 -0.3876
 9872SOL    HW131057   2.779   4.236   0.347  2.1278  2.7195  0.2623
 9872SOL    HW231058   2.678   4.272   0.241  0.2678 -1.9145  0.2376
 9873SOL     OW31059   1.798   6.638   8.841 -0.4152 -0.4854 -0.5372
 9873SOL    HW131060   1.756   6.680   8.916 -2.3345  0.3878 -2.0224
 9873SOL    HW231061   1.876   6.691   8.824  0.1196 -0.7688  0.8648
 9874SOL     OW31062   2.060   7.730  10.297 -0.3932 -0.0334  0.0060
 9874SOL    HW131063   2.021   7.816  10.283 -0.4686  0.0118  0.4775
 9874SOL    HW231064   2.089   7.703  10.210  1.7575  1.4835  0.1686
 9875SOL     OW31065   1.894   6.310  11.611  0.5985  0.0038 -0.2660
 9875SOL    HW131066   1.838   6.290  11.537 -0.0611  0.8014 -0.0008
 9875SOL    HW231067   1.833   6.325  11.684  1.1710  0.5263  0.1151
 9876SOL     OW31068   0.129   2.980   7.436  0.2323  0.0289 -0.0952
 9876SOL    HW131069   0.091   2.892   7.433 -2.4490  1.1030 -0.3617
 9876SOL    HW231070   0.201   2.976   7.373  0.1181 -1.9461 -0.1830
 9877SOL     OW31071   5.650   1.131   4.845 -0.4261  1.0449 -0.0956
 9877SOL    HW131072   5.556   1.120   4.829 -0.4250  1.9901 -0.8760
 9877SOL    HW231073   5.658   1.129   4.941 -0.9423 -1.0852 -0.0495
 9878SOL     OW31074   0.059   4.429  12.057 -0.3253  0.0907  0.0372
 9878SOL    HW131075   0.125   4.361  12.077 -0.2241  0.2802  0.3567
 9878SOL    HW231076   0.111   4.503  12.025 -0.3875  0.2183  0.2315
 9879SOL     OW31077   3.107   2.461  11.207  0.1431  0.1747 -0.3281
 9879SOL    HW131078   3.138   2.498  11.125 -0.2701  0.8580 -0.1862
 9879SOL    HW231079   3.070   2.376  11.183 -0.3291  0.5372 -0.9151
 9880SOL     OW31080   6.552   3.416   3.873  0.2626  0.5825 -0.1271
 9880SOL    HW131081   6.464   3.431   3.838 -0.5719  1.1279  2.0314
 9880SOL    HW231082   6.586   3.343   3.822 -1.3474  0.5033 -1.1735
 9881SOL     OW31083   3.048   0.530   5.676  0.8146 -0.2446  0.0324
 9881SOL    HW131084   3.101   0.608   5.690  1.8029 -1.0290  0.8955
 9881SOL    HW231085   2.961   0.563   5.657  1.2815  1.0654  0.0689
 9882SOL     OW31086   7.684   1.285  12.191 -0.3419  0.0825  0.0689
 9882SOL    HW131087   7.589   1.280  12.204 -0.3161 -0.8952 -0.0443
 9882SOL    HW231088   7.715   1.196  12.208  0.2364 -0.2281 -2.3443
 9883SOL     OW31089   4.519   3.367  11.012  0.4978  0.1680 -0.5071
 9883SOL    HW131090   4.599   3.372  11.065 -0.6678  0.0447  1.3112
 9883SOL    HW231091   4.517   3.277  10.980 -0.6498 -0.9443  2.3682
 9884SOL     OW31092   7.028   2.163   8.230 -0.1197 -0.6869 -0.3304
 9884SOL    HW131093   6.951   2.122   8.191 -0.5817 -1.1135  0.9894
 9884SOL    HW231094   7.032   2.128   8.319  0.5508  0.7246  0.2294
 9885SOL     OW31095   2.710   2.467   6.806  0.1351 -0.1607  0.3004
 9885SOL    HW131096   2.715   2.408   6.730  0.6691 -1.2566  1.1639
 9885SOL    HW231097   2.760   2.544   6.779  0.5283 -0.6354 -0.3749
 9886SOL     OW31098   6.936   6.536   8.105 -0.5522 -0.2648  0.3391
 9886SOL    HW131099   6.853   6.576   8.077  0.2883  1.9660  0.7885
 9886SOL    HW231100   6.998   6.559   8.036  0.4786  1.3315  1.7084
 9887SOL     OW31101   7.547   5.414   5.300 -0.6026 -0.0853 -0.0402
 9887SOL    HW131102   7.468   5.432   5.351  0.9634  1.6394  1.9722
 9887SOL    HW231103   7.573   5.500   5.266 -0.2735 -0.8411 -1.8028
 9888SOL     OW31104   7.842   0.677  11.281  0.1404 -0.2180  0.1749
 9888SOL    HW131105   7.797   0.748  11.328 -4.4563 -2.0462 -0.8535
 9888SOL    HW231106   7.795   0.598  11.308  0.9750 -2.0535 -3.2522
 9889SOL     OW31107   0.095   5.380   1.423 -0.6470 -0.4005 -0.7163
 9889SOL    HW131108   0.095   5.436   1.501  1.3887  0.3649 -1.2089
 9889SOL    HW231109   0.051   5.431   1.356  0.3535  0.2468 -0.8981
 9890SOL     OW31110   0.993   1.795   7.696  0.1574  0.1231 -0.4322
 9890SOL    HW131111   1.023   1.873   7.649 -0.7946 -0.5086 -2.1627
 9890SOL    HW231112   0.959   1.737   7.628  0.7384 -1.7903  0.8087
 9891SOL     OW31113   3.074   2.836  11.279 -0.2958 -0.1055 -0.3056
 9891SOL    HW131114   3.068   2.884  11.362  0.4111 -0.5073 -0.0129
 9891SOL    HW231115   2.983   2.824  11.252 -0.5736 -0.7028  0.8391
 9892SOL     OW31116   0.784   3.832   1.948  0.3260  0.6186  0.4486
 9892SOL    HW131117   0.750   3.888   2.017  1.2834  2.2107 -0.3140
 9892SOL    HW231118   0.838   3.768   1.993 -0.1119  0.8179  1.2695
 9893SOL     OW31119   2.262   0.608  11.927  0.6196 -0.2567 -0.0821
 9893SOL    HW131120   2.261   0.535  11.989 -0.3457 -0.8988 -0.8338
 9893SOL    HW231121   2.348   0.602  11.885  1.2568  0.1482  1.1258
 9894SOL     OW31122   4.446   4.885   6.899 -0.3408  0.7394 -0.2058
 9894SOL    HW131123   4.480   4.961   6.851 -0.5281  1.7627  1.2068
 9894SOL    HW231124   4.482   4.894   6.987 -2.5813  0.7623  0.7785
 9895SOL     OW31125   4.844   1.266  11.684 -0.1111 -0.0385  0.4290
 9895SOL    HW131126   4.875   1.185  11.642 -1.4130 -1.0225  1.2908
 9895SOL    HW231127   4.751   1.252  11.697 -0.3518  1.5961  0.6736
 9896SOL     OW31128   3.373   1.919   8.772  0.2762 -0.7487  0.2233
 9896SOL    HW131129   3.438   1.899   8.705  0.8211  0.1328  0.4697
 9896SOL    HW231130   3.417   1.981   8.830  0.1234 -2.1289  1.8932
 9897SOL     OW31131   2.035   6.144   6.238 -0.2190  0.3422 -0.0734
 9897SOL    HW131132   1.986   6.120   6.317  1.1875 -0.7047  0.5460
 9897SOL    HW231133   2.083   6.223   6.263 -0.8448  0.8167 -0.3594
 9898SOL     OW31134   7.066   2.993   6.287 -0.0492  0.0646 -0.2020
 9898SOL    HW131135   7.045   3.076   6.331 -0.2970  0.0794 -0.3426
 9898SOL    HW231136   6.992   2.936   6.307  1.5399 -1.2344  2.5841
 9899SOL     OW31137   0.267   1.033   2.232  0.2961  0.1657 -0.1460
 9899SOL    HW131138   0.324   0.956   2.232 -1.1684 -0.9471  0.1709
 9899SOL    HW231139   0.303   1.089   2.301  1.7418  0.0749 -0.7850
 9900SOL     OW31140   3.521   0.656   9.327 -0.1126  0.3281 -0.5590
 9900SOL    HW131141   3.582   0.606   9.383 -0.3498  0.2105 -0.4022
 9900SOL    HW231142   3.513   0.602   9.248  0.0730  0.3987 -0.6263
 9901SOL     OW31143   2.920   7.264   6.964  0.3225 -0.3156  0.2474
 9901SOL    HW131144   2.932   7.352   6.929 -0.3653 -0.4999 -0.4833
 9901SOL    HW231145   2.922   7.275   7.059 -0.0204  0.5231  0.1628
 9902SOL     OW31146   1.046   6.616   7.172  0.2297 -0.0146 -0.9386
 9902SOL    HW131147   1.084   6.674   7.106 -0.4425  0.3427 -1.0304
 9902SOL    HW231148   1.073   6.654   7.256 -1.4594  1.3818 -0.9551
 9903SOL     OW31149   1.739   7.419   1.645  0.0489  0.0167 -0.4032
 9903SOL    HW131150   1.782   7.457   1.569 -1.4114 -0.6277 -1.5830
 9903SOL    HW231151   1.720   7.329   1.619  1.9578 -1.1147  1.7217
 9904SOL     OW31152   5.381   6.981   6.957 -0.1780 -0.3938 -0.4273
 9904SOL    HW131153   5.463   7.010   6.916  0.8252 -1.0395  1.0411
 9904SOL    HW231154   5.313   7.011   6.897  1.0473  1.2585 -1.0797
 9905SOL     OW31155   1.447   4.666  10.390  0.4861 -0.1791 -0.0741
 9905SOL    HW131156   1.375   4.627  10.440 -0.4131 -0.7255 -1.7205
 9905SOL    HW231157   1.513   4.598  10.385  0.4132 -0.2587  0.0465
 9906SOL     OW31158   3.037   0.412   0.941 -0.3253 -0.2137  0.8118
 9906SOL    HW131159   3.092   0.433   1.016  0.1430  1.4701  0.0642
 9906SOL    HW231160   3.024   0.318   0.946  2.2056 -0.6154  1.3230
 9907SOL     OW31161   7.310   2.640   0.517  0.7348  0.1576 -0.6285
 9907SOL    HW131162   7.345   2.708   0.459  2.0269 -0.1541 -0.2442
 9907SOL    HW231163   7.330   2.671   0.605 -0.7378  0.3677 -0.3473
 9908SOL     OW31164   0.143   5.841  12.265 -0.3242  0.2578  0.2375
 9908SOL    HW131165   0.059   5.886  12.263 -0.2503  0.3837 -0.1144
 9908SOL    HW231166   0.121   5.748  12.258 -0.3561  0.3814 -1.6445
 9909SOL     OW31167   7.505   2.554   8.515  0.7301  0.0180 -0.0162
 9909SOL    HW131168   7.466   2.641   8.507  0.2560 -0.0735  1.1728
 9909SOL    HW231169   7.596   2.572   8.540  1.1956  0.1959 -1.6728
 9910SOL     OW31170   0.783   7.065   6.966 -0.1413 -0.2461  0.2695
 9910SOL    HW131171   0.744   7.150   6.946  1.0292  0.6678  1.6446
 9910SOL    HW231172   0.713   7.002   6.948 -1.3789  1.0923  0.1706
 9911SOL     OW31173   5.447   4.000  11.521 -0.5877  0.5722  0.1755
 9911SOL    HW131174   5.470   3.924  11.575 -2.1279  1.6689  2.5471
 9911SOL    HW231175   5.527   4.053  11.519  0.0205 -0.3244 -0.1838
 9912SOL     OW31176   5.452   0.558   4.908 -0.2454  0.2905  0.0087
 9912SOL    HW131177   5.445   0.562   4.813 -1.9301  1.2398  0.1241
 9912SOL    HW231178   5.498   0.638   4.932  1.5028 -0.6547 -0.0670
 9913SOL     OW31179   7.139   0.645   8.139 -0.2257  0.2300  0.6444
 9913SOL    HW131180   7.172   0.565   8.181 -0.3188 -0.9489 -1.3560
 9913SOL    HW231181   7.057   0.617   8.098  0.4367  0.9615 -1.2619
 9914SOL     OW31182   4.221   5.504   7.155 -0.3495  0.6752  0.1413
 9914SOL    HW131183   4.253   5.565   7.089 -0.4149  1.8789  1.1753
 9914SOL    HW231184   4.297   5.449   7.176 -0.2537  0.4721 -0.7056
 9915SOL     OW31185   2.301   5.820   6.179 -0.1362  0.2803 -0.3060
 9915SOL    HW131186   2.307   5.802   6.273 -1.7829  0.1261 -0.1996
 9915SOL    HW231187   2.241   5.753   6.145 -2.0776  2.1649 -0.8564
 9916SOL     OW31188   4.480   2.323   1.037  0.0027  0.0089  0.5789
 9916SOL    HW131189   4.385   2.329   1.025 -0.4698 -2.5780  2.2248
 9916SOL    HW231190   4.501   2.398   1.093 -1.0315  0.6781  0.1167
 9917SOL     OW31191   6.844   7.213   4.741  0.5253 -0.1444  0.4109
 9917SOL    HW131192   6.907   7.141   4.742  1.5582  0.6894 -0.6298
 9917SOL    HW231193   6.886   7.282   4.793  0.5089  0.4299 -0.3147
 9918SOL     OW31194   7.179   1.589  11.685 -0.7525 -0.3791  0.2006
 9918SOL    HW131195   7.249   1.525  11.675 -0.4937 -0.0288 -0.2708
 9918SOL    HW231196   7.223   1.667  11.719 -0.9305 -0.1878 -0.0033
 9919SOL     OW31197   6.345   7.557   9.673 -0.1487  0.3188  0.2539
 9919SOL    HW131198   6.427   7.558   9.624 -0.5426 -1.4097 -0.5240
 9919SOL    HW231199   6.368   7.591   9.759  0.9138  1.8672 -0.5814
 9920SOL     OW31200   5.647   2.747   0.887 -0.1651 -0.1755 -0.2246
 9920SOL    HW131201   5.589   2.702   0.826 -0.4773 -0.4993  0.3055
 9920SOL    HW231202   5.654   2.836   0.852 -0.5771 -0.2749 -0.5694
 9921SOL     OW31203   2.411   3.593   2.103 -0.0894  0.9279 -0.3534
 9921SOL    HW131204   2.416   3.586   2.008  0.4095  1.0290 -0.3359
 9921SOL    HW231205   2.422   3.686   2.121 -0.9040  1.0060 -0.2365
 9922SOL     OW31206   6.106   0.469   2.978  0.3049  0.4251 -0.3023
 9922SOL    HW131207   6.083   0.396   2.920 -0.7453  1.6303 -1.4851
 9922SOL    HW231208   6.034   0.473   3.041  0.5093  0.2554 -0.0583
 9923SOL     OW31209   1.992   0.025   3.190 -0.3928  0.1024  0.5237
 9923SOL    HW131210   2.083   0.009   3.213  0.1260  1.2549 -0.6320
 9923SOL    HW231211   1.943  -0.036   3.245  1.1255 -1.3780  0.3086
 9924SOL     OW31212   7.397   7.689  10.724 -0.4208 -0.0874  0.1780
 9924SOL    HW131213   7.395   7.680  10.819  0.3533 -0.9813  0.1365
 9924SOL    HW231214   7.342   7.617  10.692  0.9659 -1.0995 -0.0632
 9925SOL     OW31215   6.489   0.249   4.597  0.0577  0.3196 -0.0471
 9925SOL    HW131216   6.517   0.309   4.527  0.1185 -1.5790 -1.7217
 9925SOL    HW231217   6.561   0.251   4.660  0.0202  2.0361  0.0007
 9926SOL     OW31218   7.682   4.493   5.721 -0.7654 -0.0687  0.0453
 9926SOL    HW131219   7.657   4.482   5.629 -1.0016 -0.7505  0.1891
 9926SOL    HW231220   7.614   4.447   5.770 -1.1546  1.0660  0.6156
 9927SOL     OW31221   0.436   7.824  10.679  0.2731 -1.0855  0.2417
 9927SOL    HW131222   0.490   7.779  10.745 -1.6876  0.0411  2.7937
 9927SOL    HW231223   0.488   7.901  10.654  0.3217 -0.5309  1.9241
 9928SOL     OW31224   6.670   4.072   7.793 -0.7607 -0.2931 -0.1650
 9928SOL    HW131225   6.683   4.043   7.883  1.5904  0.3235 -0.2309
 9928SOL    HW231226   6.649   3.993   7.745 -1.6673 -0.6869  0.8365
 9929SOL     OW31227   5.604   1.391   5.169 -0.2533  0.3091 -0.4168
 9929SOL    HW131228   5.542   1.393   5.096 -1.1299  1.0460  0.3324
 9929SOL    HW231229   5.622   1.483   5.188 -0.0802  0.1288  0.3401
 9930SOL     OW31230   2.940   1.634   2.775  0.0118 -0.1058 -0.0455
 9930SOL    HW131231   2.984   1.701   2.827  0.4242  0.8386 -1.5610
 9930SOL    HW231232   3.000   1.560   2.775  0.0758 -0.0664  0.6593
 9931SOL     OW31233   7.533   0.283  10.938 -0.2882 -0.2204  0.0211
 9931SOL    HW131234   7.511   0.350  11.002 -2.3422 -1.6691  0.9678
 9931SOL    HW231235   7.608   0.237  10.975 -0.5099 -0.0748  0.6500
 9932SOL     OW31236   2.039   7.875  11.051 -0.8846 -0.2926  0.1829
 9932SOL    HW131237   2.131   7.847  11.056  0.0193  2.1163 -1.0999
 9932SOL    HW231238   1.997   7.810  10.995  0.0401 -1.3767  0.7117
 9933SOL     OW31239   5.295   2.094   1.488 -0.2648 -0.5076  0.6259
 9933SOL    HW131240   5.347   2.150   1.430 -0.6101  2.4011  2.8855
 9933SOL    HW231241   5.285   2.012   1.440  2.5928  0.3765 -1.7790
 9934SOL     OW31242   0.174   1.575  10.607  0.3579 -0.0816 -0.0329
 9934SOL    HW131243   0.116   1.566  10.683 -1.5413  1.3534 -1.2285
 9934SOL    HW231244   0.122   1.622  10.542  1.9002 -1.2398 -2.2610
 9935SOL     OW31245   7.288   5.934   2.561 -0.1169 -0.0124  0.1857
 9935SOL    HW131246   7.218   5.986   2.520  1.2017  1.4370 -0.3202
 9935SOL    HW231247   7.327   5.992   2.626 -0.7686 -1.5656  2.0869
 9936SOL     OW31248   0.575   1.613   5.210 -0.4326  0.2415  0.0934
 9936SOL    HW131249   0.600   1.567   5.290  0.1573  0.3347 -0.0372
 9936SOL    HW231250   0.536   1.546   5.155 -0.9739  0.2017  0.5082
 9937SOL     OW31251   2.288   1.245   8.795  0.0180  0.2931 -0.1743
 9937SOL    HW131252   2.251   1.319   8.746  0.0133  0.3920 -0.0243
 9937SOL    HW231253   2.276   1.269   8.887  1.5350  0.8859 -0.0996
 9938SOL     OW31254   2.900   0.859   6.191 -0.3198 -0.5007  0.2651
 9938SOL    HW131255   2.817   0.896   6.218  1.1215  3.8957 -0.4896
 9938SOL    HW231256   2.885   0.830   6.101 -0.6572  2.4103 -0.7342
 9939SOL     OW31257   5.682   3.515   9.002  0.5811 -0.1886 -0.2519
 9939SOL    HW131258   5.622   3.466   9.058  1.0856 -0.1312  0.3428
 9939SOL    HW231259   5.768   3.481   9.024  1.2248  2.4002  1.7619
 9940SOL     OW31260   5.709   3.383   9.430 -0.0773 -0.1994 -0.3762
 9940SOL    HW131261   5.750   3.384   9.343 -2.0154 -1.4711 -1.3868
 9940SOL    HW231262   5.735   3.299   9.468 -2.9594 -1.8876 -1.7747
 9941SOL     OW31263   1.450   2.424   0.501  0.3319 -0.1877  0.8150
 9941SOL    HW131264   1.491   2.400   0.417  2.3707  1.1324  1.3584
 9941SOL    HW231265   1.414   2.511   0.485 -1.6153 -0.9784  0.6117
 9942SOL     OW31266   7.103   6.049   1.432  0.2185  0.8085  0.2935
 9942SOL    HW131267   7.132   5.967   1.391 -1.7899  0.4187 -0.4531
 9942SOL    HW231268   7.159   6.116   1.393  1.4577 -0.1110  0.4270
 9943SOL     OW31269   4.194   2.463  11.533 -0.3039  0.2944 -0.0694
 9943SOL    HW131270   4.263   2.518  11.570  0.6645 -1.1703  0.3837
 9943SOL    HW231271   4.239   2.383  11.507 -2.1492 -1.7133  2.4518
 9944SOL     OW31272   4.791   5.315   7.811 -0.0311 -0.2544  0.2522
 9944SOL    HW131273   4.821   5.266   7.888 -1.1638  0.9890  1.5469
 9944SOL    HW231274   4.857   5.296   7.744  2.1209  0.1339  2.1075
 9945SOL     OW31275   1.189   6.903   8.815  0.0738 -0.0141 -0.0325
 9945SOL    HW131276   1.128   6.974   8.836  0.6323  0.8272 -1.1260
 9945SOL    HW231277   1.196   6.852   8.896 -1.6484  0.1781  0.2693
 9946SOL     OW31278   4.950   3.904   8.566 -0.0081 -0.1137 -0.8363
 9946SOL    HW131279   4.965   3.987   8.610 -1.1438 -0.5214  0.3720
 9946SOL    HW231280   4.857   3.904   8.545  0.2231 -0.5681 -1.9443
 9947SOL     OW31281   0.452   7.089  10.820  0.6468 -0.0343 -0.1395
 9947SOL    HW131282   0.518   7.043  10.769 -0.1613  0.2326 -1.4833
 9947SOL    HW231283   0.395   7.020  10.854 -1.2574 -0.1208 -3.1237
 9948SOL     OW31284   4.369   5.667   1.886 -0.1188 -0.4142  0.8226
 9948SOL    HW131285   4.453   5.636   1.918  0.9207  0.6894 -0.6683
 9948SOL    HW231286   4.382   5.675   1.791 -1.6386  0.5929  0.6744
 9949SOL     OW31287   6.194   2.435   1.345  0.5603 -0.5373 -0.3456
 9949SOL    HW131288   6.151   2.350   1.342  0.7145 -0.6146 -3.1038
 9949SOL    HW231289   6.274   2.421   1.395 -0.1603 -1.6204  0.5263
 9950SOL     OW31290   0.388   3.936   4.221  0.2418 -0.2236  0.2561
 9950SOL    HW131291   0.348   4.016   4.185 -0.5694 -0.9143 -0.4152
 9950SOL    HW231292   0.347   3.926   4.307 -0.2604 -0.3563  0.0044
 9951SOL     OW31293   7.878   1.443   1.173 -0.1916  0.1776 -0.2110
 9951SOL    HW131294   7.813   1.417   1.108  0.4314 -0.5448 -0.5696
 9951SOL    HW231295   7.856   1.390   1.251 -0.7452  0.8104  0.0697
 9952SOL     OW31296   1.205   1.989   2.336  0.4092 -0.5459 -0.6484
 9952SOL    HW131297   1.285   1.970   2.385  0.7897  2.3733  0.0785
 9952SOL    HW231298   1.236   2.038   2.259 -0.6406  1.9249  0.3683
 9953SOL     OW31299   5.179   3.956   5.732  0.0420  0.3093  0.1845
 9953SOL    HW131300   5.201   3.979   5.642 -2.0422  1.4315 -0.1107
 9953SOL    HW231301   5.159   3.863   5.729  1.3507  0.0186 -0.1850
 9954SOL     OW31302   6.854   7.121   3.141  0.0814 -0.5907  0.4940
 9954SOL    HW131303   6.845   7.027   3.122 -0.2703 -0.3058 -0.8657
 9954SOL    HW231304   6.765   7.155   3.134  0.3657  0.0345 -0.1312
 9955SOL     OW31305   0.734   0.358   3.380  0.1542 -0.0208 -0.1523
 9955SOL    HW131306   0.764   0.268   3.378 -0.1772 -0.1352 -0.0326
 9955SOL    HW231307   0.806   0.407   3.421  0.1014 -0.3214  0.3056
 9956SOL     OW31308   2.473   6.950   4.994  0.0204 -0.3798 -0.1737
 9956SOL    HW131309   2.483   7.042   5.018  0.2511  0.0156 -1.6849
 9956SOL    HW231310   2.446   6.952   4.902 -2.2372 -1.7621  0.3651
 9957SOL     OW31311   7.135   1.970   8.917  0.3083 -1.0923 -0.1739
 9957SOL    HW131312   7.124   2.043   8.978  2.6028 -1.7152  1.1164
 9957SOL    HW231313   7.062   1.911   8.937  0.0642 -0.4843  0.8043
 9958SOL     OW31314   6.000   5.039  12.333  0.5415  0.4671  0.3402
 9958SOL    HW131315   5.919   5.084  12.308  0.6894  0.9619  0.7329
 9958SOL    HW231316   6.066   5.109  12.336  1.1909 -0.0680 -0.8764
 9959SOL     OW31317   3.708   6.753  11.052  0.0653 -0.1062 -0.1454
 9959SOL    HW131318   3.645   6.705  11.106 -0.9698  0.7961 -0.5224
 9959SOL    HW231319   3.665   6.836  11.032  0.5273 -0.2871 -2.1218
 9960SOL     OW31320   5.622   5.425   6.723 -0.4862  0.0013  0.0930
 9960SOL    HW131321   5.527   5.409   6.718 -0.5255  0.2018  0.1810
 9960SOL    HW231322   5.654   5.357   6.782 -0.6789  0.3582  0.6152
 9961SOL     OW31323   5.646   0.478   9.953  0.2249  0.0431  0.3490
 9961SOL    HW131324   5.552   0.480   9.936  0.4270  0.3015 -0.8798
 9961SOL    HW231325   5.657   0.526  10.035 -0.6405  0.6957  0.1048
 9962SOL     OW31326   6.991   4.752   7.172 -0.3497  0.0105 -0.1156
 9962SOL    HW131327   7.030   4.700   7.102 -0.1923 -0.5845  0.4094
 9962SOL    HW231328   7.066   4.793   7.216 -0.3939 -0.2238  0.1800
 9963SOL     OW31329   2.051   2.698   2.521  0.0110 -0.1534  0.1315
 9963SOL    HW131330   2.097   2.733   2.445  1.7472 -2.4011  0.0513
 9963SOL    HW231331   2.088   2.611   2.534 -1.7445 -0.6762  2.2878
 9964SOL     OW31332   3.090   5.289   0.337  0.1279  0.9004 -0.1545
 9964SOL    HW131333   2.998   5.268   0.317 -0.0334  0.9412  0.5140
 9964SOL    HW231334   3.140   5.219   0.297 -0.2612  0.3993  0.2322
 9965SOL     OW31335   6.104   7.829  10.933  0.5582  0.1069  0.4250
 9965SOL    HW131336   6.026   7.852  10.984  0.4857  0.0032  0.3629
 9965SOL    HW231337   6.071   7.811  10.845  0.6639  0.1463  0.3763
 9966SOL     OW31338   1.653   6.847   7.276  0.6305 -0.2158 -0.1424
 9966SOL    HW131339   1.643   6.818   7.366 -0.3874 -0.2941 -0.2723
 9966SOL    HW231340   1.579   6.809   7.229 -0.2964  1.8638 -0.4911
 9967SOL     OW31341   5.145   4.026   4.035 -0.4172 -0.5355  0.2571
 9967SOL    HW131342   5.116   4.115   4.017  1.0711 -0.0644 -0.0045
 9967SOL    HW231343   5.106   3.973   3.965 -1.2751 -0.0819  0.3902
 9968SOL     OW31344   3.249   3.194   7.685  0.0024  0.1126 -0.2827
 9968SOL    HW131345   3.181   3.190   7.752 -0.9863  0.0313 -1.2692
 9968SOL    HW231346   3.313   3.127   7.713  0.2231  0.8908  1.1901
 9969SOL     OW31347   4.186   4.136   0.611  0.8082  0.5669 -0.0824
 9969SOL    HW131348   4.116   4.134   0.545  0.5137  0.8794  0.2184
 9969SOL    HW231349   4.260   4.177   0.566  0.7781  0.3039 -0.3788
 9970SOL     OW31350   3.644   7.897   9.803  0.5137 -0.6212 -0.5077
 9970SOL    HW131351   3.737   7.882   9.825  1.1560  1.0341 -1.9028
 9970SOL    HW231352   3.642   7.986   9.768 -1.8382 -0.1850  0.6030
 9971SOL     OW31353   3.878   7.343  10.695 -0.2018 -0.2159 -0.7253
 9971SOL    HW131354   3.852   7.434  10.687  1.7165  0.3426 -1.1147
 9971SOL    HW231355   3.838   7.299  10.620 -1.4224  0.2085 -0.3439
 9972SOL     OW31356   5.519   5.793   3.837 -0.5036  0.1864  0.4908
 9972SOL    HW131357   5.551   5.763   3.922 -2.9244 -2.0029  0.7596
 9972SOL    HW231358   5.564   5.736   3.774  0.4594  1.0688  0.3564
 9973SOL     OW31359   6.151   2.558   7.994 -0.4465  0.0774 -0.0435
 9973SOL    HW131360   6.202   2.495   7.943  2.7501 -0.4803  3.3523
 9973SOL    HW231361   6.122   2.623   7.931  0.7711 -1.9417 -2.8914
 9974SOL     OW31362   4.496   0.713   4.979 -0.4028  0.1921  1.1179
 9974SOL    HW131363   4.411   0.733   5.018 -0.0580 -0.5028  2.2626
 9974SOL    HW231364   4.560   0.749   5.040  0.1572  1.8121 -0.3334
 9975SOL     OW31365   1.719   6.110   0.234  0.0534 -0.0384  0.1734
 9975SOL    HW131366   1.636   6.111   0.282  0.2261  0.0896  0.4731
 9975SOL    HW231367   1.708   6.042   0.168 -0.1549 -0.2794  0.4551
 9976SOL     OW31368   7.780   5.086   8.494 -0.2316 -0.3187  0.1007
 9976SOL    HW131369   7.743   5.164   8.451  0.2803 -0.1465 -0.0307
 9976SOL    HW231370   7.726   5.014   8.462  1.8918 -0.6469 -3.2335
 9977SOL     OW31371   0.201   5.228   7.084  0.0732 -0.2385 -0.4423
 9977SOL    HW131372   0.262   5.302   7.082 -0.7666  0.4915 -0.1938
 9977SOL    HW231373   0.199   5.202   7.176  0.3006 -0.5246 -0.5156
 9978SOL     OW31374   6.929   4.594   4.666 -0.5804 -0.0465 -0.2808
 9978SOL    HW131375   6.895   4.662   4.608 -1.4172 -1.5681 -1.6448
 9978SOL    HW231376   6.893   4.616   4.752  0.3997  2.0507 -0.3228
 9979SOL     OW31377   2.824   4.833   9.926 -0.6672 -0.1387 -0.2883
 9979SOL    HW131378   2.883   4.890   9.976 -1.5863 -0.2577  1.0114
 9979SOL    HW231379   2.881   4.766   9.889 -0.0477 -0.7969  1.6994
 9980SOL     OW31380   7.465   1.257   5.336  0.4264  0.2138  0.0942
 9980SOL    HW131381   7.525   1.327   5.363  1.0991 -0.3478  0.0905
 9980SOL    HW231382   7.502   1.225   5.254 -0.6735  0.7960 -0.6483
 9981SOL     OW31383   7.502   2.339  10.889 -0.1963 -0.2269 -0.5381
 9981SOL    HW131384   7.458   2.356  10.973  2.9102  1.7684  0.9124
 9981SOL    HW231385   7.480   2.415  10.835 -2.0659 -1.4363 -1.5740
 9982SOL     OW31386   7.270   6.393  12.165  0.7394 -0.1917 -0.6075
 9982SOL    HW131387   7.306   6.358  12.246  0.1814  0.2124 -0.1759
 9982SOL    HW231388   7.272   6.488  12.177 -0.9074 -0.1571 -0.3557
 9983SOL     OW31389   7.881   4.192   3.520 -0.4326  0.5838 -0.1133
 9983SOL    HW131390   7.856   4.244   3.596  0.0973  2.0672 -0.9082
 9983SOL    HW231391   7.847   4.242   3.445  0.0454 -0.2492 -0.9038
 9984SOL     OW31392   5.486   6.888   0.123 -0.3233  0.2826 -0.8567
 9984SOL    HW131393   5.401   6.849   0.102  0.4177 -0.5824 -2.4209
 9984SOL    HW231394   5.538   6.876   0.044  1.5776 -0.0805  0.3880
 9985SOL     OW31395   2.410   2.710   2.151 -0.1470 -0.0798  0.3011
 9985SOL    HW131396   2.320   2.744   2.154 -0.7973 -1.5033 -1.1079
 9985SOL    HW231397   2.416   2.653   2.227 -0.7622 -0.6303 -0.0442
 9986SOL     OW31398   0.857   3.694   0.588  0.0542 -0.0342  0.5937
 9986SOL    HW131399   0.904   3.642   0.522 -2.3470 -0.5139 -0.8600
 9986SOL    HW231400   0.807   3.630   0.639 -1.6169  0.6411 -0.1124
 9987SOL     OW31401   5.439   6.636   0.496 -0.1682  0.6003  0.3975
 9987SOL    HW131402   5.481   6.721   0.481 -0.6043  1.1168  1.9255
 9987SOL    HW231403   5.356   6.658   0.537 -1.1582 -0.5028 -0.9081
 9988SOL     OW31404   6.011   7.209   8.189  0.4276 -0.0264 -0.1693
 9988SOL    HW131405   5.930   7.235   8.234 -1.3408 -0.7037 -2.7425
 9988SOL    HW231406   6.026   7.119   8.218 -1.8466 -1.1975 -2.2379
 9989SOL     OW31407   5.105   1.937   3.825  0.3583  0.0314 -0.2320
 9989SOL    HW131408   5.040   1.877   3.860  0.6830 -0.1404  0.0741
 9989SOL    HW231409   5.054   2.013   3.796 -0.3126 -1.1658 -2.4315
 9990SOL     OW31410   7.645   2.420   6.056 -0.5700  0.4314  0.0995
 9990SOL    HW131411   7.645   2.359   5.982 -0.3743 -0.8350  1.1152
 9990SOL    HW231412   7.643   2.507   6.015 -0.5062 -0.2348 -1.3859
 9991SOL     OW31413   5.824   5.662   3.976  0.4918  0.0401  0.0050
 9991SOL    HW131414   5.814   5.756   3.962  0.7775  0.2448  1.1014
 9991SOL    HW231415   5.915   5.643   3.951  0.3712  0.0097 -0.4204
 9992SOL     OW31416   5.047   4.192   5.595 -0.3892 -0.7150  0.2293
 9992SOL    HW131417   5.113   4.168   5.530  2.1834  2.8835  1.1468
 9992SOL    HW231418   4.981   4.240   5.546 -1.2085 -2.3613 -0.3563
 9993SOL     OW31419   6.759   0.203   5.854  0.4100 -0.3249  0.2974
 9993SOL    HW131420   6.769   0.125   5.908  1.1567 -1.1539 -0.9824
 9993SOL    HW231421   6.727   0.170   5.770 -0.1869  0.8620  0.0284
 9994SOL     OW31422   5.283   6.776   5.134  0.7221 -0.1909  0.1833
 9994SOL    HW131423   5.289   6.767   5.229 -0.1254  0.4827  0.3099
 9994SOL    HW231424   5.202   6.731   5.111  0.7059  0.0143 -0.1656
 9995SOL     OW31425   1.068   5.487   2.471 -0.2579  0.9729  0.6284
 9995SOL    HW131426   1.080   5.431   2.394 -1.1450 -1.4622  2.1372
 9995SOL    HW231427   1.108   5.570   2.447  0.9110 -0.2083 -1.8639
 9996SOL     OW31428   4.088   6.344   4.258  0.2983 -0.0779  0.6577
 9996SOL    HW131429   4.087   6.402   4.335 -0.4335  0.4703  0.2424
 9996SOL    HW231430   4.022   6.278   4.276 -0.9431  0.8987 -0.1148
 9997SOL     OW31431   5.743   2.628   8.506 -0.7747 -0.3274 -0.5932
 9997SOL    HW131432   5.825   2.646   8.459 -0.8201 -2.0439 -1.4155
 9997SOL    HW231433   5.676   2.676   8.458 -0.2874  1.0720  0.0703
 9998SOL     OW31434   4.887   4.967   8.189 -0.3686  0.5318  0.2005
 9998SOL    HW131435   4.795   4.982   8.167  0.3400  1.1454 -2.6321
 9998SOL    HW231436   4.934   4.973   8.106  2.2726  0.3076  1.5593
 9999SOL     OW31437   4.358   0.203  12.147 -0.4123  0.3187  0.2389
 9999SOL    HW131438   4.360   0.206  12.242 -0.1787  0.6135  0.2261
 9999SOL    HW231439   4.450   0.210  12.120 -0.4945  0.4872 -0.0110
10000SOL     OW31440   1.901   3.715   5.914 -0.5821  0.1216  0.5456
10000SOL    HW131441   1.968   3.759   5.863  0.1129  1.0984  2.2117
10000SOL    HW231442   1.832   3.780   5.924 -0.4433  0.1603  1.3183
10001SOL     OW31443   3.406   5.962   5.092  0.2119 -0.2360  0.1542
10001SOL    HW131444   3.364   5.979   5.177 -1.2815  0.6098 -0.7224
10001SOL    HW231445   3.399   6.044   5.045  2.4595 -0.2043 -0.2533
10002SOL     OW31446   5.889   0.114   6.063  0.3114  0.2215 -0.4873
10002SOL    HW131447   5.806   0.162   6.061  0.6468  0.9884  1.3859
10002SOL    HW231448   5.880   0.046   5.998 -1.8329  0.2487 -0.2666
10003SOL     OW31449   4.668   2.224   4.495  0.5768  0.0060  0.2680
10003SOL    HW131450   4.634   2.135   4.493  1.0447 -0.1729  0.3459
10003SOL    HW231451   4.670   2.251   4.403  0.3157 -0.0160  0.2541
10004SOL     OW31452   0.840   1.358   1.413  0.0859 -0.0963 -0.0608
10004SOL    HW131453   0.811   1.448   1.397  3.0033  0.8141 -0.9756
10004SOL    HW231454   0.883   1.362   1.499 -1.6189 -1.1827  0.8883
10005SOL     OW31455   7.837   3.886   5.883 -0.4390  0.3834 -0.3333
10005SOL    HW131456   7.876   3.914   5.800 -0.3276  0.2084 -0.3422
10005SOL    HW231457   7.843   3.963   5.940 -1.1405  0.7161 -0.7006
10006SOL     OW31458   5.423   1.475   5.663  1.0532  0.6468  0.1137
10006SOL    HW131459   5.440   1.387   5.630 -2.7896  0.1840 -1.1131
10006SOL    HW231460   5.412   1.529   5.585 -0.2736  1.3367  0.7357
10007SOL     OW31461   6.391   0.460   3.743 -0.0197 -0.0945 -0.3310
10007SOL    HW131462   6.430   0.468   3.830  2.5230 -3.1365 -0.9978
10007SOL    HW231463   6.307   0.416   3.759  0.4418 -0.6700  0.5884
10008SOL     OW31464   5.346   5.505   4.992 -0.0761 -0.0567  0.2407
10008SOL    HW131465   5.437   5.475   4.993 -0.0734 -0.4487 -2.7191
10008SOL    HW231466   5.298   5.434   4.950 -1.0986  1.6408 -1.6030
10009SOL     OW31467   2.072   1.876   5.047 -0.5872  0.2346  0.0290
10009SOL    HW131468   2.109   1.919   5.123 -0.5182  2.4733 -1.1895
10009SOL    HW231469   1.978   1.892   5.053 -0.8033 -1.1034  0.5194
10010SOL     OW31470   5.846   4.932   7.122  0.7375 -0.1736 -0.0280
10010SOL    HW131471   5.899   4.869   7.072  0.4069  1.1240 -2.1577
10010SOL    HW231472   5.903   5.007   7.134  0.4084 -0.0072  0.5176
10011SOL     OW31473   4.425   4.283   5.771 -0.4647  0.1343  0.0508
10011SOL    HW131474   4.496   4.219   5.768 -1.9195 -1.5366  0.0122
10011SOL    HW231475   4.415   4.312   5.680  0.2964  0.5669  0.0939
10012SOL     OW31476   6.874   7.638   3.322 -0.1919 -0.1059 -0.4370
10012SOL    HW131477   6.837   7.600   3.401  0.0853  2.3856  0.9627
10012SOL    HW231478   6.965   7.609   3.322  0.2209  1.0840  1.0179
10013SOL     OW31479   4.845   1.729   3.619 -0.3282 -0.3818 -0.2037
10013SOL    HW131480   4.782   1.798   3.597 -0.0667  0.6077  1.8764
10013SOL    HW231481   4.927   1.759   3.581 -0.1092  0.7554  1.0944
10014SOL     OW31482   2.911   0.115   8.362  0.8476 -0.0793 -0.0526
10014SOL    HW131483   2.937   0.072   8.280  0.1700  1.8795 -1.3570
10014SOL    HW231484   2.979   0.181   8.377  0.2937  0.4259  0.2679
10015SOL     OW31485   5.826   7.409   4.116  0.0234 -0.0317  0.3220
10015SOL    HW131486   5.779   7.491   4.128  0.6635  0.2155  1.2913
10015SOL    HW231487   5.916   7.428   4.143  0.2461 -0.9774  0.2972
10016SOL     OW31488   7.011   5.730   8.138  0.1327  0.4461  0.4082
10016SOL    HW131489   6.957   5.699   8.211 -0.1271  0.5753  0.2734
10016SOL    HW231490   7.093   5.682   8.146  0.3997  1.0162  1.2389
10017SOL     OW31491   7.313   2.136  10.392  0.6495 -0.3023 -0.0402
10017SOL    HW131492   7.367   2.213  10.377  1.3493 -0.6559  0.5866
10017SOL    HW231493   7.313   2.124  10.487 -0.9566 -0.0210  0.0268
10018SOL     OW31494   5.673   6.476   9.171 -0.2171 -0.2349 -0.2957
10018SOL    HW131495   5.635   6.500   9.087  1.7149  0.6116 -0.9923
10018SOL    HW231496   5.741   6.412   9.150  0.5583  0.2807  0.5257
10019SOL     OW31497   0.628   2.976   2.795  0.1750  0.1656  0.5240
10019SOL    HW131498   0.600   2.986   2.704 -3.0414  0.1634  1.4059
10019SOL    HW231499   0.584   2.897   2.826  1.3796  0.0336  2.0584
10020SOL     OW31500   4.799   0.684   2.702 -0.1433 -0.3104 -0.0805
10020SOL    HW131501   4.857   0.686   2.778 -0.0720 -1.5640 -0.0791
10020SOL    HW231502   4.846   0.730   2.634  0.0185  0.3659  0.4734
10021SOL     OW31503   6.084   3.462   3.940 -0.1739  0.2691  0.1688
10021SOL    HW131504   6.055   3.507   4.019  0.2393 -0.1957  0.6010
10021SOL    HW231505   6.019   3.394   3.926 -0.3075  0.4231  0.0476
10022SOL     OW31506   6.659   7.351   7.892 -0.0676 -0.0189  0.1925
10022SOL    HW131507   6.725   7.287   7.920 -0.7779 -0.9772 -0.2795
10022SOL    HW231508   6.577   7.302   7.889 -0.4095  0.5869 -1.3886
10023SOL     OW31509   4.210   0.171   9.341 -0.1147  0.1970  0.1537
10023SOL    HW131510   4.299   0.170   9.305  0.0429 -1.2692  0.5374
10023SOL    HW231511   4.177   0.259   9.320  0.8824  0.2606 -1.3050
10024SOL     OW31512   2.521   6.784   8.428 -0.3415 -0.3183  0.3379
10024SOL    HW131513   2.565   6.825   8.502 -2.1648 -0.5343  1.5788
10024SOL    HW231514   2.449   6.844   8.406 -0.4905 -0.8069 -0.5583
10025SOL     OW31515   3.007   4.014   3.353 -0.1271 -0.0402 -0.5059
10025SOL    HW131516   2.965   3.963   3.284  0.8237 -0.1771 -1.0088
10025SOL    HW231517   3.089   3.967   3.370  1.5148  2.0676 -2.0335
10026SOL     OW31518   4.817   7.342  11.618  0.6928 -0.5761 -0.1802
10026SOL    HW131519   4.798   7.411  11.682  0.7781 -1.2714  0.6249
10026SOL    HW231520   4.881   7.286  11.663  1.2469 -0.7239 -1.1369
10027SOL     OW31521   6.901   0.452   9.558 -0.4233 -0.1255  0.0740
10027SOL    HW131522   6.991   0.422   9.550 -0.2132  0.2786  0.8574
10027SOL    HW231523   6.860   0.390   9.619 -0.7338 -0.4293 -0.4376
10028SOL     OW31524   0.083   5.807   9.945  0.0160 -0.3534  0.2858
10028SOL    HW131525   0.081   5.714   9.921  1.4147 -0.0194 -1.3715
10028SOL    HW231526   0.172   5.821   9.978 -0.2083  0.3706  0.6001
10029SOL     OW31527   5.029   0.345   4.126  0.2687 -0.2645  0.1716
10029SOL    HW131528   5.006   0.281   4.058  2.0476 -0.1512 -0.5705
10029SOL    HW231529   4.989   0.427   4.097 -2.5773 -1.0609  1.4421
10030SOL     OW31530   7.554   7.439  11.700 -0.0146  0.5083 -0.0173
10030SOL    HW131531   7.606   7.432  11.780  0.4204  0.6076 -0.2869
10030SOL    HW231532   7.605   7.496  11.643 -0.5562  0.8418 -0.1838
10031SOL     OW31533   3.023   1.507   7.652  0.5959  0.2697  0.0826
10031SOL    HW131534   2.943   1.502   7.704 -0.1431 -1.2813 -1.0993
10031SOL    HW231535   3.086   1.554   7.708 -1.7169  3.5401  0.2043
10032SOL     OW31536   5.010   2.059   8.854  0.3250  0.7942  0.4062
10032SOL    HW131537   5.059   2.118   8.911 -0.5824  1.5161  0.4576
10032SOL    HW231538   5.063   1.979   8.850  1.0028  1.1956  1.2518
10033SOL     OW31539   5.778   6.262   2.936 -0.0742  0.3395  0.5558
10033SOL    HW131540   5.855   6.231   2.982  0.3522  0.4142 -0.0984
10033SOL    HW231541   5.705   6.244   2.995 -0.2781 -4.3807 -0.7723
10034SOL     OW31542   2.459   0.786   7.742  0.1938 -0.3415 -0.6352
10034SOL    HW131543   2.519   0.854   7.770 -0.3280 -0.0972 -0.0817
10034SOL    HW231544   2.372   0.823   7.759 -0.1165 -2.0228  1.8939
10035SOL     OW31545   3.540   1.946   9.405  0.0505 -0.1094 -0.7460
10035SOL    HW131546   3.479   1.996   9.460  0.7373  0.7643 -0.7459
10035SOL    HW231547   3.565   2.008   9.336  4.1305  1.1483  1.5081
10036SOL     OW31548   7.520   7.648   9.060 -0.0728 -0.3199 -0.2450
10036SOL    HW131549   7.496   7.567   9.014  1.3579 -0.5650 -0.6112
10036SOL    HW231550   7.544   7.619   9.148 -0.7270 -0.1308 -0.0031
10037SOL     OW31551   6.898   0.654  10.485  0.3481  0.6579  0.0968
10037SOL    HW131552   6.886   0.735  10.435 -0.0279  1.1812  1.0121
10037SOL    HW231553   6.986   0.624  10.462 -0.1112  0.4510 -1.4892
10038SOL     OW31554   4.173   2.606   9.355 -0.3778 -0.4124 -0.2488
10038SOL    HW131555   4.250   2.550   9.358  0.4068  0.6279  2.7916
10038SOL    HW231556   4.116   2.566   9.289  1.9925 -2.1861 -1.3502
10039SOL     OW31557   4.643   5.403  10.546  0.2014  0.8959  0.1041
10039SOL    HW131558   4.557   5.372  10.518  0.5780 -0.1563  0.0546
10039SOL    HW231559   4.701   5.383  10.472  0.4002  2.1066 -0.0912
10040SOL     OW31560   5.410   0.533   7.477 -0.1345 -0.2228 -0.1932
10040SOL    HW131561   5.333   0.532   7.421  1.5764 -0.0724 -2.6779
10040SOL    HW231562   5.450   0.619   7.462  1.7445 -1.1457 -0.7790
10041SOL     OW31563   6.624   4.032  11.551  0.5269 -0.2938  0.1069
10041SOL    HW131564   6.664   3.962  11.500 -1.1429  0.4818 -2.4939
10041SOL    HW231565   6.653   4.113  11.508 -1.4775  0.3795 -0.0864
10042SOL     OW31566   7.431   5.053  10.763 -0.2769  0.1093 -0.4073
10042SOL    HW131567   7.518   5.091  10.778  0.2634 -0.5026 -1.8262
10042SOL    HW231568   7.386   5.064  10.846 -0.3095  4.1470 -0.7267
10043SOL     OW31569   0.991   0.600   9.765  0.0030 -0.1026  0.4798
10043SOL    HW131570   0.913   0.654   9.772 -0.2830 -0.4000 -0.3494
10043SOL    HW231571   0.977   0.530   9.829  1.2849  1.8423  3.0709
10044SOL     OW31572   6.120   3.913   3.419 -0.2710 -0.5271  0.4023
10044SOL    HW131573   6.037   3.948   3.451  1.0037  1.1519  2.1302
10044SOL    HW231574   6.125   3.824   3.454 -0.2009  0.2944  2.6151
10045SOL     OW31575   5.118   2.511   7.026  0.1160 -0.3808 -0.2185
10045SOL    HW131576   5.082   2.539   7.110  0.6186 -0.6985  0.1086
10045SOL    HW231577   5.177   2.581   7.001 -0.1019 -0.2438 -0.3527
10046SOL     OW31578   1.383   4.465   3.490 -0.4764  0.0485 -0.1078
10046SOL    HW131579   1.467   4.430   3.460 -0.1794 -0.6422  1.4194
10046SOL    HW231580   1.319   4.431   3.428  0.0047 -1.9873  0.4324
10047SOL     OW31581   0.428   7.400   1.736  0.1304  0.2411 -0.2610
10047SOL    HW131582   0.509   7.364   1.772  1.2251  2.3602 -0.4492
10047SOL    HW231583   0.396   7.332   1.677  0.5790 -1.5268  1.4278
10048SOL     OW31584   7.545   4.333   5.046 -0.1284 -0.0482 -0.0899
10048SOL    HW131585   7.591   4.312   4.965 -0.0409 -0.5732  0.0919
10048SOL    HW231586   7.585   4.277   5.112  1.4107  2.0108  0.8361
10049SOL     OW31587   1.472   4.969   3.632 -0.3720 -0.0413 -0.4138
10049SOL    HW131588   1.523   5.050   3.635 -0.1493 -0.1679 -0.7578
10049SOL    HW231589   1.521   4.912   3.573 -1.2626  0.0854 -1.3065
10050SOL     OW31590   6.666   0.584   1.976 -0.0138 -0.1700 -0.0017
10050SOL    HW131591   6.646   0.494   1.949  1.2630  0.2031 -2.5542
10050SOL    HW231592   6.605   0.601   2.048 -1.4816 -2.4961 -0.5521
10051SOL     OW31593   6.594   7.685   1.012 -0.4107 -0.1344  0.1017
10051SOL    HW131594   6.681   7.707   1.044 -0.6994  0.6589  0.3742
10051SOL    HW231595   6.569   7.760   0.957 -0.6151 -0.6979 -0.5846
10052SOL     OW31596   6.098   7.771   0.028 -0.5090  0.3766 -0.2420
10052SOL    HW131597   6.069   7.855   0.063  0.5973  0.0998  1.4654
10052SOL    HW231598   6.029   7.709   0.053 -1.2668  0.7146 -1.4001
10053SOL     OW31599   7.401   7.107   6.635 -0.1181 -0.0687 -0.0994
10053SOL    HW131600   7.479   7.102   6.691  1.2441 -0.7336 -1.9465
10053SOL    HW231601   7.412   7.189   6.587  0.1029 -0.7441 -1.2393
10054SOL     OW31602   3.030   3.069  12.348 -0.1888  0.8137 -0.2414
10054SOL    HW131603   2.976   3.146  12.335 -1.2682  0.2452  0.6339
10054SOL    HW231604   3.005   3.009  12.278 -1.9134 -0.0604  1.0278
10055SOL     OW31605   1.112   5.200   6.673  0.2891 -0.4396  0.0201
10055SOL    HW131606   1.078   5.247   6.597 -0.3572  1.6751  1.5084
10055SOL    HW231607   1.190   5.155   6.641 -1.2317 -1.5972 -2.4117
10056SOL     OW31608   2.434   4.448   8.247 -0.5452 -0.0359  0.2406
10056SOL    HW131609   2.344   4.451   8.214  0.2787  0.4859 -2.1942
10056SOL    HW231610   2.474   4.374   8.199  1.6279  2.7691 -2.7466
10057SOL     OW31611   1.949   2.167   9.277 -0.2616 -0.0874 -0.3312
10057SOL    HW131612   1.880   2.142   9.338 -0.5827  0.1776 -0.5769
10057SOL    HW231613   1.912   2.242   9.229  0.5930  0.7083  0.2331
10058SOL     OW31614   5.871   5.253   0.075 -0.0552 -0.5345 -0.0674
10058SOL    HW131615   5.860   5.244   0.169 -3.0210 -1.8026 -0.4333
10058SOL    HW231616   5.965   5.271   0.064  0.3502 -0.0726  3.0841
10059SOL     OW31617   6.955   7.560   5.609  0.0477 -0.2170  0.1803
10059SOL    HW131618   7.028   7.501   5.625  0.6264  0.3104 -0.4716
10059SOL    HW231619   6.920   7.579   5.696  0.7571 -0.3763  0.5044
10060SOL     OW31620   5.004   4.379  12.343  0.8772 -0.4007 -0.1594
10060SOL    HW131621   4.976   4.419  12.425 -0.2881  0.0514 -0.7600
10060SOL    HW231622   4.948   4.302  12.333  0.7935 -0.2800 -0.6731
10061SOL     OW31623   4.317   3.351  10.254  0.3484  0.0609 -0.0691
10061SOL    HW131624   4.278   3.414  10.314  1.1759 -0.6950  1.2922
10061SOL    HW231625   4.405   3.384  10.237  0.1178  0.2775 -0.9048
10062SOL     OW31626   5.245   6.540  10.502  0.4359  0.4023 -0.4396
10062SOL    HW131627   5.319   6.517  10.558 -0.1755 -1.1815 -0.2346
10062SOL    HW231628   5.267   6.627  10.468  2.7065 -0.3043 -0.9218
10063SOL     OW31629   5.112   5.977   7.999  0.0264 -0.5840  0.3119
10063SOL    HW131630   5.049   6.036   7.959 -0.3117 -1.6756 -0.8331
10063SOL    HW231631   5.193   5.991   7.950  0.1848 -0.4568  0.6066
10064SOL     OW31632   6.513   3.205   3.349 -0.2242  0.3575 -0.2520
10064SOL    HW131633   6.537   3.120   3.386 -0.4355  0.1006 -0.7022
10064SOL    HW231634   6.468   3.250   3.421 -0.3959 -0.0332 -0.1118
10065SOL     OW31635   3.706   3.637  11.657  0.2800 -0.3654  0.0759
10065SOL    HW131636   3.687   3.716  11.706  1.1554 -0.4241  0.5465
10065SOL    HW231637   3.708   3.664  11.565  2.0963  0.5129  0.3304
10066SOL     OW31638   0.158   1.577   6.584  0.2600 -0.5109  0.0278
10066SOL    HW131639   0.232   1.517   6.586  0.6759  0.0120  0.5589
10066SOL    HW231640   0.192   1.656   6.543  0.1514 -0.0708  0.7674
10067SOL     OW31641   1.185   6.419   0.243 -0.0408  0.2405 -0.1244
10067SOL    HW131642   1.149   6.497   0.284 -0.2186 -0.5409  1.2688
10067SOL    HW231643   1.248   6.385   0.307  1.1038  0.0348 -1.3254
10068SOL     OW31644   1.072   6.417   1.724 -0.3289 -0.6223 -0.1291
10068SOL    HW131645   0.988   6.457   1.700 -0.0063  0.3418  0.2977
10068SOL    HW231646   1.126   6.490   1.753  0.0189 -1.4623  1.4617
10069SOL     OW31647   0.437   2.459   3.366  0.1663  0.1028  1.1149
10069SOL    HW131648   0.342   2.464   3.360  0.2573  1.8503  0.8121
10069SOL    HW231649   0.458   2.370   3.336 -1.4671 -0.9665  2.8695
10070SOL     OW31650   3.542   1.496   3.687 -0.6389  0.3053 -0.1171
10070SOL    HW131651   3.503   1.576   3.722  2.7671  1.9984  0.1478
10070SOL    HW231652   3.589   1.458   3.762 -1.1618 -1.2981 -0.5648
10071SOL     OW31653   7.009   5.963   7.932  0.6426  0.5817 -0.3540
10071SOL    HW131654   7.093   6.008   7.924  0.7611  1.0457  2.6362
10071SOL    HW231655   7.032   5.878   7.969 -0.0866  0.0038 -1.1910
10072SOL     OW31656   5.719   5.239  11.494  0.3302  0.1200  0.2061
10072SOL    HW131657   5.751   5.151  11.514  0.0589 -0.8486 -2.9776
10072SOL    HW231658   5.624   5.229  11.488  0.2129  0.8617  0.6661
10073SOL     OW31659   3.115   2.133  12.326 -0.5034  0.1617  0.0603
10073SOL    HW131660   3.033   2.107  12.284 -0.2099  1.0240 -1.0825
10073SOL    HW231661   3.166   2.173  12.256  0.7571 -0.0321  0.8460
10074SOL     OW31662   1.471   0.081   9.496 -0.4900 -0.1403  0.0920
10074SOL    HW131663   1.503  -0.001   9.534 -0.1796 -0.7355 -1.3810
10074SOL    HW231664   1.380   0.063   9.473 -0.6573  0.1974  0.4755
10075SOL     OW31665   5.204   3.852   2.251  0.1627 -0.0702  0.2257
10075SOL    HW131666   5.142   3.780   2.253 -0.4973  0.4010 -1.5434
10075SOL    HW231667   5.211   3.877   2.159 -0.0650  2.4776  0.8067
10076SOL     OW31668   6.240   2.966   9.870  0.7220 -0.0144 -0.3955
10076SOL    HW131669   6.299   3.006   9.934  1.7379  0.4800 -1.6047
10076SOL    HW231670   6.272   2.996   9.785 -1.1357  0.0933 -1.1240
10077SOL     OW31671   0.470   6.989   2.010 -0.3517 -0.2519  0.1114
10077SOL    HW131672   0.532   6.993   2.084  1.8187  1.7335 -1.6706
10077SOL    HW231673   0.514   6.933   1.946 -0.0694  1.6476 -1.4191
10078SOL     OW31674   2.785   2.807  10.174 -0.1651  0.2319 -0.2959
10078SOL    HW131675   2.807   2.775  10.087  2.1821  0.4523  0.1517
10078SOL    HW231676   2.732   2.886  10.158 -1.4562 -0.8090 -1.4419
10079SOL     OW31677   0.239   7.521  11.691  0.1072 -0.3398  0.1216
10079SOL    HW131678   0.214   7.431  11.713 -0.0710 -0.4025 -0.3120
10079SOL    HW231679   0.221   7.528  11.597  1.8457 -0.4203 -0.2358
10080SOL     OW31680   1.819   5.499   9.498 -0.7245 -0.2067  0.1206
10080SOL    HW131681   1.734   5.470   9.465 -0.9941  0.2276  0.4214
10080SOL    HW231682   1.801   5.530   9.587  0.1937 -2.5901  1.2553
10081SOL     OW31683   6.480   1.471  11.326  0.1015 -0.2554  0.8606
10081SOL    HW131684   6.510   1.398  11.271 -1.3835  0.2785 -0.7648
10081SOL    HW231685   6.554   1.490  11.383  1.0713 -2.0419  0.2890
10082SOL     OW31686   5.735   5.563  10.102 -0.0816 -0.1625  0.5754
10082SOL    HW131687   5.705   5.509  10.028 -0.6635 -0.5976  1.1204
10082SOL    HW231688   5.829   5.574  10.087 -0.5490  1.6704 -1.4533
10083SOL     OW31689   6.047   2.792   0.989  0.3364  0.7629 -0.4838
10083SOL    HW131690   6.050   2.698   0.973 -0.0442  1.0960 -2.9213
10083SOL    HW231691   6.138   2.820   0.988  0.3966  0.5571 -0.8769
10084SOL     OW31692   6.346   3.822   9.154  0.0273 -0.6359  0.0652
10084SOL    HW131693   6.351   3.769   9.073  1.0649 -0.3532 -0.0732
10084SOL    HW231694   6.355   3.912   9.124  1.0399 -0.5692  0.5463
10085SOL     OW31695   5.956   3.511  11.561 -0.1398 -0.0009 -0.1296
10085SOL    HW131696   5.870   3.478  11.535 -0.0289 -1.0028  0.7428
10085SOL    HW231697   5.975   3.468  11.644  1.4153 -0.1615 -0.5362
10086SOL     OW31698   5.218   2.987  12.176 -0.3881 -0.1268 -0.3470
10086SOL    HW131699   5.244   2.967  12.086  0.2703  0.6084 -0.3373
10086SOL    HW231700   5.256   2.917  12.228  1.2030  0.6319 -0.4004
10087SOL     OW31701   1.147   4.148   8.431 -0.0686  0.1461  0.0235
10087SOL    HW131702   1.142   4.058   8.401 -0.3774  0.4196 -0.7740
10087SOL    HW231703   1.196   4.194   8.363 -0.4588  0.7044  0.1038
10088SOL     OW31704   0.376   4.752   6.177  0.5111  0.1965  0.0355
10088SOL    HW131705   0.405   4.671   6.219  0.2262  0.7219  1.2834
10088SOL    HW231706   0.444   4.769   6.111 -0.4748 -2.1220 -1.7492
10089SOL     OW31707   4.799   7.220   8.811  0.3679 -0.3468  0.0936
10089SOL    HW131708   4.870   7.283   8.806  0.5366 -0.5948 -1.0519
10089SOL    HW231709   4.793   7.196   8.903  0.3887  1.2209  0.5254
10090SOL     OW31710   3.154   2.236   0.186 -0.1515  0.0266 -0.1940
10090SOL    HW131711   3.180   2.327   0.179 -1.2849  0.3000 -1.1951
10090SOL    HW231712   3.125   2.212   0.098 -0.2591 -1.1709  0.1499
10091SOL     OW31713   5.218   5.120   5.812  0.5667 -0.5286 -0.2106
10091SOL    HW131714   5.281   5.168   5.757  0.5867 -0.8690 -0.4835
10091SOL    HW231715   5.272   5.065   5.868  0.5272 -0.5182 -0.1621
10092SOL     OW31716   7.305   5.407   4.270  0.4988  0.5066  0.2415
10092SOL    HW131717   7.354   5.480   4.231  0.3596  0.9256  0.8599
10092SOL    HW231718   7.368   5.365   4.329  0.3195  0.6291  0.5183
10093SOL     OW31719   0.337   2.236   3.838  0.1350  0.5497  0.1455
10093SOL    HW131720   0.334   2.285   3.920  0.2040 -0.2376  0.6271
10093SOL    HW231721   0.258   2.182   3.839  1.7483 -1.9704  1.3030
10094SOL     OW31722   5.561   3.641   6.148 -0.4636 -0.1368 -0.2161
10094SOL    HW131723   5.615   3.719   6.160 -0.2170 -0.2046 -0.8153
10094SOL    HW231724   5.515   3.656   6.066 -1.1990 -0.1804  0.1783
10095SOL     OW31725   1.830   0.901   6.538 -0.0829 -0.1449 -0.0526
10095SOL    HW131726   1.887   0.838   6.494  1.3759  0.9813  0.1282
10095SOL    HW231727   1.883   0.981   6.543 -0.9798  0.3782  1.8603
10096SOL     OW31728   1.754   2.343   7.435  0.2930  0.6730  0.0364
10096SOL    HW131729   1.724   2.253   7.422  0.1278  0.4149  1.8573
10096SOL    HW231730   1.715   2.370   7.518 -0.2125  2.6988 -0.8010
10097SOL     OW31731   3.576   4.236   6.975 -0.0516 -0.4758 -0.3204
10097SOL    HW131732   3.606   4.188   6.898 -0.1794  0.1280 -0.7563
10097SOL    HW231733   3.528   4.310   6.939  0.0698 -0.0688  0.3424
10098SOL     OW31734   6.282   0.098   6.423 -0.1121 -0.6657 -0.5546
10098SOL    HW131735   6.248   0.058   6.344 -0.4321 -1.0158 -0.2422
10098SOL    HW231736   6.204   0.124   6.473  0.0861 -0.2137 -0.4696
10099SOL     OW31737   7.395   6.245   9.569  0.1489  0.1933 -0.3685
10099SOL    HW131738   7.334   6.257   9.497 -0.3043  1.7320  0.2343
10099SOL    HW231739   7.355   6.175   9.622 -1.3030  1.3835  0.1855
10100SOL     OW31740   6.084   0.836   8.646  0.5998 -0.1304  0.0687
10100SOL    HW131741   6.103   0.742   8.654  1.0982  0.0150  0.7244
10100SOL    HW231742   5.998   0.847   8.685  0.4639 -0.3381 -0.1676
10101SOL     OW31743   1.961   3.607  11.092 -0.0956 -0.0272  0.0352
10101SOL    HW131744   1.898   3.677  11.078 -1.6208 -1.0738  1.2850
10101SOL    HW231745   2.040   3.635  11.045 -1.0596  1.9150 -0.5098
10102SOL     OW31746   6.536   6.001   9.717  0.4568  0.4774  0.3614
10102SOL    HW131747   6.526   6.009   9.812  0.9340 -0.5472  0.5168
10102SOL    HW231748   6.448   6.015   9.682 -0.1500 -1.1061  1.1193
10103SOL     OW31749   0.777   4.759   6.013  0.0242 -0.8393  0.7313
10103SOL    HW131750   0.859   4.807   6.022  0.8502 -2.1082  0.2808
10103SOL    HW231751   0.713   4.826   5.989  1.6799 -0.2348 -2.7455
10104SOL     OW31752   7.004   0.435   2.259  0.8659 -0.1900 -0.4524
10104SOL    HW131753   7.076   0.471   2.208  1.3921 -0.2464  0.2457
10104SOL    HW231754   6.979   0.356   2.212 -0.3922  1.0850 -2.0860
10105SOL     OW31755   3.910   2.765   3.811 -0.0282 -0.6484 -0.2072
10105SOL    HW131756   3.885   2.726   3.895 -0.2828  0.9054  0.4776
10105SOL    HW231757   3.951   2.848   3.834  1.2655 -0.8544 -1.5715
10106SOL     OW31758   7.796   7.765  10.825 -0.1863 -0.2822  0.0053
10106SOL    HW131759   7.786   7.781  10.919  0.2273 -0.6800  0.1213
10106SOL    HW231760   7.847   7.839  10.794 -0.8900  0.1987 -0.0365
10107SOL     OW31761   4.133   5.192   6.379 -0.5394  0.0912  0.6375
10107SOL    HW131762   4.185   5.161   6.305 -0.1116 -3.0543  2.0822
10107SOL    HW231763   4.149   5.286   6.382  1.8558 -0.1547 -1.3980
10108SOL     OW31764   7.817   1.064   3.953  0.0146 -0.0080 -0.2084
10108SOL    HW131765   7.854   1.061   3.865 -1.0053  0.3413 -0.6679
10108SOL    HW231766   7.722   1.069   3.939 -0.1592  0.1464  0.9096
10109SOL     OW31767   4.853   7.561   2.357  0.5419 -0.1673 -0.0790
10109SOL    HW131768   4.808   7.590   2.278 -0.2070 -1.8634 -0.3313
10109SOL    HW231769   4.944   7.585   2.344  0.3531 -0.0709 -1.2920
10110SOL     OW31770   4.000   2.510   4.899  0.2247 -0.1292  0.0594
10110SOL    HW131771   3.916   2.521   4.943 -1.2067 -1.7522 -2.0757
10110SOL    HW231772   4.025   2.420   4.917 -0.2466 -0.7384 -2.0879
10111SOL     OW31773   5.172   1.125   7.661  0.1398  0.0525  0.5137
10111SOL    HW131774   5.149   1.211   7.625 -0.5979  0.1039  1.0683
10111SOL    HW231775   5.124   1.121   7.744  3.0169  0.6094  2.3204
10112SOL     OW31776   0.366   4.240   5.531 -0.5817 -0.5208 -0.3768
10112SOL    HW131777   0.293   4.255   5.471 -1.1135 -0.3324  0.3217
10112SOL    HW231778   0.342   4.285   5.611  0.0499 -0.9274  0.0482
10113SOL     OW31779   4.778   7.588   3.046  0.3014  0.2654 -0.3483
10113SOL    HW131780   4.700   7.572   2.994 -0.6507 -0.7206  1.2985
10113SOL    HW231781   4.748   7.583   3.137  2.1262  0.6895  0.3261
10114SOL     OW31782   6.039   0.956   6.988  0.0551  0.0893 -0.0858
10114SOL    HW131783   5.963   0.943   6.930  0.2848  0.7105 -0.5403
10114SOL    HW231784   6.039   0.879   7.045 -0.0469 -0.6557 -1.0634
10115SOL     OW31785   6.760   4.685   1.406 -0.2894  0.2616 -0.2550
10115SOL    HW131786   6.700   4.633   1.352 -0.0903 -0.1034 -0.1319
10115SOL    HW231787   6.720   4.771   1.411 -0.0570  0.4640 -1.4230
10116SOL     OW31788   5.526   4.635   5.261  0.5860 -0.4912  0.1556
10116SOL    HW131789   5.438   4.635   5.299  0.3190 -0.7556 -0.4587
10116SOL    HW231790   5.519   4.694   5.186  0.3953 -2.0555 -1.1019
10117SOL     OW31791   4.743   4.092  10.730  0.1314 -0.3279  0.0109
10117SOL    HW131792   4.776   4.138  10.653  1.3441  1.2580  1.3788
10117SOL    HW231793   4.653   4.124  10.741  0.0803 -0.2857 -0.5413
10118SOL     OW31794   5.261   1.911  10.878  0.4217 -0.0021 -0.1921
10118SOL    HW131795   5.334   1.940  10.932  0.0039 -0.0737  0.4277
10118SOL    HW231796   5.197   1.983  10.884  1.0212  0.7110 -1.9056
10119SOL     OW31797   1.760   6.260  12.386 -0.0950 -0.5126 -0.3986
10119SOL    HW131798   1.770   6.213  12.303  0.8383 -0.0884 -0.5393
10119SOL    HW231799   1.728   6.194  12.447 -1.1772 -0.7425 -1.1797
10120SOL     OW31800   7.815   6.430   9.418 -0.2250 -0.4981 -0.0079
10120SOL    HW131801   7.741   6.449   9.361 -1.7575 -0.3512  1.9358
10120SOL    HW231802   7.883   6.493   9.391 -0.9942 -0.2287 -1.4163
10121SOL     OW31803   3.366   1.568   1.698 -0.7496 -0.0620  0.4734
10121SOL    HW131804   3.354   1.488   1.750 -1.6349 -0.5334 -0.4333
10121SOL    HW231805   3.332   1.546   1.611  0.7442  0.6969 -0.3503
10122SOL     OW31806   7.914   3.477   3.883 -0.3290  0.0152  0.1905
10122SOL    HW131807   7.975   3.513   3.819 -0.5464 -0.7305 -0.4470
10122SOL    HW231808   7.848   3.546   3.895 -1.0138 -0.3190 -1.3739
10123SOL     OW31809   5.038   4.283   7.323  0.1072 -0.1388 -0.1790
10123SOL    HW131810   5.115   4.332   7.354  0.3000  0.4445 -1.5221
10123SOL    HW231811   4.968   4.347   7.321 -0.3384 -0.5754  0.6374
10124SOL     OW31812   5.790   5.113   3.818  0.0889 -0.2601  0.2605
10124SOL    HW131813   5.746   5.033   3.848  0.4745 -0.4487  0.3216
10124SOL    HW231814   5.772   5.117   3.724 -2.4030  1.1155  0.7099
10125SOL     OW31815   0.047   2.485   4.458  0.0490  0.2630 -0.3596
10125SOL    HW131816  -0.027   2.441   4.499 -0.0675 -0.7225 -1.5720
10125SOL    HW231817   0.121   2.466   4.516 -0.3527 -0.0013  0.0706
10126SOL     OW31818   0.392   2.262   5.408 -0.0948 -0.2131 -0.7471
10126SOL    HW131819   0.409   2.174   5.376  0.7985 -0.4703  0.3933
10126SOL    HW231820   0.460   2.316   5.367 -0.8014  0.0090 -1.6539
10127SOL     OW31821   6.513   6.963   0.081 -0.7998 -0.0995  0.2407
10127SOL    HW131822   6.576   6.901   0.118  0.2129  0.0932 -1.0806
10127SOL    HW231823   6.509   6.940  -0.012 -2.7509 -0.1479  0.2984
10128SOL     OW31824   4.835   0.997  10.125  0.4503 -0.1516 -0.2138
10128SOL    HW131825   4.917   1.031  10.088  2.3099 -1.9695  1.9107
10128SOL    HW231826   4.845   0.902  10.122 -1.7213 -0.4235 -0.0954
10129SOL     OW31827   4.867   1.710   3.886  0.6320 -0.8773  0.4005
10129SOL    HW131828   4.844   1.713   3.793 -0.5744 -0.3725  0.6970
10129SOL    HW231829   4.955   1.673   3.888  1.6517  1.2569 -1.1204
10130SOL     OW31830   3.490   4.511   4.143  0.2129  0.3991  0.0091
10130SOL    HW131831   3.487   4.416   4.154  1.0962  0.3921  0.2398
10130SOL    HW231832   3.577   4.528   4.108 -0.0161  1.1083 -0.2255
10131SOL     OW31833   6.627   7.902   2.469  0.3909  0.0397 -0.1399
10131SOL    HW131834   6.545   7.909   2.420  0.4766 -0.0796 -0.3013
10131SOL    HW231835   6.629   7.981   2.523 -0.0064 -0.1398  0.1351
10132SOL     OW31836   1.315   6.871   6.238 -0.5922 -0.1014 -0.1802
10132SOL    HW131837   1.322   6.960   6.204 -0.6213 -0.1849 -0.4121
10132SOL    HW231838   1.301   6.881   6.332  0.7671  0.1226  0.0237
10133SOL     OW31839   3.751   6.818   1.554 -0.3710  0.2795  0.5440
10133SOL    HW131840   3.721   6.898   1.510 -0.4413  0.5043  1.0022
10133SOL    HW231841   3.841   6.807   1.523 -0.4660  0.3554  0.2281
10134SOL     OW31842   3.766   2.382   2.679 -0.2569  0.7372 -0.3972
10134SOL    HW131843   3.726   2.421   2.602 -0.1014  0.6419 -0.5263
10134SOL    HW231844   3.837   2.441   2.703 -0.5091  0.9336 -0.1364
10135SOL     OW31845   4.224   0.681   2.373 -0.2091  0.0878  0.3462
10135SOL    HW131846   4.264   0.635   2.447  0.9094 -1.0911 -0.9076
10135SOL    HW231847   4.268   0.766   2.371  1.6740 -0.8249 -0.4248
10136SOL     OW31848   0.123   4.076   6.676  0.2624  0.0010  0.3126
10136SOL    HW131849   0.039   4.117   6.699  0.5037  1.0070 -0.4906
10136SOL    HW231850   0.189   4.127   6.723  0.4428 -0.7415  0.8834
10137SOL     OW31851   2.727   4.157  10.009  0.7522 -0.1782 -0.0063
10137SOL    HW131852   2.809   4.206  10.012  0.4964  0.2084  0.7521
10137SOL    HW231853   2.709   4.147   9.915  1.1486  0.6018 -0.1739
10138SOL     OW31854   1.904   2.887   4.960  0.9872 -0.1956  0.0829
10138SOL    HW131855   1.922   2.950   4.890  0.2200 -1.9977 -1.8813
10138SOL    HW231856   1.980   2.893   5.018  2.3545  0.4363 -1.6749
10139SOL     OW31857   6.724   6.400   4.503 -0.1574 -0.2332 -0.1138
10139SOL    HW131858   6.654   6.375   4.442 -0.3638  0.3695 -0.1355
10139SOL    HW231859   6.687   6.385   4.590 -0.6965  1.0234 -0.1035
10140SOL     OW31860   6.848   5.969   1.529  0.4420  0.2906  0.4805
10140SOL    HW131861   6.932   5.991   1.489  0.0960  0.5463 -0.1226
10140SOL    HW231862   6.835   5.877   1.508  0.7329  0.1563  0.8780
10141SOL     OW31863   5.071   7.190   5.928  0.0308 -0.0078 -0.7390
10141SOL    HW131864   5.141   7.243   5.967  0.4078 -1.2415  0.3460
10141SOL    HW231865   5.117   7.130   5.868 -0.4915  1.5141 -2.7638
10142SOL     OW31866   0.119   7.377   3.614  0.8617  0.4637  0.0631
10142SOL    HW131867   0.167   7.381   3.697 -0.8483  1.4038  1.0503
10142SOL    HW231868   0.028   7.390   3.638  0.0398 -1.3698 -1.7501
10143SOL     OW31869   5.099   0.886   1.217  0.0970 -0.0957  0.5655
10143SOL    HW131870   5.176   0.941   1.227 -1.4511  2.4822 -0.6586
10143SOL    HW231871   5.043   0.909   1.291 -0.8265  0.5203 -0.2911
10144SOL     OW31872   4.712   1.630  12.334 -0.4628  0.2912  0.7178
10144SOL    HW131873   4.781   1.654  12.271 -2.2452  1.5677 -0.8746
10144SOL    HW231874   4.672   1.714  12.358 -2.6073 -0.4960  0.1656
10145SOL     OW31875   3.477   7.677  11.899  0.2942  0.0693 -0.0096
10145SOL    HW131876   3.499   7.737  11.828 -2.6173 -1.6912 -2.6681
10145SOL    HW231877   3.401   7.716  11.942  0.1658 -0.3266  0.1282
10146SOL     OW31878   6.379   0.214   0.765  0.6810  0.0723 -0.5168
10146SOL    HW131879   6.439   0.284   0.737  1.6969 -0.0211  1.2632
10146SOL    HW231880   6.321   0.257   0.828 -0.5503 -0.0661 -1.5303
10147SOL     OW31881   6.327   0.869  11.047  0.3291  0.4505  0.3646
10147SOL    HW131882   6.313   0.955  11.008 -0.9832  0.0980  0.0075
10147SOL    HW231883   6.419   0.869  11.073  0.0689  2.3966  1.4785
10148SOL     OW31884   1.853   7.637  10.011 -0.1388  0.5219  0.2043
10148SOL    HW131885   1.824   7.568   9.951 -0.5277  0.5958  0.3085
10148SOL    HW231886   1.948   7.637  10.003 -0.0511 -0.7149  0.9456
10149SOL     OW31887   1.765   5.618   4.373 -0.8337  0.4164  0.2749
10149SOL    HW131888   1.784   5.604   4.280 -1.6578 -1.0913  0.2914
10149SOL    HW231889   1.670   5.632   4.376 -1.0479 -1.0076  1.0020
10150SOL     OW31890   3.081   6.265   1.482  0.3807 -0.3624  0.0811
10150SOL    HW131891   3.114   6.180   1.454  1.0368 -0.1059  0.0619
10150SOL    HW231892   3.020   6.245   1.553 -1.5515 -1.0517 -1.6719
10151SOL     OW31893   6.750   0.493   1.417 -0.4575 -0.1800 -0.2309
10151SOL    HW131894   6.779   0.576   1.380 -1.5496 -0.6167 -2.2098
10151SOL    HW231895   6.675   0.516   1.472 -0.4071  0.1898 -0.3166
10152SOL     OW31896   5.901   1.858   3.962 -0.3476 -0.4938 -0.0764
10152SOL    HW131897   5.967   1.847   4.030  0.3262 -2.4926 -1.0006
10152SOL    HW231898   5.947   1.905   3.892 -0.5021 -0.1196  0.0674
10153SOL     OW31899   4.384   1.526   5.735  0.0235  0.0624 -0.0197
10153SOL    HW131900   4.434   1.607   5.722  0.1312 -0.1357 -0.8915
10153SOL    HW231901   4.347   1.506   5.649  1.2514 -1.6262 -0.2272
10154SOL     OW31902   1.607   6.204   4.072  0.5031 -0.3077 -0.3225
10154SOL    HW131903   1.693   6.217   4.112 -0.4547 -0.3783  1.9193
10154SOL    HW231904   1.619   6.131   4.012  1.7001 -1.3261  1.0809
10155SOL     OW31905   4.063   2.388   1.948  0.0870 -0.1754 -0.2480
10155SOL    HW131906   4.155   2.378   1.922  0.0992  3.3901 -2.2129
10155SOL    HW231907   4.067   2.434   2.032  0.0909 -0.2604 -0.2016
10156SOL     OW31908   1.959   3.671   4.575 -0.3731 -0.1114  0.0108
10156SOL    HW131909   2.027   3.667   4.508 -1.1397  2.6290 -1.0525
10156SOL    HW231910   2.001   3.716   4.649  0.3083 -2.6583  1.3111
10157SOL     OW31911   1.014   2.317   0.467 -0.0918 -0.1788 -0.3435
10157SOL    HW131912   1.064   2.361   0.398  1.4871 -1.7171 -0.2570
10157SOL    HW231913   1.075   2.313   0.541 -0.0551 -2.6031 -0.4230
10158SOL     OW31914   1.433   4.578   0.633 -0.2192  0.0314  0.1902
10158SOL    HW131915   1.495   4.626   0.689 -0.5791 -0.7295  1.2804
10158SOL    HW231916   1.486   4.508   0.595 -0.5349 -1.1340  1.7807
10159SOL     OW31917   7.715   5.234   1.375  0.1132  0.0728  0.2779
10159SOL    HW131918   7.759   5.250   1.292  0.0302  0.4186  0.3004
10159SOL    HW231919   7.696   5.321   1.409  1.2901 -0.0186  1.2696
10160SOL     OW31920   2.272   2.181  11.835  0.0858 -0.3156  0.1091
10160SOL    HW131921   2.301   2.096  11.800  0.6688 -0.1914  0.2711
10160SOL    HW231922   2.275   2.169  11.930  0.9294  0.1203  0.1505
10161SOL     OW31923   6.954   3.857   9.705 -0.3966 -0.3989 -0.2744
10161SOL    HW131924   6.868   3.821   9.726 -1.3497  1.4155 -0.7909
10161SOL    HW231925   7.013   3.782   9.707 -1.9408 -1.6594  0.3274
10162SOL     OW31926   5.366   1.972   2.121  0.6053 -0.6241 -0.5280
10162SOL    HW131927   5.381   1.882   2.149  0.9121 -0.9201 -1.6084
10162SOL    HW231928   5.402   1.976   2.033 -2.8100 -0.5282 -2.0677
10163SOL     OW31929   4.018   5.870   2.075 -0.1217  0.2465  0.4971
10163SOL    HW131930   3.970   5.951   2.056 -1.3156 -0.5367  0.0794
10163SOL    HW231931   3.953   5.801   2.066  0.9558 -0.8003  0.5243
10164SOL     OW31932   0.220   7.855   1.194 -0.0299  0.4200  0.1479
10164SOL    HW131933   0.197   7.772   1.235 -0.1135  0.6524  0.5744
10164SOL    HW231934   0.242   7.832   1.103 -2.1247  0.2137 -0.3613
10165SOL     OW31935   3.517   5.243   0.989 -0.0432  0.6519  0.2780
10165SOL    HW131936   3.580   5.283   1.050  0.7429 -2.6173  1.8213
10165SOL    HW231937   3.464   5.317   0.959  1.7531  2.9471  2.2483
10166SOL     OW31938   6.248   3.937   2.732  0.2231 -0.2493  0.1691
10166SOL    HW131939   6.283   3.849   2.742 -0.6939 -0.3937  3.1256
10166SOL    HW231940   6.200   3.936   2.650  2.9573 -1.4481 -1.5619
10167SOL     OW31941   5.980   7.092   5.152  0.2748  0.3034 -0.4017
10167SOL    HW131942   6.049   7.069   5.090  1.5636 -1.8013  1.6477
10167SOL    HW231943   5.954   7.181   5.128  3.2818  0.9572 -1.6295
10168SOL     OW31944   6.380   1.720   1.751 -0.4050  0.2417  0.6751
10168SOL    HW131945   6.312   1.775   1.789 -0.7545  1.0682 -1.0451
10168SOL    HW231946   6.344   1.690   1.668  1.5272  1.2489 -0.6163
10169SOL     OW31947   2.178   4.723  10.410 -0.0780 -0.0643  0.1971
10169SOL    HW131948   2.161   4.814  10.431 -0.9882 -0.4814  1.4106
10169SOL    HW231949   2.226   4.689  10.485 -1.1984 -0.9789  0.5375
10170SOL     OW31950   5.957   2.246   5.424 -0.1224  0.0608 -0.0257
10170SOL    HW131951   5.863   2.244   5.445  0.0361 -0.2510  0.7106
10170SOL    HW231952   5.975   2.160   5.387 -0.2600  0.3614 -0.7957
10171SOL     OW31953   1.862   0.804   1.571  0.6162  0.0076  0.4130
10171SOL    HW131954   1.850   0.857   1.650  0.9815  1.3610 -0.3971
10171SOL    HW231955   1.774   0.793   1.536  0.4533 -0.5868  0.9919
10172SOL     OW31956   4.821   5.114   6.042 -0.2206  0.0485  0.3586
10172SOL    HW131957   4.914   5.121   6.064 -0.0859 -0.7891  0.1075
10172SOL    HW231958   4.820   5.078   5.953 -0.7746  2.2337 -0.5907
10173SOL     OW31959   6.060   2.657   8.896  0.2715  0.7066  0.0006
10173SOL    HW131960   6.137   2.605   8.916  0.6013  1.4511  0.7445
10173SOL    HW231961   6.002   2.642   8.971 -0.8826 -0.8582 -1.1369
10174SOL     OW31962   7.293   4.371  10.427  0.0257 -0.3118 -0.1816
10174SOL    HW131963   7.281   4.353  10.334  0.4968 -2.9468  0.1763
10174SOL    HW231964   7.384   4.400  10.434  0.7312 -2.2990 -0.3646
10175SOL     OW31965   6.519   1.302   2.520 -0.0286 -0.1225  0.5024
10175SOL    HW131966   6.565   1.222   2.547  1.0516  0.2712 -0.0938
10175SOL    HW231967   6.437   1.270   2.483  1.2860 -1.1681 -1.7075
10176SOL     OW31968   2.038   0.316  11.133  0.4698  0.0517 -0.3147
10176SOL    HW131969   2.000   0.395  11.173  1.3966  0.9257 -1.1284
10176SOL    HW231970   2.109   0.292  11.192  1.0510  0.6266 -0.7655
10177SOL     OW31971   7.116   3.842   5.729 -0.3013 -0.0884  0.1910
10177SOL    HW131972   7.178   3.782   5.688 -0.6030 -0.2764 -0.0022
10177SOL    HW231973   7.133   3.835   5.823 -0.5974 -0.7870  0.2039
10178SOL     OW31974   4.916   0.273   4.395  0.2342 -0.2333  0.0402
10178SOL    HW131975   4.852   0.344   4.404 -0.0687 -0.4286 -0.4857
10178SOL    HW231976   4.961   0.292   4.312 -0.8008 -1.3905 -0.8261
10179SOL     OW31977   5.349   2.319  10.229  0.6206 -0.1889 -0.6889
10179SOL    HW131978   5.365   2.232  10.263  0.4670 -0.6164 -1.6649
10179SOL    HW231979   5.280   2.307  10.164  0.1954  0.7506 -0.4304
10180SOL     OW31980   3.831   6.778   9.172  0.0738  0.2437 -0.9618
10180SOL    HW131981   3.793   6.835   9.239  1.1939 -1.2232  1.0412
10180SOL    HW231982   3.844   6.835   9.096 -2.1852  1.7382 -0.3277
10181SOL     OW31983   7.039   6.421   6.952 -0.0997  0.1346 -0.3621
10181SOL    HW131984   6.986   6.389   7.026 -0.5071 -1.2138 -1.2011
10181SOL    HW231985   7.024   6.515   6.952 -0.8437  0.0442  0.7021
10182SOL     OW31986   3.683   1.346   3.906  0.2482  0.5904 -0.4295
10182SOL    HW131987   3.644   1.261   3.925  1.1461  0.2108 -0.2753
10182SOL    HW231988   3.769   1.344   3.948  1.1229  0.7919 -2.1467
10183SOL     OW31989   4.534   0.598   7.391  0.3457  0.8691  0.2795
10183SOL    HW131990   4.447   0.594   7.353  0.6988  1.6537 -0.6479
10183SOL    HW231991   4.579   0.521   7.356 -0.1179  0.1699  1.1781
10184SOL     OW31992   5.610   1.527   7.352 -0.0415  0.2570 -0.0897
10184SOL    HW131993   5.539   1.548   7.291 -1.2226 -2.6869  0.0776
10184SOL    HW231994   5.565   1.508   7.435  0.9891 -0.9297  0.2284
10185SOL     OW31995   7.187   6.571   3.986 -0.2081  0.1252 -0.0672
10185SOL    HW131996   7.138   6.498   4.024  1.3642 -0.2999  1.2785
10185SOL    HW231997   7.146   6.649   4.023  0.7192 -0.2558  1.9149
10186SOL     OW31998   0.623   1.139   5.873  0.4923 -0.5027  0.1827
10186SOL    HW131999   0.697   1.133   5.813  0.1077  0.3356 -0.3901
10186SOL    HW232000   0.618   1.232   5.896 -0.1807 -0.6026  0.4632
10187SOL     OW32001   5.272   0.662   1.156  1.0704  0.3785  0.8064
10187SOL    HW132002   5.203   0.717   1.191  0.1330  0.2297 -0.7290
10187SOL    HW232003   5.283   0.593   1.222  0.7615  1.1816  1.7249
10188SOL     OW32004   5.349   4.815   3.732  0.5252  0.0954  0.4467
10188SOL    HW132005   5.260   4.781   3.720  0.2799  0.6803  0.5977
10188SOL    HW232006   5.402   4.737   3.749  0.4236 -0.5143 -1.7185
10189SOL     OW32007   2.130   3.269   8.237  0.2452 -0.0900 -0.0631
10189SOL    HW132008   2.116   3.361   8.259  2.5604  0.7840 -1.7852
10189SOL    HW232009   2.121   3.265   8.142 -1.1663 -1.9673  0.0988
10190SOL     OW32010   5.193   4.654   8.294 -0.1570  0.1086 -0.7375
10190SOL    HW132011   5.141   4.594   8.240  1.1469 -0.3518 -1.5190
10190SOL    HW232012   5.259   4.598   8.335  0.4026  0.8449 -0.6143
10191SOL     OW32013   4.218   1.255  10.271  0.5591 -0.3295 -0.2379
10191SOL    HW132014   4.270   1.179  10.297  1.9084  0.5991 -0.0646
10191SOL    HW232015   4.128   1.225  10.272  1.1359 -2.2521 -1.3295
10192SOL     OW32016   0.405   0.876   6.258  0.1772 -0.1665  0.2889
10192SOL    HW132017   0.334   0.852   6.199  1.9263 -2.2245 -1.1798
10192SOL    HW232018   0.421   0.969   6.240 -1.0461 -0.0912 -0.5402
10193SOL     OW32019   1.324   3.289   1.046  0.6996  0.0135  0.6008
10193SOL    HW132020   1.234   3.269   1.071  0.3774 -0.5721 -0.9105
10193SOL    HW232021   1.320   3.376   1.007  0.7267 -0.1563  0.2173
10194SOL     OW32022   7.025   2.424   1.876 -0.4048  0.1074  0.4285
10194SOL    HW132023   6.993   2.514   1.876 -0.5606  0.0571 -0.1001
10194SOL    HW232024   7.121   2.432   1.873 -0.4204  0.2928 -2.2151
10195SOL     OW32025   0.976   1.742   3.619 -0.6315 -0.7212  0.2656
10195SOL    HW132026   1.023   1.663   3.592 -0.9699 -1.8919  2.9251
10195SOL    HW232027   1.045   1.799   3.654 -0.7303 -0.9612  0.8536
10196SOL     OW32028   5.078   3.063   9.941  0.0002  0.1648  0.3792
10196SOL    HW132029   5.121   2.995   9.889  0.5872 -0.3836  1.5381
10196SOL    HW232030   5.148   3.122   9.967 -0.2079  0.1814  0.9190
10197SOL     OW32031   4.528   3.437   6.047  0.1660  0.3765  0.1409
10197SOL    HW132032   4.441   3.419   6.011  0.6651  1.4336 -1.6950
10197SOL    HW232033   4.555   3.518   6.004  1.9266  0.2591  0.9557
10198SOL     OW32034   7.307   6.843  10.368  0.6000  0.2639 -0.5694
10198SOL    HW132035   7.288   6.750  10.380  0.3172  0.4619  0.7552
10198SOL    HW232036   7.356   6.848  10.286 -0.0146 -0.9602 -1.0344
10199SOL     OW32037   5.656   0.600  10.202 -0.4381  0.8154 -0.3089
10199SOL    HW132038   5.587   0.574  10.263  0.6749  0.6206  0.9264
10199SOL    HW232039   5.676   0.691  10.226  0.5990  0.4671  0.2509
10200SOL     OW32040   4.289   2.744   6.780 -0.6342  0.3965  0.3259
10200SOL    HW132041   4.195   2.722   6.781 -1.0039  1.7990  1.7814
10200SOL    HW232042   4.314   2.740   6.688 -1.9689 -0.5883 -0.0309
10201SOL     OW32043   5.373   0.790   2.216 -0.1644 -0.4755 -0.0568
10201SOL    HW132044   5.375   0.874   2.262  0.8845 -0.7733  0.4674
10201SOL    HW232045   5.366   0.814   2.123  1.7548  0.2718 -0.0481
10202SOL     OW32046   6.632   4.861   4.778  0.4274  0.0769  0.0700
10202SOL    HW132047   6.643   4.920   4.854 -0.5443  0.2791  0.0646
10202SOL    HW232048   6.676   4.781   4.804 -1.0876 -0.3628  1.4510
10203SOL     OW32049   6.335   5.226   5.788 -0.3977 -0.5622  0.2618
10203SOL    HW132050   6.324   5.290   5.718  1.3989 -0.3545  0.1207
10203SOL    HW232051   6.429   5.206   5.788 -0.3723 -0.7461  2.4441
10204SOL     OW32052   4.575   7.897   2.021 -0.3958  0.2355 -0.0793
10204SOL    HW132053   4.563   7.874   2.113  1.6082 -0.8856 -0.0381
10204SOL    HW232054   4.586   7.992   2.021  0.3642  0.1590  0.9392
10205SOL     OW32055   0.860   4.797   5.241 -0.7266  0.4559 -0.4455
10205SOL    HW132056   0.862   4.701   5.240 -0.4247  0.4046  1.6340
10205SOL    HW232057   0.944   4.822   5.280 -1.3866  1.5157  0.3408
10206SOL     OW32058   6.742   4.867   7.052  0.4550 -0.1424 -0.2813
10206SOL    HW132059   6.773   4.942   7.103  0.7152 -1.1499  1.1126
10206SOL    HW232060   6.809   4.800   7.066 -0.2222 -0.9329 -0.7579
10207SOL     OW32061   6.348   2.037   0.185 -0.7476 -0.5076 -0.0478
10207SOL    HW132062   6.365   2.090   0.107  1.3646 -1.4553 -0.3267
10207SOL    HW232063   6.358   2.097   0.258 -0.4025 -0.0767 -0.4438
10208SOL     OW32064   7.227   1.799   5.607  0.2164 -0.3797  0.1220
10208SOL    HW132065   7.193   1.710   5.621  0.7176 -0.5840  0.0799
10208SOL    HW232066   7.318   1.785   5.582 -0.1433  0.0639 -1.5543
10209SOL     OW32067   5.660   6.097   6.047  0.4930 -0.2028 -0.4852
10209SOL    HW132068   5.608   6.049   5.982 -1.5308  1.7412 -0.4091
10209SOL    HW232069   5.740   6.121   6.001 -0.4810  0.2930 -1.9762
10210SOL     OW32070   3.597   1.883  10.541  0.5431  0.2366  0.0522
10210SOL    HW132071   3.589   1.858  10.449  1.4836 -1.3010  0.3415
10210SOL    HW232072   3.589   1.978  10.542  0.1419  0.2338 -1.5710
10211SOL     OW32073   5.048   2.851   6.975 -0.9941  0.4368 -0.1427
10211SOL    HW132074   4.997   2.931   6.961  0.7929  1.2308 -2.7874
10211SOL    HW232075   5.118   2.856   6.910 -0.9601 -3.4382 -0.5834
10212SOL     OW32076   3.318   6.902   7.783  0.5510  0.4495  0.1168
10212SOL    HW132077   3.223   6.904   7.774  0.6196  1.0213 -0.5837
10212SOL    HW232078   3.339   6.809   7.793 -0.0696  0.3070  0.1363
10213SOL     OW32079   7.913   1.395   2.993  0.6289 -0.0684  0.3790
10213SOL    HW132080   7.960   1.340   2.930  1.3500 -0.4502  1.2339
10213SOL    HW232081   7.881   1.334   3.059 -0.7879  0.2286  0.0118
10214SOL     OW32082   3.651   4.875   4.620  0.5489  0.3828 -0.0349
10214SOL    HW132083   3.570   4.922   4.643  2.1471  3.5307 -0.2587
10214SOL    HW232084   3.661   4.810   4.689 -1.1663  1.2278  1.0908
10215SOL     OW32085   0.698   4.754   2.565 -0.9684  0.3475  0.2640
10215SOL    HW132086   0.631   4.810   2.526 -0.5466 -0.2820 -1.4239
10215SOL    HW232087   0.780   4.785   2.528 -0.5103 -0.0428  0.9352
10216SOL     OW32088   7.286   2.399  12.353  0.0244 -0.5658 -0.2309
10216SOL    HW132089   7.339   2.376  12.429  0.9767  0.7209 -0.4721
10216SOL    HW232090   7.350   2.421  12.285 -0.6584 -4.2254 -2.3551
10217SOL     OW32091   7.085   4.089   0.149 -0.1681  0.8147 -0.0708
10217SOL    HW132092   7.160   4.067   0.095 -0.7485 -0.4287 -0.3988
10217SOL    HW232093   7.074   4.015   0.209 -1.9067  0.3231 -0.9158
10218SOL     OW32094   4.762   6.026   9.401  0.1536  0.7816 -0.4481
10218SOL    HW132095   4.833   6.026   9.337  0.9376 -3.9832  0.0358
10218SOL    HW232096   4.682   6.015   9.349  0.2944  1.3053 -0.7759
10219SOL     OW32097   1.485   2.565   1.320 -0.2941  0.1744 -0.0284
10219SOL    HW132098   1.400   2.606   1.338 -0.7790 -0.5370 -0.6237
10219SOL    HW232099   1.482   2.546   1.226  0.5944  0.2859 -0.0820
10220SOL     OW32100   1.178   3.587   3.955 -0.1886  0.5939  0.0528
10220SOL    HW132101   1.247   3.531   3.991  1.0318  1.9182 -0.1391
10220SOL    HW232102   1.167   3.557   3.864  2.8987  2.7538 -1.1790
10221SOL     OW32103   5.845   5.220   0.373  0.6872  0.2633  0.2636
10221SOL    HW132104   5.849   5.197   0.466  1.3144  0.2682  0.2415
10221SOL    HW232105   5.930   5.261   0.354 -0.3087  2.4676  0.2526
10222SOL     OW32106   1.736   2.158   8.535 -0.4687  0.2808 -0.0844
10222SOL    HW132107   1.659   2.139   8.480 -1.1332  0.9653  0.5897
10222SOL    HW232108   1.811   2.141   8.478 -1.1151 -0.3655 -0.7671
10223SOL     OW32109   5.267   6.960  11.923 -0.1099  0.3337  0.2519
10223SOL    HW132110   5.342   7.011  11.893 -0.8956  0.5808 -1.4212
10223SOL    HW232111   5.221   6.935  11.842 -1.7171  0.0163  1.2167
10224SOL     OW32112   2.545   4.060   2.820 -0.1387  0.1607  0.2141
10224SOL    HW132113   2.572   4.116   2.747  0.1893  0.1428  0.3186
10224SOL    HW232114   2.568   3.971   2.792  3.9753  0.4530  1.9852
10225SOL     OW32115   3.683   7.851   8.639  0.3534  0.0685  0.4758
10225SOL    HW132116   3.678   7.809   8.553  0.9717 -1.4227  1.1336
10225SOL    HW232117   3.593   7.851   8.671  0.0662  0.9129 -0.2734
10226SOL     OW32118   2.664   7.883   7.320  1.1420 -0.1936  0.1171
10226SOL    HW132119   2.706   7.928   7.393 -0.0012 -1.4479  1.6004
10226SOL    HW232120   2.724   7.896   7.246  1.0851  3.4032  0.5000
10227SOL     OW32121   7.077   6.760   4.212  0.0088 -0.3116  0.0137
10227SOL    HW132122   7.072   6.665   4.203  0.7979 -0.4706  1.0826
10227SOL    HW232123   7.048   6.777   4.302  2.2938  0.1795  0.7426
10228SOL     OW32124   2.111   3.150   1.207  0.1522  0.5899 -0.2618
10228SOL    HW132125   2.020   3.143   1.236  0.1130 -1.1959 -0.7181
10228SOL    HW232126   2.157   3.079   1.252  0.9416  0.3655 -1.3631
10229SOL     OW32127   0.822   1.926   1.955  0.5957 -0.1563  0.1269
10229SOL    HW132128   0.808   1.967   1.870 -1.9068  2.2663  1.5438
10229SOL    HW232129   0.908   1.957   1.983  1.2723 -0.6652 -1.3026
10230SOL     OW32130   2.546   0.044   6.853 -0.1828 -0.1105  0.7653
10230SOL    HW132131   2.499   0.002   6.925 -0.4072 -0.3708  0.4732
10230SOL    HW232132   2.481   0.102   6.813 -1.2918 -2.6869 -1.5413
10231SOL     OW32133   1.536   4.996   1.496 -0.6792 -0.1024  0.1593
10231SOL    HW132134   1.586   5.077   1.503  0.0264 -0.3226 -1.7468
10231SOL    HW232135   1.595   4.928   1.528  0.2803 -0.3340 -1.8992
10232SOL     OW32136   7.420   1.247   0.142  0.0269 -0.0595  0.0577
10232SOL    HW132137   7.345   1.195   0.171  1.3289 -3.1611 -1.6783
10232SOL    HW232138   7.471   1.262   0.222 -2.1234  1.7328  1.1897
10233SOL     OW32139   6.183   1.022   0.416  0.2258 -0.1132  0.0244
10233SOL    HW132140   6.119   1.026   0.487  0.8920  1.5730  0.5666
10233SOL    HW232141   6.138   1.061   0.341  0.2663  0.1125  0.1176
10234SOL     OW32142   2.162   3.629  12.047 -0.0058  0.1050  0.7077
10234SOL    HW132143   2.236   3.646  11.988 -0.8177 -0.1421 -0.4102
10234SOL    HW232144   2.194   3.561  12.106  1.2985  1.3311  1.5064
10235SOL     OW32145   5.845   3.515   2.165 -0.0297 -0.7737  0.5930
10235SOL    HW132146   5.908   3.448   2.190  3.0011  2.4954  2.7520
10235SOL    HW232147   5.882   3.555   2.086  0.8945  1.2583  1.9493
10236SOL     OW32148   2.817   0.427   6.591 -0.0284 -0.1535  0.8757
10236SOL    HW132149   2.785   0.515   6.570 -0.2173 -0.3085  0.5088
10236SOL    HW232150   2.748   0.389   6.646 -1.3207 -1.0961 -1.2568
10237SOL     OW32151   3.249   2.486   3.608  0.9455 -0.2223 -0.2362
10237SOL    HW132152   3.213   2.574   3.601  1.7636 -0.0339 -3.5587
10237SOL    HW232153   3.185   2.430   3.563  1.4876 -0.9662 -0.1078
10238SOL     OW32154   2.725   4.885  10.770 -0.2544  0.2785  0.2263
10238SOL    HW132155   2.646   4.915  10.726 -0.6515 -0.4112  0.4557
10238SOL    HW232156   2.794   4.942  10.736 -0.0778 -1.7144 -3.1304
10239SOL     OW32157   5.625   7.370   9.995 -0.4982  0.4122 -0.5588
10239SOL    HW132158   5.708   7.403   9.961  0.2595  0.8386  1.5689
10239SOL    HW232159   5.635   7.372  10.090 -2.2789 -1.3034 -0.2711
10240SOL     OW32160   4.396   0.442  11.180 -0.0452 -0.4123  0.4342
10240SOL    HW132161   4.392   0.537  11.194 -0.3644 -0.2329 -0.8238
10240SOL    HW232162   4.324   0.408  11.234 -1.4986  0.3032 -0.9797
10241SOL     OW32163   6.918   1.085  10.788  0.3159  0.0519  0.1312
10241SOL    HW132164   6.925   1.100  10.883  0.7725  0.2666  0.0658
10241SOL    HW232165   6.837   1.035  10.778 -0.5783  1.3805  0.4773
10242SOL     OW32166   4.820   7.771   1.457 -0.4811  0.5388  0.3853
10242SOL    HW132167   4.905   7.727   1.456 -0.3688  0.7265  1.1863
10242SOL    HW232168   4.792   7.767   1.548 -1.4648  0.2442  0.0745
10243SOL     OW32169   0.068   5.428   4.159  0.2874 -0.4722 -1.0734
10243SOL    HW132170   0.121   5.485   4.102  0.0890  0.6659 -0.1595
10243SOL    HW232171  -0.022   5.457   4.144  0.1531 -0.7729 -0.8482
10244SOL     OW32172   0.225   7.564   4.367  0.2919 -0.1913 -0.2409
10244SOL    HW132173   0.234   7.654   4.399 -2.0827  0.3810 -0.9504
10244SOL    HW232174   0.314   7.537   4.345  0.9705  2.3892 -1.0006
10245SOL     OW32175   2.504   3.290   7.900  0.1549 -0.1751  0.1779
10245SOL    HW132176   2.485   3.328   7.986  2.4543  0.5655  0.4129
10245SOL    HW232177   2.502   3.196   7.914 -2.1796 -0.1646  0.3725
10246SOL     OW32178   4.175   3.064   2.932 -0.2106  0.6407  0.3834
10246SOL    HW132179   4.225   3.107   3.001  1.5690 -1.5509  0.5989
10246SOL    HW232180   4.174   2.971   2.957  1.3835 -0.4569 -2.8949
10247SOL     OW32181   7.212   0.727  11.109  0.2890  0.0698  0.3978
10247SOL    HW132182   7.135   0.721  11.166  1.3438 -0.1854  1.8578
10247SOL    HW232183   7.259   0.805  11.141 -0.0575  1.0753 -1.4129
10248SOL     OW32184   0.979   6.779  11.611  0.4302 -0.5675  0.2906
10248SOL    HW132185   0.900   6.826  11.639 -0.4197 -1.8592  0.1314
10248SOL    HW232186   1.047   6.846  11.611 -0.7197  0.6527  0.1257
10249SOL     OW32187   0.665   7.001   3.226  0.0926 -0.3016  0.0486
10249SOL    HW132188   0.731   6.943   3.264  0.4712  0.0651 -0.0539
10249SOL    HW232189   0.598   6.942   3.193  0.0194 -0.6537  0.7923
10250SOL     OW32190   7.134   4.768   8.069  0.0431 -0.0602 -0.4733
10250SOL    HW132191   7.086   4.834   8.019  0.6320 -0.1022 -1.0935
10250SOL    HW232192   7.181   4.818   8.136 -0.2338  0.0562 -0.3646
10251SOL     OW32193   6.443   5.630  12.041  0.0846  0.0985  0.5250
10251SOL    HW132194   6.348   5.615  12.038  0.1961 -0.5354 -0.1144
10251SOL    HW232195   6.452   5.724  12.028 -0.3666 -0.1539 -2.2230
10252SOL     OW32196   7.430   1.901   7.818  0.4003 -0.2561  0.6280
10252SOL    HW132197   7.438   1.847   7.739  1.3775 -0.7917  1.0892
10252SOL    HW232198   7.515   1.944   7.827 -0.1118  0.7705  0.7063
10253SOL     OW32199   1.305   1.289   6.551  0.0578 -0.0460 -0.7831
10253SOL    HW132200   1.288   1.382   6.565 -0.7941 -0.1501 -1.0271
10253SOL    HW232201   1.232   1.245   6.596  0.3228 -0.5820 -0.8713
10254SOL     OW32202   2.532   3.412   6.257 -0.8041 -0.1170 -0.5184
10254SOL    HW132203   2.607   3.445   6.206 -1.9037  0.5247 -1.7986
10254SOL    HW232204   2.488   3.352   6.197 -0.8309 -1.1918  0.5456
10255SOL     OW32205   0.439   6.454   0.781 -0.0234  0.4090  0.1021
10255SOL    HW132206   0.501   6.476   0.851 -1.6612  0.6471  1.5367
10255SOL    HW232207   0.353   6.454   0.823 -1.0312  0.0632 -1.8175
10256SOL     OW32208   0.094   0.398   7.395 -0.2694 -0.1267 -0.0634
10256SOL    HW132209   0.148   0.321   7.411  0.3787  0.1210 -0.9390
10256SOL    HW232210   0.143   0.471   7.433  0.0470  0.1032 -0.8866
10257SOL     OW32211   6.973   5.665   9.306 -0.1998 -0.1864 -0.3263
10257SOL    HW132212   7.017   5.676   9.390  2.4906 -0.0598 -1.6383
10257SOL    HW232213   6.955   5.571   9.300  0.8320 -0.4071 -0.1531
10258SOL     OW32214   1.050   4.222  10.577  0.2310 -0.1628 -0.0115
10258SOL    HW132215   1.067   4.220  10.672  2.8354  0.2300 -0.3804
10258SOL    HW232216   1.032   4.314  10.558  0.0831 -0.1786  0.0519
10259SOL     OW32217   6.182   1.548   0.213  0.1211 -0.4972 -0.5784
10259SOL    HW132218   6.200   1.639   0.186 -0.8682  0.4156  1.5754
10259SOL    HW232219   6.267   1.507   0.216  0.5167  0.0696 -2.4450
10260SOL     OW32220   4.153   5.988   9.353  0.5101  0.5164  0.1302
10260SOL    HW132221   4.075   5.966   9.302  0.5404  0.3862  0.1389
10260SOL    HW232222   4.128   6.063   9.406  0.7072  1.1504 -0.6509
10261SOL     OW32223   7.677   5.373   4.935  0.7501  0.6737 -1.1230
10261SOL    HW132224   7.612   5.349   4.869 -0.4842  1.1624 -0.1447
10261SOL    HW232225   7.699   5.464   4.916  0.8586  0.6246 -1.2299
10262SOL     OW32226   5.157   7.624   5.595 -0.2830 -0.3430  1.1758
10262SOL    HW132227   5.123   7.688   5.532  3.3273  0.6681  0.0243
10262SOL    HW232228   5.093   7.552   5.593 -2.5807  1.5774 -0.2541
10263SOL     OW32229   4.488   7.414   6.156  0.3886  0.3165  0.2893
10263SOL    HW132230   4.418   7.478   6.145  1.9131  2.1704  0.8640
10263SOL    HW232231   4.564   7.456   6.117  1.3486 -1.3499  0.3155
10264SOL     OW32232   7.766   7.109   6.623 -0.3061 -0.3735 -0.3729
10264SOL    HW132233   7.837   7.045   6.614  1.5808  1.7068 -1.0776
10264SOL    HW232234   7.738   7.127   6.534  1.7428  2.3973 -0.5795
10265SOL     OW32235   4.979   2.430   0.579  0.3609  0.0568 -0.2399
10265SOL    HW132236   4.928   2.370   0.633  0.7590  0.1317  0.2301
10265SOL    HW232237   4.974   2.394   0.490 -0.0179 -0.2559 -0.0924
10266SOL     OW32238   0.257   2.385   8.502 -0.7383  0.3645 -0.7121
10266SOL    HW132239   0.298   2.335   8.431  0.8124 -0.8565  0.9371
10266SOL    HW232240   0.267   2.329   8.579 -0.0395  2.7080  0.9980
10267SOL     OW32241   0.837   3.748   2.776 -0.1880  0.1794 -0.1069
10267SOL    HW132242   0.918   3.752   2.726 -0.0337 -0.3615  0.0953
10267SOL    HW232243   0.864   3.724   2.865 -0.5370  0.3074  0.0348
10268SOL     OW32244   7.276   2.158  12.161  0.6859  0.6948  0.0671
10268SOL    HW132245   7.212   2.227  12.146 -0.2437  0.1856  1.5540
10268SOL    HW232246   7.323   2.151  12.078 -1.6216  0.6082 -1.3172
10269SOL     OW32247   7.005   6.385   1.048 -0.0114 -0.7318  0.0968
10269SOL    HW132248   7.004   6.422   0.960  0.0746 -1.6761 -0.3082
10269SOL    HW232249   6.936   6.319   1.047 -0.4768 -0.2786  0.9512
10270SOL     OW32250   3.350   1.614  10.263  0.2822 -0.2789  0.4909
10270SOL    HW132251   3.357   1.549  10.192 -1.2314 -0.5980  0.6042
10270SOL    HW232252   3.282   1.580  10.320  0.6606  0.5770  1.4877
10271SOL     OW32253   6.592   5.304   5.685  0.0640  0.0672  0.7053
10271SOL    HW132254   6.539   5.383   5.682  0.6311  0.4480  0.5294
10271SOL    HW232255   6.681   5.334   5.666  0.3259 -0.5734  0.8874
10272SOL     OW32256   0.495   1.552   4.755  0.2584  0.2356 -0.0946
10272SOL    HW132257   0.428   1.614   4.782  0.0303 -0.1520  0.2458
10272SOL    HW232258   0.519   1.506   4.836  0.2067 -0.3295 -0.3954
10273SOL     OW32259   7.307   7.055   8.948  0.0489 -0.0905  0.3026
10273SOL    HW132260   7.364   7.093   8.881 -0.0763 -1.4073 -0.5831
10273SOL    HW232261   7.329   7.104   9.028  0.8772  0.8672 -0.4783
10274SOL     OW32262   5.658   5.266   9.377  0.4654  0.7856  0.2480
10274SOL    HW132263   5.747   5.258   9.411  0.7075  0.6940 -0.3854
10274SOL    HW232264   5.636   5.177   9.348  0.5942  1.0284 -0.6169
10275SOL     OW32265   0.063   4.599   6.279 -0.4168  0.3215  0.6097
10275SOL    HW132266  -0.022   4.636   6.259 -0.3386  0.7082  0.9847
10275SOL    HW232267   0.105   4.663   6.337 -0.5467 -0.6491  1.8224
10276SOL     OW32268   2.360   2.624  12.361  0.1098 -0.0907  0.4556
10276SOL    HW132269   2.383   2.634  12.269 -0.8193 -1.4676  0.0413
10276SOL    HW232270   2.268   2.651  12.365 -0.5724 -2.2989  0.4914
10277SOL     OW32271   6.362   1.945   0.498  0.4486 -0.4231  0.1794
10277SOL    HW132272   6.325   2.032   0.482  0.9462 -0.2050  0.1930
10277SOL    HW232273   6.286   1.889   0.512  0.1634  0.3630  1.9825
10278SOL     OW32274   6.492   5.183   1.602 -0.5045  0.3679  0.3313
10278SOL    HW132275   6.530   5.202   1.516 -2.0945  0.9460 -0.2825
10278SOL    HW232276   6.399   5.167   1.584 -0.8068  0.1958  1.9112
10279SOL     OW32277   6.833   4.026   7.278  0.1490  0.0908 -0.3627
10279SOL    HW132278   6.864   4.106   7.321 -0.7253 -0.1034  0.6634
10279SOL    HW232279   6.837   3.959   7.347 -0.4990 -0.4129 -0.8100
10280SOL     OW32280   1.038   4.668   1.963  0.3409 -0.6313 -0.0161
10280SOL    HW132281   0.942   4.667   1.967  0.2999  0.0884 -0.7393
10280SOL    HW232282   1.064   4.740   2.021  0.4014 -0.1984 -0.5785
10281SOL     OW32283   5.135   1.575   8.087 -0.4078 -0.1265  0.1360
10281SOL    HW132284   5.075   1.520   8.137 -1.9124 -1.0568 -2.5075
10281SOL    HW232285   5.199   1.514   8.051  0.2784  0.4369  0.3730
10282SOL     OW32286   0.139   6.633   5.774 -0.0952  0.0149 -0.4043
10282SOL    HW132287   0.178   6.551   5.743  1.1798  0.1587  0.7401
10282SOL    HW232288   0.161   6.698   5.708  0.7972 -0.1111 -0.2370
10283SOL     OW32289   6.337   0.923   2.160  0.3864 -0.8852  0.1180
10283SOL    HW132290   6.426   0.941   2.191 -0.2385 -0.3804  1.7380
10283SOL    HW232291   6.302   1.010   2.139  0.1334 -1.0492 -0.1412
10284SOL     OW32292   3.310   5.224   3.440 -0.0829  0.2347 -0.0688
10284SOL    HW132293   3.219   5.220   3.471  0.0306  0.5367  0.3159
10284SOL    HW232294   3.354   5.282   3.503  0.8208 -1.3870  0.8657
10285SOL     OW32295   1.910   6.265  11.883 -0.3328  0.0471  0.3441
10285SOL    HW132296   1.944   6.177  11.898 -0.7793  0.3491  4.1093
10285SOL    HW232297   1.984   6.314  11.848  0.5249 -1.3351  0.1331
10286SOL     OW32298   5.927   0.833   8.377  0.5465 -0.6748  0.3484
10286SOL    HW132299   5.871   0.804   8.448 -1.8147 -0.3531 -1.2674
10286SOL    HW232300   5.984   0.759   8.359 -1.0134 -1.9597  0.4991
10287SOL     OW32301   7.541   4.602  10.637 -0.0319 -0.3391 -0.2557
10287SOL    HW132302   7.554   4.552  10.557  1.3040  0.2973 -0.4741
10287SOL    HW232303   7.455   4.641  10.628 -0.1380 -0.7452 -1.1111
10288SOL     OW32304   4.753   0.531   5.636  0.2497 -0.1093  0.5018
10288SOL    HW132305   4.661   0.554   5.651  0.5365  3.0425 -1.5653
10288SOL    HW232306   4.799   0.571   5.711  0.0828 -0.3140  0.7159
10289SOL     OW32307   6.827   5.710   5.074  0.5616  0.7890 -0.2965
10289SOL    HW132308   6.802   5.618   5.082  0.3927  0.7689 -0.9606
10289SOL    HW232309   6.896   5.722   5.139  1.5033 -0.1516 -1.0698
10290SOL     OW32310   2.754   4.409  10.303 -0.5237 -0.6908 -0.2596
10290SOL    HW132311   2.798   4.339  10.351 -0.1314  0.4288  1.0521
10290SOL    HW232312   2.806   4.420  10.224  0.6057 -0.4989  0.4952
10291SOL     OW32313   3.550   3.654   1.517 -0.1345  0.1013 -0.4859
10291SOL    HW132314   3.592   3.568   1.517  1.0803  0.6846 -1.0882
10291SOL    HW232315   3.579   3.694   1.599 -1.0389 -0.2017 -0.0004
10292SOL     OW32316   1.623   7.526   7.539 -0.2953 -0.2595  0.0892
10292SOL    HW132317   1.591   7.616   7.536 -0.8763 -0.4808 -1.1062
10292SOL    HW232318   1.658   7.510   7.451  2.4561 -0.2968  1.1048
10293SOL     OW32319   2.880   7.831   5.964 -0.2783 -0.8301  0.1084
10293SOL    HW132320   2.912   7.825   6.055  0.7765  0.2193 -0.1596
10293SOL    HW232321   2.797   7.784   5.965 -0.6241 -0.2747  1.7820
10294SOL     OW32322   2.762   5.932   3.989  0.2564  0.7886 -0.1244
10294SOL    HW132323   2.668   5.946   3.985  0.3201  1.5414  0.5765
10294SOL    HW232324   2.791   5.988   4.062  0.8996 -1.2549  1.2774
10295SOL     OW32325   1.785   0.397   9.212  0.2717  0.1971  0.0264
10295SOL    HW132326   1.740   0.478   9.188 -2.1020 -1.3827 -1.1395
10295SOL    HW232327   1.767   0.386   9.305  0.6395  0.9897  0.2033
10296SOL     OW32328   0.964   1.303   2.865 -0.3797 -0.0634  0.1967
10296SOL    HW132329   0.978   1.208   2.860  2.2260 -0.2062  4.5718
10296SOL    HW232330   1.047   1.341   2.835 -1.6471  1.0397 -2.2228
10297SOL     OW32331   7.739   5.471   2.192 -0.1980 -0.1482  0.2809
10297SOL    HW132332   7.692   5.531   2.133  1.0794  2.0886  1.3995
10297SOL    HW232333   7.686   5.392   2.193 -1.7256  0.7654 -1.6813
10298SOL     OW32334   1.170   5.002   9.965  0.0869 -0.2417 -0.3406
10298SOL    HW132335   1.210   5.028   9.882  2.4472  2.6897  1.4856
10298SOL    HW232336   1.201   4.913   9.980  2.4278  0.3716 -1.1263
10299SOL     OW32337   5.943   1.996   0.301  0.7907 -0.0088  0.3704
10299SOL    HW132338   5.975   2.043   0.378 -0.7922  1.8178 -0.0100
10299SOL    HW232339   5.856   1.964   0.326 -0.4486  1.9816 -1.0687
10300SOL     OW32340   0.199   7.886   0.901  0.0535 -0.2797 -0.5028
10300SOL    HW132341   0.269   7.821   0.898  0.8436  0.5803 -1.0781
10300SOL    HW232342   0.187   7.913   0.810 -0.8371 -0.2011 -0.3737
10301SOL     OW32343   6.053   0.410   0.158 -0.2631 -0.1056 -0.5914
10301SOL    HW132344   6.059   0.443   0.068 -1.0268 -0.9277 -0.9632
10301SOL    HW232345   6.137   0.365   0.172  0.3079  0.9604 -0.4884
10302SOL     OW32346   5.520   3.657   4.743 -0.6468  0.7275 -0.3625
10302SOL    HW132347   5.489   3.703   4.665 -3.5565 -0.4689 -0.0216
10302SOL    HW232348   5.523   3.725   4.811  1.9759  1.7926 -1.3993
10303SOL     OW32349   1.368   4.670   9.403  0.2497  0.5251  0.1434
10303SOL    HW132350   1.356   4.665   9.498 -0.1985 -1.3162  0.0375
10303SOL    HW232351   1.302   4.732   9.373 -1.7344 -1.1865  0.7533
10304SOL     OW32352   1.982   0.539   3.286  0.0149 -0.2538  0.1352
10304SOL    HW132353   2.057   0.563   3.232  1.9850 -2.2953  1.8190
10304SOL    HW232354   1.921   0.497   3.225  0.8753  0.1002 -1.0021
10305SOL     OW32355   0.737   7.022   7.643 -0.0168 -0.3710  0.0011
10305SOL    HW132356   0.783   7.097   7.681  0.4235 -0.2024 -0.8364
10305SOL    HW232357   0.684   7.060   7.573 -1.1574 -0.6147  0.7236
10306SOL     OW32358   4.409   5.492   2.874 -0.3295  0.2509  0.2538
10306SOL    HW132359   4.435   5.584   2.871 -0.3058  0.2898  1.2345
10306SOL    HW232360   4.448   5.458   2.955 -1.2545 -0.3342  0.4735
10307SOL     OW32361   6.554   2.472   0.617  0.5983 -0.3808 -0.3332
10307SOL    HW132362   6.610   2.549   0.620 -0.3209  0.3124 -0.5789
10307SOL    HW232363   6.614   2.398   0.625  1.5846  0.3247 -1.0887
10308SOL     OW32364   3.828   0.427   7.318 -0.0575 -0.2271  0.1897
10308SOL    HW132365   3.914   0.385   7.314  0.2844  0.5042 -0.3132
10308SOL    HW232366   3.787   0.407   7.234  1.3306  2.9367 -1.4090
10309SOL     OW32367   4.042   3.810   3.508 -0.2460  0.0898 -0.3264
10309SOL    HW132368   4.038   3.741   3.575  0.5978  0.6104  0.2834
10309SOL    HW232369   4.030   3.764   3.425 -1.1695 -0.5926  0.1646
10310SOL     OW32370   7.420   6.007   4.227 -0.2105 -0.0236  0.0780
10310SOL    HW132371   7.442   6.094   4.259 -0.2218 -0.4934  1.4525
10310SOL    HW232372   7.366   6.022   4.149  1.6982  1.1678 -1.1042
10311SOL     OW32373   0.156   4.520   0.627  0.2526 -0.1524  0.4300
10311SOL    HW132374   0.107   4.438   0.635  0.8395 -0.5328  0.2800
10311SOL    HW232375   0.220   4.516   0.698  2.2680 -1.2606 -1.3315
10312SOL     OW32376   1.443   4.656   7.971  0.3367  0.0159 -0.3881
10312SOL    HW132377   1.499   4.734   7.968  2.8935 -1.6360  0.8902
10312SOL    HW232378   1.453   4.615   7.885  2.3594 -1.0026  0.2666
10313SOL     OW32379   5.737   7.398  11.252  0.0844 -0.3152 -0.8153
10313SOL    HW132380   5.756   7.336  11.323 -0.7315 -0.3241 -0.5853
10313SOL    HW232381   5.652   7.370  11.218  1.6952 -2.1651 -3.8069
10314SOL     OW32382   0.878   3.545  11.462 -0.6236  0.4234  0.2885
10314SOL    HW132383   0.962   3.502  11.478 -1.6843 -2.6425 -1.5681
10314SOL    HW232384   0.901   3.634  11.436  2.2566 -0.8108 -1.9484
10315SOL     OW32385   4.435   3.681   4.960  0.3016  0.0029  0.1493
10315SOL    HW132386   4.429   3.742   4.887 -0.8549 -0.7071 -0.3648
10315SOL    HW232387   4.361   3.622   4.950 -0.1741  0.1690  2.1581
10316SOL     OW32388   7.692   7.701  11.785  0.7678 -0.6210  0.5637
10316SOL    HW132389   7.611   7.722  11.831  0.9954  2.5870 -0.2396
10316SOL    HW232390   7.737   7.639  11.843 -1.3056 -0.9003  2.0064
10317SOL     OW32391   2.307   7.050   7.184 -0.2121  0.1638 -0.0295
10317SOL    HW132392   2.239   7.115   7.166 -0.7287  0.0543  1.3933
10317SOL    HW232393   2.261   6.977   7.223  0.5762 -0.4163 -0.1568
10318SOL     OW32394   1.197   6.764  10.860  0.4277  0.2913 -0.2583
10318SOL    HW132395   1.138   6.838  10.869  0.0906 -0.1913  2.1472
10318SOL    HW232396   1.149   6.701  10.806  0.0069  1.0953 -0.8431
10319SOL     OW32397   5.883   2.489   9.348  0.3472  0.5637  0.6660
10319SOL    HW132398   5.796   2.458   9.374 -0.0911  0.3344 -0.9441
10319SOL    HW232399   5.943   2.421   9.378 -0.1920  0.0655  0.6341
10320SOL     OW32400   1.919   4.579   2.208 -0.1037  0.2493 -0.4724
10320SOL    HW132401   1.992   4.635   2.181  1.6030 -0.9385  1.3804
10320SOL    HW232402   1.950   4.490   2.190 -0.7394 -0.3170  1.0365
10321SOL     OW32403   0.463   4.828   0.820  0.1118  0.2647  0.1752
10321SOL    HW132404   0.441   4.892   0.887 -0.0966 -0.7012  1.0347
10321SOL    HW232405   0.554   4.849   0.796 -0.1338  1.2202  0.0422
10322SOL     OW32406   1.451   3.586  11.792  0.5974 -0.5358 -0.2820
10322SOL    HW132407   1.382   3.568  11.728  1.2417  0.2576 -1.2309
10322SOL    HW232408   1.508   3.510  11.789  0.8713 -0.3142 -1.0074
10323SOL     OW32409   2.891   7.810   6.598  0.4067  0.0115  0.0866
10323SOL    HW132410   2.870   7.769   6.514  0.9416 -0.2792  0.0893
10323SOL    HW232411   2.842   7.892   6.598 -0.7090 -0.6373  0.0925
10324SOL     OW32412   2.103   5.190   6.506  0.1933 -0.3426  0.4682
10324SOL    HW132413   2.093   5.284   6.488  1.2405 -0.3610 -0.2804
10324SOL    HW232414   2.034   5.171   6.570 -1.7069  0.4071 -1.2467
10325SOL     OW32415   2.834   6.676   1.336  0.2312 -0.1695 -0.5751
10325SOL    HW132416   2.878   6.728   1.269  1.6270 -1.5555 -0.7821
10325SOL    HW232417   2.904   6.640   1.389 -0.8479  0.9643  1.7626
10326SOL     OW32418   2.294   0.132   3.487 -0.5921  0.6122  0.0950
10326SOL    HW132419   2.313   0.038   3.487 -1.5166  0.3761  1.8963
10326SOL    HW232420   2.303   0.159   3.396 -0.3135 -1.2219 -0.4485
10327SOL     OW32421   2.897   4.872   0.519 -0.9227 -0.1563  0.1934
10327SOL    HW132422   2.955   4.880   0.595  0.6876  0.4164 -1.0526
10327SOL    HW232423   2.814   4.910   0.549 -0.2500  0.2973  1.5876
10328SOL     OW32424   2.225   2.670   7.627 -0.0252 -0.3294  0.4349
10328SOL    HW132425   2.225   2.725   7.548 -1.4140 -0.7923  0.0711
10328SOL    HW232426   2.173   2.720   7.690  1.8980  0.4955  1.4376
10329SOL     OW32427   3.549   3.056   8.649 -0.2028  0.5749  0.1775
10329SOL    HW132428   3.471   3.102   8.618 -0.1380  1.3999  1.1843
10329SOL    HW232429   3.535   2.965   8.622  0.4768  1.3815 -3.3885
10330SOL     OW32430   2.580   7.013   8.602 -0.0407 -0.3813 -0.1034
10330SOL    HW132431   2.598   7.079   8.535 -1.5771  0.9998  0.7483
10330SOL    HW232432   2.664   6.972   8.619  1.0187  1.4596 -0.6028
10331SOL     OW32433   4.373   6.613  10.494  0.2423 -0.5448 -0.4253
10331SOL    HW132434   4.368   6.589  10.586  0.0902 -0.9301 -0.5341
10331SOL    HW232435   4.450   6.565  10.461  1.6309  1.2521  0.0015
10332SOL     OW32436   3.805   7.553   4.307 -0.4073 -0.0909  0.4231
10332SOL    HW132437   3.897   7.570   4.328 -0.4643  3.1487 -1.3261
10332SOL    HW232438   3.800   7.458   4.296  2.0367 -0.6816  3.2786
10333SOL     OW32439   2.906   0.576  11.074 -0.3926 -0.3176  0.5367
10333SOL    HW132440   2.903   0.577  11.170  2.0541 -1.7765  0.7258
10333SOL    HW232441   2.974   0.511  11.053 -2.5966 -1.9686 -2.2551
10334SOL     OW32442   5.971   4.821   5.361 -0.1199 -0.7487 -0.1392
10334SOL    HW132443   5.916   4.874   5.418 -0.2883  1.2338 -2.0391
10334SOL    HW232444   6.027   4.771   5.421 -1.5912 -0.2266  1.7518
10335SOL     OW32445   3.774   4.736   8.787  0.5578  0.3939  0.0521
10335SOL    HW132446   3.769   4.824   8.824  0.9850  0.4569 -0.0373
10335SOL    HW232447   3.756   4.678   8.861 -0.4491  0.5703 -0.0344
10336SOL     OW32448   7.554   2.927   5.013  0.1953  0.4754 -0.2081
10336SOL    HW132449   7.637   2.883   5.031  0.2092  1.2218  1.8542
10336SOL    HW232450   7.505   2.866   4.958  1.1476 -1.0670  0.6004
10337SOL     OW32451   3.370   2.050   8.178  0.0147  0.2959 -0.4107
10337SOL    HW132452   3.465   2.039   8.168 -0.1194 -0.6798 -0.7309
10337SOL    HW232453   3.335   2.036   8.090 -0.3061  2.3089 -0.6340
10338SOL     OW32454   7.659   0.187   8.334  0.6497  0.3635 -0.4148
10338SOL    HW132455   7.607   0.188   8.414  2.7137  0.6113  1.0206
10338SOL    HW232456   7.614   0.248   8.275  0.6070  2.4772  1.6609
10339SOL     OW32457   2.250   1.169   7.866  0.1725  0.0584  0.3572
10339SOL    HW132458   2.291   1.228   7.803 -0.5273  1.5946  1.2920
10339SOL    HW232459   2.282   1.198   7.952 -0.4509 -0.7016  0.8654
10340SOL     OW32460   2.459   6.056   8.337  0.0889 -0.3502  0.3287
10340SOL    HW132461   2.515   5.980   8.354  0.4778 -0.0463  0.4263
10340SOL    HW232462   2.375   6.019   8.311  1.0405 -0.8671 -2.4127
10341SOL     OW32463   5.845   7.817  12.285  0.1495  0.1795 -0.4350
10341SOL    HW132464   5.841   7.782  12.374 -0.0229  1.0038 -0.1167
10341SOL    HW232465   5.799   7.752  12.232  1.2693 -0.9094 -0.1184
10342SOL     OW32466   0.649   1.144   8.664 -0.3878 -0.0808 -0.7157
10342SOL    HW132467   0.571   1.199   8.657 -0.5401 -0.3008 -0.7707
10342SOL    HW232468   0.671   1.143   8.757 -2.0711 -2.2280 -0.2583
10343SOL     OW32469   5.589   5.503   3.916  0.6089 -0.6120  0.3736
10343SOL    HW132470   5.609   5.461   3.832  0.9854 -3.8891  1.9164
10343SOL    HW232471   5.674   5.531   3.949  0.2950  2.1205 -0.9131
10344SOL     OW32472   2.064   5.168   0.289  0.1401  0.1302 -0.3685
10344SOL    HW132473   2.140   5.168   0.347  0.0777  2.0777 -0.2132
10344SOL    HW232474   1.996   5.121   0.337  0.1259  1.6090  1.1407
10345SOL     OW32475   1.237   5.575   7.821  1.2635  0.2430 -0.5980
10345SOL    HW132476   1.272   5.561   7.909  0.0300 -0.7957 -0.2355
10345SOL    HW232477   1.299   5.635   7.779  1.4116  1.4916  1.2753
10346SOL     OW32478   1.985   0.995   8.688  0.1492  0.3393 -0.0953
10346SOL    HW132479   2.016   1.016   8.600 -1.5631  0.9902 -0.5692
10346SOL    HW232480   1.940   0.911   8.679 -0.0533  0.4198  0.1524
10347SOL     OW32481   6.031   5.475  11.700  0.0175 -0.0021 -0.2484
10347SOL    HW132482   6.049   5.563  11.734 -1.6915  0.4314 -0.3962
10347SOL    HW232483   6.015   5.422  11.778  0.3121 -0.0125 -0.1935
10348SOL     OW32484   2.144   5.975  11.231 -0.2391  0.1494 -1.1329
10348SOL    HW132485   2.107   6.036  11.295 -0.1444  0.7174 -1.6111
10348SOL    HW232486   2.086   5.983  11.155 -0.2330 -0.3709 -1.1914
10349SOL     OW32487   2.198   7.795   0.922  0.0195 -0.0013  0.3579
10349SOL    HW132488   2.184   7.854   0.848 -0.7533  0.1547  0.6178
10349SOL    HW232489   2.157   7.713   0.894  0.6329 -0.2631  0.2065
10350SOL     OW32490   6.437   0.093  11.942  0.1554 -0.2317  0.2403
10350SOL    HW132491   6.422   0.140  11.860  1.8337 -0.1854 -0.0637
10350SOL    HW232492   6.490   0.152  11.995 -0.1449 -0.6339  1.0081
10351SOL     OW32493   6.479   4.522  11.664  0.5326 -0.0065  0.1404
10351SOL    HW132494   6.514   4.439  11.696  0.3959 -0.5855 -1.1581
10351SOL    HW232495   6.556   4.574  11.643  0.6112 -0.0743  0.2565
10352SOL     OW32496   1.412   4.218   6.406  0.0278  0.4524 -0.3407
10352SOL    HW132497   1.384   4.305   6.377 -0.8925 -0.3344 -1.9199
10352SOL    HW232498   1.438   4.173   6.325  1.8711 -0.2819  0.6052
10353SOL     OW32499   7.193   6.042   2.032 -0.4007 -0.2822  0.1332
10353SOL    HW132500   7.276   6.036   2.080  0.0966  2.9801 -0.0363
10353SOL    HW232501   7.127   6.012   2.095  0.6545 -0.0696  1.3963
10354SOL     OW32502   6.251   0.015   4.789 -0.1423 -0.3273 -0.3277
10354SOL    HW132503   6.245   0.006   4.884 -0.7632 -1.5545 -0.4724
10354SOL    HW232504   6.162   0.003   4.757 -0.0757  0.8450 -1.0270
10355SOL     OW32505   4.651   4.777   3.806 -0.0907  0.0774 -0.4508
10355SOL    HW132506   4.560   4.808   3.811  0.4055  2.0755 -2.3300
10355SOL    HW232507   4.682   4.779   3.897 -1.4840  0.8376  0.0437
10356SOL     OW32508   6.106   7.304  11.026  0.5473 -0.3626  0.1289
10356SOL    HW132509   6.123   7.346  11.110  0.8517 -2.8682  1.4273
10356SOL    HW232510   6.191   7.302  10.982  0.4325  0.7414 -0.1875
10357SOL     OW32511   7.432   1.746   3.495  0.3102 -0.2205  0.4312
10357SOL    HW132512   7.383   1.826   3.476  0.4934 -0.4542 -1.2115
10357SOL    HW232513   7.367   1.676   3.490  0.8400 -0.6156 -2.5008
10358SOL     OW32514   3.875   1.617  10.323 -0.4045 -0.0326  0.1349
10358SOL    HW132515   3.956   1.647  10.283  1.5921 -2.2524  2.1483
10358SOL    HW232516   3.808   1.630  10.256  2.0380 -0.4180 -2.5580
10359SOL     OW32517   0.709   3.363   9.439  0.7535  0.1126  0.5655
10359SOL    HW132518   0.774   3.396   9.378 -0.3865  0.9335 -0.2486
10359SOL    HW232519   0.709   3.426   9.511 -1.6437  2.2701 -1.1292
10360SOL     OW32520   4.716   1.502   5.762 -0.0870  0.0816  0.1048
10360SOL    HW132521   4.762   1.432   5.716  0.0043  0.5756 -0.5673
10360SOL    HW232522   4.728   1.579   5.707  1.4577  1.1115  1.7836
10361SOL     OW32523   7.534   0.741   0.224 -0.1277  0.4165  0.6725
10361SOL    HW132524   7.618   0.756   0.181 -1.0291  1.6868 -0.7402
10361SOL    HW232525   7.556   0.732   0.317  1.4822  1.5590  0.4403
10362SOL     OW32526   7.606   4.561   3.497  0.4787  1.0141 -0.2266
10362SOL    HW132527   7.511   4.552   3.509  0.6215 -1.0855 -0.3034
10362SOL    HW232528   7.644   4.521   3.575  1.3308  1.5940 -0.3274
10363SOL     OW32529   5.134   0.533   5.572  0.2857 -0.3534  0.2269
10363SOL    HW132530   5.147   0.555   5.480  0.9672  2.2568  0.8551
10363SOL    HW232531   5.218   0.551   5.613 -0.5925  0.6416  1.6887
10364SOL     OW32532   6.599   4.392  12.351 -0.2171 -0.3129 -0.1394
10364SOL    HW132533   6.573   4.300  12.345 -1.4283  0.0550 -1.1629
10364SOL    HW232534   6.517   4.439  12.371  0.6025  0.4438  1.6699
10365SOL     OW32535   6.690   0.905   9.164  0.0532 -0.0876 -0.1757
10365SOL    HW132536   6.736   0.987   9.186  0.1369 -0.1143 -0.2485
10365SOL    HW232537   6.601   0.918   9.197 -0.2030  0.4081 -1.0078
10366SOL     OW32538   5.205   0.514   9.650 -0.2924  0.0535 -0.3229
10366SOL    HW132539   5.279   0.454   9.644  0.4888  0.5744  2.6091
10366SOL    HW232540   5.185   0.536   9.559  2.4955 -0.9044 -1.2771
10367SOL     OW32541   4.763   2.751  10.657 -0.5157  0.0392  0.7743
10367SOL    HW132542   4.822   2.822  10.629 -0.2363 -0.8560 -1.0813
10367SOL    HW232543   4.793   2.729  10.745  0.4129  1.1767  0.7750
10368SOL     OW32544   6.941   1.516   4.242  0.3424  0.1463  0.1193
10368SOL    HW132545   6.994   1.593   4.264  1.6996  0.2353 -2.8792
10368SOL    HW232546   6.871   1.550   4.187 -0.3781 -0.5098  0.6189
10369SOL     OW32547   1.909   0.302   0.391  0.0443  0.1637  0.1696
10369SOL    HW132548   2.003   0.312   0.376 -0.4797  2.5593 -2.2865
10369SOL    HW232549   1.882   0.237   0.326 -0.2354  0.8262 -0.3921
10370SOL     OW32550   0.457   2.328   0.360  0.0039 -0.3013 -0.2663
10370SOL    HW132551   0.542   2.328   0.405  0.1442 -1.3068 -0.5183
10370SOL    HW232552   0.393   2.319   0.430  0.0074  1.5719  0.0443
10371SOL     OW32553   6.820   5.800   5.640  0.2009  0.5762 -0.0074
10371SOL    HW132554   6.794   5.780   5.730 -0.0364 -0.8166 -0.3568
10371SOL    HW232555   6.904   5.845   5.649  0.7844 -0.6344  0.8717
10372SOL     OW32556   5.631   1.103   9.467 -0.0756 -0.5843 -0.2191
10372SOL    HW132557   5.596   1.106   9.378  0.7076 -0.5857 -0.5381
10372SOL    HW232558   5.668   1.190   9.480 -0.0418 -0.6388  0.0390
10373SOL     OW32559   6.280   3.636   9.533 -0.7598 -0.0521  0.3574
10373SOL    HW132560   6.279   3.652   9.627 -0.4429 -0.6466  0.4618
10373SOL    HW232561   6.221   3.703   9.497 -1.1414 -0.0340  1.0084
10374SOL     OW32562   6.537   6.554   5.683 -0.3693  0.0479  0.7961
10374SOL    HW132563   6.614   6.604   5.710  0.2825  1.0879 -2.5072
10374SOL    HW232564   6.572   6.469   5.656 -0.6560 -0.1811  1.1498
10375SOL     OW32565   4.705   2.092   4.228  0.1000  0.0056  0.0496
10375SOL    HW132566   4.748   2.025   4.175 -0.2642  0.1369 -0.4139
10375SOL    HW232567   4.666   2.044   4.301 -1.3293 -0.4734 -1.0010
10376SOL     OW32568   7.447   3.436   0.746 -0.5509 -0.5991  0.1061
10376SOL    HW132569   7.444   3.480   0.662  0.8706 -0.3789  0.1503
10376SOL    HW232570   7.471   3.346   0.725  0.6653 -0.3452  0.3080
10377SOL     OW32571   5.320   3.774  12.309  0.5753  0.1936 -0.6235
10377SOL    HW132572   5.327   3.697  12.364 -1.9825 -0.2319 -0.7922
10377SOL    HW232573   5.401   3.823  12.326  0.9388 -1.0676  1.6932
10378SOL     OW32574   4.595   6.214   9.564 -0.4999 -0.1511 -0.4327
10378SOL    HW132575   4.672   6.160   9.544 -0.7171 -1.2385  1.4530
10378SOL    HW232576   4.541   6.158   9.619 -2.8384  0.4744 -1.9561
10379SOL     OW32577   1.435   7.591   4.092 -0.1384  0.0214  0.1139
10379SOL    HW132578   1.348   7.560   4.064  0.3024  0.2408 -1.6084
10379SOL    HW232579   1.467   7.641   4.017  1.7130 -0.5107  0.5199
10380SOL     OW32580   1.492   2.533   0.050 -0.5621 -0.3412 -0.2315
10380SOL    HW132581   1.523   2.579  -0.028  1.7598 -0.5870  0.4619
10380SOL    HW232582   1.460   2.449   0.017 -0.4080 -0.1048 -0.9956
10381SOL     OW32583   1.679   7.239  11.991 -0.2124 -0.0707 -0.0772
10381SOL    HW132584   1.749   7.176  11.978  0.1032  0.6976 -2.7309
10381SOL    HW232585   1.723   7.322  12.009 -0.5278  0.0049  0.3804
10382SOL     OW32586   5.642   3.274   5.792 -0.1449  0.1224 -0.4959
10382SOL    HW132587   5.552   3.294   5.817  0.2866  0.5882  0.7721
10382SOL    HW232588   5.677   3.225   5.867  0.0940 -1.7476 -1.7830
10383SOL     OW32589   7.127   2.245   6.111 -0.3220 -0.0576 -0.4463
10383SOL    HW132590   7.176   2.321   6.143 -0.4093  0.0134 -0.4825
10383SOL    HW232591   7.193   2.176   6.105 -0.8793 -1.1778  3.4312
10384SOL     OW32592   6.561   5.309   3.471 -0.1710 -0.2792 -0.3721
10384SOL    HW132593   6.495   5.253   3.513  0.4060 -0.4209  0.3563
10384SOL    HW232594   6.638   5.253   3.461  0.7008  0.5865  1.1356
10385SOL     OW32595   7.688   5.574   6.289  0.0752 -0.3499 -0.0603
10385SOL    HW132596   7.644   5.503   6.335  1.1248 -0.3068  1.0591
10385SOL    HW232597   7.630   5.649   6.299  0.0312 -0.4856  0.7101
10386SOL     OW32598   4.347   7.097   4.182 -0.3997  0.2608  0.4796
10386SOL    HW132599   4.411   7.158   4.145  0.2237  0.9410  2.5348
10386SOL    HW232600   4.269   7.151   4.197 -0.8385 -0.1360 -0.3276
10387SOL     OW32601   6.073   5.634   4.861  0.5065 -0.2088 -1.0256
10387SOL    HW132602   6.039   5.723   4.863 -2.3433 -1.2135 -0.6372
10387SOL    HW232603   6.108   5.620   4.949  0.5976  0.3735 -0.9668
10388SOL     OW32604   2.855   4.891   2.045 -0.6514  0.1357 -0.1478
10388SOL    HW132605   2.826   4.865   2.132  2.2090 -0.3054  0.7927
10388SOL    HW232606   2.920   4.960   2.061  0.3380 -0.3397 -1.8576
10389SOL     OW32607   0.075   6.118  11.121  0.1587 -0.2075  0.1453
10389SOL    HW132608   0.155   6.097  11.072  0.8320  0.3673  0.9742
10389SOL    HW232609   0.012   6.143  11.053  1.2649  1.2244 -0.4116
10390SOL     OW32610   0.703   1.776   7.201 -0.1554  0.1472 -0.3440
10390SOL    HW132611   0.619   1.764   7.156 -1.3694 -0.7504  1.9852
10390SOL    HW232612   0.687   1.850   7.261  0.9738  0.4589 -0.4118
10391SOL     OW32613   6.939   1.294   4.771 -0.2400  0.9239  0.1700
10391SOL    HW132614   6.902   1.354   4.836 -0.0734  1.6171 -0.3526
10391SOL    HW232615   6.915   1.332   4.687  2.1794  1.8094 -0.2105
10392SOL     OW32616   1.411   2.387   2.683  0.2286  0.2019  0.0306
10392SOL    HW132617   1.389   2.480   2.683 -0.9358 -0.0528  0.9797
10392SOL    HW232618   1.480   2.379   2.749  1.9056  0.6883 -1.5626
10393SOL     OW32619   5.088   6.457   7.744  0.0904 -0.3832 -0.1884
10393SOL    HW132620   5.162   6.481   7.800 -0.1152  2.2738 -0.8872
10393SOL    HW232621   5.029   6.409   7.802  0.1161  1.8201  1.8483
10394SOL     OW32622   6.144   1.855   0.656  0.0175 -0.4319  0.3020
10394SOL    HW132623   6.217   1.831   0.713 -1.8215 -3.2901  1.6965
10394SOL    HW232624   6.103   1.930   0.699  0.7432 -0.2939  0.7670
10395SOL     OW32625   3.714   6.497   4.876  0.0326 -0.4495 -0.1384
10395SOL    HW132626   3.699   6.590   4.860 -1.7259 -0.6237  0.3774
10395SOL    HW232627   3.676   6.453   4.800 -2.0760 -0.8965  1.1134
10396SOL     OW32628   5.583   2.208   6.250  0.0651  0.5594 -1.2194
10396SOL    HW132629   5.671   2.203   6.215  0.4025 -1.6068 -0.2459
10396SOL    HW232630   5.526   2.200   6.174  0.7138  0.5508 -1.7097
10397SOL     OW32631   7.858   3.855  10.024 -0.0315  0.6626 -0.3767
10397SOL    HW132632   7.842   3.773   9.977  0.1774  0.5661 -0.2789
10397SOL    HW232633   7.922   3.832  10.091 -1.4355  0.4495  0.9457
10398SOL     OW32634   4.916   0.514  11.826  0.2537  0.0390 -0.2873
10398SOL    HW132635   4.824   0.537  11.810  0.2796  0.5091  0.2062
10398SOL    HW232636   4.965   0.593  11.803  0.6422 -0.5546 -1.5633
10399SOL     OW32637   0.645   0.828   1.154 -0.5342  0.2778 -0.3396
10399SOL    HW132638   0.554   0.802   1.160 -0.9911  2.0315  0.8598
10399SOL    HW232639   0.647   0.919   1.185  1.3534  0.8499 -1.9065
10400SOL     OW32640   6.434   4.479  11.391 -0.1708  0.3168 -0.3000
10400SOL    HW132641   6.437   4.515  11.480  2.0583  2.0406 -0.9740
10400SOL    HW232642   6.421   4.556  11.335  1.3581 -0.3195 -1.6147
10401SOL     OW32643   5.902   3.200   0.212  0.4563  0.0246  0.0116
10401SOL    HW132644   5.878   3.292   0.201 -2.6792 -0.5866  0.8481
10401SOL    HW232645   5.847   3.152   0.150  0.7977 -1.4205  0.7620
10402SOL     OW32646   3.372   3.953   3.625 -0.1005 -0.0402  0.0314
10402SOL    HW132647   3.312   3.979   3.694 -2.9937 -1.6351 -1.6858
10402SOL    HW232648   3.431   3.891   3.667 -0.5462  0.4826  1.4746
10403SOL     OW32649   2.143   7.455   4.670 -0.5300  0.1422  0.7098
10403SOL    HW132650   2.073   7.391   4.675 -2.3660  1.8554 -1.0742
10403SOL    HW232651   2.184   7.440   4.585  0.6438 -0.1964  1.3146
10404SOL     OW32652   7.504   7.724  10.222 -0.4821  0.1567 -0.1919
10404SOL    HW132653   7.541   7.779  10.290  1.2444 -0.8240 -0.2736
10404SOL    HW232654   7.561   7.738  10.146  1.1061 -2.9217  0.2809
10405SOL     OW32655   4.412   2.768   0.479  0.9894 -0.2788 -0.0206
10405SOL    HW132656   4.318   2.757   0.464  1.2998 -1.5886 -1.2032
10405SOL    HW232657   4.428   2.860   0.461 -0.0772  0.0033  0.3442
10406SOL     OW32658   0.851   6.634   7.390  0.5095  0.0924 -0.3166
10406SOL    HW132659   0.938   6.674   7.389  0.5867  0.0134  1.4044
10406SOL    HW232660   0.838   6.606   7.480 -1.6925  0.9641 -0.3034
10407SOL     OW32661   7.043   5.100   3.161 -0.6791 -0.8267  0.3222
10407SOL    HW132662   6.995   5.078   3.081 -0.5400 -1.0166  0.2918
10407SOL    HW232663   6.976   5.100   3.229 -0.8790 -0.2407  0.1373
10408SOL     OW32664   6.574   0.770   0.862  0.0496 -0.6272  0.2718
10408SOL    HW132665   6.649   0.823   0.887  0.5035 -0.3023 -1.5810
10408SOL    HW232666   6.541   0.734   0.944  1.2698  0.4789  1.2954
10409SOL     OW32667   4.854   4.536   4.110 -0.0829  0.2224  0.1753
10409SOL    HW132668   4.928   4.592   4.131  0.2055 -0.0374 -0.1206
10409SOL    HW232669   4.781   4.596   4.095  0.3304  0.5586 -0.5951
10410SOL     OW32670   2.263   1.375   6.007 -0.1413 -0.0158  0.4529
10410SOL    HW132671   2.304   1.294   5.980  0.1863 -0.3683  1.9146
10410SOL    HW232672   2.310   1.444   5.960 -1.3711 -0.7180 -1.9304
10411SOL     OW32673   3.209   4.019   8.472  0.2153  0.6312  0.1165
10411SOL    HW132674   3.160   4.015   8.554  0.5280 -1.6710  0.2417
10411SOL    HW232675   3.251   4.105   8.474 -0.9262  1.1913  1.6797
10412SOL     OW32676   0.633   7.915   2.191  0.2471  0.0291 -0.8179
10412SOL    HW132677   0.649   8.005   2.220  1.4899 -0.3937 -0.0901
10412SOL    HW232678   0.652   7.916   2.097  1.3738  0.2959 -0.6034
10413SOL     OW32679   2.211   7.521   3.649  0.1583  0.2328 -1.1438
10413SOL    HW132680   2.280   7.582   3.674 -0.9565  1.4608 -0.9487
10413SOL    HW232681   2.142   7.577   3.614 -1.3901 -0.8148  0.1424
10414SOL     OW32682   4.498   1.589   4.921  0.0894  0.1286  0.1251
10414SOL    HW132683   4.594   1.587   4.914  0.0702  0.6796 -0.4688
10414SOL    HW232684   4.471   1.652   4.854 -0.6269  0.7554  0.9814
10415SOL     OW32685   3.441   6.514   2.188  0.0591  0.6100  0.7813
10415SOL    HW132686   3.370   6.491   2.127  2.0114 -0.8875 -1.0840
10415SOL    HW232687   3.400   6.509   2.274 -2.6926  2.2696 -0.3067
10416SOL     OW32688   0.237   2.100   5.119 -0.4459  0.1644  0.0287
10416SOL    HW132689   0.321   2.119   5.077 -0.4319  1.1861  0.4854
10416SOL    HW232690   0.199   2.187   5.135 -1.2912 -0.2725  0.4264
10417SOL     OW32691   3.151   0.256   1.659 -0.5532 -0.2787 -0.2926
10417SOL    HW132692   3.076   0.197   1.663 -0.5079 -0.4466 -1.5282
10417SOL    HW232693   3.115   0.338   1.625 -0.1525 -0.4298 -1.1086
10418SOL     OW32694   7.074   4.102   3.367 -0.7657  0.4583  0.5885
10418SOL    HW132695   7.150   4.107   3.425 -0.3015 -0.4117  0.0757
10418SOL    HW232696   7.045   4.012   3.373 -1.6432  0.7334  0.6158
10419SOL     OW32697   5.825   2.057   2.972 -0.0981 -0.3773  0.1234
10419SOL    HW132698   5.845   2.017   3.056  1.6382  1.7328  0.8171
10419SOL    HW232699   5.762   2.126   2.993 -1.1928 -1.0938 -0.6622
10420SOL     OW32700   6.392   7.079   2.247 -0.4058  0.0441  0.0198
10420SOL    HW132701   6.368   6.986   2.257 -1.0143  0.0045 -1.5442
10420SOL    HW232702   6.378   7.097   2.154  0.9496  1.3757  0.0462
10421SOL     OW32703   2.090   1.547  10.869  0.0634 -0.1109 -0.2408
10421SOL    HW132704   2.057   1.633  10.897  0.2417 -0.1992  0.2474
10421SOL    HW232705   2.070   1.489  10.943  1.9117 -0.0360  0.3571
10422SOL     OW32706   2.932   6.546   0.961  0.1029  0.1703  0.1965
10422SOL    HW132707   2.913   6.509   0.875 -0.4396 -1.2642  0.8988
10422SOL    HW232708   2.852   6.592   0.986 -0.0926 -0.2362  0.3327
10423SOL     OW32709   2.187   0.299   0.305  0.1742  0.3390 -0.4944
10423SOL    HW132710   2.238   0.331   0.380 -2.9080  1.8786  1.1663
10423SOL    HW232711   2.186   0.373   0.244  0.2660  0.1672 -0.7033
10424SOL     OW32712   3.433   5.300  11.979  0.4707  0.2620  0.2561
10424SOL    HW132713   3.444   5.322  11.886  0.0519 -0.8047 -0.0500
10424SOL    HW232714   3.510   5.339  12.021  1.5703 -0.7123 -0.7886
10425SOL     OW32715   6.621   7.158   6.622  0.3509 -0.8004  0.6369
10425SOL    HW132716   6.690   7.093   6.614  0.1201 -0.9772  0.0172
10425SOL    HW232717   6.558   7.135   6.554  0.9531  0.9073 -0.5853
10426SOL     OW32718   4.165   5.037  11.868 -0.3696 -0.3341  0.5466
10426SOL    HW132719   4.124   5.057  11.783 -0.2307 -0.4338  0.4574
10426SOL    HW232720   4.183   4.943  11.865  1.3392 -0.0244 -0.0584
10427SOL     OW32721   1.995   2.099   7.818  0.0647 -0.1304  0.0768
10427SOL    HW132722   2.071   2.129   7.768 -0.6938  2.3835  0.3029
10427SOL    HW232723   2.022   2.105   7.910 -0.7528  2.1486  0.2426
10428SOL     OW32724   1.027   6.947   7.667 -0.0547  0.5111 -0.4004
10428SOL    HW132725   0.940   6.961   7.628 -0.0197  0.0137 -0.6695
10428SOL    HW232726   1.079   6.910   7.596 -0.0270 -0.5449  0.1514
10429SOL     OW32727   1.482   4.528   6.076  0.4944  0.2822  0.7399
10429SOL    HW132728   1.568   4.487   6.079  1.1166  1.5563  1.1996
10429SOL    HW232729   1.500   4.621   6.088 -1.0198  0.4661  1.8956
10430SOL     OW32730   2.660   4.530   5.985  0.4313 -0.2542  0.1848
10430SOL    HW132731   2.592   4.502   6.047 -2.1300 -0.9118 -2.6936
10430SOL    HW232732   2.639   4.622   5.968  1.8765  0.2822  1.1006
10431SOL     OW32733   6.381   2.168   7.027 -0.2839 -0.1190  0.0530
10431SOL    HW132734   6.308   2.196   6.972 -0.4844 -2.6950 -1.1612
10431SOL    HW232735   6.344   2.101   7.084  1.1537 -2.0374 -1.1065
10432SOL     OW32736   1.365   4.024   3.132 -0.9702 -0.2158  0.2070
10432SOL    HW132737   1.407   4.063   3.055  0.0540 -0.0223  0.8310
10432SOL    HW232738   1.276   4.004   3.104 -1.1177  1.3373 -0.5438
10433SOL     OW32739   2.215   7.839   2.186 -0.2037  0.0880 -0.0625
10433SOL    HW132740   2.237   7.745   2.189  0.8150  0.3295  0.6224
10433SOL    HW232741   2.264   7.877   2.259 -2.0102  0.8812  0.8024
10434SOL     OW32742   1.931   1.996   2.920 -0.3888 -0.1198 -0.3982
10434SOL    HW132743   1.859   1.992   2.982 -0.1259 -0.2667 -0.0991
10434SOL    HW232744   1.934   1.909   2.881  0.8524 -0.7330  0.9966
10435SOL     OW32745   0.845   6.319   5.929 -0.0369  1.0324  0.1207
10435SOL    HW132746   0.785   6.374   5.980 -0.9110 -0.1283  0.3839
10435SOL    HW232747   0.892   6.380   5.873 -2.9050  1.8234 -1.5937
10436SOL     OW32748   1.836   5.893   8.661  1.0428  0.0879  0.2663
10436SOL    HW132749   1.911   5.948   8.684  0.2426  1.0521  0.6250
10436SOL    HW232750   1.762   5.953   8.658  0.2035 -0.9159  0.2997
10437SOL     OW32751   4.270   4.659   2.691  0.3129  0.2371 -0.5561
10437SOL    HW132752   4.184   4.632   2.723  1.4818 -2.8676  0.3381
10437SOL    HW232753   4.305   4.714   2.761  0.3085 -1.2126  0.6383
10438SOL     OW32754   5.575   1.652   3.873  0.3360 -0.6248 -0.6323
10438SOL    HW132755   5.667   1.633   3.891 -0.1044 -1.3000  1.0747
10438SOL    HW232756   5.528   1.572   3.896 -0.9243  0.4940  0.9092
10439SOL     OW32757   7.548   3.797   8.595 -0.3367  0.2351  0.0318
10439SOL    HW132758   7.552   3.760   8.507  0.5520  0.9722 -0.2508
10439SOL    HW232759   7.548   3.892   8.582 -1.3092  0.3536  0.7886
10440SOL     OW32760   4.914   6.753   9.249 -0.4407 -0.5923  0.3102
10440SOL    HW132761   4.831   6.795   9.224  0.8273  1.2471 -1.0506
10440SOL    HW232762   4.920   6.769   9.343  0.0207  2.5690 -0.1318
10441SOL     OW32763   7.270   4.291  10.176 -0.1895 -0.2982  0.1475
10441SOL    HW132764   7.295   4.381  10.154 -1.2183 -0.0162  0.0765
10441SOL    HW232765   7.297   4.240  10.100  0.9037 -0.1513  0.4186
10442SOL     OW32766   3.413   5.053   4.152 -0.1342  0.1853  0.0818
10442SOL    HW132767   3.486   5.020   4.100 -0.0727  0.0715  0.2406
10442SOL    HW232768   3.449   5.129   4.199  0.0109 -0.1357  0.5035
10443SOL     OW32769   6.317   5.436  10.691  0.0229 -0.3511 -0.0678
10443SOL    HW132770   6.334   5.513  10.744  1.3389  1.1983 -2.5389
10443SOL    HW232771   6.232   5.454  10.650 -0.1662 -0.7146  0.1624
10444SOL     OW32772   1.999   2.247   9.674 -0.2980  0.0641  0.0275
10444SOL    HW132773   2.032   2.288   9.754 -0.4179  1.9369 -0.8321
10444SOL    HW232774   2.072   2.195   9.642  0.1548  0.2564  0.7269
10445SOL     OW32775   3.688   0.097   7.592 -0.0678 -0.1649 -0.2634
10445SOL    HW132776   3.688   0.002   7.588  0.8077 -0.1832 -0.0088
10445SOL    HW232777   3.748   0.124   7.523 -1.0505  0.2470 -0.9797
10446SOL     OW32778   0.343   6.204   9.557 -0.1418 -0.0755 -0.2367
10446SOL    HW132779   0.267   6.208   9.499 -0.1357 -0.5528 -0.2815
10446SOL    HW232780   0.383   6.119   9.538  0.0306 -0.1072  0.2562
10447SOL     OW32781   6.359   3.974   7.663 -0.1788  0.2793  0.9329
10447SOL    HW132782   6.398   3.887   7.661  0.3285  0.5126 -0.5293
10447SOL    HW232783   6.343   3.991   7.756  0.5067 -1.0192  1.3108
10448SOL     OW32784   1.931   4.373   9.907  1.3289 -0.5783  0.1455
10448SOL    HW132785   1.996   4.431   9.870  3.5041 -1.5741  2.1696
10448SOL    HW232786   1.967   4.347   9.992 -1.0092 -2.3921  0.6897
10449SOL     OW32787   2.828   6.240   0.179  0.0441 -0.0094  0.5282
10449SOL    HW132788   2.799   6.190   0.255 -1.4624 -0.7602 -0.4649
10449SOL    HW232789   2.855   6.325   0.214 -1.0341 -0.1778  1.8438
10450SOL     OW32790   7.087   6.833   9.899 -0.1403  0.0741  0.0073
10450SOL    HW132791   7.148   6.819   9.827 -0.2805  0.6100 -0.2188
10450SOL    HW232792   7.088   6.751   9.948  0.2479 -0.1548 -0.3832
10451SOL     OW32793   6.669   7.789  12.174 -0.3582 -0.2341 -0.1540
10451SOL    HW132794   6.574   7.793  12.165 -0.6524 -1.4372  1.8144
10451SOL    HW232795   6.700   7.761  12.087 -1.6115  1.6644 -1.2712
10452SOL     OW32796   3.785   2.088   4.190  0.0951 -0.1678  0.0239
10452SOL    HW132797   3.817   2.000   4.171  0.2946  0.0961 -0.9586
10452SOL    HW232798   3.860   2.145   4.174 -0.6471  0.4006 -1.7381
10453SOL     OW32799   4.498   4.732  10.906 -0.1352 -0.3547  0.2194
10453SOL    HW132800   4.442   4.693  10.839  0.2854  0.4853 -0.6448
10453SOL    HW232801   4.543   4.803  10.861 -0.6174  0.9185  1.6486
10454SOL     OW32802   2.848   3.258   0.796  0.0591 -0.3274  0.3276
10454SOL    HW132803   2.856   3.164   0.784 -0.4848 -0.2341 -0.8786
10454SOL    HW232804   2.802   3.267   0.880  0.1380 -1.1280  0.4652
10455SOL     OW32805   0.694   6.650  11.674  0.2771 -0.2201 -0.4178
10455SOL    HW132806   0.729   6.628  11.588  2.6474  0.4270  0.3067
10455SOL    HW232807   0.726   6.739  11.691  1.1698 -0.9052  1.7531
10456SOL     OW32808   3.355   5.758   3.560 -0.1218 -0.3616 -0.7668
10456SOL    HW132809   3.404   5.839   3.542  1.8921 -1.2060  0.5392
10456SOL    HW232810   3.372   5.704   3.483  4.2949 -2.0444  1.0449
10457SOL     OW32811   0.951   3.944   3.221 -0.5722 -0.3320  0.2492
10457SOL    HW132812   0.861   3.916   3.203 -0.7224  0.4881 -0.3372
10457SOL    HW232813   0.997   3.863   3.244 -0.6196 -1.3375 -2.7690
10458SOL     OW32814   2.507   1.138   8.059  0.5210  0.6111 -0.0611
10458SOL    HW132815   2.459   1.106   8.135  3.5144 -1.5327  1.1362
10458SOL    HW232816   2.539   1.224   8.084  0.0476  0.6543  0.4010
10459SOL     OW32817   0.818   4.982   4.897  0.5353  0.3250  0.4357
10459SOL    HW132818   0.904   4.956   4.927  0.5902 -1.0021 -0.8053
10459SOL    HW232819   0.778   4.902   4.863 -1.0589  0.9765  0.6617
10460SOL     OW32820   6.896   2.745   2.947 -0.1349 -0.2152  0.4219
10460SOL    HW132821   6.974   2.712   2.992 -0.2067  0.9673  1.4730
10460SOL    HW232822   6.898   2.703   2.861  1.6296 -0.2615  0.4537
10461SOL     OW32823   3.940   4.695  10.635 -0.4084 -0.3908  0.1970
10461SOL    HW132824   3.879   4.621  10.633 -0.8593 -0.0031 -0.8275
10461SOL    HW232825   4.013   4.664  10.689  0.2342 -2.2270 -1.5815
10462SOL     OW32826   3.519   4.496  11.314  0.0358 -0.0987  0.5890
10462SOL    HW132827   3.452   4.537  11.368  0.0733  0.2183  0.3940
10462SOL    HW232828   3.575   4.450  11.377  0.7974  1.2701  0.9767
10463SOL     OW32829   6.131   6.511   3.165 -0.2404 -0.0477 -0.0769
10463SOL    HW132830   6.064   6.485   3.228  0.9725 -0.9665  0.9165
10463SOL    HW232831   6.180   6.430   3.148  0.8818  0.6803 -0.4221
10464SOL     OW32832   4.668   4.502   5.120  0.2484 -0.5751 -0.6900
10464SOL    HW132833   4.716   4.543   5.048  1.1037  1.3518  0.8792
10464SOL    HW232834   4.590   4.556   5.131 -0.3051 -1.3572 -0.6895
10465SOL     OW32835   0.479   2.877   1.863 -0.0386 -0.3948 -0.6376
10465SOL    HW132836   0.525   2.961   1.867  0.4572 -0.3691 -3.8959
10465SOL    HW232837   0.389   2.897   1.887  0.5791  0.5148  1.0972
10466SOL     OW32838   3.880   1.644  11.917  0.2524 -0.3611 -0.2746
10466SOL    HW132839   3.789   1.647  11.947  0.7952 -0.9136  1.5701
10466SOL    HW232840   3.900   1.734  11.891 -0.8452 -0.2659 -0.8679
10467SOL     OW32841   3.930   2.814  10.140 -0.6295 -0.1273  0.1171
10467SOL    HW132842   3.966   2.777  10.220 -0.0512  0.9276  0.3722
10467SOL    HW232843   3.868   2.748  10.108  0.5722 -1.4170  0.3675
10468SOL     OW32844   2.134   7.591   6.776 -0.0692  0.0881 -0.2856
10468SOL    HW132845   2.194   7.525   6.742  1.3674  0.6348  1.0902
10468SOL    HW232846   2.075   7.542   6.835 -0.3199 -0.2773 -0.8345
10469SOL     OW32847   5.679   6.320   4.556 -0.1504  0.5344 -0.6125
10469SOL    HW132848   5.731   6.288   4.630 -2.9113  1.8643  2.1280
10469SOL    HW232849   5.645   6.240   4.514  0.4220 -0.2572  0.3891
10470SOL     OW32850   6.001   4.335   7.806  0.2326 -0.2385 -0.7796
10470SOL    HW132851   6.014   4.288   7.889 -0.7511 -0.6622 -0.8516
10470SOL    HW232852   6.090   4.360   7.779  0.6487 -0.8502 -0.0422
10471SOL     OW32853   4.432   4.620   7.275  0.0208  0.5311 -0.1497
10471SOL    HW132854   4.401   4.534   7.248  1.8954 -0.3249  0.3412
10471SOL    HW232855   4.397   4.631   7.363 -3.9961  2.2799 -1.6903
10472SOL     OW32856   0.865   3.032   9.187  0.2669  0.0953  0.4515
10472SOL    HW132857   0.909   3.051   9.270  1.1260 -1.1579  0.3214
10472SOL    HW232858   0.790   3.091   9.185 -1.0104 -1.2161  3.1140
10473SOL     OW32859   6.773   6.163  11.308  0.0172 -0.1381  0.2108
10473SOL    HW132860   6.851   6.203  11.272  1.7232 -2.9017  0.5041
10473SOL    HW232861   6.777   6.071  11.279 -1.3665 -1.1768  2.9038
10474SOL     OW32862   7.051   3.644   8.508 -0.5478  0.6174  0.2052
10474SOL    HW132863   7.119   3.640   8.576  0.3848  0.2530 -0.7128
10474SOL    HW232864   7.079   3.714   8.450 -1.8833  1.6214  0.7165
10475SOL     OW32865   4.553   3.928  10.557  0.5687 -0.1777  0.2712
10475SOL    HW132866   4.495   3.859  10.527 -0.0468  1.1581 -1.8047
10475SOL    HW232867   4.504   4.009  10.544  1.3453  0.7142  2.4221
10476SOL     OW32868   6.184   3.517  11.816  0.2065  0.0433 -0.2825
10476SOL    HW132869   6.103   3.469  11.835  0.4306 -1.0483 -1.8914
10476SOL    HW232870   6.251   3.449  11.815  0.8617  0.6904 -0.6993
10477SOL     OW32871   3.720   1.253  11.109  0.2858  0.0541 -0.2811
10477SOL    HW132872   3.651   1.234  11.045 -0.1801 -1.2691  0.5645
10477SOL    HW232873   3.788   1.189  11.091  0.6982  0.4781 -0.2427
10478SOL     OW32874   0.837   0.531   2.106  0.3660  0.1911  0.2460
10478SOL    HW132875   0.927   0.558   2.088 -0.2348  1.8290 -0.4939
10478SOL    HW232876   0.813   0.476   2.032  0.4248  0.5824 -0.0625
10479SOL     OW32877   2.958   2.351   7.673  0.1277 -0.3993  0.1700
10479SOL    HW132878   3.030   2.345   7.736  0.4300 -1.8677 -0.2640
10479SOL    HW232879   2.880   2.361   7.728  0.4728 -0.8188  0.7607
10480SOL     OW32880   5.190   1.019   3.958 -0.6203  0.3554 -0.4778
10480SOL    HW132881   5.262   0.962   3.984 -0.6600  1.1601  1.5464
10480SOL    HW232882   5.213   1.105   3.992 -2.3525  0.7125 -0.0874
10481SOL     OW32883   1.449   1.856   8.453 -0.7958 -0.0973 -0.1453
10481SOL    HW132884   1.411   1.847   8.365  0.0423 -1.7374 -0.3852
10481SOL    HW232885   1.537   1.890   8.437 -0.6818 -0.2943  0.0644
10482SOL     OW32886   7.537   5.344   7.030 -0.5771  0.0981 -0.4954
10482SOL    HW132887   7.530   5.249   7.019 -2.0860  0.3798 -2.4536
10482SOL    HW232888   7.575   5.355   7.117 -0.8673 -2.2891  0.0022
10483SOL     OW32889   7.796   6.069  10.936 -0.2774  0.3797 -0.2940
10483SOL    HW132890   7.855   6.004  10.898 -0.6987 -0.5542  0.6074
10483SOL    HW232891   7.708   6.036  10.917 -0.5036  0.8529 -0.0940
10484SOL     OW32892   7.662   7.422   7.233 -0.1038  0.6229 -1.2078
10484SOL    HW132893   7.731   7.397   7.295 -1.0765  1.6506  0.3615
10484SOL    HW232894   7.643   7.341   7.186  1.1226 -0.0427 -0.6232
10485SOL     OW32895   2.140   6.649   5.731  0.4652  0.4089  0.0158
10485SOL    HW132896   2.215   6.709   5.728  1.3015 -0.6539 -1.1363
10485SOL    HW232897   2.068   6.699   5.693  0.7698  1.1774  0.4191
10486SOL     OW32898   1.389   3.020   5.651 -0.3333  0.5854  0.6814
10486SOL    HW132899   1.484   3.025   5.641 -0.1311 -1.2996  1.3182
10486SOL    HW232900   1.356   3.017   5.562  0.0281  3.0479  0.3950
10487SOL     OW32901   6.201   5.745  11.520  0.3006  0.3827  0.6445
10487SOL    HW132902   6.226   5.803  11.448  0.7714  0.1448  0.6092
10487SOL    HW232903   6.106   5.749  11.522  0.0388 -1.8705 -1.9162
10488SOL     OW32904   7.745   3.492   6.355  0.1269  0.3981  0.0482
10488SOL    HW132905   7.655   3.471   6.332  0.4693 -1.5252  0.3097
10488SOL    HW232906   7.777   3.544   6.281 -1.4199  1.8704  0.3560
10489SOL     OW32907   2.968   3.082   7.290  0.0310  0.1852 -0.0908
10489SOL    HW132908   3.033   3.019   7.260  0.1773  0.5606 -0.5770
10489SOL    HW232909   2.932   3.119   7.210  0.5333  1.3200  0.1895
10490SOL     OW32910   6.099   7.423   9.190  0.2143  0.2509  0.2316
10490SOL    HW132911   6.132   7.384   9.109 -1.6946  0.0662 -0.4949
10490SOL    HW232912   6.142   7.372   9.259 -0.7856 -1.9924 -0.6785
10491SOL     OW32913   2.414   6.697   6.757  0.1568  0.3301 -0.5432
10491SOL    HW132914   2.371   6.781   6.738  1.6879  1.2098 -0.2170
10491SOL    HW232915   2.359   6.632   6.712 -1.0597  1.4903 -0.8019
10492SOL     OW32916   6.344   0.515  10.662  0.1691  0.0092  0.1304
10492SOL    HW132917   6.391   0.580  10.714 -0.2717  0.8008 -0.4340
10492SOL    HW232918   6.362   0.539  10.571 -1.5385  0.5325 -0.1142
10493SOL     OW32919   2.559   2.733   8.585  0.2205 -0.2250 -0.0348
10493SOL    HW132920   2.489   2.796   8.568  0.9064  0.8553  0.9427
10493SOL    HW232921   2.587   2.753   8.675  2.5143  0.1528 -0.7630
10494SOL     OW32922   7.420   2.340   3.420  0.2901 -0.4646  0.3733
10494SOL    HW132923   7.373   2.269   3.463  0.4318  0.2889  1.8417
10494SOL    HW232924   7.501   2.348   3.470  0.2081  0.8181  0.3301
10495SOL     OW32925   6.819   6.436   8.629  0.2727 -0.5331 -0.3520
10495SOL    HW132926   6.820   6.451   8.724  1.7958 -2.3949 -0.0044
10495SOL    HW232927   6.781   6.515   8.593  0.2494  0.5091  1.7805
10496SOL     OW32928   0.926   3.352   7.141  0.2594  0.4477 -0.2284
10496SOL    HW132929   0.864   3.385   7.207  0.0437 -0.0009 -0.1971
10496SOL    HW232930   1.003   3.327   7.191  0.3820  0.8009 -0.2391
10497SOL     OW32931   0.148   2.569   9.647  0.3379 -0.3399  0.3633
10497SOL    HW132932   0.060   2.537   9.630  0.6033 -1.7282  1.4264
10497SOL    HW232933   0.156   2.649   9.594 -1.6316 -0.0425  0.4614
10498SOL     OW32934   6.278   4.969  11.067  0.4956 -0.2470 -0.2861
10498SOL    HW132935   6.330   5.033  11.116  0.9137 -0.6914 -0.1464
10498SOL    HW232936   6.295   4.886  11.111 -0.5926 -0.3449 -0.0346
10499SOL     OW32937   4.436   6.558   0.921 -0.0539  0.3141 -0.0949
10499SOL    HW132938   4.501   6.515   0.977 -0.7356  0.6961  1.0347
10499SOL    HW232939   4.486   6.624   0.872  0.7734 -0.8757 -0.8901
10500SOL     OW32940   1.035   1.783  11.030  0.1271 -0.0265 -0.0571
10500SOL    HW132941   1.114   1.730  11.036  1.2071  1.3888 -1.1288
10500SOL    HW232942   0.963   1.720  11.041  1.3673 -1.3708  0.7578
10501SOL     OW32943   0.983   6.218   8.497  0.0521 -0.8126 -0.0212
10501SOL    HW132944   0.916   6.261   8.444  0.5513  0.9088  0.6654
10501SOL    HW232945   1.031   6.290   8.539  1.6345 -2.0180  0.3677
10502SOL     OW32946   2.724   3.719   2.325 -0.2609 -0.1707 -0.8016
10502SOL    HW132947   2.709   3.625   2.314 -0.9192  0.0410 -1.8499
10502SOL    HW232948   2.646   3.761   2.289  1.0585  0.8539 -2.6538
10503SOL     OW32949   6.917   7.031   5.542  0.3656 -0.0521  0.9766
10503SOL    HW132950   6.939   7.084   5.619  3.3192  1.9443 -1.0362
10503SOL    HW232951   6.858   7.087   5.491  1.3981  0.2593  0.0886
10504SOL     OW32952   5.956   3.174   0.563  0.3760  0.2829  0.1226
10504SOL    HW132953   5.907   3.222   0.630 -0.5261  1.2642 -1.1862
10504SOL    HW232954   5.906   3.094   0.549 -0.5296  0.9620 -0.7101
10505SOL     OW32955   3.057   0.952   7.799 -0.5166 -0.0131  0.3988
10505SOL    HW132956   3.051   1.046   7.781  0.5043  0.2146  1.2055
10505SOL    HW232957   2.986   0.935   7.861 -0.9241  0.1515 -0.0165
10506SOL     OW32958   1.215   3.463   5.946 -0.0665  0.4092 -0.1117
10506SOL    HW132959   1.298   3.439   5.906  0.9799  2.3411  0.7351
10506SOL    HW232960   1.184   3.382   5.987  0.8715 -0.5891 -1.2925
10507SOL     OW32961   2.871   2.329   9.867 -0.2038 -0.0722 -0.1524
10507SOL    HW132962   2.790   2.299   9.825  0.1443  1.2711 -1.9379
10507SOL    HW232963   2.845   2.409   9.913  0.0728  0.3632 -0.7323
10508SOL     OW32964   6.785   1.842   8.722 -0.4896  0.5732 -0.0750
10508SOL    HW132965   6.829   1.838   8.807  0.0585  1.9986 -0.2756
10508SOL    HW232966   6.757   1.933   8.712  0.3407  0.6805 -1.8504
10509SOL     OW32967   7.289   5.691   5.849 -0.3019  0.3711 -0.3863
10509SOL    HW132968   7.375   5.650   5.861 -1.1131 -1.1020  0.7259
10509SOL    HW232969   7.309   5.783   5.835  1.4628  0.0849 -0.0396
10510SOL     OW32970   3.161   4.959  11.789 -0.2576 -0.2211 -0.1005
10510SOL    HW132971   3.131   4.880  11.744 -1.4439  0.0905  0.1166
10510SOL    HW232972   3.249   4.974  11.754 -0.5379 -0.8777 -1.1349
10511SOL     OW32973   7.105   3.302  10.904 -0.1773  0.4197 -0.1836
10511SOL    HW132974   7.095   3.250  10.983 -0.3931  0.4634 -0.1808
10511SOL    HW232975   7.068   3.388  10.927 -2.4751 -0.2601 -1.0490
10512SOL     OW32976   6.085   2.766   4.343  0.7477 -0.2030  0.2377
10512SOL    HW132977   6.019   2.733   4.404  1.4053 -1.6214  0.2416
10512SOL    HW232978   6.061   2.857   4.327 -0.9273 -0.5601  0.5921
10513SOL     OW32979   2.214   0.649  11.275 -0.2253  0.4253 -0.0103
10513SOL    HW132980   2.159   0.605  11.210  0.0513  0.1248 -0.0467
10513SOL    HW232981   2.282   0.692  11.224  1.3160 -1.6376  0.1513
10514SOL     OW32982   6.148   7.172   3.317 -0.0833  0.4037  0.4825
10514SOL    HW132983   6.224   7.217   3.354  0.6578 -0.0615 -0.4366
10514SOL    HW232984   6.161   7.080   3.340  0.4764  0.0756 -1.0079
10515SOL     OW32985   1.208   0.405   3.291  0.7078 -0.4353 -0.1145
10515SOL    HW132986   1.283   0.432   3.344  0.8675 -0.7151 -0.1931
10515SOL    HW232987   1.195   0.477   3.229 -0.9758  1.0082  1.7928
10516SOL     OW32988   0.451   7.091   6.223 -0.5822  0.1106  0.4851
10516SOL    HW132989   0.448   7.146   6.302 -1.6407  0.2501  0.3630
10516SOL    HW232990   0.469   7.003   6.256  0.7907  0.4512  0.7142
10517SOL     OW32991   2.735   0.787  11.220  0.2971 -0.1690  0.1873
10517SOL    HW132992   2.700   0.703  11.249  1.0303 -0.2464  0.9135
10517SOL    HW232993   2.787   0.766  11.142  2.1185 -0.7633  1.4809
10518SOL     OW32994   0.166   0.274  11.926 -0.1454 -0.0693  0.4840
10518SOL    HW132995   0.146   0.343  11.990  1.3887  0.8896 -0.0073
10518SOL    HW232996   0.256   0.293  11.898 -0.8377 -0.2683 -2.1614
10519SOL     OW32997   1.570   7.736   6.228 -0.1936 -0.0558  0.2567
10519SOL    HW132998   1.562   7.831   6.235  0.4880  0.0335 -0.0289
10519SOL    HW232999   1.529   7.714   6.144  0.1504  0.0662  0.0503
10520SOL     OW33000   0.194   4.187   6.119  0.8777 -0.2154 -0.0249
10520SOL    HW133001   0.253   4.260   6.102  2.6765 -1.5339  0.1857
10520SOL    HW233002   0.159   4.205   6.206  2.9957 -0.5944  0.9894
10521SOL     OW33003   5.313   7.733  11.570 -0.3029 -0.0347 -0.3309
10521SOL    HW133004   5.288   7.739  11.477 -0.9840  1.6068 -0.0802
10521SOL    HW233005   5.312   7.639  11.589 -1.4711 -0.3261 -1.6447
10522SOL     OW33006   2.407   4.165  11.554  0.7220 -0.0164  0.7151
10522SOL    HW133007   2.407   4.163  11.650  0.1805  1.1311  0.7479
10522SOL    HW233008   2.473   4.231  11.531 -0.8618  1.5158  0.3743
10523SOL     OW33009   2.842   3.280  12.380  0.2487  0.1193  0.1638
10523SOL    HW133010   2.822   3.349  12.317 -0.0831 -1.0018 -0.9943
10523SOL    HW233011   2.888   3.326  12.451  1.4843  1.2798 -1.3015
10524SOL     OW33012   7.836   7.286   0.842  0.6765 -0.0005 -0.0554
10524SOL    HW133013   7.926   7.315   0.828  0.6524 -0.0666 -0.3488
10524SOL    HW233014   7.816   7.232   0.766  0.5861 -0.4672  0.2909
10525SOL     OW33015   1.802   2.877   0.211 -0.0823  0.7173  0.9813
10525SOL    HW133016   1.753   2.918   0.140  2.6966 -0.0115 -1.5748
10525SOL    HW233017   1.742   2.812   0.247 -1.8852  1.7084 -0.0837
10526SOL     OW33018   6.673   0.270   9.693  0.1319  0.8352 -0.0600
10526SOL    HW133019   6.596   0.289   9.747  0.7329  1.7421  0.5261
10526SOL    HW233020   6.642   0.210   9.626 -0.9003  0.5613  0.6414
10527SOL     OW33021   7.883   6.336   9.687 -0.2678  0.5625 -0.6230
10527SOL    HW133022   7.969   6.377   9.690  0.0666 -0.1523  0.7958
10527SOL    HW233023   7.849   6.355   9.599  0.2965  2.9066 -0.3975
10528SOL     OW33024   4.571   0.014   6.177 -0.9630 -0.3869 -0.0717
10528SOL    HW133025   4.632  -0.053   6.209 -0.5971  0.1567  0.3951
10528SOL    HW233026   4.507   0.023   6.247 -2.1549 -1.6424 -0.9637
10529SOL     OW33027   5.819   0.913   1.143 -0.2105  0.0026 -0.1021
10529SOL    HW133028   5.836   0.819   1.143  0.8721  0.1661  1.1658
10529SOL    HW233029   5.905   0.953   1.135 -0.4899  0.8818  1.0853
10530SOL     OW33030   5.145   7.716   3.157 -0.2932  0.0817 -0.0589
10530SOL    HW133031   5.056   7.740   3.181 -0.6377  0.0405 -1.2013
10530SOL    HW233032   5.201   7.760   3.221 -1.0673  1.1686 -0.1053
10531SOL     OW33033   0.958   7.587   7.787 -0.1380 -0.8111 -0.0655
10531SOL    HW133034   0.888   7.628   7.837  0.0914 -2.3720  1.6433
10531SOL    HW233035   0.914   7.550   7.710 -0.8350 -0.1311 -0.0113
10532SOL     OW33036   3.946   6.422  12.176  0.1449  0.2284 -0.4982
10532SOL    HW133037   3.928   6.328  12.177 -1.3199  0.4774 -0.3238
10532SOL    HW233038   4.038   6.429  12.150  0.0304 -1.2138 -1.4324
10533SOL     OW33039   2.684   7.325   4.300 -0.1507  0.0571  0.3808
10533SOL    HW133040   2.633   7.337   4.220  0.2095  1.3314  0.3213
10533SOL    HW233041   2.768   7.291   4.270  0.1015  0.8540  0.1810
10534SOL     OW33042   7.704   7.050   4.457 -0.4139  0.3292  0.7548
10534SOL    HW133043   7.684   7.096   4.539 -0.2567 -0.3969  1.2092
10534SOL    HW233044   7.727   7.120   4.396 -2.5301  1.0837  0.7070
10535SOL     OW33045   3.657   2.371   4.091  0.0660 -0.7912  0.2888
10535SOL    HW133046   3.603   2.430   4.038  3.4538  1.2389 -1.2187
10535SOL    HW233047   3.676   2.297   4.032 -0.1047 -0.9239  0.3994
10536SOL     OW33048   0.157   0.633   6.791 -0.0126 -0.2981 -0.1135
10536SOL    HW133049   0.178   0.687   6.715 -0.4254  0.9693  0.6486
10536SOL    HW233050   0.061   0.627   6.790 -0.0264 -0.1607  0.3848
10537SOL     OW33051   5.958   1.278   7.990 -0.5956 -0.4060 -0.2699
10537SOL    HW133052   5.940   1.231   7.909 -0.0908 -0.7992 -0.1533
10537SOL    HW233053   5.918   1.364   7.977  0.4632 -0.0674 -1.3925
10538SOL     OW33054   4.551   2.099   1.804  0.3350  0.6451  0.0514
10538SOL    HW133055   4.505   2.082   1.887 -0.5217  2.1287 -0.0944
10538SOL    HW233056   4.524   2.028   1.747 -0.1984  0.3900  0.6068
10539SOL     OW33057   2.792   4.655   0.803 -0.5010  0.8947 -0.3336
10539SOL    HW133058   2.712   4.607   0.824 -0.9017  0.5036 -2.5244
10539SOL    HW233059   2.763   4.727   0.747  0.5168  1.6828  0.1091
10540SOL     OW33060   3.636   7.696  10.061  0.1140  0.0027  0.4536
10540SOL    HW133061   3.671   7.607  10.054  0.1679  0.0860 -0.4304
10540SOL    HW233062   3.711   7.749  10.088  0.5335  0.0750 -0.8022
10541SOL     OW33063   7.364   7.899   5.364 -0.1106 -0.4046  0.3817
10541SOL    HW133064   7.369   7.972   5.426  0.1164 -0.7222  0.7385
10541SOL    HW233065   7.404   7.934   5.284 -0.6348  0.0876  0.3232
10542SOL     OW33066   5.727   5.641   0.274 -0.6160 -0.0157  0.1104
10542SOL    HW133067   5.738   5.599   0.189 -1.2554 -0.7600  0.3878
10542SOL    HW233068   5.662   5.588   0.319  0.6880 -0.4330  1.5972
10543SOL     OW33069   3.067   3.815   6.219  0.1736  0.1768  0.3349
10543SOL    HW133070   3.112   3.734   6.193 -0.3116 -0.1400  0.4600
10543SOL    HW233071   2.999   3.785   6.279  0.2986  0.7362  0.7561
10544SOL     OW33072   1.626   5.264   1.840 -0.7156 -0.1563  0.0899
10544SOL    HW133073   1.636   5.359   1.834  0.0699 -0.3033 -1.3215
10544SOL    HW233074   1.715   5.232   1.852 -0.8853 -0.7512 -0.2240
10545SOL     OW33075   0.411   2.367  10.316 -0.1725 -0.5412 -0.4425
10545SOL    HW133076   0.494   2.400  10.351 -0.8670 -0.8672  1.6222
10545SOL    HW233077   0.357   2.349  10.393 -1.5477 -2.0041 -1.6726
10546SOL     OW33078   1.837   6.116  10.852 -0.1796 -0.2892  0.2129
10546SOL    HW133079   1.865   6.166  10.776  0.6965 -0.9983  0.0550
10546SOL    HW233080   1.767   6.060  10.819  0.0340 -0.4235 -0.0161
10547SOL     OW33081   1.640   5.353   4.562 -0.0135 -0.1762  0.3115
10547SOL    HW133082   1.621   5.401   4.481  1.5420 -0.9596 -0.5565
10547SOL    HW233083   1.601   5.407   4.631  1.5734  2.3335 -0.6225
10548SOL     OW33084   1.642   1.573   4.391  0.2419 -0.1079 -0.5798
10548SOL    HW133085   1.680   1.487   4.372 -0.1132 -0.0795 -1.5022
10548SOL    HW233086   1.615   1.606   4.305 -0.7979  0.3645 -0.0917
10549SOL     OW33087   0.211   1.945   2.794 -0.6685 -0.0124 -0.2518
10549SOL    HW133088   0.230   2.038   2.776  0.0988 -0.1511 -0.1844
10549SOL    HW233089   0.297   1.904   2.798 -1.0165 -0.7741 -0.5008
10550SOL     OW33090   4.673   0.234   5.059  0.0381 -0.3465 -0.0600
10550SOL    HW133091   4.642   0.323   5.043  0.1266  0.1166  2.0082
10550SOL    HW233092   4.768   0.241   5.058  0.1648 -1.1143 -3.0614
10551SOL     OW33093   5.670   3.749  11.587  0.2886 -0.1851 -0.1677
10551SOL    HW133094   5.670   3.716  11.497 -0.2295  1.7269 -0.9246
10551SOL    HW233095   5.745   3.809  11.590 -0.5820  0.9360  0.1683
10552SOL     OW33096   4.183   4.467  11.401  0.3278 -0.2362  0.0528
10552SOL    HW133097   4.223   4.543  11.360  1.7478 -0.0017  1.8006
10552SOL    HW233098   4.226   4.459  11.486  0.5958 -3.2814 -0.2491
10553SOL     OW33099   6.670   1.008  11.920  0.2379 -0.0446  0.1901
10553SOL    HW133100   6.602   1.061  11.962  0.4482  0.5279 -0.1812
10553SOL    HW233101   6.678   1.045  11.832  0.0427 -1.0102 -0.2464
10554SOL     OW33102   7.796   6.881   9.285 -0.1857 -0.2634 -0.4476
10554SOL    HW133103   7.835   6.953   9.236  1.8905 -1.8844 -1.2962
10554SOL    HW233104   7.723   6.852   9.230 -3.2813  3.0765  1.3633
10555SOL     OW33105   7.568   5.195   0.510  0.0210  0.1284 -0.3415
10555SOL    HW133106   7.575   5.290   0.520 -0.8232  0.0762  1.0003
10555SOL    HW233107   7.498   5.183   0.445 -0.7598  0.4331  0.4182
10556SOL     OW33108   3.180   0.427  11.995  0.1727  0.0022 -0.0398
10556SOL    HW133109   3.152   0.370  11.924  1.6387 -2.1529  1.0091
10556SOL    HW233110   3.262   0.466  11.964  0.5034 -0.4733  0.2330
10557SOL     OW33111   3.223   7.102   1.859 -0.2328  0.0386 -0.2487
10557SOL    HW133112   3.229   7.063   1.772 -1.2761 -0.4200 -0.1169
10557SOL    HW233113   3.175   7.184   1.845 -0.2153  0.0689 -0.1326
10558SOL     OW33114   5.746   7.166  11.405  0.1335 -0.3809 -0.3038
10558SOL    HW133115   5.730   7.178  11.499  0.3748 -1.2322 -0.1537
10558SOL    HW233116   5.660   7.145  11.369  0.3125 -1.6441 -0.0171
10559SOL     OW33117   1.233   4.432  10.995  0.5167  0.3998  0.0790
10559SOL    HW133118   1.188   4.364  10.945  1.4825 -0.4916  0.3776
10559SOL    HW233119   1.277   4.384  11.066  1.7475  1.2519 -0.0788
10560SOL     OW33120   2.857   2.675  11.929  0.1487 -0.7486 -0.2130
10560SOL    HW133121   2.886   2.749  11.983 -0.2417 -0.0222 -0.9815
10560SOL    HW233122   2.907   2.682  11.848 -0.5484 -0.7910 -0.6561
10561SOL     OW33123   5.007   3.694   1.921 -0.5694  0.5917 -0.0452
10561SOL    HW133124   5.041   3.630   1.858 -0.8002  0.2019  0.2253
10561SOL    HW233125   5.057   3.678   2.001  0.6109  1.9283 -0.4918
10562SOL     OW33126   6.117   6.438   7.536  0.0798 -0.1628 -0.3180
10562SOL    HW133127   6.160   6.520   7.513 -0.7898  0.3541 -0.1257
10562SOL    HW233128   6.168   6.371   7.491  0.4952  0.5243 -0.8886
10563SOL     OW33129   6.602   0.934   5.725 -0.6359  0.1573  0.3008
10563SOL    HW133130   6.607   0.967   5.815  1.2104 -0.6952  0.5517
10563SOL    HW233131   6.684   0.886   5.713  0.5838  2.7056 -2.8047
10564SOL     OW33132   2.875   4.659   8.232  0.1164 -0.5781 -0.4766
10564SOL    HW133133   2.914   4.574   8.212 -0.3726 -1.0286  0.3762
10564SOL    HW233134   2.902   4.677   8.322 -0.4342 -0.2155 -0.3764
10565SOL     OW33135   1.664   5.947   9.211 -0.4632 -0.0741 -0.2866
10565SOL    HW133136   1.674   5.984   9.298  0.6527 -0.2050 -0.3408
10565SOL    HW233137   1.747   5.967   9.167  0.0666 -2.2843 -0.4316
10566SOL     OW33138   4.817   2.681   1.671 -0.1496 -0.4375  0.2216
10566SOL    HW133139   4.742   2.633   1.634  0.3605 -0.9278 -0.1911
10566SOL    HW233140   4.893   2.626   1.651  0.3863  0.2976  0.1903
10567SOL     OW33141   5.434   6.376   8.239  0.2328  0.2399  0.1576
10567SOL    HW133142   5.352   6.426   8.236 -0.5392 -0.9559  0.8559
10567SOL    HW233143   5.484   6.408   8.163 -0.5322  1.5530  0.1780
10568SOL     OW33144   4.651   4.628   3.211 -0.8284  0.2166  0.1057
10568SOL    HW133145   4.615   4.539   3.216  0.7730 -0.4889 -0.1288
10568SOL    HW233146   4.678   4.638   3.120 -1.2047  1.0430  0.0771
10569SOL     OW33147   4.226   0.998   4.829  0.1320 -0.7274 -0.0427
10569SOL    HW133148   4.231   0.920   4.884 -1.1777 -1.8779 -1.4617
10569SOL    HW233149   4.150   0.983   4.773  0.8651  0.7968 -1.5347
10570SOL     OW33150   0.089   5.542   9.860  0.0092 -0.1335  0.1458
10570SOL    HW133151   0.147   5.467   9.848  0.0358  0.0468 -0.9959
10570SOL    HW233152   0.053   5.531   9.948 -0.6285 -1.9341 -0.2917
10571SOL     OW33153   1.552   6.663   1.090 -0.1666  0.2985 -0.3291
10571SOL    HW133154   1.501   6.587   1.117  0.1300  0.3671  0.4482
10571SOL    HW233155   1.589   6.638   1.005  0.4891 -0.7188  0.2294
10572SOL     OW33156   2.861   4.235   9.251 -0.4319  0.1445  0.1658
10572SOL    HW133157   2.904   4.164   9.298 -1.8920  0.0517  1.4388
10572SOL    HW233158   2.768   4.213   9.254 -0.8929  1.9475  0.3278
10573SOL     OW33159   2.821   3.422   3.715  0.1230 -0.4183  0.4650
10573SOL    HW133160   2.810   3.338   3.671  2.1465  0.0011 -1.0163
10573SOL    HW233161   2.888   3.468   3.663  1.8347  0.5902  3.3027
10574SOL     OW33162   5.483   1.918  12.089 -0.2794  0.0282  0.0532
10574SOL    HW133163   5.392   1.916  12.119  0.0502 -0.7680  1.0955
10574SOL    HW233164   5.526   1.850  12.140  0.9864  0.6337 -0.1573
10575SOL     OW33165   3.946   4.305   0.641 -0.0902 -0.0579  0.8000
10575SOL    HW133166   4.040   4.323   0.640  0.2774 -1.1171 -3.6340
10575SOL    HW233167   3.905   4.391   0.633  0.6178  0.2404  0.2980
10576SOL     OW33168   2.251   3.636   0.117  0.3559 -0.6040 -0.1183
10576SOL    HW133169   2.263   3.642   0.212  0.6175  1.6723 -0.2366
10576SOL    HW233170   2.170   3.685   0.100  0.3859 -0.8769 -1.0801
10577SOL     OW33171   0.607   4.583   4.809 -0.3447 -0.4573 -0.1716
10577SOL    HW133172   0.613   4.640   4.886  2.5909 -0.1130 -0.5605
10577SOL    HW233173   0.687   4.531   4.811  0.7899  0.8768 -3.9448
10578SOL     OW33174   0.332   2.965  10.420 -0.7787 -0.0984 -0.4489
10578SOL    HW133175   0.303   2.902  10.486  3.2983  0.2352  2.0430
10578SOL    HW233176   0.310   3.051  10.456 -1.4598  0.0395 -1.1709
10579SOL     OW33177   0.212   0.634  11.832  0.2170  0.1926 -0.2971
10579SOL    HW133178   0.147   0.587  11.885  0.0393 -0.2669 -0.9062
10579SOL    HW233179   0.213   0.723  11.868  0.6554 -0.3007  0.9674
10580SOL     OW33180   7.877   3.630  11.562  0.1694  0.1443 -0.4043
10580SOL    HW133181   7.865   3.561  11.628  0.0944  1.6012  1.1568
10580SOL    HW233182   7.806   3.615  11.499 -0.2509 -0.7798  0.2610
10581SOL     OW33183   2.173   0.207   1.733 -0.1835 -0.0907  0.3012
10581SOL    HW133184   2.175   0.195   1.638 -1.5192  2.3882 -0.1297
10581SOL    HW233185   2.239   0.145   1.767  1.0172 -0.3598 -2.2863
10582SOL     OW33186   4.759   4.947   9.303  0.2064 -0.1736 -0.4119
10582SOL    HW133187   4.821   4.978   9.369 -0.6106  0.1077  0.2422
10582SOL    HW233188   4.724   5.026   9.263 -1.1236 -0.2279  0.5505
10583SOL     OW33189   1.371   4.377   9.595  0.7239  0.6547 -0.1453
10583SOL    HW133190   1.357   4.463   9.634  0.1175  1.8221 -2.7189
10583SOL    HW233191   1.450   4.388   9.542  1.3923 -0.7909  0.5108
10584SOL     OW33192   7.359   3.098   9.905  0.1760 -0.3744  0.0642
10584SOL    HW133193   7.313   3.153   9.969  0.2477  0.8828 -0.9282
10584SOL    HW233194   7.416   3.158   9.858 -1.6802 -0.7377 -2.8817
10585SOL     OW33195   5.098   1.125  12.029  0.7061  0.2134  0.6301
10585SOL    HW133196   5.144   1.073  11.962  0.2680  0.5120  0.0893
10585SOL    HW233197   5.107   1.074  12.109 -2.3964 -2.4349 -0.4492
10586SOL     OW33198   6.536   0.121   5.633 -0.1801 -0.0811 -0.9549
10586SOL    HW133199   6.465   0.184   5.619  0.2133  0.4058 -0.7583
10586SOL    HW233200   6.593   0.131   5.557  0.8533  1.1039 -0.0666
10587SOL     OW33201   7.002   5.920   5.944 -0.4536 -0.1207  0.0225
10587SOL    HW133202   6.981   5.940   6.035 -1.4559  0.1743 -0.2641
10587SOL    HW233203   7.026   6.004   5.906  1.5135 -0.4719  0.3856
10588SOL     OW33204   7.514   2.330   8.681  0.6434  0.0324 -0.8466
10588SOL    HW133205   7.450   2.268   8.648  0.5020 -0.2998  0.0413
10588SOL    HW233206   7.488   2.414   8.643 -1.6973  0.3532  1.2388
10589SOL     OW33207   5.583   6.986   9.741 -0.2690  0.6167 -0.4342
10589SOL    HW133208   5.543   7.038   9.671  2.4991 -0.7487 -3.3001
10589SOL    HW233209   5.533   6.904   9.742 -1.5108  1.3534  0.6119
10590SOL     OW33210   0.887   7.116   1.562  0.0282  0.2611  0.0724
10590SOL    HW133211   0.826   7.171   1.512  1.0438  0.4044 -1.0590
10590SOL    HW233212   0.831   7.052   1.605 -1.2704  2.4889  1.9408
10591SOL     OW33213   0.817   1.156   0.245 -0.4055  0.1112 -0.6150
10591SOL    HW133214   0.760   1.109   0.306 -0.9851 -0.7263 -1.7667
10591SOL    HW233215   0.905   1.125   0.264 -0.4960  0.3352  0.2069
10592SOL     OW33216   6.483   5.541   2.742  0.5226  0.1087  0.4496
10592SOL    HW133217   6.515   5.546   2.832  0.0634 -0.3626  0.6481
10592SOL    HW233218   6.406   5.483   2.747 -0.0785  0.8348 -0.0785
10593SOL     OW33219   4.838   6.480  11.844  0.2000 -0.1370 -0.0617
10593SOL    HW133220   4.754   6.514  11.812 -0.1191 -0.9872 -0.1611
10593SOL    HW233221   4.819   6.390  11.869  0.3731  0.4689  2.6586
10594SOL     OW33222   3.552   4.455   5.801 -0.3613  0.1986 -0.0885
10594SOL    HW133223   3.641   4.466   5.767 -0.3350  0.3276  0.0255
10594SOL    HW233224   3.559   4.476   5.894 -0.4046 -0.2911  0.0297
10595SOL     OW33225   6.423   2.236   2.394  0.5428 -0.1744  0.1905
10595SOL    HW133226   6.485   2.164   2.381  0.5258 -0.5970  2.1458
10595SOL    HW233227   6.348   2.214   2.338  0.6730 -1.5193  0.5163
10596SOL     OW33228   0.697   2.395   9.424 -0.5984 -0.7918  0.0879
10596SOL    HW133229   0.697   2.377   9.518 -1.3231  0.2611  0.3083
10596SOL    HW233230   0.650   2.320   9.385 -0.5359 -1.0922  0.5889
10597SOL     OW33231   5.185   3.881   3.102 -0.2644  0.1035 -0.2668
10597SOL    HW133232   5.105   3.888   3.049  0.5708  0.1695 -1.5866
10597SOL    HW233233   5.250   3.845   3.041  0.4854 -0.7980  1.0295
10598SOL     OW33234   2.800   6.679   3.550  0.3667  0.2013 -0.3755
10598SOL    HW133235   2.857   6.606   3.574  0.9261  0.1230 -1.8183
10598SOL    HW233236   2.860   6.753   3.539  0.0344  0.4404 -0.6034
10599SOL     OW33237   3.792   7.040  11.757  0.6453 -0.0924  0.3768
10599SOL    HW133238   3.758   7.042  11.668  0.8462 -1.0931  0.2725
10599SOL    HW233239   3.762   6.957  11.793  2.7835 -0.9502  0.3290
10600SOL     OW33240   5.145   5.833   2.100  0.1054  0.1962 -0.5814
10600SOL    HW133241   5.215   5.769   2.111  1.3847  1.5628 -0.4219
10600SOL    HW233242   5.069   5.781   2.077  0.7435 -1.5042  0.8834
10601SOL     OW33243   6.399   0.406   1.168 -0.1168 -0.2139 -0.0964
10601SOL    HW133244   6.350   0.395   1.250  0.5276 -1.0091  0.1931
10601SOL    HW233245   6.486   0.369   1.187 -0.2317 -1.2138 -1.4208
10602SOL     OW33246   6.124   7.603  10.261  0.5359 -0.0327 -0.0657
10602SOL    HW133247   6.136   7.584  10.355 -0.0903  2.1946  0.5155
10602SOL    HW233248   6.201   7.655  10.237  1.2143 -1.4479 -1.1003
10603SOL     OW33249   6.610   1.558   5.870 -0.0961 -0.2361  0.1824
10603SOL    HW133250   6.516   1.544   5.880 -0.0570  0.1615  1.3022
10603SOL    HW233251   6.638   1.494   5.804 -1.3568  0.4901 -1.0920
10604SOL     OW33252   5.662   0.099   4.925 -0.1787  0.3375 -0.0979
10604SOL    HW133253   5.630   0.143   4.847  0.4967 -0.1051 -0.6287
10604SOL    HW233254   5.757   0.109   4.921 -0.1032 -0.1759  0.3763
10605SOL     OW33255   0.911   0.089  11.821 -0.1151  0.1960 -0.0060
10605SOL    HW133256   0.822   0.074  11.853 -0.0281  1.2361  0.7818
10605SOL    HW233257   0.964   0.095  11.901  0.9213 -1.8073 -0.4891
10606SOL     OW33258   0.416   1.463   4.287  0.3826 -0.3066  0.8473
10606SOL    HW133259   0.421   1.542   4.234  1.3738 -0.5904  0.4909
10606SOL    HW233260   0.401   1.392   4.224 -0.1777 -0.4436  1.1301
10607SOL     OW33261   1.856   7.774   0.602  0.0031  0.2830 -0.2101
10607SOL    HW133262   1.822   7.785   0.692  2.1931  2.7705  0.4389
10607SOL    HW233263   1.811   7.842   0.552 -1.9656 -1.7306 -1.3660
10608SOL     OW33264   1.142   1.873   9.912 -0.7239 -0.1435  0.5964
10608SOL    HW133265   1.232   1.855   9.940 -0.8619  0.8066  1.6947
10608SOL    HW233266   1.099   1.787   9.915  0.2303 -0.6881 -0.3500
10609SOL     OW33267   6.109   0.060   1.389  0.5226 -0.6394 -0.6420
10609SOL    HW133268   6.137   0.140   1.345 -0.4565 -0.9110 -1.8224
10609SOL    HW233269   6.189   0.021   1.421  0.9124  1.4471  1.1076
10610SOL     OW33270   1.312   3.339   1.442 -0.1321  0.7039 -0.1127
10610SOL    HW133271   1.394   3.316   1.399 -1.4271 -1.6536 -1.5688
10610SOL    HW233272   1.279   3.415   1.393  0.5695  0.8473 -0.3652
10611SOL     OW33273   5.750   2.838   0.265 -0.5039  0.0061  1.3542
10611SOL    HW133274   5.806   2.804   0.195 -0.8024 -0.9600  1.5634
10611SOL    HW233275   5.681   2.885   0.221 -0.7611 -0.7067  0.9767
10612SOL     OW33276   0.797   7.814   1.931 -0.7805  0.0347  0.1571
10612SOL    HW133277   0.740   7.738   1.940 -0.5472 -0.0512  1.0024
10612SOL    HW233278   0.841   7.801   1.847  0.0096 -1.2992  0.7462
10613SOL     OW33279   0.909   7.235   3.410 -0.0276  0.3481 -0.3358
10613SOL    HW133280   0.920   7.300   3.479  1.5195  0.9332 -1.0754
10613SOL    HW233281   0.817   7.244   3.384 -1.3842 -1.5500  3.1597
10614SOL     OW33282   2.710   6.277   0.902 -0.3216 -0.1512 -0.0552
10614SOL    HW133283   2.688   6.302   0.812  0.8168  1.1965  0.0060
10614SOL    HW233284   2.755   6.193   0.894  3.4336  1.7887 -1.2614
10615SOL     OW33285   0.545   5.584   8.687 -0.1611 -0.4732  0.5303
10615SOL    HW133286   0.533   5.677   8.667 -0.6092 -0.1437  2.1691
10615SOL    HW233287   0.506   5.573   8.774 -3.4110 -2.9887 -1.0496
10616SOL     OW33288   4.225   1.669   2.195  0.0240 -0.4110  0.3739
10616SOL    HW133289   4.205   1.689   2.286 -3.5672  2.3535 -0.7859
10616SOL    HW233290   4.278   1.742   2.166  1.6468 -1.5683  0.2929
10617SOL     OW33291   2.989   0.281   8.033  0.5130 -0.2250 -0.3682
10617SOL    HW133292   3.021   0.303   7.945 -0.2070  0.3107 -0.5142
10617SOL    HW233293   3.039   0.204   8.059  1.1146 -0.0642 -1.0304
10618SOL     OW33294   5.969   2.677   8.333 -0.0804 -0.5117  0.2835
10618SOL    HW133295   6.013   2.612   8.388  0.7973 -0.0828  0.0985
10618SOL    HW233296   6.038   2.738   8.308 -0.8399  0.3207  0.1969
10619SOL     OW33297   1.804   3.559   8.156 -0.6861  0.4765 -0.3188
10619SOL    HW133298   1.849   3.622   8.212 -0.6263 -0.1803  0.3979
10619SOL    HW233299   1.734   3.609   8.114 -0.2820  1.1398 -0.2098
10620SOL     OW33300   0.263   6.981   7.046 -0.2147 -0.1769  0.4245
10620SOL    HW133301   0.228   6.936   7.123 -0.2452  0.0934  0.5700
10620SOL    HW233302   0.314   7.054   7.082  0.3511 -0.4587  0.2116
10621SOL     OW33303   3.540   7.126   3.063 -0.0239  0.0243  0.2030
10621SOL    HW133304   3.566   7.197   3.005  2.1238 -1.4081 -0.7533
10621SOL    HW233305   3.521   7.053   3.004  1.9598 -1.3965  1.1974
10622SOL     OW33306   0.639   0.042   7.023 -0.4019 -0.0318 -0.4485
10622SOL    HW133307   0.636   0.057   7.118 -1.0773 -1.2458 -0.2468
10622SOL    HW233308   0.549   0.060   6.994 -0.5032 -0.8140 -0.6452
10623SOL     OW33309   0.062   5.888  10.796  0.2602  0.0397  0.2355
10623SOL    HW133310   0.061   5.947  10.721  0.3401  0.4669  0.5591
10623SOL    HW233311   0.149   5.901  10.834  0.1884 -0.1043  0.4504
10624SOL     OW33312   6.787   1.170   0.737 -0.1381 -0.5587 -0.0107
10624SOL    HW133313   6.728   1.183   0.811 -0.2760 -0.1047 -0.1987
10624SOL    HW233314   6.730   1.139   0.666 -0.1790  0.0162 -0.2341
10625SOL     OW33315   2.322   4.020   4.337  0.1753 -0.7712  0.1981
10625SOL    HW133316   2.233   4.026   4.372  0.3039 -0.3263  0.4655
10625SOL    HW233317   2.339   4.107   4.299  0.2885 -1.0335 -0.3644
10626SOL     OW33318   7.200   7.429   2.326 -0.1671  0.0724 -0.0335
10626SOL    HW133319   7.223   7.484   2.252 -1.3984  1.3789  0.5139
10626SOL    HW233320   7.141   7.482   2.379  0.7978 -0.7349  1.9981
10627SOL     OW33321   5.949   4.341   1.666 -0.2717 -0.3631 -0.6032
10627SOL    HW133322   5.964   4.251   1.637  0.5038 -0.8693  1.2304
10627SOL    HW233323   5.865   4.338   1.711  0.4542 -0.5329  0.7758
10628SOL     OW33324   3.080   3.015   5.203  0.4159 -0.2625  0.3400
10628SOL    HW133325   3.155   2.963   5.228  0.8765  0.3366  0.2399
10628SOL    HW233326   3.109   3.063   5.125  0.2153  0.5814  0.7653
10629SOL     OW33327   2.864   4.508   3.363 -0.8590  0.3769  0.3794
10629SOL    HW133328   2.827   4.496   3.451 -0.5721 -0.9726  0.3460
10629SOL    HW233329   2.862   4.420   3.324 -2.5344  1.2256 -1.6172
10630SOL     OW33330   4.220   5.697   5.532 -0.0435  0.0491  0.0089
10630SOL    HW133331   4.304   5.683   5.576 -0.6592 -0.7493  0.9579
10630SOL    HW233332   4.181   5.771   5.579  0.2626  0.6415 -0.6509
10631SOL     OW33333   3.361   5.914  12.129  0.2037 -0.1932 -0.1789
10631SOL    HW133334   3.357   5.906  12.034 -2.0260  0.8890 -0.2430
10631SOL    HW233335   3.431   5.854  12.155 -0.3535 -1.9199 -2.3315
10632SOL     OW33336   7.512   6.635   2.673  0.6435 -0.7668 -0.1560
10632SOL    HW133337   7.552   6.551   2.649  2.1551  0.2406 -1.2858
10632SOL    HW233338   7.424   6.631   2.636  0.6365 -1.9245 -0.0426
10633SOL     OW33339   2.767   2.740   6.757 -0.0226  0.7004 -0.2495
10633SOL    HW133340   2.805   2.781   6.835 -1.1430 -1.0955  1.3403
10633SOL    HW233341   2.843   2.705   6.710  0.5757 -0.3109  1.3520
10634SOL     OW33342   0.062   5.444  10.605 -0.3752 -0.0200  0.1583
10634SOL    HW133343   0.044   5.354  10.633 -0.4538  0.0188  0.2317
10634SOL    HW233344  -0.003   5.497  10.650  0.2818  0.1937  0.8801
10635SOL     OW33345   2.580   4.605  11.098 -0.6259  0.4109  0.3813
10635SOL    HW133346   2.622   4.614  11.184 -0.0818  1.2525  0.0382
10635SOL    HW233347   2.577   4.694  11.063  1.3702 -0.1644 -1.4977
10636SOL     OW33348   4.642   5.785  11.087 -0.1938 -0.0006  0.2467
10636SOL    HW133349   4.694   5.710  11.060 -2.4564 -1.1910 -1.0772
10636SOL    HW233350   4.691   5.823  11.159 -0.0156 -4.0839  2.5622
10637SOL     OW33351   3.260   5.611  12.181 -0.4095  0.1110 -0.8767
10637SOL    HW133352   3.165   5.602  12.179 -0.6937  2.4278 -0.5818
10637SOL    HW233353   3.287   5.609  12.089 -0.6842 -0.8875 -0.9434
10638SOL     OW33354   1.315   3.258   0.669  0.3079 -0.5490  0.7093
10638SOL    HW133355   1.381   3.193   0.645 -0.5131 -1.2427  0.2640
10638SOL    HW233356   1.349   3.341   0.636  0.9769 -0.8915  0.5308
10639SOL     OW33357   0.939   2.711   8.551 -0.0761 -0.0123  0.6284
10639SOL    HW133358   0.960   2.692   8.642  2.1729 -2.2052 -0.2639
10639SOL    HW233359   0.998   2.783   8.527 -0.2507  0.1624  0.7165
10640SOL     OW33360   0.626   4.972  10.687  0.5264  0.7228  0.0349
10640SOL    HW133361   0.605   4.923  10.766  0.2708  1.3756  0.3775
10640SOL    HW233362   0.625   5.064  10.715  0.7188  0.9409 -0.6596
10641SOL     OW33363   1.706   0.672  11.329 -0.6860  0.0627 -0.1230
10641SOL    HW133364   1.708   0.625  11.413 -1.1135 -0.8898 -0.6327
10641SOL    HW233365   1.728   0.762  11.352 -1.9303  0.0716  1.1840
10642SOL     OW33366   5.109   0.220   3.324 -0.2629  0.4737  0.2472
10642SOL    HW133367   5.153   0.170   3.255 -0.9578  0.0488  0.1089
10642SOL    HW233368   5.122   0.168   3.403  0.8010  1.1137  0.5114
10643SOL     OW33369   5.452   5.727  11.815 -0.1828  0.9476  0.0045
10643SOL    HW133370   5.521   5.792  11.804 -1.2188  2.0271 -0.3784
10643SOL    HW233371   5.488   5.647  11.775  0.6793  1.5917 -0.5566
10644SOL     OW33372   6.863   1.909   3.250  0.2243  0.0206  0.2935
10644SOL    HW133373   6.925   1.928   3.180 -0.1348 -0.3258 -0.1254
10644SOL    HW233374   6.825   1.824   3.226 -1.3487  0.7962 -0.1407
10645SOL     OW33375   1.684   6.366  10.101  0.1940 -0.1282 -0.1495
10645SOL    HW133376   1.715   6.443  10.148 -1.6028  0.2849  0.4212
10645SOL    HW233377   1.763   6.314  10.086  1.3841  1.6295 -0.2261
10646SOL     OW33378   5.389   7.226  10.923 -0.1800  0.7321 -0.8175
10646SOL    HW133379   5.313   7.248  10.869 -0.5786 -0.7214 -0.8795
10646SOL    HW233380   5.439   7.163  10.871  2.0602  2.9369 -1.5496
10647SOL     OW33381   4.933   6.064   0.491  0.0091  0.2450 -0.6406
10647SOL    HW133382   4.839   6.063   0.472  0.1184 -0.8887 -1.1562
10647SOL    HW233383   4.940   6.117   0.571 -1.1381 -0.2031 -0.2227
10648SOL     OW33384   5.374   6.383   4.898 -0.4274 -0.2031 -0.1521
10648SOL    HW133385   5.412   6.419   4.818 -1.1160  1.0491  0.0571
10648SOL    HW233386   5.333   6.458   4.941 -1.6793 -1.1874  0.4541
10649SOL     OW33387   7.879   3.217  11.252  0.3032 -0.7476 -0.5383
10649SOL    HW133388   7.929   3.273  11.192 -1.7670  2.2044  0.3095
10649SOL    HW233389   7.929   3.218  11.333  0.9980 -1.3459 -0.9460
10650SOL     OW33390   7.256   2.366   3.161  0.3429 -0.2358  0.0658
10650SOL    HW133391   7.246   2.382   3.255 -0.4164 -0.1854 -0.0158
10650SOL    HW233392   7.336   2.314   3.154 -0.3883 -1.5437  0.8979
10651SOL     OW33393   3.710   0.524   3.465 -0.6005  0.0733 -0.0081
10651SOL    HW133394   3.705   0.570   3.548  0.5918 -0.3273  0.3049
10651SOL    HW233395   3.625   0.539   3.423 -1.0154  0.7062  1.0470
10652SOL     OW33396   1.906   4.706   6.650 -0.8076  0.3095  0.4669
10652SOL    HW133397   1.986   4.657   6.668 -1.8687 -2.4625 -1.6092
10652SOL    HW233398   1.844   4.676   6.717 -0.5015  1.6372  1.3984
10653SOL     OW33399   7.415   1.434   4.687  0.1123 -0.3638  0.0811
10653SOL    HW133400   7.503   1.470   4.700 -0.3443  0.2625  1.6411
10653SOL    HW233401   7.390   1.401   4.773 -1.7475  0.7906  0.0351
10654SOL     OW33402   5.611   2.677  10.125  0.0801  0.1816  0.3082
10654SOL    HW133403   5.668   2.601  10.114  1.5128  1.2171  0.2191
10654SOL    HW233404   5.661   2.737  10.180  0.8797  2.8230 -2.9710
10655SOL     OW33405   0.152   3.653   2.399 -0.1249  0.5330  0.2381
10655SOL    HW133406   0.214   3.604   2.345  2.0277  1.3258  1.8189
10655SOL    HW233407   0.083   3.591   2.420 -1.0690  0.1814 -3.2866
10656SOL     OW33408   5.183   3.906   1.281 -0.1237  0.4763  0.1562
10656SOL    HW133409   5.242   3.979   1.303 -1.8225  2.0591 -0.2593
10656SOL    HW233410   5.127   3.941   1.212 -0.4590 -1.5470 -0.6515
10657SOL     OW33411   4.801   3.141   4.637 -0.3608  0.4883 -0.6383
10657SOL    HW133412   4.835   3.212   4.583 -0.4306  0.8635 -0.1928
10657SOL    HW233413   4.783   3.181   4.722 -0.6002 -0.0145 -0.4444
10658SOL     OW33414   3.428   7.543   0.722  0.3336 -0.5941  0.0437
10658SOL    HW133415   3.382   7.466   0.688 -1.4904  0.8784 -0.9549
10658SOL    HW233416   3.450   7.594   0.644  3.1954 -0.8917  0.5233
10659SOL     OW33417   4.290   1.011   0.435 -0.3972 -0.0530  0.5553
10659SOL    HW133418   4.225   1.002   0.505 -0.2207  2.3850  1.1251
10659SOL    HW233419   4.375   1.007   0.480 -0.2573  0.5567  0.3547
10660SOL     OW33420   4.602   6.229   8.669 -0.0020 -0.3396 -0.4272
10660SOL    HW133421   4.565   6.152   8.627  1.1938 -2.0201  1.3771
10660SOL    HW233422   4.694   6.230   8.641 -0.1430  0.7798 -0.8842
10661SOL     OW33423   5.592   3.351   6.783  0.0643  0.0715  0.1301
10661SOL    HW133424   5.574   3.279   6.723 -0.4590 -0.6927  1.1873
10661SOL    HW233425   5.506   3.377   6.816  0.2030  1.4240 -0.4857
10662SOL     OW33426   2.448   2.557  12.106 -0.2100  0.0860  0.0689
10662SOL    HW133427   2.534   2.545  12.145 -1.0412  0.5368  2.1771
10662SOL    HW233428   2.429   2.473  12.063  0.4728 -0.7013  1.2697
10663SOL     OW33429   6.526   6.186   9.209  0.8091  0.3595 -0.5668
10663SOL    HW133430   6.473   6.112   9.182  1.7921 -0.5796 -0.0191
10663SOL    HW233431   6.467   6.240   9.261  1.2168 -2.7441  3.6903
10664SOL     OW33432   6.357   4.367  12.131  0.4462 -0.2056 -0.8231
10664SOL    HW133433   6.379   4.280  12.165  0.2734  0.0963  0.0803
10664SOL    HW233434   6.289   4.400  12.190  1.9234  1.3717  0.0979
10665SOL     OW33435   4.226   5.399   9.038 -0.3504 -0.2035 -0.2203
10665SOL    HW133436   4.300   5.421   9.093 -2.0970  3.3241  0.9812
10665SOL    HW233437   4.258   5.414   8.948  0.2765  1.9393  0.3009
10666SOL     OW33438   7.880   0.785  11.889 -0.7102  0.6603 -0.3964
10666SOL    HW133439   7.818   0.755  11.823  1.0228 -2.2781 -0.8884
10666SOL    HW233440   7.939   0.843  11.841 -1.3617  1.1733 -0.5995
10667SOL     OW33441   6.580   1.767  11.907 -0.1622 -0.8080  0.2995
10667SOL    HW133442   6.514   1.816  11.956  0.5686 -0.5002  0.9968
10667SOL    HW233443   6.530   1.720  11.840 -1.1703 -1.0866  1.2123
10668SOL     OW33444   3.984   3.265   2.924  0.9052  0.4304 -0.0005
10668SOL    HW133445   4.039   3.187   2.912 -0.0425 -0.2186 -0.3005
10668SOL    HW233446   3.953   3.259   3.014 -2.2512 -1.7035 -1.0536
10669SOL     OW33447   5.981   7.024   6.270  0.2976  0.1997 -0.6277
10669SOL    HW133448   5.958   6.931   6.278  0.0585  0.1094 -2.0865
10669SOL    HW233449   5.952   7.063   6.353 -0.2899 -0.8877 -0.2990
10670SOL     OW33450   4.483   7.298   3.269  0.1596  0.6028  0.0170
10670SOL    HW133451   4.559   7.276   3.214  0.5635  0.6396  0.5488
10670SOL    HW233452   4.491   7.241   3.345  0.7174  1.9152  0.9816
10671SOL     OW33453   2.914   1.771   8.788  0.0531 -0.0413  0.1316
10671SOL    HW133454   2.937   1.861   8.766 -1.0394  0.4538  0.9579
10671SOL    HW233455   2.951   1.757   8.875  1.6081 -0.9456 -0.6279
10672SOL     OW33456   0.150   6.191   2.988  0.0286  0.0598  0.4612
10672SOL    HW133457   0.117   6.169   3.075 -0.2603 -1.7696 -0.0649
10672SOL    HW233458   0.229   6.138   2.978  1.8058  2.5027  0.7189
10673SOL     OW33459   1.200   2.992   2.143  0.3795 -0.0809  0.1286
10673SOL    HW133460   1.288   2.994   2.105  0.5791 -0.5566  0.5567
10673SOL    HW233461   1.146   2.949   2.076  0.0681  1.8399 -0.9170
10674SOL     OW33462   6.789   2.067  10.933  0.0954  0.5062 -0.0267
10674SOL    HW133463   6.803   2.010  11.008  0.2426 -0.5781 -0.8590
10674SOL    HW233464   6.696   2.091  10.939 -0.2549 -0.7128 -0.2533
10675SOL     OW33465   2.628   1.891  11.922  0.0311  0.1394  0.0869
10675SOL    HW133466   2.584   1.836  11.857  0.5224 -1.6301  1.1926
10675SOL    HW233467   2.639   1.976  11.878 -0.9116 -0.5694 -1.6070
10676SOL     OW33468   2.920   5.077  11.090  0.6330  0.2631  0.1670
10676SOL    HW133469   2.871   5.132  11.029 -0.9453 -0.4856  0.7023
10676SOL    HW233470   2.930   4.993  11.045  1.2633  0.3435  0.1446
10677SOL     OW33471   1.852   5.687   9.985  0.0644 -0.3546 -0.1998
10677SOL    HW133472   1.914   5.642  10.042  0.4134  0.9099  0.4609
10677SOL    HW233473   1.789   5.727  10.045 -0.4066 -0.2148 -0.7750
10678SOL     OW33474   3.607   0.955   3.231 -0.0357 -0.2759 -0.5707
10678SOL    HW133475   3.584   1.039   3.269 -0.8244  0.3859 -2.4046
10678SOL    HW233476   3.523   0.910   3.219  0.3114 -1.0182 -0.2836
10679SOL     OW33477   5.939   1.388   8.417  0.2196 -0.3797 -0.2125
10679SOL    HW133478   5.949   1.297   8.444 -1.4576 -0.8825 -1.1995
10679SOL    HW233479   5.846   1.399   8.402  0.5080  1.2373 -1.0688
10680SOL     OW33480   5.187   1.993   7.390 -0.8159 -1.0253  0.2750
10680SOL    HW133481   5.192   1.897   7.391 -1.0685 -1.1023 -1.6850
10680SOL    HW233482   5.256   2.020   7.329  0.1127  0.1539  1.7711
10681SOL     OW33483   2.937   1.377   6.852  0.5908 -0.5001  0.4029
10681SOL    HW133484   2.914   1.397   6.943  2.0148 -0.0259  0.7010
10681SOL    HW233485   2.902   1.451   6.802  1.1678  0.0675  0.8032
10682SOL     OW33486   1.032   6.963  10.925 -0.3070  0.0787 -0.1100
10682SOL    HW133487   0.987   7.045  10.902  0.9192  0.6562 -0.5288
10682SOL    HW233488   1.045   6.968  11.020 -0.1095  0.4472 -0.1536
10683SOL     OW33489   1.178   2.499   0.317  0.5536  0.0790 -0.3381
10683SOL    HW133490   1.200   2.552   0.394 -0.1767 -0.4176  0.2323
10683SOL    HW233491   1.181   2.560   0.244 -0.8127  1.0568  0.3741
10684SOL     OW33492   0.988   4.887  12.339  0.1176  0.3237 -0.8137
10684SOL    HW133493   1.044   4.935  12.401  1.1384 -1.0823 -0.5978
10684SOL    HW233494   0.899   4.903  12.370  0.5338  0.7301  0.2209
10685SOL     OW33495   6.540   7.883   6.822  0.0010  0.7068 -0.4486
10685SOL    HW133496   6.574   7.803   6.862  0.7697  2.1172  1.8437
10685SOL    HW233497   6.467   7.853   6.768 -0.0002 -1.4823  0.6741
10686SOL     OW33498   3.588   7.039   3.940 -0.7209  0.2149 -0.0226
10686SOL    HW133499   3.530   7.114   3.925 -1.3689 -0.2295  0.2502
10686SOL    HW233500   3.676   7.075   3.926 -0.8466  1.5579  2.0201
10687SOL     OW33501   5.179   0.485   0.614  0.7944 -0.2833  0.5151
10687SOL    HW133502   5.169   0.523   0.527  2.0855  1.2787  1.0056
10687SOL    HW233503   5.260   0.434   0.609 -0.5687 -2.5193  0.0574
10688SOL     OW33504   3.991   1.509  11.140  0.5118 -0.0294 -0.4429
10688SOL    HW133505   4.040   1.571  11.086  3.6403 -1.0521  1.0303
10688SOL    HW233506   3.929   1.468  11.078  1.2773  1.5108 -2.3465
10689SOL     OW33507   6.072   2.678   5.287 -0.0992 -0.4171  0.4651
10689SOL    HW133508   6.036   2.689   5.375 -0.1572  1.0287  0.2835
10689SOL    HW233509   6.115   2.593   5.289 -2.7401 -1.8578  0.9719
10690SOL     OW33510   3.330   0.079   3.484  0.3128 -0.1775  0.4888
10690SOL    HW133511   3.248   0.124   3.466 -0.7807 -1.5680  1.7011
10690SOL    HW233512   3.398   0.138   3.451 -1.0492  2.0322  1.3888
10691SOL     OW33513   3.925   3.981  12.237  0.3182 -0.2674 -0.4633
10691SOL    HW133514   3.841   3.978  12.282  0.7465  0.9609  0.4737
10691SOL    HW233515   3.962   4.066  12.260  1.7773 -0.7395 -0.9264
10692SOL     OW33516   4.654   0.252  10.482 -0.5140 -0.1065 -0.4066
10692SOL    HW133517   4.645   0.201  10.562 -1.3038 -3.8604 -2.6446
10692SOL    HW233518   4.564   0.269  10.454 -0.2469  0.9352 -0.6746
10693SOL     OW33519   7.823   6.141  10.007 -0.0308  0.6031 -0.4162
10693SOL    HW133520   7.776   6.063  10.035  0.5755  0.5954  0.6270
10693SOL    HW233521   7.841   6.189  10.088 -0.5465  1.9252 -1.0460
10694SOL     OW33522   3.999   1.780   9.992  0.1213  0.7755 -0.4852
10694SOL    HW133523   4.068   1.780  10.059 -1.1554 -1.1482  0.9648
10694SOL    HW233524   4.041   1.747   9.913  0.7673 -1.0218  0.5530
10695SOL     OW33525   7.823   2.481   6.255  0.0780  0.4093 -0.7109
10695SOL    HW133526   7.753   2.474   6.190  0.0025 -0.6614 -0.5406
10695SOL    HW233527   7.847   2.573   6.254 -0.4046  0.5485 -1.7540
10696SOL     OW33528   0.695   5.971   0.219 -0.1904 -0.4633  0.0856
10696SOL    HW133529   0.630   5.955   0.151  0.7732 -0.5648 -0.8405
10696SOL    HW233530   0.671   5.911   0.290 -0.6815 -1.0054 -0.5301
10697SOL     OW33531   3.263   3.955  11.840 -0.4102 -0.0330 -0.1988
10697SOL    HW133532   3.268   4.031  11.783 -1.1982  1.5909  1.7963
10697SOL    HW233533   3.350   3.914  11.833  1.8130  3.7268  2.1048
10698SOL     OW33534   4.207   4.331   5.397 -0.3471  0.0200  0.1364
10698SOL    HW133535   4.264   4.255   5.409  0.7343  0.8417  0.3327
10698SOL    HW233536   4.179   4.354   5.486 -0.3437  0.0950  0.1178
10699SOL     OW33537   5.946   3.880   4.626  0.3560  0.1968 -0.1026
10699SOL    HW133538   5.901   3.933   4.561  2.4408  0.9464 -1.0413
10699SOL    HW233539   5.877   3.844   4.681 -1.3569  0.9412 -1.6827
10700SOL     OW33540   2.397   3.360   5.354 -0.0321  0.0199 -0.1636
10700SOL    HW133541   2.447   3.352   5.272 -0.0996  0.4342 -0.2483
10700SOL    HW233542   2.449   3.311   5.418  0.2149  0.0046 -0.3696
10701SOL     OW33543   6.327   2.444   2.519 -0.4580  0.0004  0.1700
10701SOL    HW133544   6.362   2.374   2.465  0.1368  0.4932 -0.1024
10701SOL    HW233545   6.403   2.499   2.539 -1.0530  1.0612 -0.3788
10702SOL     OW33546   1.250   7.484   1.122  0.3319 -0.7160  0.0638
10702SOL    HW133547   1.294   7.412   1.167 -0.0987 -1.3273 -0.4872
10702SOL    HW233548   1.224   7.448   1.037 -2.8954 -0.9800  1.0508
10703SOL     OW33549   3.256   3.386   1.140 -0.8504  0.1298  0.0130
10703SOL    HW133550   3.245   3.342   1.056 -0.8170 -0.6225  0.3974
10703SOL    HW233551   3.255   3.316   1.205 -2.8405  0.8296  0.8387
10704SOL     OW33552   6.922   0.339   7.475 -0.1111 -0.0398 -0.3710
10704SOL    HW133553   6.979   0.314   7.402 -1.3850 -0.4497 -1.2438
10704SOL    HW233554   6.909   0.258   7.524  0.6226  0.2051  0.2599
10705SOL     OW33555   4.915   1.787   7.811 -0.3957  1.1463  0.9257
10705SOL    HW133556   4.882   1.840   7.739  0.6826  0.1802 -0.3276
10705SOL    HW233557   5.009   1.780   7.794 -0.1463  0.7509  2.3477
10706SOL     OW33558   7.922   7.136   8.472  0.5851  0.3877 -0.2635
10706SOL    HW133559   8.004   7.185   8.473 -0.0667  1.5665  1.5315
10706SOL    HW233560   7.856   7.202   8.450 -0.0824 -0.1533  0.0975
10707SOL     OW33561   3.057   2.155   4.159 -0.4202  0.0060  0.2961
10707SOL    HW133562   3.004   2.164   4.238 -0.0303  0.1772  0.5383
10707SOL    HW233563   3.138   2.201   4.178 -0.9633  1.5289 -0.8173
10708SOL     OW33564   0.419   3.631   4.753  0.5779 -0.0611 -0.2402
10708SOL    HW133565   0.417   3.535   4.751  0.3332 -0.0724  0.3147
10708SOL    HW233566   0.416   3.653   4.846 -0.8913  0.4997 -0.3934
10709SOL     OW33567   2.891   3.971   6.049  0.0036  0.2010 -0.1480
10709SOL    HW133568   2.959   3.919   6.091 -0.5191 -0.0214  0.4317
10709SOL    HW233569   2.890   3.940   5.958  0.0837 -0.4041  0.0568
10710SOL     OW33570   2.431   6.142   7.402 -0.5833  0.4225 -0.0273
10710SOL    HW133571   2.394   6.071   7.455 -0.9368 -0.2169 -1.0912
10710SOL    HW233572   2.359   6.169   7.344 -0.4875  1.7488  0.4388
10711SOL     OW33573   2.090   4.094   7.820  0.1843  0.0170  0.0722
10711SOL    HW133574   2.140   4.082   7.900  0.5959 -0.5742 -0.2726
10711SOL    HW233575   2.155   4.111   7.752  0.1686 -3.1554 -0.8721
10712SOL     OW33576   6.951   2.004   2.281 -1.0125  0.0432 -0.1811
10712SOL    HW133577   6.932   2.097   2.269 -1.2535  0.0683  0.3431
10712SOL    HW233578   6.982   1.974   2.196  1.5638  1.1861  0.2628
10713SOL     OW33579   0.808   6.769   3.278  0.2298 -0.0412  0.2957
10713SOL    HW133580   0.801   6.680   3.245 -0.2093  0.1328 -0.0878
10713SOL    HW233581   0.792   6.761   3.372 -2.0455 -0.1038 -0.0339
10714SOL     OW33582   1.031   3.377   9.524  0.0624  0.2105  0.1352
10714SOL    HW133583   1.114   3.351   9.484 -0.6555 -1.3712 -0.3929
10714SOL    HW233584   1.001   3.451   9.470  0.9864  0.6302  0.1766
10715SOL     OW33585   3.768   0.641   9.700 -0.2570 -0.0168  0.9073
10715SOL    HW133586   3.842   0.701   9.703 -2.5540  3.5429 -2.5391
10715SOL    HW233587   3.705   0.678   9.761 -0.7039 -0.5423  0.7750
10716SOL     OW33588   4.724   6.713   6.643 -0.3057 -0.3452 -0.7299
10716SOL    HW133589   4.711   6.770   6.567 -0.8575 -2.6612 -2.4798
10716SOL    HW233590   4.819   6.710   6.655 -0.2132 -0.0453 -1.3757
10717SOL     OW33591   6.962   6.571  11.950 -0.0519 -0.2645  0.1574
10717SOL    HW133592   6.967   6.560  11.855 -0.0667  0.1639  0.1067
10717SOL    HW233593   6.889   6.631  11.964  1.5000  1.7139  0.2651
10718SOL     OW33594   7.114   5.074  10.155  0.2141  0.1529  0.1923
10718SOL    HW133595   7.182   5.019  10.116  1.7444  2.6368 -0.9573
10718SOL    HW233596   7.125   5.159  10.112 -2.4606  1.1844  1.3262
10719SOL     OW33597   6.037   4.009  10.004  0.5895 -0.7459  1.0775
10719SOL    HW133598   6.039   3.933   9.945 -0.8059 -0.8591  1.1434
10719SOL    HW233599   6.125   4.012  10.042  0.5419 -2.6274  1.4292
10720SOL     OW33600   0.178   5.816   7.838  0.6871 -0.1126  0.3844
10720SOL    HW133601   0.108   5.769   7.883  0.6037 -0.9921 -0.6366
10720SOL    HW233602   0.258   5.788   7.883  0.6665 -1.4530 -0.3680
10721SOL     OW33603   3.435   7.156   5.737  0.2017 -0.1673  0.2000
10721SOL    HW133604   3.433   7.206   5.655 -1.4970 -0.3122  0.1025
10721SOL    HW233605   3.487   7.210   5.797  0.7411  0.3528 -0.7197
10722SOL     OW33606   7.789   1.512  10.335 -0.0860  0.1129 -0.3340
10722SOL    HW133607   7.843   1.437  10.361 -0.1559 -0.4168 -1.6744
10722SOL    HW233608   7.809   1.579  10.401  1.2794 -0.4870 -0.0965
10723SOL     OW33609   2.971   7.524  10.027  0.7491  0.1806 -0.1384
10723SOL    HW133610   3.054   7.552  10.066 -0.3953  3.0218  0.5165
10723SOL    HW233611   2.959   7.581   9.951 -0.1810 -0.8223 -0.7735
10724SOL     OW33612   1.896   6.744   7.655 -0.3469 -0.1594  0.2367
10724SOL    HW133613   1.806   6.757   7.627 -0.7106 -0.3010  1.2800
10724SOL    HW233614   1.945   6.816   7.615 -0.7303 -0.6362 -1.1392
10725SOL     OW33615   5.612   0.824  11.039  0.1637 -0.2040 -0.3534
10725SOL    HW133616   5.546   0.879  11.082  1.6720  0.3636  1.3440
10725SOL    HW233617   5.617   0.859  10.950 -1.6457 -0.1381 -0.4829
10726SOL     OW33618   7.431   5.999   8.374 -0.0738 -0.2171  0.4482
10726SOL    HW133619   7.459   6.074   8.322  1.0956  0.0095  1.3581
10726SOL    HW233620   7.481   6.006   8.456  1.0339 -2.6416  0.0777
10727SOL     OW33621   0.008   3.112   0.332  0.0164 -0.3875 -0.4756
10727SOL    HW133622   0.072   3.183   0.341 -0.9080  0.5363 -1.0414
10727SOL    HW233623   0.057   3.041   0.290  1.1945 -0.4468  0.9255
10728SOL     OW33624   3.462   6.485   0.882  0.4875 -0.2580  0.0538
10728SOL    HW133625   3.470   6.422   0.810 -0.9320  0.2068 -0.5751
10728SOL    HW233626   3.370   6.477   0.910  0.4671  1.0232  0.4179
10729SOL     OW33627   0.311   2.697  12.270 -0.6511 -0.1840  0.4883
10729SOL    HW133628   0.375   2.680  12.339 -0.7716 -1.7557  0.2335
10729SOL    HW233629   0.355   2.672  12.189 -1.0757  0.1218  0.1583
10730SOL     OW33630   4.197   7.190   3.775 -0.2591  0.4910 -0.1288
10730SOL    HW133631   4.288   7.214   3.789  0.4550 -1.9767 -0.0489
10730SOL    HW233632   4.190   7.100   3.807 -2.5907  0.4070 -0.6420
10731SOL     OW33633   0.598   3.377   1.586  0.7202  0.4521 -0.2685
10731SOL    HW133634   0.597   3.418   1.500  0.1419 -1.7030 -1.3704
10731SOL    HW233635   0.620   3.285   1.569 -1.2713 -0.4907  1.6319
10732SOL     OW33636   0.134   4.953   7.148  0.5193 -0.3079 -0.3546
10732SOL    HW133637   0.081   4.945   7.228 -1.0138 -0.0063 -1.2861
10732SOL    HW233638   0.105   5.036   7.109  0.7734 -0.7563 -1.5303
10733SOL     OW33639   3.406   0.577   4.983 -0.0256  0.4501 -0.4823
10733SOL    HW133640   3.494   0.587   4.947 -0.0812  0.9264 -0.4839
10733SOL    HW233641   3.356   0.650   4.947 -0.1735  0.7471  0.3072
10734SOL     OW33642   4.013   5.049   2.620  0.2271 -0.5059  0.0277
10734SOL    HW133643   4.038   5.141   2.611 -0.8852 -0.0591  1.1892
10734SOL    HW233644   3.983   5.024   2.533  1.0265  0.0652 -0.4274
10735SOL     OW33645   2.177   2.779   4.787  0.9463  0.6761  0.0989
10735SOL    HW133646   2.203   2.788   4.695  0.6642  0.1466 -0.0371
10735SOL    HW233647   2.250   2.816   4.836  2.0267 -0.8225 -0.2709
10736SOL     OW33648   3.980   3.629   4.718  0.1144  0.2250 -0.4150
10736SOL    HW133649   3.914   3.660   4.780 -1.0801  1.4420 -2.1751
10736SOL    HW233650   4.042   3.701   4.712  0.4909 -0.0873 -0.2671
10737SOL     OW33651   5.820   6.296   4.840 -0.8625  0.2849  0.4096
10737SOL    HW133652   5.874   6.360   4.886 -2.5764  1.7997  0.4224
10737SOL    HW233653   5.746   6.282   4.898 -0.5179 -1.7959  0.4199
10738SOL     OW33654   3.158   4.221   0.200 -1.0074 -0.5230 -0.3747
10738SOL    HW133655   3.227   4.281   0.228 -1.7825 -0.5431  1.7753
10738SOL    HW233656   3.109   4.270   0.133  0.2639 -0.0115 -0.9577
10739SOL     OW33657   6.174   2.739   2.181 -0.2695 -0.1768 -0.2566
10739SOL    HW133658   6.188   2.713   2.272  0.0600  1.6785  0.2425
10739SOL    HW233659   6.134   2.661   2.141 -1.1070 -0.7839  1.6340
10740SOL     OW33660   2.090   7.105   6.109 -0.2805 -0.8728  0.3247
10740SOL    HW133661   2.069   7.168   6.178 -0.7960 -1.2488  0.5155
10740SOL    HW233662   2.038   7.133   6.034  2.2207  1.1217 -0.8191
10741SOL     OW33663   7.671   6.219   6.315 -0.6704 -0.0334 -0.0457
10741SOL    HW133664   7.630   6.221   6.401  0.2005  0.7570  0.3733
10741SOL    HW233665   7.698   6.128   6.303 -0.9650 -0.1884  0.4290
10742SOL     OW33666   1.975   2.260   6.770 -0.3234  0.5728 -0.3350
10742SOL    HW133667   2.056   2.303   6.798  0.4861 -0.2920 -1.2436
10742SOL    HW233668   1.923   2.331   6.732  0.8640  0.8486 -1.5483
10743SOL     OW33669   7.720   2.436   9.487  0.0182 -0.2532  0.1950
10743SOL    HW133670   7.706   2.483   9.569 -1.8507  0.0810 -0.2631
10743SOL    HW233671   7.633   2.430   9.447  0.8650 -0.4216 -1.7678
10744SOL     OW33672   1.984   2.649   8.219  0.2641 -0.0997 -0.4915
10744SOL    HW133673   1.946   2.697   8.292 -0.7473 -1.7623  0.1368
10744SOL    HW233674   1.960   2.700   8.141  1.5330  1.8003  0.2966
10745SOL     OW33675   6.283   4.055   8.271 -0.3613 -0.1824 -0.2144
10745SOL    HW133676   6.284   3.971   8.316 -1.0180  0.0228  0.1991
10745SOL    HW233677   6.204   4.099   8.304 -0.0091  0.6064 -0.4033
10746SOL     OW33678   1.910   3.721   9.188  0.3021  0.0549 -0.7190
10746SOL    HW133679   1.957   3.804   9.178  2.2045 -0.8797  0.0658
10746SOL    HW233680   1.848   3.737   9.258  0.7300  0.7846 -0.4921
10747SOL     OW33681   0.973   1.328   6.907  0.7976 -0.3884 -0.3410
10747SOL    HW133682   0.883   1.346   6.882  0.0414 -1.8911  1.1455
10747SOL    HW233683   0.978   1.355   6.999  2.7510  2.5066 -1.1220
10748SOL     OW33684   5.396   3.787  10.263  0.4118  0.2591  0.0472
10748SOL    HW133685   5.399   3.720  10.195 -0.0351 -1.6459  1.8311
10748SOL    HW233686   5.335   3.853  10.228  1.1210 -0.0472 -1.8794
10749SOL     OW33687   4.948   7.643  12.305 -0.0076 -0.0903 -0.0621
10749SOL    HW133688   5.002   7.575  12.266 -0.6595 -0.4541 -0.3477
10749SOL    HW233689   4.868   7.644  12.252 -0.2968  0.4122  0.3688
10750SOL     OW33690   2.712   0.964   1.252  0.3521 -0.1437 -0.4841
10750SOL    HW133691   2.729   0.883   1.301  0.8113 -0.3304 -0.9360
10750SOL    HW233692   2.789   0.974   1.195  1.4772  1.8978  1.2319
10751SOL     OW33693   5.420   3.016   4.852 -0.1668 -0.2062  0.9655
10751SOL    HW133694   5.388   2.939   4.899 -4.3127  1.0904  0.7239
10751SOL    HW233695   5.376   3.090   4.895  0.2472  1.5804 -1.4591
10752SOL     OW33696   4.942   0.218   5.082  0.2919 -0.2344  0.1396
10752SOL    HW133697   4.992   0.294   5.051 -0.7250  0.5301  0.3270
10752SOL    HW233698   4.990   0.143   5.048  1.7981  0.4478  0.6592
10753SOL     OW33699   1.217   2.349  11.466  0.5330 -0.4115 -0.4781
10753SOL    HW133700   1.257   2.280  11.519  0.0433 -0.3898 -0.0677
10753SOL    HW233701   1.150   2.388  11.523  0.8443  0.4476 -0.6796
10754SOL     OW33702   2.260   6.032   6.374 -0.6027 -0.1890 -0.5311
10754SOL    HW133703   2.275   5.956   6.430 -2.1421 -0.2531 -0.1433
10754SOL    HW233704   2.221   6.097   6.434 -0.3994  0.4723 -1.1065
10755SOL     OW33705   0.944   4.923  11.048 -0.0072 -0.1421  0.2839
10755SOL    HW133706   0.974   4.938  10.958 -1.7789  0.8363 -0.1751
10755SOL    HW233707   0.977   4.836  11.069 -1.0325 -1.1617 -1.9803
10756SOL     OW33708   1.347   2.909   9.934 -0.4359 -0.4181  0.3984
10756SOL    HW133709   1.400   2.971   9.984 -1.1421  0.1138  0.4858
10756SOL    HW233710   1.315   2.959   9.859  1.2358 -1.3920 -1.0610
10757SOL     OW33711   3.763   7.599   3.278  0.1691  0.6195 -0.4362
10757SOL    HW133712   3.774   7.689   3.309 -0.1877 -0.0120  1.6146
10757SOL    HW233713   3.784   7.545   3.353  1.2860 -1.0829 -1.8843
10758SOL     OW33714   7.307   4.906   5.761  0.0435  0.0139  0.5240
10758SOL    HW133715   7.391   4.865   5.779  0.7357 -0.1818 -2.4783
10758SOL    HW233716   7.285   4.876   5.672 -2.3667  1.3945  0.5671
10759SOL     OW33717   6.919   1.962   9.254 -0.1369 -0.3961  0.1373
10759SOL    HW133718   6.915   2.036   9.193 -1.8914 -0.1343  0.5369
10759SOL    HW233719   6.916   1.885   9.197 -3.4755 -0.1884 -0.1646
10760SOL     OW33720   4.795   6.675   1.720 -0.3422  0.2068  0.1584
10760SOL    HW133721   4.800   6.595   1.772 -1.4174 -0.6151 -0.9283
10760SOL    HW233722   4.869   6.668   1.660 -0.5556 -0.0885 -0.0753
10761SOL     OW33723   1.262   4.742  11.541  0.4027 -0.0373  0.3391
10761SOL    HW133724   1.234   4.715  11.628 -0.6995  0.2364  0.0806
10761SOL    HW233725   1.313   4.667  11.508 -0.1020 -0.5837  0.7882
10762SOL     OW33726   7.746   4.883   4.112  0.0258 -0.3101 -0.9505
10762SOL    HW133727   7.809   4.888   4.184 -1.5444  0.5317  0.4497
10762SOL    HW233728   7.664   4.855   4.154 -1.8067  3.2278 -1.7238
10763SOL     OW33729   4.865   0.220  12.127 -0.1826 -0.0273  0.0475
10763SOL    HW133730   4.825   0.170  12.197 -1.9945  1.3708  0.0859
10763SOL    HW233731   4.950   0.246  12.161 -0.5145 -0.4351  1.2353
10764SOL     OW33732   0.936   3.587   3.042  0.2493 -0.3154 -0.2136
10764SOL    HW133733   0.849   3.555   3.019 -0.1692  1.8335 -1.9121
10764SOL    HW233734   0.995   3.544   2.980  0.1166 -0.2448 -0.3896
10765SOL     OW33735   5.919   0.760   0.567  0.1404 -0.2202  0.8594
10765SOL    HW133736   6.011   0.781   0.556 -0.6182  2.4179 -1.7857
10765SOL    HW233737   5.881   0.838   0.608 -1.0900 -0.8539  0.9915
10766SOL     OW33738   0.546   7.077   1.483  0.1289 -0.0923  0.4931
10766SOL    HW133739   0.604   7.018   1.436 -0.6098  0.8011 -1.6420
10766SOL    HW233740   0.469   7.086   1.427 -1.3620  0.1064  2.4324
10767SOL     OW33741   2.505   4.130   7.836 -0.3924  0.4452  0.1909
10767SOL    HW133742   2.566   4.204   7.840 -1.8786  1.6565  1.8449
10767SOL    HW233743   2.557   4.055   7.865  0.0791  1.6631  2.7560
10768SOL     OW33744   5.902   5.498   0.674  0.8320 -0.2138  0.3555
10768SOL    HW133745   5.993   5.521   0.654  0.5042  1.0035  0.1461
10768SOL    HW233746   5.858   5.583   0.685 -0.2284 -0.7860  0.6678
10769SOL     OW33747   4.568   2.069  11.798  0.4661 -0.3511  0.3997
10769SOL    HW133748   4.650   2.118  11.796  0.4881 -0.3578 -1.7308
10769SOL    HW233749   4.511   2.117  11.738 -0.2183 -1.7315 -0.1007
10770SOL     OW33750   0.325   0.873   7.989  0.2784  0.2045 -0.2899
10770SOL    HW133751   0.293   0.954   8.028  0.5314  0.1514  0.0337
10770SOL    HW233752   0.255   0.845   7.930 -0.3082  0.0539  0.4662
10771SOL     OW33753   7.249   1.097   7.668  0.0280 -0.3450  0.6242
10771SOL    HW133754   7.315   1.157   7.703 -1.3997  1.1869  0.7949
10771SOL    HW233755   7.217   1.140   7.589 -1.2238 -0.7543  0.8962
10772SOL     OW33756   5.977   5.997   6.812  0.2232  0.6137 -0.3709
10772SOL    HW133757   5.971   6.090   6.836  1.3209  0.9891 -1.4286
10772SOL    HW233758   6.058   5.967   6.852 -0.7746 -0.2634  1.0565
10773SOL     OW33759   7.265   6.723   7.585 -0.4875 -0.9788 -0.7039
10773SOL    HW133760   7.215   6.684   7.657 -2.0766  0.2636 -1.0554
10773SOL    HW233761   7.349   6.745   7.623 -0.5809 -2.1160  0.2353
10774SOL     OW33762   7.202   1.538   2.881 -0.2309 -0.3515 -0.2805
10774SOL    HW133763   7.215   1.607   2.946 -3.3054  0.9298 -0.8382
10774SOL    HW233764   7.129   1.486   2.916 -0.6817 -0.7851 -1.7821
10775SOL     OW33765   7.417   1.738   1.650 -0.4223 -0.1610 -0.1261
10775SOL    HW133766   7.361   1.680   1.703  0.4230 -0.1797  0.7867
10775SOL    HW233767   7.505   1.720   1.682 -0.0706  1.0827 -0.3658
10776SOL     OW33768   4.682   5.200   1.760 -0.3965  0.3550 -0.7596
10776SOL    HW133769   4.600   5.185   1.806 -0.6208  0.3759 -1.1535
10776SOL    HW233770   4.657   5.212   1.669  0.0465  0.3297 -0.8862
10777SOL     OW33771   5.633   7.328   9.334 -0.5422 -0.6307 -0.0349
10777SOL    HW133772   5.608   7.414   9.367  1.3593  0.8420 -2.1346
10777SOL    HW233773   5.694   7.294   9.399 -2.3277 -1.0966  1.4982
10778SOL     OW33774   0.535   2.268   3.113  0.3529 -0.5845 -0.2311
10778SOL    HW133775   0.455   2.243   3.066  1.2119 -1.4140 -1.3290
10778SOL    HW233776   0.550   2.359   3.088  0.2616 -0.7206 -0.8049
10779SOL     OW33777   7.514   2.694   9.475 -0.3812 -0.3736 -0.6318
10779SOL    HW133778   7.542   2.605   9.455  0.3358 -0.5405  0.9446
10779SOL    HW233779   7.453   2.716   9.405  0.5609 -1.5417 -1.8938
10780SOL     OW33780   1.429   2.847   8.410 -0.4180 -0.0950  0.2592
10780SOL    HW133781   1.340   2.862   8.444  0.0043 -2.6696  2.8376
10780SOL    HW233782   1.479   2.922   8.442 -1.3188  0.6104  0.0810
10781SOL     OW33783   1.273   3.810  11.070  0.1025  0.0356 -0.2148
10781SOL    HW133784   1.269   3.718  11.045  2.4458 -0.1869 -0.0032
10781SOL    HW233785   1.235   3.813  11.158  0.8330 -0.8976  0.1421
10782SOL     OW33786   2.722   3.890   2.007  0.0811  0.4335  0.0409
10782SOL    HW133787   2.689   3.910   2.095  2.0237 -1.4853  1.2848
10782SOL    HW233788   2.751   3.975   1.973 -1.1374  1.2918  1.0082
10783SOL     OW33789   6.825   1.421  10.453  0.0719  0.1129  0.2731
10783SOL    HW133790   6.911   1.403  10.414  0.2282  0.1247  0.6082
10783SOL    HW233791   6.765   1.424  10.379 -0.5338 -4.7199  0.2402
10784SOL     OW33792   7.391   1.542   7.489 -0.3912  0.0110 -0.2179
10784SOL    HW133793   7.384   1.448   7.506 -0.6232 -0.0816 -0.7714
10784SOL    HW233794   7.438   1.577   7.564  1.3496 -0.8231 -0.8772
10785SOL     OW33795   3.615   6.072   2.642  0.1079 -0.2691  0.2168
10785SOL    HW133796   3.700   6.111   2.625  0.4424 -0.9109  0.4064
10785SOL    HW233797   3.623   6.034   2.730 -0.0286 -1.2487 -0.1812
10786SOL     OW33798   6.536   4.964  11.323  0.0667  0.3682 -0.0191
10786SOL    HW133799   6.499   5.052  11.311 -0.9640  0.1872  1.5218
10786SOL    HW233800   6.477   4.907  11.273  0.2520  0.4588 -0.3423
10787SOL     OW33801   1.119   2.248   2.425  0.1016 -0.1640  0.0385
10787SOL    HW133802   1.192   2.303   2.397 -1.2622  1.0792 -1.2531
10787SOL    HW233803   1.137   2.163   2.385  0.5137  0.3238 -0.8572
10788SOL     OW33804   0.642   2.633   3.280 -0.3870  0.1013 -0.0353
10788SOL    HW133805   0.641   2.622   3.185 -0.1394 -1.9285  0.1443
10788SOL    HW233806   0.582   2.565   3.312  0.3099  0.0799  1.2994
10789SOL     OW33807   5.534   4.849   4.204 -0.1357 -0.1433 -0.4784
10789SOL    HW133808   5.609   4.790   4.202  0.6521  0.8262  0.0221
10789SOL    HW233809   5.566   4.929   4.246 -0.7581  1.2173 -2.4530
10790SOL     OW33810   0.221   7.109   2.209 -0.3276 -0.3125 -0.7202
10790SOL    HW133811   0.137   7.144   2.240  0.8976  1.9937  0.2076
10790SOL    HW233812   0.265   7.078   2.288  0.6971  0.7900 -0.8384
10791SOL     OW33813   0.416   6.229   2.374 -0.4263 -0.2928 -0.6617
10791SOL    HW133814   0.491   6.285   2.355 -0.3821  0.0962  0.5491
10791SOL    HW233815   0.440   6.144   2.338  0.6866 -0.2277 -0.1334
10792SOL     OW33816   6.281   3.460  10.420 -0.7585 -0.0378 -0.5882
10792SOL    HW133817   6.335   3.450  10.342 -0.1518  0.7335 -0.2801
10792SOL    HW233818   6.343   3.457  10.493 -1.2268  0.0394 -0.1779
10793SOL     OW33819   6.919   1.172   6.048 -0.3741 -0.1269 -0.0612
10793SOL    HW133820   6.913   1.265   6.026  0.4733 -0.0110  0.1723
10793SOL    HW233821   6.935   1.170   6.142  3.3868 -0.3227 -0.5456
10794SOL     OW33822   3.835   4.793   7.360 -0.3078  0.3897  0.5799
10794SOL    HW133823   3.802   4.882   7.368  0.2013  0.7050 -0.6136
10794SOL    HW233824   3.842   4.762   7.451 -1.8604  1.0273  0.9472
10795SOL     OW33825   2.345   1.542   6.282  0.1304 -0.0228 -0.0666
10795SOL    HW133826   2.256   1.560   6.252  0.6201  3.4684  0.2232
10795SOL    HW233827   2.344   1.562   6.375  0.1427 -4.8422  1.2230
10796SOL     OW33828   0.073   1.246   6.364  0.3371 -0.0875 -0.6950
10796SOL    HW133829   0.140   1.310   6.344  0.5809 -0.0514  0.1870
10796SOL    HW233830   0.088   1.223   6.456 -0.4881 -0.5124 -0.6538
10797SOL     OW33831   0.073   1.024   3.024  0.1337  0.5531 -0.4228
10797SOL    HW133832   0.023   1.077   3.086 -2.9202 -1.2914 -1.1195
10797SOL    HW233833   0.086   1.082   2.949 -0.5564  1.2442 -0.0256
10798SOL     OW33834   1.959   1.362   0.605 -0.0707  0.2237  0.2157
10798SOL    HW133835   1.863   1.368   0.605 -0.0440  0.8569 -0.4735
10798SOL    HW233836   1.977   1.273   0.634 -0.8852 -0.0712 -0.1383
10799SOL     OW33837   2.643   4.906  11.664  0.4582 -0.0875  0.3519
10799SOL    HW133838   2.560   4.867  11.636  0.5220 -1.0760  1.4737
10799SOL    HW233839   2.708   4.838  11.647  0.9804  0.5079 -0.0760
10800SOL     OW33840   1.140   4.898   9.552  0.3090  0.1456  0.8455
10800SOL    HW133841   1.155   4.818   9.603  1.8447 -0.0519  0.1238
10800SOL    HW233842   1.219   4.950   9.563  0.6294  0.1692 -1.1657
10801SOL     OW33843   5.093   7.864   9.260  0.4195 -0.4248 -0.1761
10801SOL    HW133844   5.166   7.911   9.299  0.4561  0.1639 -0.9290
10801SOL    HW233845   5.053   7.927   9.200 -1.2588 -0.4387  0.8676
10802SOL     OW33846   5.656   2.357   7.528 -0.4298 -0.0662  0.5550
10802SOL    HW133847   5.638   2.444   7.563 -1.5724  0.0829 -0.3476
10802SOL    HW233848   5.678   2.372   7.436 -0.6216 -0.7352  0.3940
10803SOL     OW33849   0.412   6.486   1.431 -0.2269 -0.1280  0.1559
10803SOL    HW133850   0.326   6.525   1.450 -0.0084 -0.4250  1.8878
10803SOL    HW233851   0.475   6.555   1.450  0.1109 -1.0014  2.4447
10804SOL     OW33852   3.578   7.279   3.695  0.1228  0.3918 -0.4795
10804SOL    HW133853   3.528   7.326   3.628  1.0293  0.6386 -0.9934
10804SOL    HW233854   3.514   7.261   3.764 -0.7674  0.3577 -1.2961
10805SOL     OW33855   0.630   7.582   2.230 -0.0967  0.0798  0.0188
10805SOL    HW133856   0.608   7.579   2.137 -0.9701 -0.7608  0.2382
10805SOL    HW233857   0.721   7.553   2.234  1.1605  3.4696 -0.8892
10806SOL     OW33858   5.772   5.653   7.282 -0.0871 -0.1962  0.6013
10806SOL    HW133859   5.829   5.711   7.332  0.9256 -2.3242  2.0666
10806SOL    HW233860   5.691   5.649   7.333  0.7535 -1.9436  1.9302
10807SOL     OW33861   1.962   6.804   4.662  0.2852 -0.7253  0.1309
10807SOL    HW133862   2.048   6.777   4.631 -0.6939 -1.4875 -2.1240
10807SOL    HW233863   1.905   6.730   4.642 -1.2694  0.5255 -0.2781
10808SOL     OW33864   2.152   0.110  11.550  0.3184  0.1370  0.1048
10808SOL    HW133865   2.245   0.101  11.530  0.1366  0.5992 -1.0658
10808SOL    HW233866   2.147   0.181  11.613  0.8772 -0.9438  1.4053
10809SOL     OW33867   1.721   6.026   7.272  0.4165  0.0843  0.2928
10809SOL    HW133868   1.731   6.014   7.367  1.2296  0.1104  0.2203
10809SOL    HW233869   1.786   5.966   7.234 -1.5112 -1.7199 -0.3334
10810SOL     OW33870   5.986   5.697  11.294 -0.0809  0.2834 -0.0158
10810SOL    HW133871   6.034   5.779  11.284  1.7195 -0.4709  1.7291
10810SOL    HW233872   6.035   5.634  11.242  0.4100 -0.3238  1.1377
10811SOL     OW33873   6.270   2.408   8.350  0.1398  0.2874  0.1913
10811SOL    HW133874   6.318   2.412   8.267  0.2761  1.6507  0.3201
10811SOL    HW233875   6.289   2.321   8.384  0.4871 -0.1085 -0.9618
10812SOL     OW33876   6.990   7.019   4.836 -0.1380 -0.3348 -0.4715
10812SOL    HW133877   7.068   7.057   4.876  0.2301 -0.0258 -1.4713
10812SOL    HW233878   7.013   6.928   4.818 -0.0437 -0.2734 -0.6636
10813SOL     OW33879   7.336   1.366   6.923 -0.0587  0.2799  0.5566
10813SOL    HW133880   7.254   1.328   6.892 -0.5354  1.8585 -0.2402
10813SOL    HW233881   7.331   1.361   7.018 -1.7730  1.6309  0.5919
10814SOL     OW33882   7.567   5.503   6.813  0.2211  0.5468  0.1162
10814SOL    HW133883   7.509   5.576   6.789  0.0818  0.9017  1.4674
10814SOL    HW233884   7.527   5.466   6.891  0.5342 -0.7190 -0.3036
10815SOL     OW33885   5.403   4.272   4.593  0.4606 -0.1173 -0.1584
10815SOL    HW133886   5.394   4.338   4.525  1.9822  0.8061  0.4841
10815SOL    HW233887   5.318   4.229   4.596 -0.3760  1.3962 -1.0127
10816SOL     OW33888   5.298   5.096   5.366  0.0622  0.3738  0.0890
10816SOL    HW133889   5.224   5.157   5.379 -0.0266  0.0831  1.0130
10816SOL    HW233890   5.361   5.121   5.433  0.8117  0.6033 -0.6851
10817SOL     OW33891   6.683   6.014   0.394 -0.1205 -0.4458 -0.4572
10817SOL    HW133892   6.612   6.062   0.436 -0.5607 -0.2947 -1.3423
10817SOL    HW233893   6.756   6.075   0.392 -0.4246 -0.0852 -0.8429
10818SOL     OW33894   3.341   7.582   3.866  0.5094 -0.3157  0.2598
10818SOL    HW133895   3.382   7.538   3.792  1.3370 -1.6703  1.4655
10818SOL    HW233896   3.406   7.576   3.936 -0.4209  0.5293  1.2232
10819SOL     OW33897   0.793   2.697   9.766 -0.4169  0.6817 -0.0876
10819SOL    HW133898   0.740   2.626   9.802 -1.3053  1.4467  0.1568
10819SOL    HW233899   0.808   2.756   9.839 -1.6684  1.9104 -0.7764
10820SOL     OW33900   7.115   2.307   3.436  0.3799 -0.4056  0.1444
10820SOL    HW133901   7.182   2.241   3.420  1.2375  0.2573  0.9060
10820SOL    HW233902   7.044   2.284   3.376  1.2731 -1.1321 -0.6667
10821SOL     OW33903   6.313   7.392   7.090 -0.1956  0.1602 -0.0314
10821SOL    HW133904   6.373   7.328   7.053 -0.0871  1.0981 -1.5552
10821SOL    HW233905   6.266   7.428   7.015  0.5005  2.6150  0.6139
10822SOL     OW33906   0.657   0.899   9.023  0.5039  0.0045  0.1650
10822SOL    HW133907   0.689   0.839   8.956 -0.2537 -2.1892  1.6437
10822SOL    HW233908   0.584   0.944   8.982  0.4745 -0.7945 -0.7030
10823SOL     OW33909   5.885   7.445   8.680  0.2065 -0.3321  0.5409
10823SOL    HW133910   5.837   7.398   8.748 -0.6007 -0.1194  0.1215
10823SOL    HW233911   5.818   7.480   8.622  0.7460  1.7739  1.1003
10824SOL     OW33912   6.696   7.537   3.812 -0.5446  0.5700 -0.0600
10824SOL    HW133913   6.722   7.567   3.724 -0.1714  0.1226 -0.1042
10824SOL    HW233914   6.771   7.486   3.843 -1.1860 -0.3276  0.0184
10825SOL     OW33915   3.084   2.446   3.938  0.0790 -0.0860 -0.1867
10825SOL    HW133916   3.112   2.355   3.950 -0.8209 -0.2712  0.6554
10825SOL    HW233917   3.004   2.440   3.886  0.7394  0.3399 -1.3009
10826SOL     OW33918   1.595   3.307   2.157 -0.4541  0.1648  0.2533
10826SOL    HW133919   1.654   3.257   2.101 -1.9458 -1.1055 -0.2714
10826SOL    HW233920   1.624   3.398   2.149  0.9905 -0.3369 -0.4817
10827SOL     OW33921   5.697   0.517   0.131  0.2638  0.2834 -0.2409
10827SOL    HW133922   5.607   0.486   0.134  0.4374 -0.3156 -0.9419
10827SOL    HW233923   5.734   0.477   0.052  1.2375  0.2633  0.2063
10828SOL     OW33924   3.677   5.322   7.891  0.0568  0.5654 -0.3387
10828SOL    HW133925   3.712   5.406   7.860  0.9327  0.3678  0.0641
10828SOL    HW233926   3.713   5.313   7.980 -1.2537  0.4629  0.1943
10829SOL     OW33927   0.137   2.271   2.492  0.2080  0.5424 -0.3048
10829SOL    HW133928   0.095   2.195   2.452 -0.7196  0.4315  0.8317
10829SOL    HW233929   0.176   2.237   2.572 -2.3556  1.6545  1.5544
10830SOL     OW33930   5.777   0.153  11.314 -0.2771 -0.5091 -0.2552
10830SOL    HW133931   5.685   0.134  11.332 -0.2313  0.0290  0.5751
10830SOL    HW233932   5.819   0.066  11.312 -0.7302 -0.7309 -0.2451
10831SOL     OW33933   7.513   3.552  11.233  0.0579  0.4539  0.1704
10831SOL    HW133934   7.480   3.605  11.161 -0.6376  1.2535  1.0479
10831SOL    HW233935   7.603   3.531  11.209  0.4763  2.3425 -0.0495
10832SOL     OW33936   0.760   6.357   4.520  0.4223  0.2315 -0.3174
10832SOL    HW133937   0.727   6.272   4.492  3.4499 -0.6634 -1.4956
10832SOL    HW233938   0.687   6.395   4.570 -1.0242 -2.9980  0.2957
10833SOL     OW33939   7.098   1.512   9.128 -0.0920  0.1233 -0.4624
10833SOL    HW133940   7.045   1.591   9.115  0.5557  0.6839  0.2449
10833SOL    HW233941   7.181   1.532   9.086  0.6704  0.4898  1.1313
10834SOL     OW33942   6.713   0.339   1.875  0.2044  0.1054 -0.2311
10834SOL    HW133943   6.666   0.256   1.864  0.5016 -0.1846  0.5889
10834SOL    HW233944   6.772   0.343   1.800  1.4853 -1.3291  0.6491
10835SOL     OW33945   3.065   5.212   4.454  0.4180  0.2965 -0.5997
10835SOL    HW133946   2.992   5.237   4.511  0.1345 -1.3283 -0.1734
10835SOL    HW233947   3.028   5.211   4.366  0.2895  0.7689 -0.5528
10836SOL     OW33948   0.082   6.883   0.063  0.5393 -0.8528 -1.0214
10836SOL    HW133949   0.136   6.863  -0.014 -0.4540 -0.7119 -1.7776
10836SOL    HW233950   0.145   6.897   0.133  1.6489  1.4036 -2.3347
10837SOL     OW33951   0.934   5.805   0.634 -0.2412  0.4613  0.3426
10837SOL    HW133952   0.885   5.741   0.685  0.2159  1.5322  2.2157
10837SOL    HW233953   0.867   5.868   0.605 -0.5924 -0.4660 -0.9606
10838SOL     OW33954   3.358   6.135   2.871 -0.1368  0.4522  0.2305
10838SOL    HW133955   3.395   6.214   2.831 -0.1958  0.3099 -0.1101
10838SOL    HW233956   3.316   6.165   2.951  0.2058  0.7056  0.3151
10839SOL     OW33957   7.845   6.094  11.579  0.5629 -0.0426 -0.1928
10839SOL    HW133958   7.778   6.041  11.538 -0.5896 -0.1342  1.6968
10839SOL    HW233959   7.881   6.147  11.507  0.3912 -1.9201 -1.7429
10840SOL     OW33960   6.056   7.238  10.594 -0.5024 -0.3902  0.3008
10840SOL    HW133961   6.001   7.239  10.516 -0.3434 -3.1841  0.0297
10840SOL    HW233962   6.002   7.276  10.663 -1.1430  0.8820 -0.8726
10841SOL     OW33963   1.677   6.819   3.947  0.1448 -0.2266 -0.3909
10841SOL    HW133964   1.744   6.869   3.900 -0.7988  1.3866 -0.0888
10841SOL    HW233965   1.689   6.845   4.039 -0.5117 -0.3824 -0.2592
10842SOL     OW33966   3.789   5.894   3.893  0.4596  0.2051  0.0618
10842SOL    HW133967   3.843   5.895   3.814 -1.0460 -2.2186 -1.1242
10842SOL    HW233968   3.704   5.862   3.863  0.2835 -2.4028  2.8880
10843SOL     OW33969   3.196   6.647   9.557 -0.2191 -0.5432 -0.5291
10843SOL    HW133970   3.112   6.674   9.521  0.7562  0.0071 -2.5313
10843SOL    HW233971   3.236   6.593   9.489  0.9417 -1.0172  0.4849
10844SOL     OW33972   6.452   1.879   8.796 -0.3226  0.1049  0.0025
10844SOL    HW133973   6.545   1.890   8.818 -0.7411  0.7851  1.6399
10844SOL    HW233974   6.406   1.922   8.868 -1.9380 -1.2769 -0.1465
10845SOL     OW33975   1.716   1.044   0.452 -0.0038 -0.4402  0.3448
10845SOL    HW133976   1.662   0.998   0.516  0.6976  0.2313  1.4542
10845SOL    HW233977   1.714   1.135   0.481 -0.4115  0.0425 -1.1275
10846SOL     OW33978   6.685   7.520   5.554  0.8441 -0.1265 -0.8756
10846SOL    HW133979   6.687   7.615   5.557  1.2340 -0.1488  0.7345
10846SOL    HW233980   6.777   7.493   5.559  0.6746 -0.5833 -0.0331
10847SOL     OW33981   5.059   1.958   6.433 -0.0205  0.4202  0.1275
10847SOL    HW133982   5.105   2.041   6.436  0.6722  0.3720 -3.6934
10847SOL    HW233983   5.125   1.895   6.403 -1.6009 -0.4050 -1.8934
10848SOL     OW33984   1.920   3.287   2.849 -0.3386  0.1458  0.4174
10848SOL    HW133985   1.845   3.231   2.869  0.0519 -0.2898  0.6930
10848SOL    HW233986   1.888   3.347   2.782 -0.6486 -0.6813 -0.1915
10849SOL     OW33987   7.298   2.255   7.867 -0.1119  0.4460 -0.3653
10849SOL    HW133988   7.380   2.300   7.845 -2.0924  2.7658 -4.0349
10849SOL    HW233989   7.266   2.222   7.783 -2.9661 -0.3862  0.9302
10850SOL     OW33990   2.519   0.782   6.594 -0.7253 -0.1127 -0.0108
10850SOL    HW133991   2.510   0.877   6.604  1.8287 -0.0165  2.7984
10850SOL    HW233992   2.454   0.759   6.528 -2.6505  3.3247  0.4186
10851SOL     OW33993   0.147   5.182   6.265  0.1865 -0.3970  0.1552
10851SOL    HW133994   0.229   5.230   6.274 -0.3195  0.4640  0.2723
10851SOL    HW233995   0.148   5.119   6.337 -0.1569  0.9712  1.3905
10852SOL     OW33996   2.743   0.600   6.967 -0.6589  0.1832  0.1667
10852SOL    HW133997   2.707   0.582   6.880 -0.0842  0.2284 -0.0852
10852SOL    HW233998   2.804   0.528   6.983 -1.2980 -0.2128  0.8431
10853SOL     OW33999   4.227   6.115   6.752 -0.4168 -0.1490  0.7654
10853SOL    HW134000   4.217   6.188   6.691  1.2553 -0.3094  0.2394
10853SOL    HW234001   4.275   6.152   6.826  1.5644 -0.9247 -0.0525
10854SOL     OW34002   4.449   3.328   4.276  0.3478  0.0773  0.2872
10854SOL    HW134003   4.396   3.271   4.331 -0.9508  1.2394  0.3076
10854SOL    HW234004   4.520   3.357   4.333 -0.5807  0.6998  1.1655
10855SOL     OW34005   5.845   7.478   9.904  0.1848  0.1649 -0.0837
10855SOL    HW134006   5.892   7.459   9.986 -1.5303 -0.3368  0.8359
10855SOL    HW234007   5.906   7.531   9.853  1.6740 -0.3203  1.1128
10856SOL     OW34008   6.079   0.135   1.857 -0.0453 -0.0115 -0.0478
10856SOL    HW134009   6.086   0.056   1.804 -0.9510 -0.2483  0.1730
10856SOL    HW234010   6.129   0.201   1.809  0.7624 -0.7256 -0.2079
10857SOL     OW34011   0.624   6.645   7.575 -0.1358  0.1310  0.0396
10857SOL    HW134012   0.609   6.563   7.529  0.2899 -0.1143  0.3290
10857SOL    HW234013   0.635   6.710   7.506 -1.0908  0.0643 -0.1877
10858SOL     OW34014   4.275   7.478   8.518 -0.4271 -0.2709 -0.1780
10858SOL    HW134015   4.280   7.413   8.589 -3.6135 -0.2889  0.1989
10858SOL    HW234016   4.293   7.561   8.561 -0.9849 -0.4320  0.3961
10859SOL     OW34017   1.355   6.461   1.126 -0.3389 -0.2071  0.0390
10859SOL    HW134018   1.380   6.400   1.196  1.9730 -0.2939 -0.7744
10859SOL    HW234019   1.298   6.409   1.069  0.7276 -1.3184 -0.0712
10860SOL     OW34020   1.029   3.967   8.174  0.2358  0.2686  0.3746
10860SOL    HW134021   0.948   4.013   8.151 -0.5855 -2.2884 -2.5262
10860SOL    HW234022   1.001   3.900   8.236 -0.4757 -1.9528 -2.1466
10861SOL     OW34023   4.591   5.114   0.723  0.3455  0.1715 -0.7925
10861SOL    HW134024   4.633   5.074   0.799 -0.7837  0.5369  0.0421
10861SOL    HW234025   4.602   5.208   0.736  1.3230  0.2245 -1.7893
10862SOL     OW34026   5.341   3.186   9.346  0.5621 -0.3015 -0.0712
10862SOL    HW134027   5.376   3.274   9.329  0.5547 -0.5635 -1.6214
10862SOL    HW234028   5.247   3.200   9.356  0.1446 -0.3682 -2.9748
10863SOL     OW34029   4.876   0.816   2.941  0.4038 -0.1047 -0.5684
10863SOL    HW134030   4.932   0.890   2.917 -2.4284  2.0436 -1.0880
10863SOL    HW234031   4.888   0.806   3.036  2.5372 -0.5592 -0.8503
10864SOL     OW34032   2.011   3.689   7.162 -0.1574 -0.1323  0.1602
10864SOL    HW134033   2.042   3.697   7.072  0.3029 -2.4850  0.0437
10864SOL    HW234034   2.091   3.676   7.214 -0.5496 -0.7644  0.6239
10865SOL     OW34035   2.674   4.263   7.508  0.2394 -0.1303  0.2635
10865SOL    HW134036   2.721   4.292   7.586  0.4722 -1.0279  0.4598
10865SOL    HW234037   2.712   4.178   7.486 -1.2259 -0.8484  0.3906
10866SOL     OW34038   5.790   5.954   1.218  0.0745 -0.0235 -0.0315
10866SOL    HW134039   5.850   6.015   1.262  0.8524 -1.1772  0.5552
10866SOL    HW234040   5.811   5.869   1.256 -0.8186 -0.7005 -1.0177
10867SOL     OW34041   2.299   1.614   0.062  0.1001 -0.1688  0.2785
10867SOL    HW134042   2.263   1.542   0.010  0.7757 -0.8880  0.7923
10867SOL    HW234043   2.238   1.623   0.136  0.9938 -1.4647  1.2128
10868SOL     OW34044   4.356   0.035  10.358  0.1626 -0.2223  0.5830
10868SOL    HW134045   4.413   0.104  10.323  1.0504 -0.4073  1.6087
10868SOL    HW234046   4.291   0.021  10.289 -0.5412  2.1698  0.6412
10869SOL     OW34047   6.373   4.490   5.235 -0.0966  0.5801  0.5504
10869SOL    HW134048   6.317   4.462   5.164 -0.8508  1.6559  0.6915
10869SOL    HW234049   6.346   4.438   5.310 -1.1806  1.3564  0.7106
10870SOL     OW34050   5.084   7.721   8.577 -0.1865  0.0765 -0.5522
10870SOL    HW134051   4.992   7.696   8.567 -0.9095  1.4693  1.6769
10870SOL    HW234052   5.094   7.800   8.524 -0.6394  0.5763  0.0806
10871SOL     OW34053   0.272   2.738   7.318  0.3583  0.6394  0.3422
10871SOL    HW134054   0.204   2.695   7.370  1.0701 -0.7801  0.1375
10871SOL    HW234055   0.338   2.671   7.304  0.3374  1.0417 -2.1498
10872SOL     OW34056   2.679   1.130   0.049 -0.1266  0.3874 -0.3820
10872SOL    HW134057   2.691   1.206  -0.009  0.3934  0.8708  0.3505
10872SOL    HW234058   2.607   1.156   0.107  0.5308  0.6090  0.3387
10873SOL     OW34059   3.483   4.916   8.674 -0.3552 -0.3753 -0.3660
10873SOL    HW134060   3.392   4.886   8.672 -0.7708  0.7908  0.1080
10873SOL    HW234061   3.522   4.870   8.748 -0.8760 -0.0577  0.1181
10874SOL     OW34062   6.118   1.580   8.387  0.9933  0.0619  0.0793
10874SOL    HW134063   6.114   1.618   8.474  0.8573 -1.3204  0.6936
10874SOL    HW234064   6.053   1.510   8.387  0.2247  0.7113 -1.4882
10875SOL     OW34065   4.886   1.470   7.498 -0.3361  0.4436  0.7325
10875SOL    HW134066   4.799   1.470   7.536 -1.0610  0.9214 -0.8634
10875SOL    HW234067   4.872   1.486   7.405  1.5113  1.4249  0.5801
10876SOL     OW34068   2.614   2.846   7.668  0.3876  0.6235 -0.4876
10876SOL    HW134069   2.678   2.890   7.723  0.1988  0.8180 -0.4208
10876SOL    HW234070   2.586   2.771   7.720  0.9386  0.2429 -0.7294
10877SOL     OW34071   5.377   6.192   2.053  0.3172  0.0056 -0.4076
10877SOL    HW134072   5.405   6.106   2.022 -0.3259  0.1058 -1.3275
10877SOL    HW234073   5.445   6.219   2.114  0.6645 -1.0385 -0.3105
10878SOL     OW34074   5.228   1.247   0.833 -0.6502 -0.4996 -0.3113
10878SOL    HW134075   5.238   1.180   0.766 -0.9046 -1.4420  0.5696
10878SOL    HW234076   5.317   1.258   0.868 -0.3662  0.5495 -1.2906
10879SOL     OW34077   1.917   1.424   3.262 -0.2944 -0.2960 -0.0630
10879SOL    HW134078   1.999   1.474   3.253  1.0948 -2.3827  0.2367
10879SOL    HW234079   1.897   1.395   3.173 -0.3061 -0.3875 -0.0306
10880SOL     OW34080   3.938   2.430   9.863  0.1092  0.2191  0.4304
10880SOL    HW134081   4.005   2.461   9.924  0.5341 -1.2212  0.7240
10880SOL    HW234082   3.907   2.348   9.901  0.3867 -0.7157 -1.2903
10881SOL     OW34083   0.974   5.861   9.718 -0.1568 -0.4118 -0.0726
10881SOL    HW134084   1.016   5.921   9.657  0.0386  1.3002  1.6498
10881SOL    HW234085   1.023   5.779   9.708  1.3239  0.4930 -0.6046
10882SOL     OW34086   2.507   6.032   3.924  0.1187  0.3717 -0.7742
10882SOL    HW134087   2.429   5.987   3.894 -0.0856  1.2209 -1.5855
10882SOL    HW234088   2.477   6.088   3.996  0.0591  0.3702 -0.7980
10883SOL     OW34089   0.760   5.998   0.511  0.2945 -0.1936  0.0380
10883SOL    HW134090   0.737   6.090   0.499 -0.2398 -0.3498 -0.1581
10883SOL    HW234091   0.808   5.975   0.432  0.5457 -0.0488  0.1471
10884SOL     OW34092   3.642   2.509   2.429 -0.2251  0.1246  0.4963
10884SOL    HW134093   3.547   2.510   2.439 -0.5456 -0.3188 -1.7593
10884SOL    HW234094   3.664   2.597   2.397 -0.2422 -0.4467 -1.1956
10885SOL     OW34095   6.365   3.271  10.981 -0.9374 -0.4049  0.4706
10885SOL    HW134096   6.337   3.184  11.011 -1.8658  0.0405  0.9140
10885SOL    HW234097   6.303   3.294  10.912 -0.3462 -0.3255 -0.0509
10886SOL     OW34098   0.003   1.381   9.169  0.7192 -0.3398 -0.7274
10886SOL    HW134099  -0.076   1.435   9.172  0.9324 -0.0524  1.4127
10886SOL    HW234100   0.058   1.424   9.103  0.3212  1.2650 -0.0619
10887SOL     OW34101   5.189   6.381  10.251  0.0365  0.6454  0.5633
10887SOL    HW134102   5.223   6.316  10.189  0.0155  0.1909  1.0264
10887SOL    HW234103   5.268   6.423  10.286  0.1595 -0.5820  1.8264
10888SOL     OW34104   1.618   6.986   7.017 -0.4412 -0.4891  0.4379
10888SOL    HW134105   1.645   6.946   7.100 -0.7143 -1.4853  0.0648
10888SOL    HW234106   1.610   6.912   6.957  0.1019  0.2641 -0.5791
10889SOL     OW34107   0.478   5.370   7.300  0.0313  0.3418 -0.3957
10889SOL    HW134108   0.514   5.424   7.370  0.4913  2.3371 -2.0864
10889SOL    HW234109   0.419   5.309   7.345 -0.6979  2.3852  1.6217
10890SOL     OW34110   3.014   5.181   3.502 -0.5165  0.2657 -0.2723
10890SOL    HW134111   2.976   5.101   3.538 -0.3706  0.9354  1.4383
10890SOL    HW234112   2.993   5.177   3.409  0.2178 -2.1705 -0.4061
10891SOL     OW34113   1.626   5.569  11.089  0.5697  0.6843 -0.3824
10891SOL    HW134114   1.543   5.601  11.125  0.7494  1.5710 -0.7330
10891SOL    HW234115   1.605   5.547  10.998  0.2940 -0.8478  0.0127
10892SOL     OW34116   2.754   4.667   3.160  0.8211 -0.1245  0.6474
10892SOL    HW134117   2.662   4.682   3.179  0.3341 -1.6122 -0.4058
10892SOL    HW234118   2.782   4.602   3.225  1.1026  0.2132  0.8706
10893SOL     OW34119   2.554   5.911  11.010 -0.1731 -0.0061  0.2798
10893SOL    HW134120   2.636   5.953  11.034 -0.6189  0.4547  1.0386
10893SOL    HW234121   2.543   5.932  10.917  1.3188 -1.3944 -0.2526
10894SOL     OW34122   3.715   6.211   4.511 -0.1320  0.3284 -0.4611
10894SOL    HW134123   3.653   6.271   4.553  0.9539  0.3384  1.2161
10894SOL    HW234124   3.667   6.129   4.502 -1.6944  1.3825 -2.9257
10895SOL     OW34125   5.892   1.692   8.905 -0.2147  0.0450  0.1666
10895SOL    HW134126   5.859   1.697   8.815  1.8579  1.7414 -0.5869
10895SOL    HW234127   5.819   1.721   8.959 -1.1798 -0.0382 -1.0461
10896SOL     OW34128   1.862   2.076   5.883  0.2133 -0.4107  0.6936
10896SOL    HW134129   1.949   2.037   5.875  0.1153 -0.4387 -0.4171
10896SOL    HW234130   1.865   2.153   5.827 -0.3485 -0.1673  0.9903
10897SOL     OW34131   2.248   4.841   7.773 -0.3864  0.0222  0.5736
10897SOL    HW134132   2.341   4.835   7.794  0.2054  1.8683 -1.2621
10897SOL    HW234133   2.224   4.753   7.744  0.9004 -0.3630  0.6122
10898SOL     OW34134   1.019   5.670   6.723 -0.6398  0.6280 -0.1617
10898SOL    HW134135   0.981   5.758   6.723  0.6693  1.2284 -0.9851
10898SOL    HW234136   1.111   5.683   6.698 -0.2483 -0.9135  0.3163
10899SOL     OW34137   4.333   0.542   4.316 -0.1478  0.4317 -0.0125
10899SOL    HW134138   4.420   0.564   4.283 -0.3084 -1.3288 -1.7925
10899SOL    HW234139   4.313   0.457   4.277 -3.2077  1.3563 -0.7450
10900SOL     OW34140   4.446   6.261   6.203  0.4445  0.0420  0.2208
10900SOL    HW134141   4.534   6.235   6.177 -0.1047 -0.7993 -0.8730
10900SOL    HW234142   4.398   6.179   6.211 -0.2405  0.4905  0.8478
10901SOL     OW34143   4.712   4.133   6.231  0.2093 -0.0803 -0.1431
10901SOL    HW134144   4.635   4.162   6.279 -0.5954 -0.5037 -1.1378
10901SOL    HW234145   4.786   4.163   6.284 -0.6141  1.2502  0.3067
10902SOL     OW34146   3.372   0.605   6.211  0.0421 -0.0317 -0.0077
10902SOL    HW134147   3.301   0.540   6.211 -0.3988  0.4260  1.1812
10902SOL    HW234148   3.350   0.664   6.139 -0.5672 -0.1245  0.0983
10903SOL     OW34149   0.368   5.010   9.580 -0.2570 -0.0233  0.1391
10903SOL    HW134150   0.418   4.944   9.628 -1.2026 -2.0073 -1.4936
10903SOL    HW234151   0.435   5.061   9.534  0.4173 -0.6804  0.3714
10904SOL     OW34152   4.007   1.689  10.676 -0.6861 -0.2345 -0.2471
10904SOL    HW134153   3.960   1.664  10.597 -2.6148 -0.2611  0.8599
10904SOL    HW234154   4.039   1.777  10.658  1.0401 -1.1166 -1.9331
10905SOL     OW34155   6.616   1.979   3.372  0.1233 -0.3533 -0.0199
10905SOL    HW134156   6.704   1.956   3.341  0.4499  0.1155  0.5319
10905SOL    HW234157   6.631   2.014   3.460 -0.7660 -1.5962  0.6601
10906SOL     OW34158   2.903   5.031  10.649 -0.0622  0.2138  0.4745
10906SOL    HW134159   2.839   5.099  10.627 -0.7232 -0.9655 -1.4816
10906SOL    HW234160   2.987   5.077  10.648 -0.6399  1.3289  0.8625
10907SOL     OW34161   1.897   3.437   2.246 -0.5245  0.4676 -0.1646
10907SOL    HW134162   1.960   3.498   2.284  2.4737 -1.3754 -1.7653
10907SOL    HW234163   1.830   3.494   2.206  1.6287  2.7253 -0.8544
10908SOL     OW34164   6.601   5.351   1.804  0.0275  0.3498  0.5351
10908SOL    HW134165   6.607   5.306   1.719 -0.6887  1.0029  0.1276
10908SOL    HW234166   6.688   5.387   1.818  0.2157  0.0350  0.1956
10909SOL     OW34167   2.164   5.037   1.505  0.6279  0.1176 -0.0170
10909SOL    HW134168   2.156   5.071   1.416  1.6236  0.4914  0.0250
10909SOL    HW234169   2.249   4.993   1.507  0.1481 -0.8370  0.4517
10910SOL     OW34170   4.437   5.429  11.576  0.1892  0.1054  0.0805
10910SOL    HW134171   4.507   5.488  11.548  0.7422 -0.0674  1.0612
10910SOL    HW234172   4.399   5.395  11.494  0.3647  1.2214 -0.4779
10911SOL     OW34173   7.032   7.824   6.235 -0.0074 -0.0454 -0.1149
10911SOL    HW134174   7.109   7.766   6.230  0.5644  0.6291  0.6062
10911SOL    HW234175   7.012   7.844   6.144  0.9525  0.1248 -0.3024
10912SOL     OW34176   2.353   6.054   3.609  0.5094  0.0197  0.3920
10912SOL    HW134177   2.300   6.102   3.672  1.3870  0.1875  1.0377
10912SOL    HW234178   2.398   6.122   3.559 -1.0067 -0.0903 -1.1914
10913SOL     OW34179   2.546   3.523   1.543 -0.2309 -0.0118  0.2666
10913SOL    HW134180   2.472   3.468   1.566 -0.6782  0.5200  0.1227
10913SOL    HW234181   2.542   3.531   1.448  1.3715 -1.8642 -0.0262
10914SOL     OW34182   2.546   2.419  11.276 -0.0611  0.2344  0.3824
10914SOL    HW134183   2.636   2.434  11.246 -1.0104  3.0808 -1.4299
10914SOL    HW234184   2.510   2.357  11.211  0.4028 -0.5290  0.8333
10915SOL     OW34185   5.385   3.339   0.986  0.4112 -0.3475 -0.1450
10915SOL    HW134186   5.342   3.321   0.902  0.2249  0.0121 -0.1312
10915SOL    HW234187   5.478   3.343   0.965  0.1871  3.6583 -1.1455
10916SOL     OW34188   0.786   6.958   0.929 -0.4316 -0.1889  0.3848
10916SOL    HW134189   0.752   7.046   0.945  0.3625  0.1477  0.3166
10916SOL    HW234190   0.787   6.951   0.833  3.1566  1.3030  0.1461
10917SOL     OW34191   4.906   5.494   3.815 -0.0409 -0.0790 -0.1252
10917SOL    HW134192   4.877   5.470   3.903  1.2144 -0.2185  0.2643
10917SOL    HW234193   4.892   5.588   3.809 -1.9750 -0.3400 -0.5109
10918SOL     OW34194   5.178   7.718  11.324  0.4834  0.0514 -0.2966
10918SOL    HW134195   5.203   7.667  11.247  0.4104 -0.2438 -0.1233
10918SOL    HW234196   5.101   7.767  11.296 -0.0233 -0.6584 -0.1684
10919SOL     OW34197   6.800   4.030  11.924 -0.4694  0.0625  0.4231
10919SOL    HW134198   6.824   4.122  11.937 -1.3599  0.4518 -0.5320
10919SOL    HW234199   6.711   4.033  11.888 -0.2830 -1.1446 -0.1985
10920SOL     OW34200   1.727   6.328  11.030 -0.0849  0.2916  0.3139
10920SOL    HW134201   1.805   6.345  11.082  0.4061  0.0174 -0.3216
10920SOL    HW234202   1.758   6.278  10.954 -0.7852  0.6799 -0.2431
10921SOL     OW34203   7.306   1.744   6.637 -0.3005 -0.1886  0.4843
10921SOL    HW134204   7.353   1.818   6.599 -2.7033 -0.2256 -3.0518
10921SOL    HW234205   7.358   1.667   6.613  1.4122  0.0955  2.8839
10922SOL     OW34206   5.436   3.835   4.538 -0.1473  0.1277  0.5159
10922SOL    HW134207   5.448   3.906   4.475  2.0043 -1.2069 -0.7023
10922SOL    HW234208   5.353   3.794   4.513  0.5264 -0.1999 -1.3012
10923SOL     OW34209   5.015   3.152   5.444  0.3764 -0.6066  0.3148
10923SOL    HW134210   4.953   3.100   5.494 -0.0734 -0.1493  0.2383
10923SOL    HW234211   4.972   3.168   5.360 -1.0176  2.7125  1.4832
10924SOL     OW34212   6.972   6.482   0.755  0.0369  0.0251  0.6142
10924SOL    HW134213   6.939   6.393   0.744  1.6382 -0.6864  1.2477
10924SOL    HW234214   7.053   6.484   0.705 -1.8309  2.3657 -2.7112
10925SOL     OW34215   4.628   1.709   0.372  0.2290 -0.6818 -0.3245
10925SOL    HW134216   4.541   1.686   0.341 -0.1910 -0.4467  0.6495
10925SOL    HW234217   4.687   1.675   0.305 -0.6856  0.8706 -2.0228
10926SOL     OW34218   4.145   1.039   9.257  0.0773  0.0829 -0.2722
10926SOL    HW134219   4.053   1.044   9.230 -0.2762  1.3373  1.0611
10926SOL    HW234220   4.154   0.953   9.296 -0.6059  0.0410 -0.1962
10927SOL     OW34221   5.702   2.969   2.801 -0.0397 -0.1265 -0.6264
10927SOL    HW134222   5.750   2.930   2.874 -1.2407 -0.5912 -0.0521
10927SOL    HW234223   5.647   2.898   2.768  0.8995 -0.0921 -2.3963
10928SOL     OW34224   5.447   5.555   6.525  0.2476  0.0855  0.1854
10928SOL    HW134225   5.535   5.557   6.489  0.3134 -2.4769  0.0296
10928SOL    HW234226   5.425   5.647   6.541  2.4965  0.8504 -0.7952
10929SOL     OW34227   0.744   5.100   0.906  0.7440 -0.5349 -0.0723
10929SOL    HW134228   0.829   5.089   0.864  1.2531  2.8674 -0.1533
10929SOL    HW234229   0.699   5.167   0.855 -0.9966 -0.4581  1.4341
10930SOL     OW34230   0.928   4.347   2.948  0.4113 -0.3124 -0.6927
10930SOL    HW134231   0.994   4.405   2.985 -1.0449  2.6460 -2.3516
10930SOL    HW234232   0.853   4.355   3.007  0.2237 -0.5230 -0.8977
10931SOL     OW34233   7.126   1.176   3.041 -0.0789 -0.4110 -0.0116
10931SOL    HW134234   7.044   1.206   3.080 -1.1457  0.1288 -2.4832
10931SOL    HW234235   7.194   1.213   3.096 -1.4653  1.4068  0.5761
10932SOL     OW34236   5.042   4.810   2.689 -0.1332 -0.0676 -0.5369
10932SOL    HW134237   4.964   4.754   2.683  0.2066 -0.8039  1.1205
10932SOL    HW234238   5.008   4.899   2.681 -1.3434 -0.3201  1.1111
10933SOL     OW34239   2.169   2.333  11.067 -0.3038 -0.0630 -0.4941
10933SOL    HW134240   2.118   2.356  10.989 -0.4996  0.3254 -0.2529
10933SOL    HW234241   2.104   2.328  11.137  0.2704  2.9959  0.3900
10934SOL     OW34242   5.010   2.526   5.299  0.2394  0.6739  1.2798
10934SOL    HW134243   5.034   2.450   5.246 -1.5271  2.7570 -2.9799
10934SOL    HW234244   4.958   2.490   5.371 -0.1784 -2.2091 -0.3092
10935SOL     OW34245   2.855   4.184   5.529  0.0100 -0.5224 -0.6501
10935SOL    HW134246   2.852   4.155   5.438  1.0355 -0.3971 -0.7327
10935SOL    HW234247   2.868   4.104   5.579 -0.2330 -0.5525 -0.6314
10936SOL     OW34248   0.025   5.808   4.343 -0.2780  0.3419  0.3599
10936SOL    HW134249   0.116   5.795   4.317 -0.4022 -0.4375  0.2894
10936SOL    HW234250   0.020   5.770   4.431 -0.6133  0.0800  0.2293
10937SOL     OW34251   3.215   3.443   1.820  0.7202  0.3792 -0.0575
10937SOL    HW134252   3.213   3.527   1.775 -0.3822  0.1433 -0.4764
10937SOL    HW234253   3.263   3.461   1.901 -0.7843  1.7791  0.5673
10938SOL     OW34254   6.709   5.889   9.242  0.0096  0.0934 -0.4182
10938SOL    HW134255   6.636   5.931   9.197  1.3753  1.0616 -1.8281
10938SOL    HW234256   6.787   5.917   9.193  1.5945  1.1117  2.4307
10939SOL     OW34257   3.549   2.218   6.637 -0.1901 -0.0380 -0.1553
10939SOL    HW134258   3.512   2.263   6.714  0.8473 -1.2349  1.0972
10939SOL    HW234259   3.517   2.128   6.645 -0.2861 -0.1189 -1.3050
10940SOL     OW34260   6.843   3.377   4.471 -0.5341  0.3624  0.3647
10940SOL    HW134261   6.787   3.416   4.538 -2.2786  1.2576 -1.5391
10940SOL    HW234262   6.890   3.451   4.433 -0.8830  0.1132 -0.5772
10941SOL     OW34263   6.263   4.350   5.429 -0.2639 -0.1601  0.0390
10941SOL    HW134264   6.290   4.321   5.515 -0.9224  1.3732  0.8076
10941SOL    HW234265   6.169   4.366   5.438 -0.4648 -0.5753 -1.1431
10942SOL     OW34266   3.992   7.296  11.488  0.1770 -0.7416 -0.4952
10942SOL    HW134267   4.005   7.321  11.396  0.4119  1.3526  0.0702
10942SOL    HW234268   3.915   7.347  11.516  1.1003 -0.0680  0.9124
10943SOL     OW34269   5.828   6.491   1.005 -0.4713  0.1195 -0.0610
10943SOL    HW134270   5.746   6.450   0.978 -0.3988 -0.0855  0.0236
10943SOL    HW234271   5.891   6.462   0.939 -0.5500  0.5999 -0.3532
10944SOL     OW34272   0.022   2.914   9.019 -0.3310 -0.0026  0.1530
10944SOL    HW134273   0.004   2.955   9.104  0.5410 -0.6610  0.6650
10944SOL    HW234274   0.103   2.955   8.989  0.6136 -1.3819  0.7183
10945SOL     OW34275   1.521   4.533   6.781 -0.0326  0.0003 -0.3188
10945SOL    HW134276   1.589   4.477   6.819  0.6518  1.0105 -0.0153
10945SOL    HW234277   1.444   4.515   6.835  0.0847 -0.8873 -0.4330
10946SOL     OW34278   0.960   6.546   4.489  0.2704  0.3607  0.0704
10946SOL    HW134279   0.901   6.471   4.493  0.5766  0.1496  0.7672
10946SOL    HW234280   0.944   6.593   4.571  0.6581  0.6124  0.0029
10947SOL     OW34281   6.135   6.627   3.476 -0.1973  0.3510 -0.8183
10947SOL    HW134282   6.227   6.600   3.471 -0.2167  0.4517 -1.7362
10947SOL    HW234283   6.086   6.553   3.439 -0.4323  0.6258 -1.0538
10948SOL     OW34284   7.547   5.963   9.092  0.1916 -0.4775  0.2738
10948SOL    HW134285   7.522   6.018   9.167 -0.7710 -0.5109 -0.0081
10948SOL    HW234286   7.586   5.885   9.133  0.5847 -0.0641  0.7054
10949SOL     OW34287   2.463   6.661   9.850 -0.5708  0.4243 -0.5039
10949SOL    HW134288   2.394   6.707   9.897 -1.5172 -0.8136 -0.6191
10949SOL    HW234289   2.450   6.568   9.872  1.5731  0.2047  0.1381
10950SOL     OW34290   1.605   3.284   7.952  0.2267  0.3703 -0.1806
10950SOL    HW134291   1.578   3.287   8.044  0.5721 -0.2195 -0.0559
10950SOL    HW234292   1.536   3.234   7.909  1.1943 -1.3347  0.1789
10951SOL     OW34293   5.103   3.126   0.849 -0.7017  0.1268 -0.2270
10951SOL    HW134294   5.170   3.171   0.799 -0.4709 -0.6756 -0.6513
10951SOL    HW234295   5.137   3.038   0.861 -1.4728 -0.1505 -0.0369
10952SOL     OW34296   0.042   6.931   6.508  0.0779  0.1745  0.4358
10952SOL    HW134297   0.089   6.968   6.433 -0.1652 -0.3356  0.0205
10952SOL    HW234298  -0.036   6.890   6.469  1.3036 -2.4848  0.5951
10953SOL     OW34299   7.883   3.278   7.147 -0.4909  0.0542  0.0251
10953SOL    HW134300   7.801   3.242   7.112 -0.9172 -0.3433  1.3818
10953SOL    HW234301   7.869   3.373   7.148 -0.6962  0.0305 -0.3256
10954SOL     OW34302   7.661   6.575   6.953  0.3234  0.8158 -0.2200
10954SOL    HW134303   7.571   6.547   6.936 -0.0863  1.6921  0.4049
10954SOL    HW234304   7.714   6.525   6.891 -0.5396 -0.0583 -0.2778
10955SOL     OW34305   0.412   1.833  10.072 -0.0042  0.1747 -0.5481
10955SOL    HW134306   0.325   1.800  10.097  0.2279  0.0482  0.1151
10955SOL    HW234307   0.469   1.756  10.076  0.2639  0.3823 -0.3582
10956SOL     OW34308   2.515   0.454   7.070  0.0978 -0.1631 -0.3375
10956SOL    HW134309   2.444   0.518   7.077  0.7081  0.4163  0.7602
10956SOL    HW234310   2.595   0.506   7.074  0.6832 -1.0739  2.8088
10957SOL     OW34311   5.844   3.004  10.928 -0.1443  0.1723 -0.0476
10957SOL    HW134312   5.856   2.924  10.979 -1.1674 -0.2419 -0.4382
10957SOL    HW234313   5.754   3.031  10.946 -0.4955  0.0853 -1.5228
10958SOL     OW34314   0.107   6.911   1.995 -0.7254  0.0038 -0.3425
10958SOL    HW134315   0.074   6.875   1.912 -0.9314  0.3342 -0.4034
10958SOL    HW234316   0.171   6.846   2.024  0.0284  0.3227 -1.2233
10959SOL     OW34317   1.475   2.213  11.048 -0.5632  0.5163 -0.3365
10959SOL    HW134318   1.432   2.145  10.995 -0.4026  0.9770 -1.0712
10959SOL    HW234319   1.419   2.223  11.125 -1.7924  1.1237 -1.2804
10960SOL     OW34320   0.313   1.982   3.586 -0.5509  0.1589  0.0962
10960SOL    HW134321   0.239   2.028   3.626 -1.7410 -1.3500 -0.2525
10960SOL    HW234322   0.373   2.051   3.558 -1.6168  1.4058  0.7877
10961SOL     OW34323   6.106   1.857   8.936  0.0675  0.3356  0.3558
10961SOL    HW134324   6.049   1.786   8.906 -0.1825  0.2260  1.0636
10961SOL    HW234325   6.050   1.910   8.993  0.1929  1.2278 -0.3265
10962SOL     OW34326   1.796   6.672   2.342  0.1323  0.0163 -0.2887
10962SOL    HW134327   1.873   6.702   2.293 -0.6922  1.9145 -0.5214
10962SOL    HW234328   1.788   6.734   2.414 -0.0522 -1.3587  0.9194
10963SOL     OW34329   6.296   2.700   9.350  0.1529 -0.8192 -0.1462
10963SOL    HW134330   6.212   2.732   9.381 -0.0374 -2.1438  0.7568
10963SOL    HW234331   6.316   2.624   9.405  1.4361 -1.1743 -1.0343
10964SOL     OW34332   7.521   7.196   7.053 -0.1317 -0.1045  0.1541
10964SOL    HW134333   7.505   7.141   7.130 -0.8166 -1.2295 -0.7515
10964SOL    HW234334   7.540   7.134   6.983 -1.3971  0.7698 -1.0133
10965SOL     OW34335   3.287   1.441   2.628 -0.0625  0.6058 -0.1105
10965SOL    HW134336   3.267   1.508   2.694  0.8561 -0.2732  1.0959
10965SOL    HW234337   3.231   1.367   2.651  2.5089 -0.9092  1.7316
10966SOL     OW34338   7.665   1.486   8.542  0.3334 -0.2159 -0.2654
10966SOL    HW134339   7.697   1.454   8.626 -0.0039  0.7076  0.2375
10966SOL    HW234340   7.725   1.450   8.477  0.4841 -1.1026  0.3526
10967SOL     OW34341   3.627   3.161   4.381 -0.0350  0.0927  0.0033
10967SOL    HW134342   3.664   3.112   4.307 -0.2968 -1.2327  0.7273
10967SOL    HW234343   3.698   3.220   4.408  0.9184 -1.1046  0.2058
10968SOL     OW34344   5.764   3.394   2.947  0.1738 -0.0675  0.5135
10968SOL    HW134345   5.776   3.487   2.964 -2.7548  0.5927 -0.4880
10968SOL    HW234346   5.728   3.359   3.028 -1.7263  0.3989 -0.0845
10969SOL     OW34347   7.701   7.882   4.842 -0.1875 -0.1587 -0.8895
10969SOL    HW134348   7.636   7.951   4.857 -2.5889 -2.2313 -0.9941
10969SOL    HW234349   7.667   7.807   4.891  2.2804 -1.3217 -0.8145
10970SOL     OW34350   6.353   3.185  10.199  0.6635 -0.6166  0.8101
10970SOL    HW134351   6.409   3.116  10.164  0.0970 -0.3800 -0.6453
10970SOL    HW234352   6.277   3.186  10.140 -0.0040  0.2956  1.6538
10971SOL     OW34353   5.457   5.147   0.319 -0.0402  0.1872  0.0037
10971SOL    HW134354   5.515   5.102   0.257 -0.8643 -0.7559 -0.1178
10971SOL    HW234355   5.398   5.199   0.265 -0.0052  0.2908  0.0643
10972SOL     OW34356   6.446   0.729   0.360  0.2384 -0.2154  0.4246
10972SOL    HW134357   6.529   0.775   0.347  0.4245 -0.0514  1.9817
10972SOL    HW234358   6.426   0.691   0.274  1.0845  1.0964 -0.3841
10973SOL     OW34359   1.345   4.545   1.504  0.1927 -0.1695  0.1167
10973SOL    HW134360   1.265   4.567   1.551 -0.6711 -0.3706 -1.2027
10973SOL    HW234361   1.362   4.621   1.449  0.8163 -0.2004  0.2636
10974SOL     OW34362   4.713   0.916   6.762  0.1052  0.7253  0.1949
10974SOL    HW134363   4.752   0.996   6.726 -0.6997 -0.2073 -3.1661
10974SOL    HW234364   4.631   0.946   6.801 -0.5237  1.5441 -1.6201
10975SOL     OW34365   3.549   6.212   3.804 -0.4151  0.0090  0.0699
10975SOL    HW134366   3.507   6.297   3.821 -2.0396 -0.6966 -0.2191
10975SOL    HW234367   3.610   6.201   3.877 -0.6114  1.1451  0.4320
10976SOL     OW34368   4.021   2.098   6.091 -0.6831 -0.1527  0.0147
10976SOL    HW134369   4.019   2.110   5.996 -0.9407  0.9259  0.1358
10976SOL    HW234370   3.929   2.093   6.116 -0.5953 -1.6016  0.0919
10977SOL     OW34371   0.397   2.260   6.069  0.0251 -0.3732 -0.6642
10977SOL    HW134372   0.447   2.241   5.990  0.2056 -0.9411 -0.4200
10977SOL    HW234373   0.328   2.195   6.071  0.4390 -0.8070 -0.0006
10978SOL     OW34374   5.257   6.693   1.927  0.1541  0.1284 -0.2469
10978SOL    HW134375   5.281   6.782   1.953 -0.3447  0.1306  0.2157
10978SOL    HW234376   5.170   6.679   1.964 -0.2265 -0.1737 -1.2177
10979SOL     OW34377   0.050   5.032   7.690 -0.1022 -0.0313  0.2892
10979SOL    HW134378  -0.026   4.974   7.695 -1.0835  1.3017  2.5745
10979SOL    HW234379   0.094   5.022   7.774  1.8067 -0.1100 -0.6582
10980SOL     OW34380   4.806   4.786   3.340  0.0032  0.3002 -0.1110
10980SOL    HW134381   4.761   4.706   3.313 -0.2718  1.0597 -2.1107
10980SOL    HW234382   4.768   4.855   3.284  0.3646  1.8041  1.4012
10981SOL     OW34383   3.838   5.339  10.791 -0.0055  0.3700  0.2956
10981SOL    HW134384   3.797   5.393  10.723  1.9943 -0.1278 -1.4034
10981SOL    HW234385   3.921   5.382  10.808 -0.1644  0.0747  1.9680
10982SOL     OW34386   7.702   0.409   1.560  0.4654 -0.1597  0.7567
10982SOL    HW134387   7.780   0.387   1.509  0.0901  0.5081 -0.1379
10982SOL    HW234388   7.668   0.325   1.590  0.6250 -0.5813 -0.2179
10983SOL     OW34389   7.126   6.809  12.215  0.3774  0.3693  0.4080
10983SOL    HW134390   7.036   6.834  12.196  0.6689  1.4245  0.3614
10983SOL    HW234391   7.168   6.801  12.130  0.0177 -1.4676  0.3482
10984SOL     OW34392   0.523   3.522   9.928  0.3266 -0.2571  0.4121
10984SOL    HW134393   0.466   3.517  10.005  0.9935  0.1308  0.9488
10984SOL    HW234394   0.527   3.616   9.908  1.8580 -0.1033  1.2410
10985SOL     OW34395   4.683   2.857   4.435 -0.4029  0.1988  0.3525
10985SOL    HW134396   4.663   2.856   4.528 -2.5418 -0.8633 -0.0307
10985SOL    HW234397   4.659   2.945   4.406  0.9999  0.7800  0.9169
10986SOL     OW34398   3.462   2.843   4.636  0.3013  0.5956 -0.9577
10986SOL    HW134399   3.508   2.924   4.656  0.8003 -0.0740  0.7890
10986SOL    HW234400   3.404   2.828   4.711  0.0952 -0.5820 -1.3208
10987SOL     OW34401   3.669   6.075   6.004 -0.0661  0.2706  0.3416
10987SOL    HW134402   3.715   6.050   5.925  1.7477  1.9607  0.7890
10987SOL    HW234403   3.694   6.166   6.020  1.0173 -0.4568  3.7385
10988SOL     OW34404   1.451   5.808   8.738 -0.0531 -0.2309 -0.3703
10988SOL    HW134405   1.381   5.828   8.676  0.4762  0.9899 -0.6096
10988SOL    HW234406   1.507   5.886   8.737  0.6078 -0.6617  0.7711
10989SOL     OW34407   0.692   7.245   4.207 -0.2383 -0.2453 -0.2508
10989SOL    HW134408   0.717   7.324   4.160 -0.9155 -0.5442 -1.1391
10989SOL    HW234409   0.668   7.277   4.295  0.8279  0.3405 -0.1557
10990SOL     OW34410   5.737   3.230   2.705 -0.0018 -0.0452 -0.1936
10990SOL    HW134411   5.712   3.143   2.735 -2.1902  0.7493  0.5619
10990SOL    HW234412   5.757   3.278   2.785 -2.0007  0.9892 -0.2347
10991SOL     OW34413   3.951   6.649   3.482 -0.2431 -0.0657 -0.2527
10991SOL    HW134414   3.963   6.741   3.506 -1.6347  0.1138 -0.2013
10991SOL    HW234415   3.872   6.622   3.528 -0.7777 -0.8136 -1.5769
10992SOL     OW34416   4.681   2.697   5.585  0.0627 -0.2365  0.2302
10992SOL    HW134417   4.680   2.634   5.656  1.0817 -0.9169 -0.3346
10992SOL    HW234418   4.617   2.664   5.522 -1.1027  0.5592  0.9724
10993SOL     OW34419   0.815   0.559  11.232 -0.2995  0.0045  0.1241
10993SOL    HW134420   0.783   0.647  11.212  0.4637  0.1770 -0.3579
10993SOL    HW234421   0.868   0.535  11.156  0.8231 -0.2234  0.9645
10994SOL     OW34422   7.075   0.269   9.261 -0.4227 -0.4838  0.0258
10994SOL    HW134423   7.128   0.233   9.190 -1.3142 -0.2968 -0.7684
10994SOL    HW234424   7.068   0.363   9.241 -1.0908 -0.5167  0.0695
10995SOL     OW34425   5.998   5.438   8.054 -0.1061 -0.1765  0.8193
10995SOL    HW134426   5.902   5.433   8.048 -0.2053  2.3209 -2.6926
10995SOL    HW234427   6.014   5.523   8.095  0.6690 -0.6472  1.5180
10996SOL     OW34428   2.273   7.922   0.536 -0.0155 -0.1017  0.1660
10996SOL    HW134429   2.285   7.831   0.564  0.6869 -0.3390 -0.8125
10996SOL    HW234430   2.250   7.915   0.443  3.1065  0.7677 -0.7974
10997SOL     OW34431   2.041   6.267   0.422  0.5936  0.2263  0.1745
10997SOL    HW134432   2.105   6.302   0.483  0.1077  0.0745  0.7891
10997SOL    HW234433   2.000   6.194   0.469 -0.6171  0.8484  0.1348
10998SOL     OW34434   1.368   2.950   9.512  0.2138 -0.2105  0.2972
10998SOL    HW134435   1.393   2.870   9.559 -2.4121 -0.3740  1.5831
10998SOL    HW234436   1.418   2.946   9.430 -0.1008 -3.3602  0.1466
10999SOL     OW34437   5.071   7.839  11.643  0.0694  0.6685 -0.3325
10999SOL    HW134438   5.037   7.752  11.663  0.5968  0.4088 -0.5531
10999SOL    HW234439   5.162   7.825  11.620  0.2025  1.3010 -0.2220
11000SOL     OW34440   7.371   0.403   9.806 -0.1091 -0.0194 -0.2858
11000SOL    HW134441   7.461   0.433   9.788  0.1486 -0.4335  0.2770
11000SOL    HW234442   7.367   0.315   9.770  0.1424 -0.5211  0.8648
11001SOL     OW34443   0.696   2.275   3.328 -0.2084  0.2043  0.1746
11001SOL    HW134444   0.765   2.336   3.299  0.8795 -1.4744 -0.9637
11001SOL    HW234445   0.642   2.262   3.250 -0.6411 -0.0156  0.5135
11002SOL     OW34446   6.032   6.427   0.205  0.9209 -0.0441 -0.2456
11002SOL    HW134447   6.071   6.354   0.253 -2.1042 -1.2873  0.4789
11002SOL    HW234448   6.042   6.502   0.265  0.9435 -0.6291  0.4934
11003SOL     OW34449   4.295   3.552   1.971  0.1684  0.2499 -0.0579
11003SOL    HW134450   4.275   3.598   2.053 -1.8687  1.5402 -1.1931
11003SOL    HW234451   4.391   3.553   1.966  0.3525  0.1556  2.2551
11004SOL     OW34452   5.961   7.112   6.932 -0.4183  0.5565 -0.5102
11004SOL    HW134453   5.931   7.114   6.841 -1.2527  1.0983 -0.2315
11004SOL    HW234454   6.008   7.029   6.939  0.4062  0.9034 -1.6640
11005SOL     OW34455   1.950   6.188   4.761 -0.5324  0.5885  0.1195
11005SOL    HW134456   2.024   6.189   4.700  0.7393 -0.7751  1.5250
11005SOL    HW234457   1.903   6.107   4.740 -0.5181  0.4946  0.4398
11006SOL     OW34458   4.202   1.000   6.830 -0.3292  0.3222 -0.2122
11006SOL    HW134459   4.290   0.965   6.840 -0.1624  1.0525  1.0523
11006SOL    HW234460   4.154   0.930   6.785  0.9514  0.0497 -1.2300
11007SOL     OW34461   0.025   5.906   2.407  0.0195  0.1407 -0.0985
11007SOL    HW134462  -0.021   5.985   2.433 -0.0187  0.4382 -1.0601
11007SOL    HW234463   0.076   5.882   2.485 -0.0229  1.0596  0.2227
11008SOL     OW34464   1.502   7.692   9.238  0.3578  0.7442  1.0139
11008SOL    HW134465   1.523   7.783   9.217 -0.9809  0.5283 -1.6763
11008SOL    HW234466   1.423   7.698   9.292 -1.3757  1.2495 -1.3786
11009SOL     OW34467   6.463   4.591   7.230  0.4843 -0.2588  0.2224
11009SOL    HW134468   6.543   4.557   7.270  1.3088  0.3015 -0.8988
11009SOL    HW234469   6.444   4.671   7.279  0.9598 -0.0763  0.1177
11010SOL     OW34470   6.417   1.339   3.012 -0.4389  0.0584  0.6731
11010SOL    HW134471   6.469   1.280   2.957  0.1543 -1.2866  2.5780
11010SOL    HW234472   6.411   1.420   2.961  0.4386 -0.9576 -1.1558
11011SOL     OW34473   1.302   6.063   8.679  0.2293  0.0297  0.6796
11011SOL    HW134474   1.362   6.120   8.632  0.4191 -0.6678  0.0686
11011SOL    HW234475   1.285   5.990   8.619 -1.9315  0.6369  0.4749
11012SOL     OW34476   7.261   3.545  10.780  0.0374 -0.5528  0.2825
11012SOL    HW134477   7.171   3.556  10.809  0.0620  1.8116 -0.2633
11012SOL    HW234478   7.270   3.607  10.707  2.4488  0.2931  1.1823
11013SOL     OW34479   0.499   4.369   9.264  0.4113 -0.4218  0.2377
11013SOL    HW134480   0.511   4.461   9.243  0.8589  0.0997  2.4818
11013SOL    HW234481   0.588   4.336   9.277  0.2184 -1.0117  0.1061
11014SOL     OW34482   6.969   5.250   2.873  0.0809  0.0862 -0.0623
11014SOL    HW134483   6.947   5.158   2.857 -0.1606  0.2650 -0.8185
11014SOL    HW234484   6.890   5.298   2.847 -0.0596  0.4599  1.0432
11015SOL     OW34485   0.327   3.099   9.919  0.1388  0.1724  0.3437
11015SOL    HW134486   0.389   3.160   9.959 -0.7313  1.7649 -0.6309
11015SOL    HW234487   0.264   3.080   9.988 -0.1464  1.2044  0.3822
11016SOL     OW34488   7.636   7.240  12.213 -0.2471  0.4581 -0.4083
11016SOL    HW134489   7.678   7.158  12.239 -1.8584 -0.4927 -0.6877
11016SOL    HW234490   7.668   7.304  12.277 -0.0597 -0.6945  0.7040
11017SOL     OW34491   5.328   5.169   3.495 -0.3989 -0.1581 -0.0369
11017SOL    HW134492   5.383   5.160   3.573 -0.6754  0.4327  0.2329
11017SOL    HW234493   5.240   5.185   3.529 -0.7619 -1.1682 -0.4639
11018SOL     OW34494   0.746   2.103  10.900  0.5503 -0.7852 -0.0807
11018SOL    HW134495   0.661   2.134  10.868 -1.0225 -3.4517  1.1590
11018SOL    HW234496   0.751   2.135  10.990  1.8799  1.0509 -0.7394
11019SOL     OW34497   5.165   7.218   8.905 -0.0376 -0.3449 -0.8699
11019SOL    HW134498   5.165   7.122   8.914  0.8119 -0.4446 -1.7607
11019SOL    HW234499   5.248   7.238   8.861  0.5359  0.9370  0.6820
11020SOL     OW34500   0.135   7.852   0.031  0.3888  0.2031  0.1972
11020SOL    HW134501   0.103   7.941   0.044  2.0674  0.9856 -0.6716
11020SOL    HW234502   0.089   7.822  -0.048 -0.9840 -0.1418  1.0919
11021SOL     OW34503   0.982   6.255   6.882  0.0373  0.2153  0.1566
11021SOL    HW134504   1.042   6.215   6.945  1.8197  0.9662 -0.9812
11021SOL    HW234505   0.941   6.181   6.838 -0.4703 -0.3174  1.4470
11022SOL     OW34506   0.495   2.087  11.818 -0.1357 -0.1816  0.4017
11022SOL    HW134507   0.446   2.160  11.856 -1.1228 -0.6583  0.0946
11022SOL    HW234508   0.474   2.013  11.875 -1.5910 -0.8930 -0.9844
11023SOL     OW34509   4.463   5.262   6.503  0.3545 -0.0131 -0.5181
11023SOL    HW134510   4.550   5.294   6.525  0.3820  0.6444 -1.5560
11023SOL    HW234511   4.411   5.341   6.488 -0.5683 -0.3815  0.5710
11024SOL     OW34512   0.432   0.919   2.476  0.3246 -0.1923  0.2349
11024SOL    HW134513   0.365   0.905   2.543  1.9848 -0.5806  1.9028
11024SOL    HW234514   0.490   0.843   2.484  1.3448  0.4683 -0.6588
11025SOL     OW34515   1.478   5.434  10.253 -0.0747 -0.4083  0.1917
11025SOL    HW134516   1.410   5.369  10.268 -0.3302 -0.2451 -0.2645
11025SOL    HW234517   1.457   5.505  10.313  1.0864 -1.3747  1.8622
11026SOL     OW34518   1.648   5.002   5.947 -0.3006 -0.1069  0.0164
11026SOL    HW134519   1.572   4.970   5.996  0.3101  0.2908  1.2654
11026SOL    HW234520   1.617   5.081   5.904 -0.6857 -0.1007  0.2978
11027SOL     OW34521   1.137   2.736   6.364 -0.2693  0.4830  0.6259
11027SOL    HW134522   1.091   2.655   6.387  0.8060 -0.4672 -0.4328
11027SOL    HW234523   1.210   2.707   6.310  0.5289  2.1188  0.7771
11028SOL     OW34524   1.635   7.185   4.841 -0.3122  0.0419 -0.2231
11028SOL    HW134525   1.696   7.200   4.914  2.1900 -0.6494 -2.0470
11028SOL    HW234526   1.608   7.272   4.813  0.3552  0.3930  0.2084
11029SOL     OW34527   6.251   4.732   5.751  0.2698 -0.1670 -0.3412
11029SOL    HW134528   6.269   4.809   5.696 -0.5367 -0.4740 -1.0630
11029SOL    HW234529   6.280   4.658   5.698 -1.4351 -0.5384 -0.8039
11030SOL     OW34530   1.609   2.152   2.942  0.1877 -0.7972  0.0771
11030SOL    HW134531   1.556   2.088   2.990 -0.2842 -1.7490 -1.6581
11030SOL    HW234532   1.634   2.216   3.009 -0.2382 -2.1851  1.6468
11031SOL     OW34533   2.090   6.374   8.593  0.2521 -1.0043 -0.1885
11031SOL    HW134534   2.180   6.371   8.626  0.2243 -3.1017 -0.1947
11031SOL    HW234535   2.097   6.348   8.501 -0.2233  0.2324 -0.6029
11032SOL     OW34536   2.190   5.427   5.337  0.0397  0.2280  0.5207
11032SOL    HW134537   2.177   5.500   5.276 -0.7288 -0.0643  0.3205
11032SOL    HW234538   2.186   5.468   5.424  1.9861  0.7799  0.3946
11033SOL     OW34539   4.054   2.881   4.166 -0.6738 -0.0253 -0.1359
11033SOL    HW134540   4.108   2.840   4.099 -0.5370 -1.7633  0.9712
11033SOL    HW234541   4.051   2.974   4.142  1.8694 -0.0657 -0.8618
11034SOL     OW34542   1.520   1.454   9.374 -0.8991  0.1735 -0.2686
11034SOL    HW134543   1.547   1.449   9.466 -0.6392  0.3522 -0.3334
11034SOL    HW234544   1.427   1.476   9.378 -0.4984  2.0063 -0.0513
11035SOL     OW34545   6.875   7.109   2.723  0.6925 -0.0551  0.3131
11035SOL    HW134546   6.903   7.017   2.721 -0.7698 -0.5502  1.2408
11035SOL    HW234547   6.947   7.155   2.767  1.2678 -0.8083  0.1874
11036SOL     OW34548   5.734   3.024   0.832 -0.2811  0.2708  0.5541
11036SOL    HW134549   5.717   3.118   0.843  2.5714  0.7808  1.5048
11036SOL    HW234550   5.716   3.007   0.739 -1.4782  1.5986  0.5202
11037SOL     OW34551   0.360   4.731  10.421 -0.0647 -0.5260  0.5931
11037SOL    HW134552   0.430   4.740  10.486 -0.4435  1.0234  0.8321
11037SOL    HW234553   0.397   4.674  10.354  1.9681  1.2978  0.0555
11038SOL     OW34554   7.490   1.481   3.992 -0.5409  0.9017  0.5914
11038SOL    HW134555   7.470   1.508   4.082  1.5620 -0.1981  1.4568
11038SOL    HW234556   7.566   1.534   3.968 -1.4917  1.6829 -0.8547
11039SOL     OW34557   5.726   3.297   0.012  0.5597  0.0356  0.0822
11039SOL    HW134558   5.705   3.345  -0.068 -1.4364  0.4673  0.8026
11039SOL    HW234559   5.781   3.356   0.063  0.2945  0.5074 -0.1744
11040SOL     OW34560   4.646   0.222   0.964 -0.1976 -0.1272 -0.1198
11040SOL    HW134561   4.587   0.222   1.039  0.4239  1.1793  0.3986
11040SOL    HW234562   4.734   0.226   1.002  0.1169  0.7503 -0.8941
11041SOL     OW34563   3.386   6.824   3.774 -0.0807 -0.4061 -0.3447
11041SOL    HW134564   3.341   6.882   3.712 -0.6133 -0.2447  0.1870
11041SOL    HW234565   3.350   6.848   3.859  0.4049 -0.8587 -0.0102
11042SOL     OW34566   1.415   7.393   2.699  0.6754  0.0887 -0.3104
11042SOL    HW134567   1.364   7.458   2.649 -0.0555 -0.4258 -0.2432
11042SOL    HW234568   1.388   7.407   2.790  3.3648  2.2956  0.2834
11043SOL     OW34569   6.264   4.013   4.995 -0.6303 -0.4901 -0.4364
11043SOL    HW134570   6.291   4.070   5.067 -2.2462  0.0518 -0.2091
11043SOL    HW234571   6.332   3.945   4.991  0.9919  1.0638 -0.2878
11044SOL     OW34572   3.488   0.885   3.719 -0.1707  0.2746  0.2180
11044SOL    HW134573   3.464   0.898   3.628  0.4644  2.7224  0.3296
11044SOL    HW234574   3.441   0.954   3.766  0.9410  0.2011  1.4841
11045SOL     OW34575   6.777   3.698   6.972  0.0188  0.0704 -0.0361
11045SOL    HW134576   6.696   3.723   7.014  1.6129  3.4253  1.3945
11045SOL    HW234577   6.846   3.728   7.031  2.3480 -1.5860 -1.7005
11046SOL     OW34578   1.484   7.184   0.948  0.0476  0.1744 -0.3806
11046SOL    HW134579   1.472   7.123   1.021 -0.6011 -0.0657 -0.6821
11046SOL    HW234580   1.516   7.129   0.876 -2.0431 -0.1476 -1.1456
11047SOL     OW34581   0.985   5.955  10.320  0.9256  0.2180 -0.1053
11047SOL    HW134582   0.997   5.877  10.267  2.1782  0.4527 -0.2071
11047SOL    HW234583   0.890   5.966  10.326  0.7431 -0.8758 -0.7098
11048SOL     OW34584   1.351   3.537   2.918 -0.0017 -1.0124 -0.6206
11048SOL    HW134585   1.340   3.462   2.977  0.8370 -0.5827  0.1027
11048SOL    HW234586   1.265   3.550   2.879 -1.6474  0.8981  3.1694
11049SOL     OW34587   6.713   7.910  11.884 -0.1505 -0.0176 -0.2185
11049SOL    HW134588   6.653   7.970  11.930 -1.5183 -1.6540  0.2231
11049SOL    HW234589   6.754   7.965  11.817 -0.8334  1.5753  0.6072
11050SOL     OW34590   5.959   5.119   3.359 -0.3766 -0.0848  0.7950
11050SOL    HW134591   5.977   5.104   3.266 -0.9817  2.0006  0.2856
11050SOL    HW234592   5.887   5.060   3.380  0.5386 -1.4214  0.2702
11051SOL     OW34593   3.297   4.448   0.225 -0.3729 -0.2849 -0.0225
11051SOL    HW134594   3.263   4.524   0.272  0.1245 -0.3694  0.4906
11051SOL    HW234595   3.324   4.481   0.140 -0.8854 -0.0454 -0.0989
11052SOL     OW34596   1.183   4.825   6.892  0.4265  0.1826 -0.0592
11052SOL    HW134597   1.201   4.783   6.976 -0.0714  0.7005  0.3169
11052SOL    HW234598   1.261   4.807   6.839 -0.2215 -2.1559 -0.3180
11053SOL     OW34599   2.765   5.697  10.762  0.3182  0.1386 -0.2214
11053SOL    HW134600   2.773   5.660  10.675 -1.6075  0.1062 -0.4451
11053SOL    HW234601   2.707   5.773  10.750 -0.5873 -0.2989  1.0999
11054SOL     OW34602   2.430   4.967   1.548  0.3955  0.3037 -0.0974
11054SOL    HW134603   2.475   5.046   1.518  1.8232 -1.0090 -1.6395
11054SOL    HW234604   2.499   4.916   1.592 -0.5646  0.0172  1.1097
11055SOL     OW34605   2.809   0.531   2.321  0.4082  0.0559 -0.1664
11055SOL    HW134606   2.729   0.565   2.361  0.3536 -0.9234  0.6035
11055SOL    HW234607   2.785   0.444   2.289  1.6849 -1.2615  2.1716
11056SOL     OW34608   0.477   2.173  10.622  0.1263 -0.3175  0.0902
11056SOL    HW134609   0.384   2.157  10.635 -0.1440  1.3059  0.2971
11056SOL    HW234610   0.490   2.265  10.645  1.6698 -0.3472 -0.5039
11057SOL     OW34611   0.112   4.686  10.155 -0.7004 -0.0539  0.0007
11057SOL    HW134612   0.071   4.646  10.232 -1.0065 -0.2034 -0.2394
11057SOL    HW234613   0.168   4.617  10.119  0.2263  0.3340  0.6658
11058SOL     OW34614   0.088   6.231   9.138 -0.0370  0.3323  0.0205
11058SOL    HW134615   0.036   6.311   9.145  0.3630  0.5172  1.1246
11058SOL    HW234616   0.032   6.169   9.092  0.1882  1.6803 -2.2381
11059SOL     OW34617   2.250   5.872   4.510 -0.1278  0.4868  0.7968
11059SOL    HW134618   2.251   5.882   4.605 -0.6855  0.5148  0.8025
11059SOL    HW234619   2.212   5.786   4.495  1.1594 -0.0622  0.6316
11060SOL     OW34620   2.810   5.609   5.776  0.6549  0.4469 -0.0116
11060SOL    HW134621   2.775   5.664   5.846  0.3485  0.4369 -0.1573
11060SOL    HW234622   2.904   5.628   5.775  0.5409  0.9993 -0.0909
11061SOL     OW34623   2.197   4.226  11.240 -0.2215  0.2646 -0.6802
11061SOL    HW134624   2.287   4.256  11.239  0.0066 -0.3790 -0.2614
11061SOL    HW234625   2.153   4.282  11.304 -0.1249  0.5903 -0.9002
11062SOL     OW34626   1.979   4.961  12.365 -0.8279  0.2498 -0.5116
11062SOL    HW134627   2.064   5.005  12.370 -0.1349 -1.0047 -0.6629
11062SOL    HW234628   1.987   4.887  12.426 -1.7898  0.0850 -0.5720
11063SOL     OW34629   2.126   6.086   5.009  0.4562  0.1927  0.0826
11063SOL    HW134630   2.078   6.169   5.007 -1.0619 -0.6040  1.1145
11063SOL    HW234631   2.199   6.099   4.949  0.3892  2.3405  0.3723
11064SOL     OW34632   5.130   6.490   4.994 -0.4229 -0.2581  0.0072
11064SOL    HW134633   5.084   6.519   5.072 -0.5865 -1.3266  0.3263
11064SOL    HW234634   5.069   6.507   4.922 -1.7426 -2.3954  0.5048
11065SOL     OW34635   1.124   2.238   7.125  0.2279  0.1010 -0.2462
11065SOL    HW134636   1.160   2.157   7.088 -1.8436 -0.9744 -0.0799
11065SOL    HW234637   1.132   2.302   7.054  2.9598  0.1264  0.0089
11066SOL     OW34638   5.232   2.208  10.621  0.0066 -0.3714  0.0335
11066SOL    HW134639   5.282   2.286  10.596 -0.1612 -0.3534 -0.2546
11066SOL    HW234640   5.146   2.221  10.581 -0.9723  0.6356  2.3015
11067SOL     OW34641   5.388   0.851   2.610  0.4068 -0.5158  0.2192
11067SOL    HW134642   5.362   0.920   2.549  0.4868 -0.1364  0.6120
11067SOL    HW234643   5.473   0.879   2.643  0.7985 -1.1915 -0.2022
11068SOL     OW34644   0.110   3.903   5.697 -0.3930  0.3901  0.6884
11068SOL    HW134645   0.145   3.992   5.698  0.0201  0.2574 -0.2849
11068SOL    HW234646   0.166   3.854   5.757 -0.6488  0.7932  1.2608
11069SOL     OW34647   1.223   0.804   7.910 -0.5462  0.9435  0.4454
11069SOL    HW134648   1.170   0.741   7.959  0.5938  0.7624  1.5103
11069SOL    HW234649   1.309   0.763   7.904 -0.7940  0.6769 -2.3339
11070SOL     OW34650   1.099   4.672  11.099 -0.2963  0.3252 -0.0116
11070SOL    HW134651   1.135   4.691  11.186 -1.4409 -0.6933  0.7278
11070SOL    HW234652   1.129   4.583  11.080 -0.8528  0.1757 -0.2097
11071SOL     OW34653   2.027   1.066   2.092 -0.1476 -0.3875 -0.0840
11071SOL    HW134654   1.999   1.120   2.166 -1.1898  1.2272 -1.5940
11071SOL    HW234655   2.085   1.000   2.132 -1.4871 -0.2530  2.3101
11072SOL     OW34656   6.701   7.391   8.385 -0.0902  0.6380 -0.0737
11072SOL    HW134657   6.760   7.350   8.449 -0.9517  0.8191  0.8596
11072SOL    HW234658   6.743   7.474   8.364  0.0309  0.7334  0.5289
11073SOL     OW34659   5.676   5.858   8.111 -0.1441  0.1187 -0.6177
11073SOL    HW134660   5.760   5.864   8.066  0.7457 -0.8589  0.8074
11073SOL    HW234661   5.687   5.914   8.188 -1.0256  0.4451 -0.7168
11074SOL     OW34662   1.105   4.144   4.043  0.4901 -0.1939 -0.1419
11074SOL    HW134663   1.061   4.059   4.041 -1.1225  0.6138 -1.1297
11074SOL    HW234664   1.160   4.145   3.964 -1.8527  0.7889 -1.8913
11075SOL     OW34665   0.433   5.578   3.193  0.1689  0.2580 -0.1606
11075SOL    HW134666   0.489   5.605   3.266  1.1017 -2.4643  0.2527
11075SOL    HW234667   0.345   5.602   3.221  0.7599  1.6820  0.6245
11076SOL     OW34668   3.060   4.267   2.148 -0.4503 -0.0352  0.0084
11076SOL    HW134669   3.070   4.295   2.238  0.6789  0.7942 -0.3525
11076SOL    HW234670   3.149   4.267   2.112 -0.8876 -0.2326 -1.1387
11077SOL     OW34671   3.156   6.950   7.069 -0.1009  0.1548  0.3694
11077SOL    HW134672   3.245   6.977   7.091  0.7262 -1.5439 -0.6769
11077SOL    HW234673   3.105   6.966   7.149  0.9174  1.9593  0.7154
11078SOL     OW34674   5.737   2.131   5.207 -0.5313 -0.3648  0.0540
11078SOL    HW134675   5.720   2.046   5.248 -0.2974  0.6156  2.3637
11078SOL    HW234676   5.651   2.171   5.200 -0.6334 -0.7408 -0.9733
11079SOL     OW34677   4.318   2.227   2.477 -0.3119 -0.0026  0.1036
11079SOL    HW134678   4.363   2.312   2.482  0.9529 -0.4787 -2.0199
11079SOL    HW234679   4.344   2.191   2.392 -2.1140 -1.8202  0.2534
11080SOL     OW34680   6.003   6.233   7.660  0.5672  0.6997  0.2152
11080SOL    HW134681   6.055   6.218   7.739 -0.4472  1.0339  0.9831
11080SOL    HW234682   6.039   6.313   7.622  0.7835  0.7835  0.5953
11081SOL     OW34683   1.175   5.869   5.618 -0.4240  0.5833 -0.4485
11081SOL    HW134684   1.226   5.836   5.543 -0.4623 -0.6667  0.0426
11081SOL    HW234685   1.105   5.805   5.630 -1.2516  1.5071 -0.1952
11082SOL     OW34686   7.724   0.882   5.091  0.7388  0.4587 -0.7077
11082SOL    HW134687   7.633   0.885   5.119  0.4458  1.0758 -1.6532
11082SOL    HW234688   7.758   0.801   5.127 -0.2860  0.0514 -0.6310
11083SOL     OW34689   7.148   4.494   6.721 -0.2293 -0.7422 -0.3292
11083SOL    HW134690   7.149   4.399   6.733 -0.1277 -0.7575 -0.4562
11083SOL    HW234691   7.220   4.526   6.777 -0.7971 -0.6600  0.3707
11084SOL     OW34692   0.433   6.871  12.341 -0.2555  0.0622  0.0280
11084SOL    HW134693   0.393   6.836  12.261 -1.0096  2.4475 -0.7197
11084SOL    HW234694   0.471   6.954  12.314  0.7934  0.2295  1.8719
11085SOL     OW34695   3.318   7.429   9.746  0.2380  0.2921  0.3488
11085SOL    HW134696   3.345   7.491   9.813 -0.3660  1.1535 -0.1744
11085SOL    HW234697   3.251   7.375   9.789  0.3741  0.3637  0.6506
11086SOL     OW34698   0.223   0.585  10.943  0.1501 -0.4353 -0.4206
11086SOL    HW134699   0.269   0.646  10.885 -1.0351  0.3883 -0.5310
11086SOL    HW234700   0.291   0.553  11.003  0.7605  1.2656 -0.1540
11087SOL     OW34701   6.183   5.851   3.365 -0.2797  0.3284 -0.1268
11087SOL    HW134702   6.241   5.926   3.372  0.4933 -0.3604  1.1416
11087SOL    HW234703   6.212   5.806   3.285 -0.8786  1.4568 -1.0002
11088SOL     OW34704   0.379   4.183   3.352 -0.3484 -0.0938 -0.1305
11088SOL    HW134705   0.393   4.154   3.262 -1.1267  1.1014 -0.6559
11088SOL    HW234706   0.462   4.164   3.397 -0.3833 -1.8881 -0.7464
11089SOL     OW34707   3.819   4.023  11.916  0.2862 -0.1182 -0.7687
11089SOL    HW134708   3.811   4.027  11.821 -2.0566  1.2812 -0.5636
11089SOL    HW234709   3.840   4.112  11.943 -0.2515 -0.2461  0.1161
11090SOL     OW34710   0.013   3.896  11.541  0.1723  0.5160  0.3907
11090SOL    HW134711   0.100   3.920  11.574  0.0489 -1.4483  2.3741
11090SOL    HW234712   0.000   3.806  11.571 -2.4079  0.6219 -0.1864
11091SOL     OW34713   4.238   3.070   2.012 -0.0114  0.8072  0.1148
11091SOL    HW134714   4.303   3.108   2.072 -1.1240  1.3889  1.0045
11091SOL    HW234715   4.183   3.016   2.069 -0.2393  0.2349 -0.6435
11092SOL     OW34716   6.392   6.994  10.627  0.6756  0.3595 -0.6541
11092SOL    HW134717   6.390   7.048  10.548 -1.4678  0.3802 -0.6483
11092SOL    HW234718   6.351   6.911  10.601 -0.2863  0.4520  0.4518
11093SOL     OW34719   7.504   3.072  11.904  0.3857 -0.0810 -0.1779
11093SOL    HW134720   7.570   3.033  11.846 -0.3979 -4.4920  1.4982
11093SOL    HW234721   7.538   3.159  11.924  4.1063 -0.9442 -1.8552
11094SOL     OW34722   3.509   5.273   2.992 -0.0639 -0.6180 -0.1082
11094SOL    HW134723   3.592   5.232   2.967  0.9018  1.7968 -1.1900
11094SOL    HW234724   3.483   5.228   3.072  3.6784  0.2218  1.8023
11095SOL     OW34725   4.539   4.515  12.021 -0.1986  0.1652  0.8443
11095SOL    HW134726   4.611   4.539  12.080 -0.0869  1.1092  0.3427
11095SOL    HW234727   4.543   4.420  12.015  0.6618  0.1698  1.2634
11096SOL     OW34728   0.247   7.105   5.425 -0.3643  0.6480  0.0421
11096SOL    HW134729   0.181   7.174   5.427 -1.6305 -0.4264 -1.4710
11096SOL    HW234730   0.322   7.141   5.473 -1.9362  2.0050  1.6111
11097SOL     OW34731   5.798   6.984   9.511 -0.8770 -0.1767  0.6001
11097SOL    HW134732   5.823   6.920   9.445 -0.6084  1.1412 -0.6386
11097SOL    HW234733   5.782   6.933   9.590  0.6641 -1.6076  0.0361
11098SOL     OW34734   3.274   3.412   7.532 -0.1343 -0.0078 -1.0588
11098SOL    HW134735   3.269   3.329   7.579  0.6457  0.3891 -0.2360
11098SOL    HW234736   3.307   3.388   7.445 -1.6963 -0.7635 -1.4734
11099SOL     OW34737   3.633   6.648   8.198  0.0619  0.0264  0.6415
11099SOL    HW134738   3.691   6.608   8.134 -0.3415  1.7067 -0.8930
11099SOL    HW234739   3.560   6.682   8.145 -0.6616  0.8328  2.0968
11100SOL     OW34740   4.040   1.223   2.834 -0.4170 -0.2192  0.1634
11100SOL    HW134741   3.960   1.222   2.781 -0.2139  0.5330 -0.1651
11100SOL    HW234742   4.018   1.277   2.910 -0.0615  0.4219 -0.1858
11101SOL     OW34743   6.026   2.955   0.362 -0.2398 -0.1595 -0.3404
11101SOL    HW134744   6.074   2.888   0.410  0.1206  0.1684 -0.2376
11101SOL    HW234745   5.946   2.911   0.333  0.2955 -0.8283 -0.8501
11102SOL     OW34746   7.484   6.773   0.626  0.5124 -0.1776 -0.2191
11102SOL    HW134747   7.500   6.848   0.683 -1.0355 -0.2060  0.3146
11102SOL    HW234748   7.554   6.777   0.561  0.5251  1.6951 -0.1648
11103SOL     OW34749   0.523   1.798   8.120  0.3453  0.2095 -0.4844
11103SOL    HW134750   0.490   1.876   8.074  0.0715  0.4733  0.1411
11103SOL    HW234751   0.463   1.728   8.095  0.3245  0.3044 -0.6977
11104SOL     OW34752   6.823   5.501   5.976 -0.1169  0.2195 -0.0733
11104SOL    HW134753   6.782   5.587   5.976 -0.9137 -0.1421 -0.7419
11104SOL    HW234754   6.912   5.516   6.008 -0.7853  1.0199  1.5310
11105SOL     OW34755   0.304   5.018   8.272  0.3601 -0.1547 -1.1156
11105SOL    HW134756   0.362   5.093   8.285  0.5592 -0.6347  1.2482
11105SOL    HW234757   0.233   5.051   8.217  2.0049  0.8811 -2.6951
11106SOL     OW34758   1.930   3.662   1.753 -0.6076  0.4963 -0.3744
11106SOL    HW134759   1.880   3.689   1.676 -0.1254  1.6894 -0.2890
11106SOL    HW234760   2.011   3.626   1.717 -0.0403  1.7825 -0.4173
11107SOL     OW34761   4.315   5.936   9.080 -0.6333 -0.3341 -0.1113
11107SOL    HW134762   4.305   6.007   9.016 -1.1568 -0.3222 -0.0150
11107SOL    HW234763   4.265   5.964   9.156  1.6791  0.6283  1.1555
11108SOL     OW34764   6.638   1.327   7.695 -0.2089 -0.7235  0.4270
11108SOL    HW134765   6.686   1.408   7.676 -0.3148 -0.5451  0.9043
11108SOL    HW234766   6.618   1.290   7.609  0.4770 -0.6193  0.2101
11109SOL     OW34767   7.723   7.033  10.727 -0.8770  0.3269 -0.7157
11109SOL    HW134768   7.802   7.085  10.713 -0.4405 -0.1120  0.0530
11109SOL    HW234769   7.700   7.001  10.640  1.3650 -1.7924 -0.6400
11110SOL     OW34770   5.419   4.729   6.400 -0.0726 -0.7033 -0.2188
11110SOL    HW134771   5.423   4.803   6.461  1.6203 -0.9049 -0.0380
11110SOL    HW234772   5.326   4.720   6.379 -0.2666  1.9144 -0.7888
11111SOL     OW34773   2.990   2.379   5.691 -0.1268  0.2650  0.1575
11111SOL    HW134774   2.946   2.438   5.629 -2.3347 -0.3798  1.0080
11111SOL    HW234775   2.951   2.294   5.675  2.2282 -0.8032 -0.2821
11112SOL     OW34776   0.471   7.433   4.258 -0.5905  0.0482  0.1401
11112SOL    HW134777   0.444   7.467   4.172  1.2786  1.3126 -0.0169
11112SOL    HW234778   0.449   7.340   4.255  1.3516 -0.4735 -2.6143
11113SOL     OW34779   5.474   3.618   1.339 -0.4004 -1.0014  0.0026
11113SOL    HW134780   5.561   3.596   1.307  0.2386  1.3087 -0.0240
11113SOL    HW234781   5.477   3.712   1.357 -2.7593 -0.9241  0.4467
11114SOL     OW34782   3.405   5.467  11.703 -0.1135 -0.2274 -0.3598
11114SOL    HW134783   3.449   5.385  11.681 -0.7541 -0.3744 -1.1490
11114SOL    HW234784   3.405   5.517  11.621  0.7577  0.8098  0.2395
11115SOL     OW34785   3.511   1.594   4.924 -0.1595  0.0508  0.0732
11115SOL    HW134786   3.534   1.502   4.935 -0.6883 -0.1419 -0.3783
11115SOL    HW234787   3.589   1.642   4.950  0.8470 -0.5730 -1.6302
11116SOL     OW34788   4.012   2.744   9.715  0.1706 -0.2761 -0.8734
11116SOL    HW134789   3.935   2.694   9.687 -0.7845  1.2628 -1.1320
11116SOL    HW234790   4.072   2.678   9.749 -1.8321 -1.4486  0.6705
11117SOL     OW34791   6.768   7.086  11.746  0.2286 -0.3681 -0.0915
11117SOL    HW134792   6.825   7.013  11.722  1.6718  1.3529 -2.1776
11117SOL    HW234793   6.701   7.087  11.678  0.2167  0.2666 -0.0733
11118SOL     OW34794   6.366   3.216   5.012 -0.6374  0.2824  0.3601
11118SOL    HW134795   6.284   3.175   5.040 -3.1282  2.9458 -2.2390
11118SOL    HW234796   6.378   3.186   4.922 -0.0868  1.7284 -0.0780
11119SOL     OW34797   7.463   1.435   5.962  0.1302  0.0237  0.0984
11119SOL    HW134798   7.546   1.387   5.971 -0.8279 -1.6753  0.1711
11119SOL    HW234799   7.467   1.474   5.875  1.5029  0.9709  0.5550
11120SOL     OW34800   0.421   1.283   0.029 -0.1741  0.1334  0.1113
11120SOL    HW134801   0.452   1.226   0.100  0.7442  1.0158  0.4479
11120SOL    HW234802   0.404   1.223  -0.044  3.3832 -0.3903 -0.4709
11121SOL     OW34803   5.553   6.260   0.239  0.0942 -0.0250  0.2045
11121SOL    HW134804   5.479   6.250   0.179  0.3130  0.4211 -0.1450
11121SOL    HW234805   5.630   6.260   0.183  0.2120  2.0595  0.2646
11122SOL     OW34806   3.269   5.978   3.224 -0.2416  0.6663  0.2168
11122SOL    HW134807   3.208   5.907   3.204 -1.1042  1.4097  0.1483
11122SOL    HW234808   3.275   6.029   3.144  2.1014 -0.5086 -0.4740
11123SOL     OW34809   1.787   4.693   6.393 -0.5941 -0.0592  0.7382
11123SOL    HW134810   1.840   4.707   6.471  0.2134  1.2556 -0.0218
11123SOL    HW234811   1.700   4.726   6.417 -1.1201 -2.1080  1.9399
11124SOL     OW34812   5.596   3.109  10.949  0.0193 -0.0175 -0.3489
11124SOL    HW134813   5.563   3.169  11.015 -1.5612  0.4259 -1.4938
11124SOL    HW234814   5.519   3.084  10.898  1.2138 -0.1345 -2.1909
11125SOL     OW34815   0.491   4.484   9.703  0.4650 -0.2358 -0.2167
11125SOL    HW134816   0.424   4.417   9.717  1.3472 -1.1327 -0.1738
11125SOL    HW234817   0.472   4.519   9.616  0.5519 -1.2035 -0.6302
11126SOL     OW34818   2.221   3.710   3.696  0.2675 -0.7436  0.0551
11126SOL    HW134819   2.137   3.670   3.715 -0.0093 -0.4763 -0.6029
11126SOL    HW234820   2.249   3.748   3.780  0.5898 -2.3722  0.7221
11127SOL     OW34821   6.337   5.142  11.518 -0.7695  0.6166 -0.1539
11127SOL    HW134822   6.413   5.176  11.564  0.4337  0.0000 -1.6005
11127SOL    HW234823   6.361   5.146  11.425 -2.5172  0.4275 -0.6602
11128SOL     OW34824   3.375   2.206  12.120 -0.4311 -0.6204  0.3806
11128SOL    HW134825   3.403   2.123  12.159 -0.3634 -0.9345 -0.3068
11128SOL    HW234826   3.425   2.212  12.038 -0.3865  0.1361  0.4579
11129SOL     OW34827   0.262   0.695   7.261  0.7867 -0.4250  0.0897
11129SOL    HW134828   0.337   0.755   7.250 -0.5984  1.1323 -1.6425
11129SOL    HW234829   0.204   0.717   7.188 -1.9948 -0.6238  2.1074
11130SOL     OW34830   4.670   4.673   7.659 -0.0725  0.1034  0.0096
11130SOL    HW134831   4.745   4.618   7.639 -0.6295 -0.8256  0.4009
11130SOL    HW234832   4.701   4.733   7.727  0.3243 -0.2375  0.1267
11131SOL     OW34833   0.835   0.790   4.714  0.1614  0.0229 -0.4293
11131SOL    HW134834   0.778   0.826   4.646  0.0712  2.6299  0.9334
11131SOL    HW234835   0.923   0.803   4.680  0.0808 -1.0795 -1.1290
11132SOL     OW34836   6.078   0.564   0.725 -0.8584 -0.3380 -0.1776
11132SOL    HW134837   6.151   0.563   0.664 -1.3083 -1.2747 -0.7151
11132SOL    HW234838   6.000   0.572   0.670 -1.3195 -1.8995  0.2129
11133SOL     OW34839   1.727   4.802   1.579  0.5826 -0.2468 -0.1036
11133SOL    HW134840   1.741   4.719   1.534  1.5959  0.0369 -0.3512
11133SOL    HW234841   1.816   4.834   1.597  0.2103  0.9241 -0.2831
11134SOL     OW34842   6.521   2.089  10.949 -0.2368 -0.2876 -0.6528
11134SOL    HW134843   6.486   2.076  11.037  0.2269 -1.0985 -0.5772
11134SOL    HW234844   6.469   2.032  10.893  0.7643 -1.3009 -0.5802
11135SOL     OW34845   5.981   3.395  12.152  0.3197 -0.3429  0.5761
11135SOL    HW134846   5.994   3.489  12.139  0.1564 -0.4857 -0.8177
11135SOL    HW234847   5.999   3.380  12.245 -1.9499  1.4366  1.3785
11136SOL     OW34848   3.863   3.241   0.411  0.3732 -0.2408  0.1793
11136SOL    HW134849   3.871   3.336   0.408  0.5432 -0.2518  0.2729
11136SOL    HW234850   3.769   3.224   0.401  0.4057 -0.0883 -0.3871
11137SOL     OW34851   0.581   5.513   0.004 -0.0164 -0.0379 -0.0174
11137SOL    HW134852   0.556   5.438   0.058 -0.2905  0.9188  1.2353
11137SOL    HW234853   0.594   5.476  -0.083 -1.1260 -1.3661  0.3426
11138SOL     OW34854   3.489   4.089   8.956  0.1632 -0.3175 -0.1447
11138SOL    HW134855   3.475   4.138   9.036 -1.4437  1.1605 -1.2645
11138SOL    HW234856   3.575   4.117   8.925  0.8393 -0.9722  1.0620
11139SOL     OW34857   4.365   7.500   3.902 -0.1929 -0.1151  0.1470
11139SOL    HW134858   4.366   7.583   3.854  1.6432 -1.1714 -1.8020
11139SOL    HW234859   4.376   7.433   3.835  2.6177 -1.6985  1.9715
11140SOL     OW34860   4.974   7.655   3.569 -0.2450 -0.0890 -0.1170
11140SOL    HW134861   4.908   7.703   3.518 -3.6153 -2.8696  1.1950
11140SOL    HW234862   4.925   7.583   3.609  3.3790 -1.4830  2.3102
11141SOL     OW34863   5.915   6.817  11.594  0.0190  0.4266 -0.1269
11141SOL    HW134864   5.836   6.768  11.615 -0.1337  0.5124 -0.4898
11141SOL    HW234865   5.973   6.803  11.668  0.0482 -0.4562 -0.3136
11142SOL     OW34866   4.526   6.360   3.202 -0.4365  0.7538 -0.3270
11142SOL    HW134867   4.593   6.307   3.245 -0.7113 -0.2154 -1.0342
11142SOL    HW234868   4.516   6.437   3.258 -0.7521 -0.4216  1.3123
11143SOL     OW34869   0.892   2.638   7.041  0.0278  0.0815  0.5907
11143SOL    HW134870   0.813   2.690   7.025 -0.2970 -0.0445  1.7223
11143SOL    HW234871   0.914   2.601   6.955 -0.7609  0.6525  0.1349
11144SOL     OW34872   5.453   6.325   4.283 -0.2687  0.7215 -0.2467
11144SOL    HW134873   5.468   6.239   4.321 -0.4456  1.3716  1.3928
11144SOL    HW234874   5.437   6.308   4.191 -0.6952 -1.0394  0.1123
11145SOL     OW34875   1.595   6.469  12.297 -0.1391  0.0257  0.0828
11145SOL    HW134876   1.672   6.415  12.317 -0.0836 -0.5789 -1.5925
11145SOL    HW234877   1.629   6.541  12.245 -0.4076  1.0078  1.2304
11146SOL     OW34878   5.263   2.863   5.090 -0.1620  0.2891  0.0689
11146SOL    HW134879   5.341   2.819   5.123  0.6810  1.9307  0.3741
11146SOL    HW234880   5.206   2.792   5.060  1.3449 -0.9555  0.0380
11147SOL     OW34881   6.870   0.487  10.146 -0.3218  0.4299 -0.2467
11147SOL    HW134882   6.895   0.578  10.165  0.6249  0.1949 -0.3093
11147SOL    HW234883   6.923   0.463  10.071 -0.0419 -0.3959  0.2023
11148SOL     OW34884   6.937   1.078   1.743 -0.6857 -0.2904 -0.0151
11148SOL    HW134885   6.961   1.012   1.808 -2.2399  0.8055  1.7560
11148SOL    HW234886   6.856   1.045   1.704 -0.2330 -0.5154 -0.7848
11149SOL     OW34887   4.416   7.601   3.082  0.0854  0.2150  0.3774
11149SOL    HW134888   4.369   7.682   3.063 -0.3601  0.1078  0.9869
11149SOL    HW234889   4.356   7.531   3.054  1.3606  0.0475 -2.3250
11150SOL     OW34890   7.174   6.165   8.589 -0.2082 -0.1048  0.2954
11150SOL    HW134891   7.250   6.201   8.634 -0.5493  0.5352  0.3818
11150SOL    HW234892   7.197   6.074   8.571  0.4617  0.0037  0.5700
11151SOL     OW34893   5.114   0.277   1.909 -0.5191 -0.0015 -0.0280
11151SOL    HW134894   5.184   0.213   1.904 -0.2382  0.2196  0.8385
11151SOL    HW234895   5.124   0.331   1.831  1.4239  1.1717  0.9385
11152SOL     OW34896   3.475   7.654   8.014  0.3065 -0.0341  0.2071
11152SOL    HW134897   3.542   7.719   7.992  0.4438 -0.5151 -0.8465
11152SOL    HW234898   3.524   7.578   8.046  0.0950  0.9162  3.1308
11153SOL     OW34899   0.931   4.579   7.060 -0.3243  0.3159  0.4133
11153SOL    HW134900   0.946   4.590   6.966 -1.9290  0.4121  0.1366
11153SOL    HW234901   0.905   4.666   7.091 -0.9426  0.0387  0.6978
11154SOL     OW34902   2.017   3.950   7.246  0.7876  0.0182  0.0365
11154SOL    HW134903   2.092   3.972   7.301  1.9558 -0.3353 -1.3719
11154SOL    HW234904   2.037   3.864   7.210  0.5938  0.7048 -1.8250
11155SOL     OW34905   4.814   1.544  10.503  0.2766 -0.2426 -0.6138
11155SOL    HW134906   4.786   1.477  10.440 -0.4307  0.1287 -0.7090
11155SOL    HW234907   4.808   1.626  10.454  0.4062 -0.0274 -0.2727
11156SOL     OW34908   3.007   7.517  10.913  0.1463 -0.3765 -0.5059
11156SOL    HW134909   2.969   7.596  10.953 -1.1752 -1.6470  0.8992
11156SOL    HW234910   3.019   7.457  10.987  1.6175 -1.3136 -1.4669
11157SOL     OW34911   4.989   7.475   3.890  0.6447 -0.1967 -0.4390
11157SOL    HW134912   5.032   7.454   3.806  1.0347 -0.6333 -0.1353
11157SOL    HW234913   5.019   7.407   3.950  0.1071 -0.0712 -0.0244
11158SOL     OW34914   3.778   6.583   9.777 -0.3995 -0.1937 -0.2414
11158SOL    HW134915   3.782   6.672   9.743 -1.6817 -0.0421 -0.0640
11158SOL    HW234916   3.832   6.585   9.856 -0.6865  0.5181 -0.0592
11159SOL     OW34917   7.432   2.790   0.057  0.3049  0.3677 -0.3292
11159SOL    HW134918   7.398   2.756   0.140  0.5983  1.3597  0.2079
11159SOL    HW234919   7.389   2.875   0.046  2.1789  1.4030  0.0954
11160SOL     OW34920   1.632   5.715   5.266  0.5304  0.8984 -0.1291
11160SOL    HW134921   1.696   5.683   5.203  0.8419  0.1688  0.5437
11160SOL    HW234922   1.685   5.754   5.336  0.2809 -0.2015  0.6960
11161SOL     OW34923   3.517   3.274  11.952  0.3101 -0.1505  0.4630
11161SOL    HW134924   3.501   3.317  12.036 -0.4873 -1.2479  0.9043
11161SOL    HW234925   3.525   3.181  11.975  1.5726 -0.2957 -0.5033
11162SOL     OW34926   6.290   0.817   9.815  0.1860  0.5876  0.5475
11162SOL    HW134927   6.284   0.729   9.779  0.4862  0.4436  0.8515
11162SOL    HW234928   6.284   0.874   9.738  0.2295  0.3001  0.3269
11163SOL     OW34929   6.099   5.080  11.343 -0.1843 -0.6961 -0.1255
11163SOL    HW134930   6.092   5.148  11.276 -2.3832  0.9845  1.6634
11163SOL    HW234931   6.173   5.107  11.397 -0.1274 -0.5405 -0.2816
11164SOL     OW34932   1.011   5.780   5.199 -0.2864 -0.5193  0.2860
11164SOL    HW134933   1.081   5.744   5.253 -0.3402  0.1770  0.8366
11164SOL    HW234934   0.967   5.704   5.161  1.9382 -0.9845 -1.6137
11165SOL     OW34935   4.023   5.687   9.152  0.2289  0.2675  0.4680
11165SOL    HW134936   3.988   5.774   9.171 -1.3946  0.2132 -1.9352
11165SOL    HW234937   4.071   5.697   9.070  0.4793 -1.0032  0.4366
11166SOL     OW34938   3.602   0.925  11.236  0.6665 -0.1643 -0.2779
11166SOL    HW134939   3.694   0.929  11.262  0.1604 -0.7351  1.7911
11166SOL    HW234940   3.565   0.855  11.291 -1.1258  0.4718 -0.6298
11167SOL     OW34941   1.366   3.136  10.959  0.3149  0.2893  0.1364
11167SOL    HW134942   1.290   3.157  11.014  0.6646 -2.5356  1.9259
11167SOL    HW234943   1.354   3.044  10.936  2.2863  0.2799 -1.1072
11168SOL     OW34944   2.691   5.419   9.731 -0.5068  0.3934 -0.1495
11168SOL    HW134945   2.743   5.499   9.734 -0.8607  0.7268 -1.8583
11168SOL    HW234946   2.694   5.392   9.639 -0.4186 -1.5569  0.3893
11169SOL     OW34947   3.118   0.095   0.079 -0.4233  0.3219 -0.7233
11169SOL    HW134948   3.035   0.137   0.058 -0.7505  0.9107  1.4877
11169SOL    HW234949   3.094   0.013   0.121  0.1891 -0.7336 -2.3484
11170SOL     OW34950   2.156   2.458   2.451 -0.1528 -0.5617  0.0907
11170SOL    HW134951   2.231   2.440   2.394  0.0829  0.4038  0.0690
11170SOL    HW234952   2.132   2.373   2.487  0.1453 -1.0883 -0.8925
11171SOL     OW34953   4.439   5.767  11.438 -0.0408 -0.3976  0.0783
11171SOL    HW134954   4.360   5.797  11.483  0.2546  0.6415 -0.0593
11171SOL    HW234955   4.476   5.846  11.398  1.0006 -0.8796  0.0318
11172SOL     OW34956   4.423   0.759   9.643 -0.1785 -0.2086 -0.0169
11172SOL    HW134957   4.365   0.833   9.661 -0.8181 -0.2333 -1.8498
11172SOL    HW234958   4.464   0.740   9.728 -1.2603  1.1528  0.8495
11173SOL     OW34959   4.803   6.521   4.098  0.1503 -0.0852  0.4251
11173SOL    HW134960   4.746   6.482   4.164 -1.5497 -0.0310 -0.9466
11173SOL    HW234961   4.812   6.612   4.124 -0.4020 -0.0906  0.6499
11174SOL     OW34962   3.711   6.001   1.235 -0.3832  0.2646 -0.3663
11174SOL    HW134963   3.775   6.072   1.229  1.4698 -1.1361  1.4065
11174SOL    HW234964   3.640   6.037   1.288 -0.4055  1.3995 -1.1425
11175SOL     OW34965   3.442   4.975   7.386 -0.3569  0.3532  0.4139
11175SOL    HW134966   3.383   4.996   7.313 -1.2437  1.3712  1.3761
11175SOL    HW234967   3.411   4.891   7.419  0.5328 -0.4992 -0.8249
11176SOL     OW34968   4.229   0.084   3.966  0.4034  0.0985  0.0575
11176SOL    HW134969   4.229   0.042   4.052 -0.1433 -0.6115 -0.2768
11176SOL    HW234970   4.301   0.146   3.970  0.1280  0.3851  1.1807
11177SOL     OW34971   3.897   2.607   0.803 -0.8296  0.0479  0.7522
11177SOL    HW134972   3.847   2.536   0.764  2.3720 -1.4491 -0.9766
11177SOL    HW234973   3.847   2.686   0.781 -2.1783 -1.2810 -1.2738
11178SOL     OW34974   0.986   2.367   9.404  0.0900  0.1947  0.4067
11178SOL    HW134975   1.026   2.440   9.357  1.4587 -0.0227  1.1773
11178SOL    HW234976   0.892   2.381   9.395  0.3205  2.0385  0.5215
11179SOL     OW34977   1.237   1.653   7.702  0.3547  0.0586 -0.1022
11179SOL    HW134978   1.161   1.686   7.750  1.3352  0.9840  0.8958
11179SOL    HW234979   1.288   1.732   7.681  0.9786 -0.5291 -0.8579
11180SOL     OW34980   6.332   6.861   1.953 -0.1493  0.2935 -0.1467
11180SOL    HW134981   6.383   6.936   1.923 -0.2793  1.2563  1.9390
11180SOL    HW234982   6.394   6.810   2.006 -0.3395 -0.5716 -0.7289
11181SOL     OW34983   4.789   7.018   4.419  0.2921 -0.1500  0.2096
11181SOL    HW134984   4.850   6.951   4.451 -0.8099 -0.8254  0.9491
11181SOL    HW234985   4.810   7.096   4.470  0.2242 -0.5162  0.8045
11182SOL     OW34986   5.314   2.186   4.073  0.1855  0.1495 -0.1920
11182SOL    HW134987   5.297   2.255   4.009  2.0088 -0.2238 -1.1471
11182SOL    HW234988   5.388   2.138   4.037 -0.4861 -1.7884  0.8800
11183SOL     OW34989   0.487   4.772   8.221 -0.5308 -0.1154  0.2102
11183SOL    HW134990   0.423   4.842   8.232  1.2660  1.6108  0.4263
11183SOL    HW234991   0.477   4.744   8.130  0.0053  1.8781 -0.5177
11184SOL     OW34992   6.727   5.507   9.117 -0.6189 -0.1862  0.3891
11184SOL    HW134993   6.685   5.528   9.201 -1.7885  0.1440 -0.2430
11184SOL    HW234994   6.655   5.512   9.053  0.4025  0.4017 -0.7551
11185SOL     OW34995   6.131   6.096  10.590 -0.1955  0.0025  0.1390
11185SOL    HW134996   6.089   6.036  10.652 -0.0979 -1.0095 -0.7347
11185SOL    HW234997   6.220   6.061  10.580 -0.9951 -1.5513 -2.6216
11186SOL     OW34998   2.216   0.801   0.494  0.1418 -0.4054 -0.4725
11186SOL    HW134999   2.281   0.825   0.428 -0.7083 -0.0839 -1.2143
11186SOL    HW235000   2.268   0.766   0.567  1.0902 -0.8564 -1.3357
11187SOL     OW35001   7.193   6.753   0.879 -0.1036  0.2781  0.0982
11187SOL    HW135002   7.209   6.758   0.784 -0.0084  0.2298  0.1116
11187SOL    HW235003   7.261   6.694   0.911  0.2937  0.8318  0.2934
11188SOL     OW35004   0.881   7.021   5.331 -0.3546 -0.3471  0.3767
11188SOL    HW135005   0.922   6.940   5.364 -1.0114 -0.5870  0.6108
11188SOL    HW235006   0.921   7.090   5.384  1.4873 -0.3041 -0.9525
11189SOL     OW35007   1.055   1.419   4.839  0.0062 -0.1676  0.1028
11189SOL    HW135008   0.980   1.375   4.879 -1.4383  2.2525  0.2523
11189SOL    HW235009   1.088   1.477   4.907  1.2207 -0.2446 -0.3960
11190SOL     OW35010   4.569   2.052   7.370  0.3407 -0.2973 -0.0882
11190SOL    HW135011   4.618   2.088   7.444 -1.7096 -1.8808  2.1953
11190SOL    HW235012   4.574   1.957   7.382 -1.6824 -0.5342 -0.7947
11191SOL     OW35013   4.006   6.811   7.506 -0.7288  0.6061  0.2227
11191SOL    HW135014   4.021   6.888   7.561 -0.7116 -1.0468  2.6857
11191SOL    HW235015   4.015   6.737   7.565  0.0485 -1.3927 -2.2055
11192SOL     OW35016   0.241   3.985   5.038 -0.1234  0.1820  0.5251
11192SOL    HW135017   0.306   4.043   5.078  1.0280 -1.8360  1.7504
11192SOL    HW235018   0.242   3.906   5.093  0.3682 -2.1291 -2.5446
11193SOL     OW35019   0.036   5.108  10.105 -0.5877  0.4057  0.1973
11193SOL    HW135020   0.124   5.137  10.126 -0.5423  0.5994 -0.2623
11193SOL    HW235021   0.041   5.076  10.015 -0.9378  0.2241  0.2369
11194SOL     OW35022   3.243   7.078  12.023 -0.3146  0.7246 -0.3750
11194SOL    HW135023   3.327   7.031  12.019  0.2012  1.6958 -1.5685
11194SOL    HW235024   3.213   7.065  12.113  0.0970 -1.3666 -0.4825
11195SOL     OW35025   3.988   6.206   4.660 -0.5207  0.3207 -0.2707
11195SOL    HW135026   4.009   6.283   4.713  2.3143  0.5776 -1.5747
11195SOL    HW235027   3.927   6.238   4.594  0.8820  1.5774 -1.0065
11196SOL     OW35028   6.118   2.527   0.488 -0.0749  0.2117 -0.4637
11196SOL    HW135029   6.030   2.495   0.508 -0.7527  2.0956 -0.1975
11196SOL    HW235030   6.176   2.470   0.538 -1.3207  0.4740  1.3999
11197SOL     OW35031   1.219   7.626   9.383 -0.1587 -0.0354 -0.0778
11197SOL    HW135032   1.229   7.546   9.434  0.2202 -0.7654 -1.2380
11197SOL    HW235033   1.177   7.597   9.302  2.5430  0.4031 -1.7557
11198SOL     OW35034   3.901   1.824   7.652  0.1969  0.5000  0.4642
11198SOL    HW135035   3.949   1.866   7.723 -0.0716  0.9118  0.4032
11198SOL    HW235036   3.918   1.878   7.576 -0.2007  0.5330  0.3988
11199SOL     OW35037   3.645   2.865   1.358 -0.2865  0.0806  0.0724
11199SOL    HW135038   3.594   2.900   1.285 -1.4578 -1.7923 -0.0785
11199SOL    HW235039   3.725   2.917   1.359 -0.6340  0.7321 -1.9699
11200SOL     OW35040   5.070   0.443   0.842  0.1192  0.1779 -0.2990
11200SOL    HW135041   5.124   0.381   0.890  1.1958  2.2622  1.3704
11200SOL    HW235042   5.115   0.455   0.759 -0.3251 -1.4847 -0.8259
11201SOL     OW35043   2.124   2.385  11.735 -0.0377  0.2572 -0.0606
11201SOL    HW135044   2.184   2.425  11.671 -0.8511  0.6701 -0.5816
11201SOL    HW235045   2.180   2.330  11.789  0.9307  1.1765 -0.0849
11202SOL     OW35046   1.184   7.168   2.700 -0.1142 -0.1267 -0.0251
11202SOL    HW135047   1.265   7.127   2.672  0.4203  0.4848  0.5772
11202SOL    HW235048   1.125   7.095   2.720  0.6612 -0.6011  0.5854
11203SOL     OW35049   4.609   7.348  10.764  0.4511  0.2148  0.4041
11203SOL    HW135050   4.551   7.279  10.794 -1.2009  1.0736 -0.6796
11203SOL    HW235051   4.687   7.340  10.819  0.0564 -2.0964  0.7026
11204SOL     OW35052   2.834   3.044   6.144  0.1715  0.2622  0.1739
11204SOL    HW135053   2.817   3.082   6.058 -1.5643  0.8843  0.7294
11204SOL    HW235054   2.867   3.116   6.196  1.1092 -0.0852  0.0705
11205SOL     OW35055   3.123   1.671   2.318  0.4135  0.3950 -0.2142
11205SOL    HW135056   3.061   1.717   2.375  0.5597  0.7115 -0.3075
11205SOL    HW235057   3.084   1.678   2.230 -0.3850 -1.0646 -0.0119
11206SOL     OW35058   7.048   0.379   9.907 -0.6404  0.4167 -0.5839
11206SOL    HW135059   7.080   0.337   9.828 -0.6783  0.2471 -0.5125
11206SOL    HW235060   7.011   0.306   9.959  2.1849 -0.0170  1.0132
11207SOL     OW35061   3.237   7.629   3.377  0.2952  0.1319  0.5147
11207SOL    HW135062   3.149   7.591   3.366  0.1686  0.0121  1.8129
11207SOL    HW235063   3.282   7.608   3.296 -0.5765 -0.6376  0.2116
11208SOL     OW35064   7.252   3.168   0.821  0.1768 -0.3911  0.0826
11208SOL    HW135065   7.227   3.201   0.907 -1.3283 -0.2068 -0.4036
11208SOL    HW235066   7.285   3.080   0.838 -0.2106 -0.3955  0.8274
11209SOL     OW35067   1.543   5.047  11.745  0.0784  0.2676  0.0869
11209SOL    HW135068   1.466   5.036  11.689 -0.2347 -0.3817  0.6340
11209SOL    HW235069   1.608   5.090  11.689 -0.7685  1.0743 -0.3058
11210SOL     OW35070   4.869   7.679   4.852  0.2397 -0.2407 -0.0792
11210SOL    HW135071   4.881   7.743   4.782  0.1601  0.8916  0.9159
11210SOL    HW235072   4.957   7.670   4.890 -0.0937  0.6582  0.9355
11211SOL     OW35073   7.683   6.363   2.023  0.2766  0.1492 -0.2848
11211SOL    HW135074   7.662   6.393   2.112  1.1547 -0.1506  0.0349
11211SOL    HW235075   7.681   6.443   1.970 -1.6429  0.1326 -0.2853
11212SOL     OW35076   0.784   4.989   6.817 -0.1598  0.4031  0.1189
11212SOL    HW135077   0.814   5.079   6.831 -0.9683  0.9095 -1.2237
11212SOL    HW235078   0.854   4.934   6.852  0.2176  1.5424  1.2294
11213SOL     OW35079   6.697   1.465   8.017 -0.5469  0.1946 -0.0385
11213SOL    HW135080   6.768   1.405   7.993  0.3654  1.4138 -0.5283
11213SOL    HW235081   6.742   1.548   8.036 -1.8745  1.1160 -0.7992
11214SOL     OW35082   0.725   3.903   1.091 -0.1734  0.3444  0.0715
11214SOL    HW135083   0.716   3.839   1.020  0.3705  1.4611 -1.0381
11214SOL    HW235084   0.813   3.888   1.125 -0.3796 -0.0907  0.4294
11215SOL     OW35085   7.833   4.551   1.427 -0.1166  0.4594 -0.3373
11215SOL    HW135086   7.925   4.545   1.400 -0.1440 -0.4657 -0.2543
11215SOL    HW235087   7.786   4.575   1.347  0.1347  0.4215 -0.4972
11216SOL     OW35088   1.014   2.088  10.915  0.0823  0.6002 -0.1645
11216SOL    HW135089   1.062   2.109  10.835 -0.4018 -0.4985 -0.7518
11216SOL    HW235090   0.924   2.117  10.898 -0.3078 -0.7719 -0.5129
11217SOL     OW35091   6.184   2.122   5.573 -0.7816  0.3711 -0.3895
11217SOL    HW135092   6.175   2.207   5.614 -2.8824 -0.1181  0.3080
11217SOL    HW235093   6.115   2.120   5.506 -1.0518 -0.9142 -0.1035
11218SOL     OW35094   5.591   6.811  12.257 -0.0422 -0.0109  0.1068
11218SOL    HW135095   5.661   6.871  12.230 -1.0017  0.8230 -0.6007
11218SOL    HW235096   5.637   6.732  12.285  1.2968  1.2246  1.5568
11219SOL     OW35097   4.589   1.017   2.525 -0.0200 -0.8056 -0.3123
11219SOL    HW135098   4.561   1.080   2.458 -1.0875 -1.7755 -0.7944
11219SOL    HW235099   4.677   0.991   2.497  0.4018  0.3663 -0.1602
11220SOL     OW35100   2.414   0.734  11.118 -0.2927  0.1669  0.2551
11220SOL    HW135101   2.495   0.763  11.077 -0.2050 -1.4812 -0.8492
11220SOL    HW235102   2.435   0.651  11.159 -0.6167  1.3398  3.0217
11221SOL     OW35103   1.959   4.549   3.949  0.0108 -0.0922 -0.2177
11221SOL    HW135104   2.013   4.551   4.028 -0.2671 -0.1551 -0.0225
11221SOL    HW235105   1.989   4.624   3.898  1.1515 -0.8506 -0.7079
11222SOL     OW35106   4.018   4.883  12.205 -0.1251 -0.0512  0.9860
11222SOL    HW135107   4.031   4.975  12.179 -0.0460  0.0371  1.3269
11222SOL    HW235108   3.949   4.851  12.148  0.2642  0.0439  0.4509
11223SOL     OW35109   6.883   2.183   9.102  0.0172  0.1618  0.0644
11223SOL    HW135110   6.878   2.268   9.144  0.0270 -0.4443  1.3528
11223SOL    HW235111   6.841   2.195   9.016  1.9071  1.9547 -0.6861
11224SOL     OW35112   7.859   3.640   5.119 -0.4294  0.0954 -0.6242
11224SOL    HW135113   7.847   3.569   5.055 -2.5297 -0.8729  0.7298
11224SOL    HW235114   7.826   3.718   5.074 -2.0612 -0.6058 -0.7246
11225SOL     OW35115   6.680   1.436   2.774  0.2190 -0.1588  0.0597
11225SOL    HW135116   6.636   1.405   2.695 -0.8938  0.5171  0.3844
11225SOL    HW235117   6.609   1.473   2.827  1.2115  1.1050  0.5447
11226SOL     OW35118   1.953   6.672   9.569 -0.6862  0.1622  0.0313
11226SOL    HW135119   1.997   6.605   9.622  2.5808  3.3293  1.8169
11226SOL    HW235120   1.978   6.652   9.479 -0.0674 -1.1928  0.4871
11227SOL     OW35121   2.246   4.043   4.651 -0.1132  0.2418  0.7225
11227SOL    HW135122   2.177   3.976   4.657 -1.2607  1.0607 -1.7177
11227SOL    HW235123   2.208   4.111   4.596  2.7283  0.6271 -0.9798
11228SOL     OW35124   6.721   2.553   5.231 -0.1872 -0.3873 -0.1433
11228SOL    HW135125   6.733   2.614   5.159 -2.7511 -0.4148 -0.6720
11228SOL    HW235126   6.772   2.476   5.205  1.0431  0.5654 -0.6474
11229SOL     OW35127   4.260   0.690  11.277  0.0633  0.1188  0.0408
11229SOL    HW135128   4.210   0.754  11.226 -0.0275 -0.0048 -0.0262
11229SOL    HW235129   4.203   0.667  11.350  0.6079  1.0986  0.8124
11230SOL     OW35130   2.137   4.853   4.396  0.4773 -0.3993 -0.2913
11230SOL    HW135131   2.117   4.759   4.404  1.6058 -0.7287 -1.0133
11230SOL    HW235132   2.232   4.857   4.409  0.1493  0.9764  2.2670
11231SOL     OW35133   1.249   2.773   7.829 -0.0610 -0.3365  0.3706
11231SOL    HW135134   1.266   2.774   7.735  0.9122  0.7561  0.5321
11231SOL    HW235135   1.259   2.865   7.856  1.0077 -0.8236  1.7619
11232SOL     OW35136   7.399   7.612   2.480 -0.0610  0.0792 -0.0640
11232SOL    HW135137   7.355   7.650   2.556 -0.4669 -0.9245  0.2102
11232SOL    HW235138   7.362   7.659   2.405  0.4838  1.2173  0.3497
11233SOL     OW35139   5.564   3.727   5.105  0.0297  0.1597  0.4926
11233SOL    HW135140   5.619   3.794   5.147  3.2417 -0.0964 -2.7189
11233SOL    HW235141   5.501   3.777   5.053 -0.3630  0.5690  1.3532
11234SOL     OW35142   5.853   6.027   0.176  0.0968 -0.8047  0.0904
11234SOL    HW135143   5.941   6.017   0.140 -0.3006 -0.0014 -1.2102
11234SOL    HW235144   5.804   6.071   0.106 -0.5788  1.4091  1.8297
11235SOL     OW35145   7.153   4.524   1.045  0.1095 -0.6411  0.1788
11235SOL    HW135146   7.156   4.592   0.977  1.5482 -1.2441 -0.4121
11235SOL    HW235147   7.086   4.554   1.106  0.7794  1.3881  0.0151
11236SOL     OW35148   0.973   0.849   3.067  0.0655  0.0279 -0.0895
11236SOL    HW135149   0.911   0.911   3.030 -0.1235  0.1334  0.3962
11236SOL    HW235150   1.002   0.797   2.992  0.7207  1.1155 -0.6268
11237SOL     OW35151   5.518   7.099   8.475  0.4263  0.2625  0.3392
11237SOL    HW135152   5.423   7.095   8.463  0.5145 -0.6230 -0.1496
11237SOL    HW235153   5.539   7.021   8.527  0.9400  0.1948  0.0420
11238SOL     OW35154   0.018   4.730   4.285 -0.3996 -0.2840 -0.4502
11238SOL    HW135155   0.103   4.757   4.320 -0.3737 -0.0637 -0.6827
11238SOL    HW235156   0.038   4.655   4.229 -0.3889 -0.3779 -0.3219
11239SOL     OW35157   7.292   5.473   1.205 -0.1844 -0.0286 -0.1765
11239SOL    HW135158   7.332   5.389   1.180  0.8077  0.5095 -0.4430
11239SOL    HW235159   7.323   5.488   1.294  1.8329  1.2966 -1.0202
11240SOL     OW35160   0.845   2.607   3.685 -0.0517 -0.0023 -0.1382
11240SOL    HW135161   0.772   2.546   3.695 -0.2581  0.2270 -0.2595
11240SOL    HW235162   0.917   2.566   3.733 -0.3964  0.0091  0.3891
11241SOL     OW35163   4.425   0.284   4.247 -0.1533 -0.0251 -0.7415
11241SOL    HW135164   4.483   0.209   4.262  0.6355  0.6624 -0.2311
11241SOL    HW235165   4.431   0.301   4.153  1.3360  0.6923 -0.5404
11242SOL     OW35166   4.930   5.625   7.826 -0.0712 -0.0301  0.1807
11242SOL    HW135167   4.980   5.704   7.803  1.2978 -0.9691 -0.2045
11242SOL    HW235168   4.863   5.619   7.758 -0.5164  1.0619  0.4976
11243SOL     OW35169   4.716   1.719   7.050 -0.7030 -0.0232 -0.0854
11243SOL    HW135170   4.648   1.686   6.991 -0.4530 -0.7400  0.0185
11243SOL    HW235171   4.668   1.771   7.115 -1.0579  0.1815 -0.5101
11244SOL     OW35172   5.403   1.964   4.636 -0.1383 -0.1098 -0.5161
11244SOL    HW135173   5.408   1.896   4.703 -0.7627  0.5631  0.2310
11244SOL    HW235174   5.309   1.980   4.625  0.0242  1.1059 -0.1975
11245SOL     OW35175   5.918   6.419  11.654  0.2736  0.2940  0.6999
11245SOL    HW135176   5.961   6.381  11.731 -0.6690 -0.4998  0.8548
11245SOL    HW235177   5.834   6.450  11.686  0.4608  1.3177  0.2782
11246SOL     OW35178   0.595   6.043   5.400  0.3843 -0.3671 -0.0427
11246SOL    HW135179   0.687   6.026   5.419 -0.1765 -1.7569  1.6736
11246SOL    HW235180   0.561   5.960   5.366  0.2368  0.7766 -2.9846
11247SOL     OW35181   0.361   0.178   4.339 -0.1996 -0.6774 -0.0809
11247SOL    HW135182   0.426   0.127   4.290  0.4319 -1.8672  1.8682
11247SOL    HW235183   0.280   0.126   4.332 -0.2805 -0.5239 -0.3359
11248SOL     OW35184   5.314   0.782   3.322  0.3534 -0.4318  0.4057
11248SOL    HW135185   5.372   0.770   3.398 -0.7579 -1.1485  1.1734
11248SOL    HW235186   5.329   0.706   3.267 -1.3127 -1.7528  1.6409
11249SOL     OW35187   2.099   0.166   3.693  0.4922  0.5243  0.4234
11249SOL    HW135188   2.159   0.129   3.628  0.6040 -0.6058  1.1322
11249SOL    HW235189   2.065   0.245   3.653 -0.5830 -0.9091 -1.6360
11250SOL     OW35190   1.440   6.333   7.623 -0.2137  0.0412 -0.5782
11250SOL    HW135191   1.511   6.297   7.676 -0.0038  1.8389  0.4678
11250SOL    HW235192   1.385   6.258   7.601  1.1092 -1.1353 -0.0005
11251SOL     OW35193   7.601   4.124   5.201 -0.4993  0.3234 -0.1679
11251SOL    HW135194   7.525   4.085   5.158 -0.0123  1.2156 -1.9066
11251SOL    HW235195   7.600   4.086   5.289 -0.9855 -2.3390 -1.2237
11252SOL     OW35196   4.748   7.528   6.374  0.7936 -0.1394  0.0662
11252SOL    HW135197   4.674   7.468   6.382  2.1295 -1.7872  0.6423
11252SOL    HW235198   4.825   7.471   6.377  2.0766  1.3608 -2.0183
11253SOL     OW35199   1.335   1.960  10.317 -0.2514  0.5428 -0.6008
11253SOL    HW135200   1.349   1.881  10.369 -1.8407 -0.3424 -1.4267
11253SOL    HW235201   1.273   2.011  10.368 -0.4713  0.4898 -0.8134
11254SOL     OW35202   4.265   1.534   9.681 -0.0556  0.4917 -0.0864
11254SOL    HW135203   4.248   1.534   9.587 -1.3277 -1.2609  0.0925
11254SOL    HW235204   4.262   1.626   9.706 -1.5430  0.8563 -1.4602
11255SOL     OW35205   0.247   6.894   8.416  0.0391 -0.7807 -0.0677
11255SOL    HW135206   0.196   6.971   8.391  2.7702  1.0225 -0.4010
11255SOL    HW235207   0.303   6.877   8.340 -0.4780 -3.1766 -0.0087
11256SOL     OW35208   5.180   1.248   7.358  0.1247  0.1800 -0.4296
11256SOL    HW135209   5.151   1.331   7.320  0.9830 -0.0388 -1.6118
11256SOL    HW235210   5.103   1.214   7.404 -0.9296  0.5098 -1.8758
11257SOL     OW35211   2.407   3.673   1.840  0.5164 -0.4124 -0.4924
11257SOL    HW135212   2.378   3.765   1.840  2.6121  0.3180  1.0710
11257SOL    HW235213   2.399   3.646   1.748  0.7594  1.6446 -1.1765
11258SOL     OW35214   7.180   4.763   4.138 -0.0637  0.1901 -0.2320
11258SOL    HW135215   7.147   4.747   4.227  1.7545 -0.7592  0.3417
11258SOL    HW235216   7.141   4.847   4.113 -1.6533 -0.1435  0.9304
11259SOL     OW35217   1.825   2.801  11.191  0.3944 -0.3830 -0.1302
11259SOL    HW135218   1.788   2.716  11.215 -0.4983 -0.2213 -0.8754
11259SOL    HW235219   1.750   2.860  11.185  0.3856 -0.4938 -3.5959
11260SOL     OW35220   6.993   7.595   9.957 -0.1536  0.0088 -0.1054
11260SOL    HW135221   6.923   7.648   9.994 -1.5833 -0.7152 -1.6395
11260SOL    HW235222   7.059   7.590  10.027 -1.1275  1.5898  0.9935
11261SOL     OW35223   0.862   0.412   7.538 -0.0935 -0.4544  0.3627
11261SOL    HW135224   0.830   0.482   7.481  0.2181 -2.3824 -2.3968
11261SOL    HW235225   0.936   0.451   7.585 -2.4466  2.2121  2.1881
11262SOL     OW35226   1.870   2.608   7.736 -0.8344 -0.1494 -0.2898
11262SOL    HW135227   1.793   2.552   7.732 -0.7740 -0.3993  1.4120
11262SOL    HW235228   1.862   2.656   7.819  0.2703  0.6572 -0.6130
11263SOL     OW35229   5.460   6.557   3.123 -0.1448  0.0044  0.6863
11263SOL    HW135230   5.397   6.610   3.172 -1.4284 -1.6933  0.9959
11263SOL    HW235231   5.499   6.499   3.188  1.4061  0.6993  0.4049
11264SOL     OW35232   4.399   7.887   5.026 -0.1084  0.4612 -0.1633
11264SOL    HW135233   4.432   7.933   5.103 -0.2975  0.3131  0.0062
11264SOL    HW235234   4.474   7.882   4.967 -0.6741  3.1761 -1.2476
11265SOL     OW35235   3.973   6.351   6.287 -0.0702 -0.1239  0.0613
11265SOL    HW135236   3.984   6.287   6.357 -1.8421 -1.0816 -0.4832
11265SOL    HW235237   3.918   6.419   6.324 -0.7391 -0.4696 -0.2748
11266SOL     OW35238   7.795   7.805   0.203  0.1621 -0.0065 -0.4016
11266SOL    HW135239   7.719   7.835   0.154 -0.2842 -1.3505 -0.5825
11266SOL    HW235240   7.869   7.821   0.145 -0.4953 -2.9406 -2.2756
11267SOL     OW35241   5.979   4.468  10.395 -0.0161  0.7073 -0.0752
11267SOL    HW135242   5.983   4.547  10.341  1.5270  0.2393 -0.7021
11267SOL    HW235243   6.015   4.399  10.339  0.1596 -0.1152  1.0185
11268SOL     OW35244   7.646   3.352   4.642 -0.1807  0.0304 -0.7001
11268SOL    HW135245   7.647   3.357   4.737 -1.5617 -0.1451 -0.6509
11268SOL    HW235246   7.620   3.440   4.614  1.2726  0.4000 -0.9845
11269SOL     OW35247   2.636   5.954  10.259 -0.2779  0.1930 -0.0251
11269SOL    HW135248   2.612   5.946  10.352 -1.1505 -1.2205 -0.3417
11269SOL    HW235249   2.553   5.968  10.214 -0.1213 -1.0826 -0.7739
11270SOL     OW35250   2.102   2.530  12.258 -0.5523 -0.5041 -0.1582
11270SOL    HW135251   2.142   2.460  12.311 -2.6042 -1.5620  0.0991
11270SOL    HW235252   2.130   2.511  12.169  0.0141 -0.8432  0.0842
11271SOL     OW35253   4.215   5.511   6.374  0.8423  0.2128  0.3675
11271SOL    HW135254   4.188   5.485   6.286  1.3086 -3.4940  1.1403
11271SOL    HW235255   4.154   5.579   6.399 -0.1658  0.3902 -2.3097
11272SOL     OW35256   5.319   6.726   1.553 -0.0544  0.1470 -0.2212
11272SOL    HW135257   5.306   6.670   1.630 -2.3898  0.4159 -0.3478
11272SOL    HW235258   5.316   6.815   1.588  2.1069  0.3022 -0.2459
11273SOL     OW35259   5.675   3.932   4.841  0.2433  0.4125  0.0236
11273SOL    HW135260   5.683   4.006   4.780  0.8839 -0.2415 -0.7062
11273SOL    HW235261   5.732   3.956   4.914 -0.7137  1.3137  0.5083
11274SOL     OW35262   3.974   4.507   8.408 -0.4914  0.5957 -0.8204
11274SOL    HW135263   3.906   4.550   8.357 -0.0791  0.7190 -1.2741
11274SOL    HW235264   3.928   4.441   8.460 -1.3016  2.2315  0.6619
11275SOL     OW35265   7.466   0.340   8.175 -0.0016  0.0276 -0.3244
11275SOL    HW135266   7.537   0.388   8.132 -1.0080  0.0329 -2.0701
11275SOL    HW235267   7.446   0.269   8.114 -0.8938 -0.5093  0.5783
11276SOL     OW35268   3.341   1.422   6.370 -0.0119  0.1509 -0.4064
11276SOL    HW135269   3.397   1.378   6.435 -0.8002  0.4160  0.4680
11276SOL    HW235270   3.369   1.513   6.374  0.2974  0.0786 -0.8303
11277SOL     OW35271   5.249   5.211   9.852 -0.2306 -0.5002 -0.8661
11277SOL    HW135272   5.344   5.198   9.851 -0.3480 -1.7471  0.9469
11277SOL    HW235273   5.215   5.136   9.900 -2.0016  0.7478 -0.0932
11278SOL     OW35274   2.795   4.526   5.557  0.2046 -0.4282 -0.7721
11278SOL    HW135275   2.730   4.593   5.540  0.2417 -0.0762  0.3448
11278SOL    HW235276   2.879   4.565   5.532  0.0814 -0.5551 -1.3798
11279SOL     OW35277   0.938   3.130   9.438  0.2933  1.0866 -0.3779
11279SOL    HW135278   0.853   3.111   9.477  0.1590 -0.2772 -1.2737
11279SOL    HW235279   0.956   3.221   9.462 -1.4012  1.3907 -0.1731
11280SOL     OW35280   7.196   2.494   4.369  0.1945 -0.4630 -0.7621
11280SOL    HW135281   7.125   2.538   4.322  0.1120  0.9137  0.6193
11280SOL    HW235282   7.157   2.466   4.451  1.2390  0.2918  0.0109
11281SOL     OW35283   6.680   3.177   7.593 -0.3107  0.4412 -0.1008
11281SOL    HW135284   6.649   3.266   7.574 -0.3783  0.4710  0.1495
11281SOL    HW235285   6.775   3.183   7.583 -0.2886  0.6122  0.1939
11282SOL     OW35286   6.162   6.860   4.321 -0.4298  0.3628 -0.2739
11282SOL    HW135287   6.238   6.850   4.264  0.0706  0.5351  0.3460
11282SOL    HW235288   6.193   6.829   4.406 -0.9114  0.8687  0.0905
11283SOL     OW35289   2.760   5.698   7.420  0.6987 -0.0995  0.1097
11283SOL    HW135290   2.709   5.729   7.494 -1.4331  0.3658 -1.4619
11283SOL    HW235291   2.730   5.751   7.346 -0.1144 -3.0877 -1.8883
11284SOL     OW35292   7.034   1.575   5.867 -0.2426  0.0765  0.1247
11284SOL    HW135293   6.966   1.595   5.802 -0.3933 -2.1162 -0.4595
11284SOL    HW235294   7.084   1.503   5.828  1.8358  0.9629  0.9762
11285SOL     OW35295   7.405   1.169   5.641  0.2842 -0.0826 -0.1270
11285SOL    HW135296   7.491   1.147   5.677  0.4085  1.8142  0.8680
11285SOL    HW235297   7.413   1.153   5.547  1.0198 -1.9528  0.2229
11286SOL     OW35298   4.377   5.678   7.398 -0.1479  0.3452  0.2967
11286SOL    HW135299   4.388   5.588   7.368 -1.5904  0.3271 -0.2554
11286SOL    HW235300   4.423   5.681   7.482  1.6153 -0.3507 -0.6028
11287SOL     OW35301   4.997   5.343   3.339 -0.1763  0.1257  0.3249
11287SOL    HW135302   5.091   5.339   3.323 -0.2374  2.2717 -0.8972
11287SOL    HW235303   4.964   5.406   3.275 -2.7951 -2.0216 -0.6552
11288SOL     OW35304   4.884   5.278   4.296  0.1322 -0.8473 -0.0904
11288SOL    HW135305   4.846   5.191   4.301 -1.7081 -0.0704  0.0285
11288SOL    HW235306   4.833   5.331   4.357 -0.5202  0.8900 -2.0172
11289SOL     OW35307   2.536   1.407  11.826  0.0317  0.2232  0.4821
11289SOL    HW135308   2.616   1.424  11.777  0.2442 -2.7617 -0.4111
11289SOL    HW235309   2.561   1.422  11.917  1.7883 -1.0394  0.2681
11290SOL     OW35310   0.605   0.348   4.282 -0.5152 -0.4551 -0.1033
11290SOL    HW135311   0.530   0.293   4.262  1.2394 -2.9456 -0.3616
11290SOL    HW235312   0.601   0.362   4.377 -1.7859  0.2324 -0.2532
11291SOL     OW35313   0.319   7.418   6.784 -0.1715 -0.5527  0.1608
11291SOL    HW135314   0.374   7.347   6.816  0.5111 -0.4380 -0.7109
11291SOL    HW235315   0.249   7.427   6.849  0.4532 -1.1676  0.9212
11292SOL     OW35316   3.173   7.859   5.984 -0.2665  0.1280 -0.0158
11292SOL    HW135317   3.170   7.764   5.982  2.4062 -0.0598  1.0692
11292SOL    HW235318   3.150   7.886   5.895 -1.4069 -1.4749 -0.2426
11293SOL     OW35319   2.935   0.828   6.608  0.1487  0.0258  0.0571
11293SOL    HW135320   2.918   0.902   6.549  0.7762 -0.7200 -1.1035
11293SOL    HW235321   3.030   0.824   6.614  0.1001 -0.0807  0.9327
11294SOL     OW35322   2.525   1.420   3.378 -0.7202  0.2009 -0.3280
11294SOL    HW135323   2.479   1.397   3.296  1.0565  2.6385 -2.1385
11294SOL    HW235324   2.610   1.452   3.349  0.7225 -0.6377  2.6782
11295SOL     OW35325   1.393   5.319   3.331  0.4996 -0.1285  0.0753
11295SOL    HW135326   1.361   5.256   3.395 -0.9146  1.0665  0.6203
11295SOL    HW235327   1.326   5.320   3.263  1.1860 -0.2033 -0.6092
11296SOL     OW35328   7.200   4.877   2.045  0.0047 -0.0882  0.0469
11296SOL    HW135329   7.134   4.857   2.110  0.0669 -0.3922  0.0185
11296SOL    HW235330   7.271   4.814   2.062 -0.7250 -1.3832 -1.4273
11297SOL     OW35331   4.641   0.995  12.318  0.0160  0.2155 -0.2363
11297SOL    HW135332   4.718   0.944  12.345  0.5245  0.8662 -0.4236
11297SOL    HW235333   4.572   0.930  12.306  0.7885 -0.4926 -0.9703
11298SOL     OW35334   4.716   6.289   3.386 -0.2245 -0.3088 -0.0417
11298SOL    HW135335   4.744   6.374   3.420 -1.2607  0.8821 -1.9856
11298SOL    HW235336   4.787   6.229   3.409  0.6447  1.1163  1.1638
11299SOL     OW35337   5.334   0.082   1.637  0.1488 -0.1668 -1.1261
11299SOL    HW135338   5.288  -0.001   1.652 -0.0429 -0.3517 -2.5884
11299SOL    HW235339   5.343   0.120   1.724 -1.7812 -0.6578 -0.6603
11300SOL     OW35340   6.954   5.549   7.165  0.3011 -0.0291  0.0797
11300SOL    HW135341   6.944   5.622   7.104  1.0030 -0.2306 -0.2837
11300SOL    HW235342   6.867   5.508   7.167  0.4610 -0.4981 -1.4016
11301SOL     OW35343   1.238   5.261   6.254  0.3737  0.2770 -0.2994
11301SOL    HW135344   1.222   5.273   6.161  2.3813 -0.4019 -0.7739
11301SOL    HW235345   1.288   5.180   6.260  2.1069  1.3727  1.1533
11302SOL     OW35346   5.244   4.472   4.448  0.1132  1.2176 -0.1699
11302SOL    HW135347   5.324   4.508   4.488  0.8210  0.0789 -0.5186
11302SOL    HW235348   5.211   4.543   4.393  0.4627  1.9672  0.5581
11303SOL     OW35349   5.462   4.449   2.124 -0.2199 -0.0738 -0.2174
11303SOL    HW135350   5.434   4.497   2.046 -2.2768  1.0786  1.1353
11303SOL    HW235351   5.391   4.388   2.141  0.9895 -1.5214 -0.1649
11304SOL     OW35352   5.638   0.745   0.319  0.7427  0.2082  0.0708
11304SOL    HW135353   5.606   0.677   0.379  1.0094 -1.2507 -1.3739
11304SOL    HW235354   5.574   0.816   0.328  0.3113 -0.3121  1.4363
11305SOL     OW35355   0.923   5.309  10.611 -0.5634 -0.0760  0.4326
11305SOL    HW135356   0.891   5.397  10.594 -1.3477 -0.0025  2.0692
11305SOL    HW235357   0.893   5.290  10.700  1.0484 -1.3349  0.7497
11306SOL     OW35358   2.617   7.717   5.935 -0.3790 -0.3454 -0.2976
11306SOL    HW135359   2.527   7.726   5.965 -0.2195  0.3650 -0.0147
11306SOL    HW235360   2.609   7.709   5.840 -0.6457  1.8704 -0.5177
11307SOL     OW35361   0.288   2.456  10.641 -0.2096  0.4450 -0.5156
11307SOL    HW135362   0.245   2.451  10.726 -0.9742  2.6099 -0.7084
11307SOL    HW235363   0.382   2.458  10.662 -0.2421 -1.7099  0.0577
11308SOL     OW35364   6.467   0.491  11.259 -0.4209 -0.2296  0.1986
11308SOL    HW135365   6.516   0.558  11.211  0.9277 -0.8342  0.6700
11308SOL    HW235366   6.447   0.424  11.193  0.2264 -0.4172  0.1850
11309SOL     OW35367   2.017   3.691   7.497  0.3234 -0.4089  0.2827
11309SOL    HW135368   2.010   3.779   7.533  0.6189 -0.1921 -0.1853
11309SOL    HW235369   1.986   3.634   7.567  1.3144 -0.0228  1.0468
11310SOL     OW35370   0.555   2.404   3.760 -0.3237 -0.7072 -0.1271
11310SOL    HW135371   0.579   2.396   3.853  0.5151  2.2642  0.0443
11310SOL    HW235372   0.476   2.351   3.750 -0.3624 -1.2019  2.2604
11311SOL     OW35373   6.209   0.590  11.270  0.0411  0.3251 -0.0156
11311SOL    HW135374   6.170   0.523  11.214  0.0867 -1.5626  2.0601
11311SOL    HW235375   6.301   0.564  11.278 -0.2996 -0.4672  2.1647
11312SOL     OW35376   4.089   1.587   1.931 -0.7100 -0.0159 -0.4449
11312SOL    HW135377   4.095   1.682   1.922 -0.6704 -0.1368 -1.9318
11312SOL    HW235378   4.081   1.555   1.841  2.9461 -1.6635 -0.3667
11313SOL     OW35379   5.736   0.494   9.702  0.2266  0.3969  0.0815
11313SOL    HW135380   5.723   0.497   9.797  0.0860 -0.3362  0.0907
11313SOL    HW235381   5.807   0.556   9.686  1.2020 -0.4900  0.8455
11314SOL     OW35382   5.179   4.142   2.798 -0.1938  0.2631 -0.2275
11314SOL    HW135383   5.096   4.095   2.813 -0.7987  1.2459 -0.3934
11314SOL    HW235384   5.191   4.195   2.877 -1.0786  2.0626 -1.2268
11315SOL     OW35385   5.206   4.998   1.555 -0.1563  0.2101 -0.3451
11315SOL    HW135386   5.256   5.045   1.488 -0.4666  0.8614 -0.1210
11315SOL    HW235387   5.128   5.052   1.570  0.7760  1.0679  1.8838
11316SOL     OW35388   2.569   5.927   8.029 -0.4746 -0.8576 -0.4526
11316SOL    HW135389   2.608   5.866   8.092 -0.9411 -0.8869 -0.1874
11316SOL    HW235390   2.638   5.941   7.964  1.0584  1.2720  1.4627
11317SOL     OW35391   1.897   6.241   7.620  0.0997 -0.6047  0.0650
11317SOL    HW135392   1.945   6.193   7.553  1.1730  0.4246  0.0526
11317SOL    HW235393   1.820   6.276   7.575  1.5927  1.3842 -1.1049
11318SOL     OW35394   2.094   0.356   2.370 -0.2832 -0.1472  0.9221
11318SOL    HW135395   2.011   0.340   2.415  0.2696 -0.4196  1.8759
11318SOL    HW235396   2.148   0.400   2.435 -0.0665  1.1175 -0.0735
11319SOL     OW35397   1.409   2.683   5.275  0.0952  0.2058 -0.3237
11319SOL    HW135398   1.495   2.646   5.295 -0.5176 -1.1822 -0.2046
11319SOL    HW235399   1.384   2.729   5.356 -0.2256 -1.2616  0.4398
11320SOL     OW35400   4.930   5.107   5.282  0.1860  0.1335 -0.3242
11320SOL    HW135401   4.921   5.054   5.361  0.4973  0.0673 -0.3287
11320SOL    HW235402   4.990   5.177   5.307  0.7797 -0.2405 -0.6718
11321SOL     OW35403   2.454   6.185  10.368  0.6746 -0.3260  0.1230
11321SOL    HW135404   2.367   6.155  10.392  0.5790 -0.7359 -0.6835
11321SOL    HW235405   2.514   6.135  10.424  0.3710  0.7223  1.4379
11322SOL     OW35406   3.332   1.424  10.952 -0.3307 -0.1508  0.5964
11322SOL    HW135407   3.246   1.421  10.909 -0.7497 -0.3132  1.4274
11322SOL    HW235408   3.322   1.367  11.028  0.8297 -0.9867  0.1445
11323SOL     OW35409   2.354   3.116  11.276 -0.1136 -0.2088 -0.1319
11323SOL    HW135410   2.351   3.174  11.353  0.7966  0.3465 -0.4911
11323SOL    HW235411   2.419   3.157  11.218 -0.9688 -0.4873 -1.3162
11324SOL     OW35412   4.241   4.241  11.866 -0.1308 -0.1948 -0.5144
11324SOL    HW135413   4.233   4.232  11.961 -0.2997 -0.0332 -0.5128
11324SOL    HW235414   4.316   4.186  11.842  1.4967  1.6563  0.0257
11325SOL     OW35415   3.458   4.572   0.527 -0.6574  0.1531  0.1061
11325SOL    HW135416   3.395   4.585   0.598 -1.8655  1.7957 -1.1592
11325SOL    HW235417   3.516   4.647   0.533  0.8605 -1.0270  0.8666
11326SOL     OW35418   0.133   6.197  12.211 -0.5442  0.7099  0.7073
11326SOL    HW135419   0.097   6.141  12.142  0.5207 -0.2763  0.9266
11326SOL    HW235420   0.172   6.271  12.165  0.3162 -0.0298  0.2242
11327SOL     OW35421   5.515   3.875   9.993  0.0454 -0.2355  0.0538
11327SOL    HW135422   5.579   3.899   9.926  0.7260 -1.1037  0.3739
11327SOL    HW235423   5.503   3.781   9.983  0.5031 -0.4638  1.4167
11328SOL     OW35424   2.639   4.177   0.086  0.2519  0.6477 -0.0277
11328SOL    HW135425   2.562   4.129   0.059 -0.6566  1.6907  0.6308
11328SOL    HW235426   2.713   4.129   0.048 -0.6960 -0.5296 -0.4042
11329SOL     OW35427   2.616   3.129   2.705 -0.8472  0.2910  0.1543
11329SOL    HW135428   2.643   3.080   2.782  0.8917 -0.2598 -0.7459
11329SOL    HW235429   2.611   3.064   2.635  1.7083  1.3029 -1.1103
11330SOL     OW35430   5.696   6.002   0.653 -0.5545 -0.1883  0.0109
11330SOL    HW135431   5.728   5.913   0.672 -2.6701 -0.7872  1.1074
11330SOL    HW235432   5.641   5.992   0.576  0.6694  0.5669 -1.0003
11331SOL     OW35433   1.502   6.853  10.855 -0.4386 -0.5023  0.0631
11331SOL    HW135434   1.470   6.944  10.853 -0.4027 -0.4898 -1.7807
11331SOL    HW235435   1.423   6.800  10.841  0.0526 -0.4991 -3.7991
11332SOL     OW35436   5.509   0.756   4.283  0.2400 -0.3115  0.2597
11332SOL    HW135437   5.541   0.726   4.368  0.0942 -1.2624 -0.0140
11332SOL    HW235438   5.504   0.677   4.230 -0.8060  0.1015 -0.2731
11333SOL     OW35439   1.378   2.484   3.028  0.5024  0.0710 -0.4084
11333SOL    HW135440   1.301   2.529   2.994  1.1204 -0.0458 -2.0653
11333SOL    HW235441   1.343   2.414   3.083 -0.5294  0.8344 -0.0712
11334SOL     OW35442   3.252   0.880   8.609  0.0756 -0.0100  0.5522
11334SOL    HW135443   3.326   0.850   8.556 -0.5839  2.8864 -2.2905
11334SOL    HW235444   3.292   0.918   8.687  1.4436 -0.3287  0.0318
11335SOL     OW35445   6.257   5.113   7.571  0.1724 -0.1846  0.2823
11335SOL    HW135446   6.179   5.152   7.610  1.0097  1.0915  0.7648
11335SOL    HW235447   6.250   5.133   7.478  0.7723  1.5638  0.5672
11336SOL     OW35448   4.679   1.636  11.467 -0.1627 -0.7928 -0.3891
11336SOL    HW135449   4.765   1.677  11.474 -0.9469  0.7769  0.4043
11336SOL    HW235450   4.617   1.703  11.495 -1.4153 -3.0585  2.9148
11337SOL     OW35451   4.503   4.111   6.416 -0.2946 -0.4971 -0.3646
11337SOL    HW135452   4.445   4.046   6.377  0.0361 -0.3682 -1.0794
11337SOL    HW235453   4.545   4.064   6.489  1.3766 -1.7046 -2.0167
11338SOL     OW35454   2.809   5.395   6.904 -0.5087 -0.1772  0.2713
11338SOL    HW135455   2.719   5.411   6.873 -0.2889 -0.4326 -0.5363
11338SOL    HW235456   2.814   5.441   6.987 -1.0213  0.8510 -0.2464
11339SOL     OW35457   7.209   5.816   8.852  0.0425 -0.1847 -0.4293
11339SOL    HW135458   7.199   5.817   8.948 -0.6660 -0.3041 -0.5002
11339SOL    HW235459   7.256   5.898   8.833  2.8445 -1.5105  0.2722
11340SOL     OW35460   0.659   7.694  10.027  0.2823  0.2306 -0.4943
11340SOL    HW135461   0.675   7.646   9.946 -1.1692  0.3888 -0.8912
11340SOL    HW235462   0.566   7.681  10.045  0.5212  0.4160  1.0135
11341SOL     OW35463   3.485   1.837   2.597 -0.2826 -0.5659 -0.3884
11341SOL    HW135464   3.481   1.921   2.551 -0.8206 -0.3699  0.0130
11341SOL    HW235465   3.441   1.775   2.539 -3.4736  0.2059  0.9772
11342SOL     OW35466   0.641   0.969   0.768 -0.2249  0.2073 -0.7116
11342SOL    HW135467   0.707   0.918   0.816  0.5760  0.2989 -1.6816
11342SOL    HW235468   0.581   0.903   0.733 -1.0381  0.1568  0.6697
11343SOL     OW35469   2.189   6.305   9.342  0.3799  0.2797 -0.4226
11343SOL    HW135470   2.242   6.284   9.419 -0.8054 -1.6296 -0.0545
11343SOL    HW235471   2.243   6.280   9.267  1.2195  1.3905 -0.2136
11344SOL     OW35472   4.528   5.045   2.736 -0.4354  0.4984  0.6234
11344SOL    HW135473   4.540   5.116   2.799 -1.0471  0.2623  1.0137
11344SOL    HW235474   4.462   5.078   2.675  0.5859  0.9638 -0.2708
11345SOL     OW35475   6.458   3.524  10.628 -0.6108  0.4622 -0.1084
11345SOL    HW135476   6.427   3.547  10.715 -0.8217 -0.6483  0.1279
11345SOL    HW235477   6.530   3.585  10.610  0.7133 -0.5123  1.6416
11346SOL     OW35478   2.461   6.503   4.772  0.2194  0.3923  0.1809
11346SOL    HW135479   2.380   6.550   4.793  0.6038  1.4453 -0.5701
11346SOL    HW235480   2.525   6.573   4.754  1.3765 -0.4099  1.0334
11347SOL     OW35481   6.676   5.634   1.067  0.2359 -0.2846 -0.3804
11347SOL    HW135482   6.767   5.654   1.087  0.0581  2.4605 -1.8822
11347SOL    HW235483   6.627   5.673   1.139  0.1740 -1.8861  0.5041
11348SOL     OW35484   6.999   2.640  12.199  0.2304 -0.0479  0.3293
11348SOL    HW135485   7.092   2.662  12.205 -0.0699  2.3860 -2.0814
11348SOL    HW235486   6.955   2.704  12.255 -0.0779 -0.3564  0.4410
11349SOL     OW35487   7.318   6.234   0.493  0.2268  0.9890 -0.2496
11349SOL    HW135488   7.280   6.193   0.571  0.5355  2.5123  0.7463
11349SOL    HW235489   7.412   6.239   0.512  0.6351 -0.5248 -1.6510
11350SOL     OW35490   3.569   0.718  10.623 -0.0510  0.7146  0.4238
11350SOL    HW135491   3.564   0.770  10.703  1.1831  0.4561  0.6930
11350SOL    HW235492   3.620   0.641  10.649 -0.5997  0.0843 -0.3361
11351SOL     OW35493   1.892   1.689   5.900 -0.0780 -0.0609 -0.6800
11351SOL    HW135494   1.914   1.597   5.916 -1.2598 -0.2111  0.2775
11351SOL    HW235495   1.970   1.738   5.927 -0.3421 -0.6381  1.3260
11352SOL     OW35496   2.635   0.973   6.322  0.2037 -0.1434 -0.0045
11352SOL    HW135497   2.555   0.926   6.347  1.4146 -2.1689  0.2906
11352SOL    HW235498   2.633   1.053   6.375 -1.7740  0.0313 -0.2676
11353SOL     OW35499   2.326   0.407  12.097  0.2470  0.0439 -0.2636
11353SOL    HW135500   2.357   0.327  12.055 -1.1121 -0.8106  0.3200
11353SOL    HW235501   2.377   0.414  12.177 -0.0486 -0.5646 -0.0227
11354SOL     OW35502   3.165   2.118   7.031 -0.4855 -0.7954 -0.6433
11354SOL    HW135503   3.110   2.117   6.953  0.8825  0.4175 -1.6965
11354SOL    HW235504   3.127   2.186   7.086 -0.8309 -0.9175 -0.7265
11355SOL     OW35505   1.249   2.634   4.785  0.4917 -0.2772  0.1112
11355SOL    HW135506   1.273   2.612   4.875 -1.8812  0.2000  0.9296
11355SOL    HW235507   1.276   2.725   4.774  0.1463 -0.1148  0.5973
11356SOL     OW35508   3.480   6.125   1.349 -0.8230 -0.0495  0.2343
11356SOL    HW135509   3.446   6.202   1.302 -0.0804  0.4169  0.4301
11356SOL    HW235510   3.458   6.141   1.440  1.1293  0.9980  0.5936
11357SOL     OW35511   5.469   1.380   3.358  0.1502  0.4591 -0.0530
11357SOL    HW135512   5.396   1.408   3.414  0.8550 -0.4043  1.3644
11357SOL    HW235513   5.475   1.448   3.291 -1.4431  0.9538  0.2522
11358SOL     OW35514   0.246   2.804   6.178  0.0841  0.5155 -0.4281
11358SOL    HW135515   0.216   2.811   6.087  1.3148 -0.0637 -0.9152
11358SOL    HW235516   0.167   2.796   6.230 -0.8333  3.6824 -1.1363
11359SOL     OW35517   6.896   7.738  12.329 -0.6517 -0.3962  0.5254
11359SOL    HW135518   6.811   7.740  12.284 -0.3611  1.5248 -0.0232
11359SOL    HW235519   6.958   7.711  12.261 -0.4033  1.2181  0.0822
11360SOL     OW35520   2.202   4.118  12.118 -0.6082  0.2715  0.4756
11360SOL    HW135521   2.166   4.200  12.154  0.6027  1.3544 -0.6765
11360SOL    HW235522   2.166   4.113  12.029 -1.3383 -0.9207  0.8102
11361SOL     OW35523   6.216   7.117   6.160  0.4107  0.3233  0.0774
11361SOL    HW135524   6.149   7.062   6.201  1.2777  1.7204  3.8601
11361SOL    HW235525   6.295   7.100   6.211  1.9832  1.4310 -1.8552
11362SOL     OW35526   2.763   1.701  10.680  0.8347 -0.4613 -0.2095
11362SOL    HW135527   2.744   1.795  10.677  0.1446 -0.6254 -1.2319
11362SOL    HW235528   2.828   1.693  10.750  0.7711  0.7507  0.0195
11363SOL     OW35529   1.228   5.982   6.092 -0.1626 -0.6620 -0.0795
11363SOL    HW135530   1.265   5.947   6.173 -0.0428 -1.0046 -0.2757
11363SOL    HW235531   1.185   6.063   6.117  1.5863  0.2857 -0.0107
11364SOL     OW35532   5.693   0.107  12.181 -0.3532  0.0379  0.4193
11364SOL    HW135533   5.750   0.035  12.207 -0.7680 -0.2220  0.6153
11364SOL    HW235534   5.608   0.067  12.168 -0.3353  0.3016 -0.5658
11365SOL     OW35535   0.390   4.011   7.877  0.0769  0.2698  0.3198
11365SOL    HW135536   0.338   3.988   7.800 -1.3185  0.5674  1.1440
11365SOL    HW235537   0.342   3.973   7.951  1.1652  0.3456  1.0890
11366SOL     OW35538   7.617   0.959   4.798  0.4113  0.3209  0.9128
11366SOL    HW135539   7.652   0.930   4.882 -0.4783 -2.7039  0.3572
11366SOL    HW235540   7.523   0.969   4.812 -0.0156 -1.8305 -0.0291
11367SOL     OW35541   6.855   1.566   5.657 -0.3883 -0.2152 -0.2739
11367SOL    HW135542   6.833   1.477   5.630  0.2231 -0.5762  0.4090
11367SOL    HW235543   6.805   1.622   5.596 -1.5036 -1.0085 -0.1262
11368SOL     OW35544   6.298   3.516   8.661  0.1099  0.4053 -0.2022
11368SOL    HW135545   6.343   3.543   8.741  0.6485  1.0462 -0.7131
11368SOL    HW235546   6.323   3.424   8.649 -1.0427 -0.1058  1.0748
11369SOL     OW35547   1.036   5.569   8.509  0.0508  0.2094  0.6803
11369SOL    HW135548   0.977   5.509   8.463  0.0892  0.2065  0.6343
11369SOL    HW235549   1.038   5.647   8.453  1.0930 -0.2744  0.0128
11370SOL     OW35550   3.221   0.065  12.076  0.2532  0.5326 -0.9163
11370SOL    HW135551   3.313   0.040  12.080  0.3766  0.8410 -1.5436
11370SOL    HW235552   3.217   0.128  12.004 -0.6047 -0.1475 -1.4885
11371SOL     OW35553   2.947   1.031   5.708  0.0894  0.3523 -0.4817
11371SOL    HW135554   2.885   1.077   5.651  0.6773  0.9756 -0.6294
11371SOL    HW235555   2.930   1.066   5.796 -0.0235  0.2458 -0.4609
11372SOL     OW35556   5.245   7.114   8.569 -0.4021 -0.0454 -0.3405
11372SOL    HW135557   5.205   7.030   8.591  0.7767 -0.3453  0.7860
11372SOL    HW235558   5.171   7.171   8.548 -1.2182 -1.3770 -1.2424
11373SOL     OW35559   7.740   0.906   3.392  0.1357 -0.4905  0.5212
11373SOL    HW135560   7.824   0.864   3.411  0.8431  1.2313  1.4309
11373SOL    HW235561   7.760   1.000   3.393 -1.9826 -0.0048  1.6540
11374SOL     OW35562   6.626   3.431   1.872  1.0215 -0.3867  0.0185
11374SOL    HW135563   6.585   3.516   1.852  0.3408 -1.0407 -1.5032
11374SOL    HW235564   6.556   3.367   1.859  2.4207 -1.5348 -2.6342
11375SOL     OW35565   7.254   2.535   9.214 -0.3141 -0.3692 -0.1356
11375SOL    HW135566   7.280   2.624   9.237 -2.1645 -0.1619  1.4476
11375SOL    HW235567   7.293   2.520   9.128  1.9819  1.0791  0.5593
11376SOL     OW35568   2.638   3.822   2.721 -0.3022  0.2336  0.0507
11376SOL    HW135569   2.618   3.733   2.693 -0.3946  0.6474 -1.2342
11376SOL    HW235570   2.715   3.847   2.671  0.1823  0.6267  0.9534
11377SOL     OW35571   6.150   6.207   7.894  0.3177  0.3354  0.4796
11377SOL    HW135572   6.134   6.273   7.962  0.1519 -0.1430  0.9136
11377SOL    HW235573   6.102   6.130   7.924  0.0810  0.1756 -0.2820
11378SOL     OW35574   3.279   4.183   6.558  0.0411  0.4022 -0.0146
11378SOL    HW135575   3.253   4.125   6.487  2.3478 -0.9591  0.1723
11378SOL    HW235576   3.307   4.264   6.514 -2.8632  1.3728 -0.2914
11379SOL     OW35577   5.601   0.149   2.224 -0.5560  0.3127 -0.4666
11379SOL    HW135578   5.665   0.078   2.233 -0.4215  0.5242  0.3537
11379SOL    HW235579   5.637   0.221   2.275 -1.5326  0.3632  0.1848
11380SOL     OW35580   2.598   7.154   5.296 -0.2397  0.2923 -0.7226
11380SOL    HW135581   2.532   7.193   5.240  0.8513  2.4069 -0.6150
11380SOL    HW235582   2.584   7.194   5.382 -1.0271 -1.8978  0.2650
11381SOL     OW35583   3.757   0.316  11.787 -0.0068  0.0830  0.0272
11381SOL    HW135584   3.741   0.230  11.748 -3.5835  1.6198 -2.5538
11381SOL    HW235585   3.824   0.355  11.731 -1.5724  0.4555 -1.7151
11382SOL     OW35586   6.875   5.212   5.934  0.2578  0.1105  0.3990
11382SOL    HW135587   6.894   5.226   5.841 -0.7793 -0.9742 -0.0046
11382SOL    HW235588   6.857   5.300   5.968 -0.2127  0.4300 -0.6302
11383SOL     OW35589   0.740   5.916   1.489 -0.2016  0.4479 -0.0753
11383SOL    HW135590   0.754   5.826   1.519  0.4975 -0.0042 -1.6269
11383SOL    HW235591   0.753   5.970   1.567  2.5007 -0.5780  0.2918
11384SOL     OW35592   6.097   2.154   3.952  0.0493  1.0768 -0.2089
11384SOL    HW135593   6.092   2.106   3.869  0.1437  1.6492 -0.5481
11384SOL    HW235594   6.067   2.242   3.930 -1.7422  0.7413  0.7642
11385SOL     OW35595   6.353   2.061   5.192 -0.2173  0.3677  0.4559
11385SOL    HW135596   6.258   2.067   5.186 -0.3586 -1.9012 -0.8711
11385SOL    HW235597   6.369   1.993   5.257  0.5243  0.9372  0.8831
11386SOL     OW35598   1.462   6.028   9.561 -0.5735 -0.1885  0.4724
11386SOL    HW135599   1.527   5.959   9.551 -0.6449 -0.1465 -0.3575
11386SOL    HW235600   1.416   6.030   9.477  0.9701  2.4128 -0.4619
11387SOL     OW35601   7.638   2.694   0.432  0.4371  0.0081 -0.1205
11387SOL    HW135602   7.670   2.726   0.348  0.0423  0.0889 -0.2423
11387SOL    HW235603   7.586   2.766   0.467  0.5781 -0.0353  0.1797
11388SOL     OW35604   2.866   3.278   5.540  0.6684  0.0627  0.1219
11388SOL    HW135605   2.897   3.359   5.581  0.9665 -0.3831  0.7951
11388SOL    HW235606   2.913   3.208   5.587 -2.6408 -0.7956  2.4831
11389SOL     OW35607   2.852   6.719   4.481 -0.0077 -0.0191  0.2701
11389SOL    HW135608   2.915   6.786   4.455  0.0296  0.1945  0.8953
11389SOL    HW235609   2.862   6.651   4.415  1.7028 -0.5093  0.9658
11390SOL     OW35610   6.029   5.334   6.654  0.2137 -0.1130  0.1082
11390SOL    HW135611   6.042   5.278   6.730 -2.2120  1.2258  1.6532
11390SOL    HW235612   6.002   5.418   6.690 -1.6770  0.3906 -2.2069
11391SOL     OW35613   2.944   2.531   1.643  0.2139  0.2845 -0.4455
11391SOL    HW135614   3.032   2.495   1.637  0.5362  1.1875 -1.3379
11391SOL    HW235615   2.905   2.487   1.719  1.4505 -0.0455  0.0137
11392SOL     OW35616   1.296   2.561   5.042 -0.2960 -0.5468 -0.2449
11392SOL    HW135617   1.226   2.500   5.064 -0.4311 -0.2672  0.1063
11392SOL    HW235618   1.320   2.601   5.125  0.3895 -0.7505 -0.3390
11393SOL     OW35619   5.194   5.619   8.175 -0.4011  0.0296  0.5190
11393SOL    HW135620   5.201   5.572   8.258  0.6586 -1.1942 -0.2393
11393SOL    HW235621   5.264   5.684   8.178 -0.5841  0.2170  0.7283
11394SOL     OW35622   5.247   2.074   5.159 -0.0125 -0.5721  0.5639
11394SOL    HW135623   5.183   2.144   5.163  1.1563  0.7039 -1.2527
11394SOL    HW235624   5.229   2.020   5.236 -3.6660 -0.7089 -0.1968
11395SOL     OW35625   3.223   2.899  11.945 -0.3587 -0.2757  0.4954
11395SOL    HW135626   3.184   2.894  11.858  0.5275  1.7337 -0.0817
11395SOL    HW235627   3.150   2.917  12.003 -0.6871  0.7635 -0.1986
11396SOL     OW35628   2.172   7.438   2.636  0.0905  0.1871  0.4690
11396SOL    HW135629   2.200   7.409   2.550 -0.1550  1.7780 -0.1833
11396SOL    HW235630   2.252   7.468   2.680  0.4172 -1.7848  1.3176
11397SOL     OW35631   7.620   6.060   5.915 -0.1112  0.3903 -0.3532
11397SOL    HW135632   7.655   6.062   5.826  0.5776  1.9259 -0.0839
11397SOL    HW235633   7.608   6.153   5.938  1.4570  0.1226  1.8029
11398SOL     OW35634   3.130   4.226   5.401 -0.2401 -0.0483  0.2208
11398SOL    HW135635   3.105   4.268   5.483  0.0225 -0.7252  0.6532
11398SOL    HW235636   3.136   4.133   5.422 -2.0623 -0.5089 -1.0132
11399SOL     OW35637   5.927   1.002  10.745  0.1782 -0.0225  0.5807
11399SOL    HW135638   5.920   0.971  10.655 -0.0352  0.3409  0.4672
11399SOL    HW235639   5.839   0.994  10.781  0.3454 -0.5285  0.8806
11400SOL     OW35640   3.592   0.565   5.195 -0.3143 -0.3208  0.5738
11400SOL    HW135641   3.567   0.544   5.105 -0.5374  3.0477 -0.2615
11400SOL    HW235642   3.676   0.611   5.187 -0.1147 -0.3474  2.1485
11401SOL     OW35643   1.778   5.384   4.919  0.0658  0.0340 -0.4966
11401SOL    HW135644   1.735   5.302   4.943  0.7922  0.2923  2.0135
11401SOL    HW235645   1.862   5.357   4.883 -0.1175 -0.3391 -0.6527
11402SOL     OW35646   6.845   1.091   2.808 -0.6615 -0.1534  0.8043
11402SOL    HW135647   6.765   1.051   2.774 -1.0701  1.0844  0.2311
11402SOL    HW235648   6.911   1.022   2.804 -2.0800 -1.7651  2.9013
11403SOL     OW35649   0.229   6.605   8.643  0.1326 -0.8693  0.8930
11403SOL    HW135650   0.313   6.562   8.656  0.6119 -0.5408 -0.8900
11403SOL    HW235651   0.248   6.698   8.651 -0.5241 -0.8487  2.7277
11404SOL     OW35652   1.074   7.448   4.751 -0.3836 -0.0814 -0.4712
11404SOL    HW135653   1.045   7.411   4.834 -0.2839  0.9725  0.0416
11404SOL    HW235654   1.071   7.374   4.690 -0.1058 -0.9509  0.5446
11405SOL     OW35655   0.504   3.330   5.415  1.4268  0.7996  0.6470
11405SOL    HW135656   0.536   3.253   5.462 -0.4785  1.0336  2.4816
11405SOL    HW235657   0.550   3.403   5.456  2.5607  0.7471 -0.4782
11406SOL     OW35658   1.873   0.349  11.683  0.5607  0.2738 -0.5580
11406SOL    HW135659   1.858   0.317  11.594  1.3848 -0.4012 -0.4673
11406SOL    HW235660   1.818   0.427  11.690 -1.1495 -0.8480 -0.9480
11407SOL     OW35661   2.215   3.406   7.866 -0.5889 -0.0448  0.4685
11407SOL    HW135662   2.168   3.327   7.892 -1.3445  0.3776  0.4111
11407SOL    HW235663   2.170   3.477   7.912 -0.2626  0.4117  0.0898
11408SOL     OW35664   1.708   0.284  11.086  0.3544  0.5285 -0.3153
11408SOL    HW135665   1.621   0.258  11.058  0.6933  1.8375 -2.9003
11408SOL    HW235666   1.701   0.378  11.104  0.9890  0.4123  0.6647
11409SOL     OW35667   5.177   3.367   4.248  0.1838  0.3875  0.2243
11409SOL    HW135668   5.158   3.451   4.206 -0.0220  0.4275  0.3962
11409SOL    HW235669   5.104   3.353   4.309 -0.4273 -0.4955 -0.6735
11410SOL     OW35670   6.279   3.613   6.313 -0.3726 -0.5085  0.1312
11410SOL    HW135671   6.367   3.635   6.284 -0.4052  0.0365  0.4388
11410SOL    HW235672   6.235   3.582   6.234 -0.4300  0.8746 -0.4005
11411SOL     OW35673   3.398   7.525   0.999 -0.5706  0.0297 -0.4298
11411SOL    HW135674   3.400   7.536   0.904 -1.0249  2.4651 -0.2283
11411SOL    HW235675   3.485   7.490   1.020 -0.9430 -1.9093 -1.8183
11412SOL     OW35676   5.479   7.520   5.632 -0.1362  0.2531 -0.2498
11412SOL    HW135677   5.555   7.564   5.669  0.8214 -0.0604 -1.7634
11412SOL    HW235678   5.509   7.432   5.612 -0.5691  0.4333 -1.8070
11413SOL     OW35679   5.271   7.488   5.351  0.5582  0.2002  0.1144
11413SOL    HW135680   5.244   7.416   5.409  0.1657  1.0846  1.0558
11413SOL    HW235681   5.207   7.486   5.280  0.1632  0.0165  0.4662
11414SOL     OW35682   2.981   6.408   9.798  0.7097  0.4861 -0.5122
11414SOL    HW135683   3.071   6.387   9.774  0.9519  1.5676 -0.5857
11414SOL    HW235684   2.948   6.461   9.726  0.3093  0.8424 -0.0734
11415SOL     OW35685   4.214   3.307  10.970 -0.0783  1.0454  0.4684
11415SOL    HW135686   4.196   3.237  11.033  0.1634 -0.4335 -1.0393
11415SOL    HW235687   4.138   3.307  10.912  0.2751  1.5340  0.0014
11416SOL     OW35688   5.092   2.597   1.652  0.2827 -0.3402  0.3017
11416SOL    HW135689   5.061   2.528   1.710 -0.4962 -0.0107  0.2879
11416SOL    HW235690   5.143   2.551   1.586 -0.3734 -0.9273  0.1927
11417SOL     OW35691   4.827   7.577  11.278 -0.1841  0.6906 -0.5198
11417SOL    HW135692   4.856   7.658  11.237 -0.8341  0.6605 -1.0428
11417SOL    HW235693   4.773   7.534  11.212  0.9729 -0.6726 -0.6410
11418SOL     OW35694   4.066   3.739   3.190  0.0867 -0.5057 -0.2847
11418SOL    HW135695   4.148   3.732   3.140  0.2048 -2.9041  0.1709
11418SOL    HW235696   4.031   3.650   3.193 -1.1138 -0.0361  1.9426
11419SOL     OW35697   2.134   4.501   9.810 -0.7278  0.3314 -0.1575
11419SOL    HW135698   2.225   4.495   9.780 -0.6016  0.3394  0.2123
11419SOL    HW235699   2.131   4.583   9.860 -0.5521 -0.3983  1.0957
11420SOL     OW35700   7.035   1.725  12.034  0.0225 -0.5831  0.1464
11420SOL    HW135701   6.943   1.714  12.011  0.3939 -0.0679 -1.7205
11420SOL    HW235702   7.056   1.649  12.088 -1.3284 -1.0455  0.0352
11421SOL     OW35703   6.200   6.117  11.476 -0.1650  0.4868 -0.1464
11421SOL    HW135704   6.273   6.056  11.473 -0.7968 -0.2507 -0.7897
11421SOL    HW235705   6.239   6.200  11.505  1.0241  0.2491 -0.9921
11422SOL     OW35706   7.353   1.176   6.271 -0.7423 -0.1623 -0.1068
11422SOL    HW135707   7.369   1.087   6.241 -1.2238 -0.9222  1.7882
11422SOL    HW235708   7.325   1.167   6.362 -0.7447  1.9307  0.1553
11423SOL     OW35709   2.527   5.279  12.261  0.2820  0.3765 -0.3381
11423SOL    HW135710   2.521   5.213  12.330 -0.6306  0.0769 -0.6858
11423SOL    HW235711   2.449   5.333  12.273  0.3968  0.6476 -0.7991
11424SOL     OW35712   3.311   5.089  12.377 -0.1510  0.3843  0.3283
11424SOL    HW135713   3.402   5.080  12.349  0.0887 -1.4356  1.4541
11424SOL    HW235714   3.317   5.122  12.467 -0.3668 -2.1235  1.3786
11425SOL     OW35715   0.371   3.412  10.930  0.7114 -0.1662 -0.2368
11425SOL    HW135716   0.319   3.336  10.906  0.4678  0.3026 -1.2552
11425SOL    HW235717   0.390   3.401  11.023 -0.6737 -0.6586 -0.0041
11426SOL     OW35718   2.871   7.757  10.792 -0.1406  0.2749  0.4127
11426SOL    HW135719   2.899   7.729  10.705 -2.5332  0.4223 -0.4718
11426SOL    HW235720   2.895   7.850  10.796  1.3393 -0.0843  0.5530
11427SOL     OW35721   6.428   7.636  11.525  0.2255 -0.5441 -0.0089
11427SOL    HW135722   6.449   7.566  11.462  2.7862 -0.9951  1.1958
11427SOL    HW235723   6.345   7.671  11.495  0.1218 -2.3912 -2.1829
11428SOL     OW35724   0.084   5.451   9.288 -0.1256  0.1062  0.0283
11428SOL    HW135725   0.147   5.522   9.290 -1.4987  1.3579  0.2994
11428SOL    HW235726   0.092   5.409   9.374 -1.2141  1.6945  0.9528
11429SOL     OW35727   2.627   6.223   9.943  0.5401 -0.2980  0.2263
11429SOL    HW135728   2.636   6.212   9.849 -0.6035  2.4140 -0.2885
11429SOL    HW235729   2.698   6.283   9.968 -0.2973  0.5230  0.7135
11430SOL     OW35730   4.599   5.603   2.001  0.8891  0.1235 -0.4474
11430SOL    HW135731   4.669   5.627   1.941  1.9772  2.9978  1.6751
11430SOL    HW235732   4.638   5.613   2.088 -0.7738 -3.1648  0.8605
11431SOL     OW35733   0.568   6.399   6.574  0.1335  0.2482 -0.1520
11431SOL    HW135734   0.506   6.459   6.533  1.4794  1.3703 -0.6086
11431SOL    HW235735   0.589   6.336   6.505 -1.0608 -0.6426  0.2441
11432SOL     OW35736   3.442   7.377   1.877 -0.0121  0.3774  0.3186
11432SOL    HW135737   3.382   7.307   1.900  0.4490  0.7827  3.2435
11432SOL    HW235738   3.391   7.457   1.889  0.5711  0.6493  1.1327
11433SOL     OW35739   7.675   3.578   5.474  0.0823 -0.6546 -0.3421
11433SOL    HW135740   7.714   3.564   5.388  1.1120  0.4569 -0.0768
11433SOL    HW235741   7.620   3.655   5.464 -0.1338 -0.7749 -0.1066
11434SOL     OW35742   6.419   0.608   0.097  0.1549 -0.3030  0.9508
11434SOL    HW135743   6.468   0.546   0.043  0.5525 -0.5701  1.6076
11434SOL    HW235744   6.483   0.675   0.120 -0.0821 -0.0500  0.8825
11435SOL     OW35745   6.673   2.000   3.986  0.9849 -0.1696 -0.2062
11435SOL    HW135746   6.731   2.070   4.016  1.0550 -0.7086  0.9790
11435SOL    HW235747   6.635   1.964   4.067 -1.5014  0.5814 -0.9647
11436SOL     OW35748   7.448   5.777   6.765 -0.5103  0.1402 -0.1172
11436SOL    HW135749   7.465   5.838   6.693  0.6075 -0.0521 -0.0345
11436SOL    HW235750   7.386   5.824   6.822 -1.4301  0.2817 -1.1951
11437SOL     OW35751   6.376   0.974   0.019  0.8205 -0.1084 -0.3199
11437SOL    HW135752   6.407   1.056  -0.019 -1.1390  0.3847 -0.9606
11437SOL    HW235753   6.418   0.905  -0.034  2.2248  0.4444  0.0206
11438SOL     OW35754   5.776   2.699   3.966 -0.8064 -0.4241 -0.0673
11438SOL    HW135755   5.797   2.736   4.052  0.8505 -1.6939  0.1125
11438SOL    HW235756   5.844   2.734   3.908 -0.1464 -1.9134 -0.2199
11439SOL     OW35757   5.946   6.756   6.324  0.5351 -0.0443 -0.3106
11439SOL    HW135758   5.979   6.667   6.313 -0.1267 -0.1050 -1.9612
11439SOL    HW235759   5.916   6.759   6.415  1.0270 -1.3287 -0.0871
11440SOL     OW35760   7.361   5.390   5.079 -0.3328  0.1646 -0.1883
11440SOL    HW135761   7.384   5.483   5.075 -2.2383  0.6631 -0.8109
11440SOL    HW235762   7.273   5.386   5.040 -0.1340 -1.9574 -0.5019
11441SOL     OW35763   7.255   3.158   3.561 -0.3483  0.5063 -0.2016
11441SOL    HW135764   7.201   3.154   3.482 -1.5242  0.6516  0.5741
11441SOL    HW235765   7.342   3.128   3.532 -1.2217 -1.2620 -1.1414
11442SOL     OW35766   1.100   7.248   4.557  0.3762 -0.2334  0.1237
11442SOL    HW135767   1.061   7.182   4.613 -0.6208 -0.2526 -0.5608
11442SOL    HW235768   1.188   7.215   4.538  0.6623 -0.3057  1.5033
11443SOL     OW35769   3.041   5.166   5.468  0.3222  0.1757 -0.7324
11443SOL    HW135770   3.137   5.173   5.467  0.2131  2.2111 -0.4949
11443SOL    HW235771   3.018   5.163   5.560  0.0762  1.3470 -0.7494
11444SOL     OW35772   1.784   4.297   1.802  0.2045 -0.6693 -0.3638
11444SOL    HW135773   1.690   4.285   1.790  0.2807 -0.9077 -0.7337
11444SOL    HW235774   1.805   4.241   1.877  0.5183 -2.8563 -1.9711
11445SOL     OW35775   3.989   1.536   5.720 -0.4667 -0.0953 -0.6582
11445SOL    HW135776   4.017   1.621   5.686 -0.3303  0.3779  0.5784
11445SOL    HW235777   3.894   1.540   5.720 -0.4651  0.6918  0.8471
11446SOL     OW35778   0.243   1.712   4.554 -0.5931  0.2825  0.4113
11446SOL    HW135779   0.264   1.710   4.647  0.8236  0.2197  0.1202
11446SOL    HW235780   0.318   1.757   4.514 -0.6059 -0.7609 -0.8395
11447SOL     OW35781   6.342   2.347   7.309 -0.1009  0.3429  0.0908
11447SOL    HW135782   6.399   2.360   7.233  0.8637  0.6218  0.8388
11447SOL    HW235783   6.315   2.436   7.334 -0.6336  0.2320 -0.0882
11448SOL     OW35784   0.573   6.151  12.204 -0.0475  0.2642 -0.0980
11448SOL    HW135785   0.583   6.068  12.156 -0.4363  0.1249  0.0572
11448SOL    HW235786   0.626   6.213  12.155  0.0829 -0.0309 -0.3368
11449SOL     OW35787   7.454   5.431  10.215 -0.1083  0.4891  0.5754
11449SOL    HW135788   7.500   5.348  10.205 -2.2056 -0.6252 -0.5770
11449SOL    HW235789   7.506   5.494  10.165  1.0456 -0.3043  0.7543
11450SOL     OW35790   3.041   4.612   9.880  0.6022  0.1794  0.3279
11450SOL    HW135791   3.099   4.594   9.953 -0.5319  0.4388  1.3264
11450SOL    HW235792   3.071   4.553   9.810  2.0312  0.3100  0.7983
11451SOL     OW35793   6.853   5.774   9.893 -0.6367 -0.0338  0.3211
11451SOL    HW135794   6.933   5.751   9.847 -1.1172  1.1003 -1.1753
11451SOL    HW235795   6.837   5.865   9.869 -1.7201  0.1377  1.5808
11452SOL     OW35796   6.512   6.060   6.377  0.0417 -0.6692 -0.0910
11452SOL    HW135797   6.465   6.143   6.383  2.2926  0.8655 -1.8885
11452SOL    HW235798   6.485   6.011   6.455 -1.7033  1.5475  0.7957
11453SOL     OW35799   2.191   7.635   8.911  0.0151  0.5291 -0.7159
11453SOL    HW135800   2.259   7.650   8.976  1.4097  0.2211 -2.0663
11453SOL    HW235801   2.117   7.599   8.962  1.2219 -0.1455  0.6247
11454SOL     OW35802   3.136   5.546   0.192 -0.3881  0.0772 -0.0818
11454SOL    HW135803   3.166   5.471   0.244 -0.7309 -0.0000  0.0039
11454SOL    HW235804   3.141   5.516   0.102 -0.1252  0.0939 -0.0747
11455SOL     OW35805   4.990   0.233   2.892  0.0594 -0.4388 -0.2363
11455SOL    HW135806   5.040   0.161   2.932  0.7344  0.2222  0.1343
11455SOL    HW235807   5.022   0.311   2.936 -2.5957 -0.1312  1.3256
11456SOL     OW35808   0.573   1.348   7.850  0.0423 -0.0081  0.2787
11456SOL    HW135809   0.633   1.389   7.912 -1.6967  0.8701  1.4687
11456SOL    HW235810   0.490   1.341   7.897 -0.3891 -2.8389 -0.6664
11457SOL     OW35811   3.214   5.147   8.320  0.1606  0.2069 -0.3418
11457SOL    HW135812   3.147   5.208   8.353  2.0988  1.6269  1.2279
11457SOL    HW235813   3.236   5.181   8.234 -1.1673 -0.3387 -0.9235
11458SOL     OW35814   6.452   7.305   3.877  0.1326  0.9440 -0.0789
11458SOL    HW135815   6.447   7.343   3.964 -1.4256  2.4000 -0.7417
11458SOL    HW235816   6.439   7.379   3.818  4.3329  0.6372 -1.7661
11459SOL     OW35817   4.016   4.409   6.057  0.1211 -0.3291 -0.2834
11459SOL    HW135818   4.027   4.501   6.082  0.8278 -0.9773  2.1335
11459SOL    HW235819   4.105   4.376   6.046  0.0247 -1.2689  1.3465
11460SOL     OW35820   5.816   2.055   3.383  0.2229 -0.4889 -0.1136
11460SOL    HW135821   5.772   1.977   3.417 -0.3231 -0.7915 -1.4525
11460SOL    HW235822   5.879   2.020   3.319  1.7599  0.0076  1.0620
11461SOL     OW35823   0.625   1.841   3.127 -0.0185 -0.1979  0.4662
11461SOL    HW135824   0.628   1.879   3.039  0.6743  0.1896  0.6467
11461SOL    HW235825   0.543   1.874   3.165  0.5015  1.0291  0.5686
11462SOL     OW35826   6.311   3.159   0.351 -0.0310  0.1141  0.2040
11462SOL    HW135827   6.390   3.110   0.331  0.7843  1.4052  0.1680
11462SOL    HW235828   6.341   3.248   0.366 -1.5292  0.7103 -0.1717
11463SOL     OW35829   2.321   3.431   6.406  0.6596  0.2641  0.5285
11463SOL    HW135830   2.261   3.422   6.333  1.6312  0.6424 -0.3517
11463SOL    HW235831   2.408   3.438   6.365  1.1936  0.8295  1.6947
11464SOL     OW35832   4.381   0.337   9.743 -0.2938  0.3280 -0.4995
11464SOL    HW135833   4.391   0.368   9.653  1.6964  0.5503 -0.2422
11464SOL    HW235834   4.464   0.359   9.786 -0.1605 -2.1589  0.6735
11465SOL     OW35835   6.913   5.245  11.443  0.1546 -0.3939 -0.3023
11465SOL    HW135836   6.986   5.247  11.381 -0.3270  0.1579 -0.8710
11465SOL    HW235837   6.841   5.203  11.395  0.4104 -2.0161  0.6377
11466SOL     OW35838   0.194   2.991  11.432 -0.0865  0.2028 -0.6350
11466SOL    HW135839   0.152   2.911  11.398  1.4062 -0.9508  0.1153
11466SOL    HW235840   0.145   3.012  11.512  0.0686 -0.5078 -0.3438
11467SOL     OW35841   3.607   6.282   6.790  0.3718  0.4752 -0.2869
11467SOL    HW135842   3.546   6.355   6.778  1.2530  1.0639 -1.4426
11467SOL    HW235843   3.555   6.213   6.831 -0.0924  2.3013  2.4941
11468SOL     OW35844   5.457   0.807   7.099  0.7104 -0.1425 -0.9049
11468SOL    HW135845   5.381   0.751   7.113  0.9136 -0.2932 -0.3795
11468SOL    HW235846   5.434   0.862   7.024 -0.1379  0.1894 -0.4105
11469SOL     OW35847   6.712   2.032   6.511 -0.3125  0.6105  0.1430
11469SOL    HW135848   6.750   1.998   6.592 -0.1740 -1.5735 -0.7529
11469SOL    HW235849   6.618   2.016   6.520 -0.2664  0.1136 -0.2164
11470SOL     OW35850   7.838   3.119   4.967 -0.5898 -0.4269  0.3533
11470SOL    HW135851   7.868   3.068   4.893 -0.7766  0.2522 -0.2011
11470SOL    HW235852   7.896   3.094   5.039 -0.0168 -0.6443 -0.1788
11471SOL     OW35853   2.684   6.746   0.490 -0.2554  0.2132 -0.5148
11471SOL    HW135854   2.684   6.787   0.403 -0.0447 -0.1272 -0.6788
11471SOL    HW235855   2.611   6.684   0.487 -0.2642  0.2202 -0.4428
11472SOL     OW35856   6.954   7.706   0.423 -0.0906 -0.0381  0.1234
11472SOL    HW135857   6.927   7.695   0.333 -1.5703 -0.8467  0.6391
11472SOL    HW235858   6.907   7.638   0.471  0.0707  0.8508  1.6094
11473SOL     OW35859   0.565   5.798   0.384  0.2686 -0.9952 -0.2864
11473SOL    HW135860   0.602   5.841   0.461  0.6796 -1.9122  0.0411
11473SOL    HW235861   0.470   5.801   0.399  0.1689  1.1537 -1.0208
11474SOL     OW35862   5.047   2.864   1.672  0.3185  0.3373  0.3017
11474SOL    HW135863   5.054   2.776   1.636  1.3046  0.0909  1.0412
11474SOL    HW235864   4.978   2.858   1.738 -0.6088  0.4806 -0.6403
11475SOL     OW35865   1.015   2.781   0.920  0.1611  0.6141  0.1074
11475SOL    HW135866   0.996   2.791   1.013  0.9694 -1.1544  0.4896
11475SOL    HW235867   1.056   2.864   0.895 -0.0642  1.1087  1.3168
11476SOL     OW35868   7.861   7.129   5.191 -0.6091  0.3085 -0.4187
11476SOL    HW135869   7.951   7.125   5.158 -0.4717 -0.3230  0.0078
11476SOL    HW235870   7.822   7.203   5.145  0.2435  0.8375 -0.3231
11477SOL     OW35871   3.516   4.079   7.208 -0.1324  0.8243 -0.3633
11477SOL    HW135872   3.522   4.130   7.127 -0.3812  1.1146 -0.2044
11477SOL    HW235873   3.591   4.107   7.260 -1.2019  2.3564  0.4550
11478SOL     OW35874   1.012   4.342   6.020 -0.1088 -0.0842  0.2342
11478SOL    HW135875   0.940   4.394   6.056 -0.3914 -1.0687  1.1455
11478SOL    HW235876   1.042   4.392   5.944 -2.8816 -0.5078 -1.2500
11479SOL     OW35877   7.349   5.907   1.192 -0.2549  0.1679  0.3192
11479SOL    HW135878   7.349   5.832   1.132 -2.1996  1.4783 -1.4494
11479SOL    HW235879   7.272   5.958   1.167  2.2599  4.1352 -0.2612
11480SOL     OW35880   2.814   2.607   0.512 -0.1790 -0.2444  0.1912
11480SOL    HW135881   2.837   2.553   0.437  0.2077 -0.2740  0.3322
11480SOL    HW235882   2.793   2.544   0.581 -2.5886 -0.2849 -0.4639
11481SOL     OW35883   3.719   4.554   4.001 -0.2033 -0.2961  0.1106
11481SOL    HW135884   3.688   4.587   3.917  1.4530  0.2262 -0.3375
11481SOL    HW235885   3.767   4.474   3.979  1.2717  0.4798  0.3682
11482SOL     OW35886   1.173   6.934   6.803  0.1226 -0.0067 -0.2802
11482SOL    HW135887   1.103   6.999   6.794 -0.8543 -0.8229  1.0544
11482SOL    HW235888   1.244   6.981   6.846  0.9351  1.1547 -2.6853
11483SOL     OW35889   4.786   1.129   1.496 -0.0565 -0.6636 -0.1936
11483SOL    HW135890   4.787   1.060   1.429 -0.0136  0.9034 -1.8916
11483SOL    HW235891   4.847   1.195   1.462 -0.1709  0.2672  1.3388
11484SOL     OW35892   2.649   2.817   8.203 -0.2021 -0.6597  0.1866
11484SOL    HW135893   2.685   2.835   8.289  0.1959 -2.3027  0.3910
11484SOL    HW235894   2.709   2.860   8.142 -1.0947  1.4829  0.7141
11485SOL     OW35895   6.511   2.560   9.595 -0.3606 -0.1169 -0.1558
11485SOL    HW135896   6.472   2.648   9.599  0.7394  0.3883 -0.2274
11485SOL    HW235897   6.451   2.505   9.645 -1.0948  0.6650 -0.1620
11486SOL     OW35898   3.371   4.253   3.170  0.2381  0.5283  0.4485
11486SOL    HW135899   3.413   4.195   3.234  0.6259  0.7728  0.4237
11486SOL    HW235900   3.278   4.251   3.192  0.1060 -0.8152 -0.1134
11487SOL     OW35901   2.911   7.610   0.517 -0.6668 -0.0583 -0.1342
11487SOL    HW135902   2.898   7.602   0.611 -1.0407 -1.0077 -0.2541
11487SOL    HW235903   3.005   7.625   0.507 -0.1849 -2.3792  0.2878
11488SOL     OW35904   5.764   1.828   9.603 -0.1999  0.1018 -0.2120
11488SOL    HW135905   5.712   1.812   9.681 -0.8581 -0.3139 -0.7174
11488SOL    HW235906   5.764   1.923   9.592 -0.4624  0.1322  0.0522
11489SOL     OW35907   2.269   4.459   2.568  0.2061 -0.0332 -0.0136
11489SOL    HW135908   2.270   4.421   2.656 -1.3456 -1.6336 -0.6310
11489SOL    HW235909   2.346   4.422   2.524  0.6169  0.2644  0.4445
11490SOL     OW35910   6.545   3.451  11.040  0.6755 -0.5852 -0.0618
11490SOL    HW135911   6.489   3.377  11.019  2.2285 -2.5657  2.2348
11490SOL    HW235912   6.628   3.431  10.997  0.4375  1.0605 -1.3667
11491SOL     OW35913   6.140   2.513  12.022  0.1456  0.3126 -0.3794
11491SOL    HW135914   6.065   2.558  11.983  0.0110 -0.4921 -1.0984
11491SOL    HW235915   6.116   2.502  12.114 -0.2336  0.8419 -0.4076
11492SOL     OW35916   1.831   3.772   3.838  0.2544 -0.4590 -0.0477
11492SOL    HW135917   1.819   3.770   3.933  0.2221 -0.4363 -0.0513
11492SOL    HW235918   1.810   3.683   3.810  0.8208 -0.6217  0.0329
11493SOL     OW35919   0.679   3.446   0.353  0.3398 -0.4416 -0.0495
11493SOL    HW135920   0.594   3.442   0.397 -0.2767 -1.0930 -1.2428
11493SOL    HW235921   0.725   3.368   0.384  0.9233  0.4366  1.3739
11494SOL     OW35922   0.383   1.520   0.250  0.1215  0.3868 -0.1533
11494SOL    HW135923   0.400   1.466   0.173 -1.2278  0.8159 -0.7769
11494SOL    HW235924   0.380   1.457   0.323  1.5097 -0.0090 -0.4109
11495SOL     OW35925   5.897   4.873   0.498 -0.2691  0.2396 -0.1734
11495SOL    HW135926   5.975   4.901   0.451 -0.8207  0.6862 -0.8513
11495SOL    HW235927   5.873   4.790   0.457  0.0098 -0.0438  0.2309
11496SOL     OW35928   2.389   0.268  11.768  0.3282 -0.4514 -0.1089
11496SOL    HW135929   2.296   0.286  11.760  0.4013  0.3506  0.7330
11496SOL    HW235930   2.397   0.217  11.848  0.4623 -1.8189 -0.9521
11497SOL     OW35931   5.390   6.105   8.271  0.0321 -0.4583  0.6037
11497SOL    HW135932   5.417   6.190   8.237  1.6410 -1.4171 -0.6726
11497SOL    HW235933   5.295   6.108   8.269  0.0540  0.8048 -0.7875
11498SOL     OW35934   4.055   4.064  10.752 -0.1439  0.4048  0.2413
11498SOL    HW135935   4.010   4.149  10.752 -0.3711  0.2969 -0.6030
11498SOL    HW235936   4.147   4.086  10.740 -0.2665  0.5152 -0.5619
11499SOL     OW35937   0.943   7.838   1.196  0.2498 -0.2423 -0.1928
11499SOL    HW135938   0.864   7.819   1.247 -0.5537 -1.3835 -1.7439
11499SOL    HW235939   1.015   7.818   1.255 -0.6284 -0.8148  0.7335
11500SOL     OW35940   7.690   4.015   3.887  0.4141  1.0306 -0.2099
11500SOL    HW135941   7.775   3.981   3.860 -0.3644 -0.2208 -1.2095
11500SOL    HW235942   7.708   4.062   3.968  1.9514  0.2284 -0.0415
11501SOL     OW35943   2.569   7.461   6.073 -0.0183  0.0057 -0.3076
11501SOL    HW135944   2.618   7.544   6.076 -1.0142  0.6681 -1.4114
11501SOL    HW235945   2.591   7.424   5.988  0.8557 -1.1731  0.4034
11502SOL     OW35946   4.345   4.307  11.103 -0.6067 -0.6626  0.1276
11502SOL    HW135947   4.416   4.256  11.064 -0.9376 -1.1495  0.1542
11502SOL    HW235948   4.349   4.286  11.196  0.3490  0.7002  0.4320
11503SOL     OW35949   5.763   1.304  10.470 -0.5323  0.4842  0.7364
11503SOL    HW135950   5.693   1.340  10.415 -0.4104 -1.4329 -0.8134
11503SOL    HW235951   5.809   1.242  10.413  1.5261  0.6065  2.1568
11504SOL     OW35952   4.535   3.610   2.312  0.6152 -0.9062 -0.3351
11504SOL    HW135953   4.521   3.536   2.252  0.1935 -2.7069  1.8332
11504SOL    HW235954   4.527   3.571   2.400  0.2303  1.7802  0.9161
11505SOL     OW35955   2.187   5.798   4.836  0.1815 -0.3576 -0.0030
11505SOL    HW135956   2.093   5.798   4.851 -0.0838 -0.1197 -1.5273
11505SOL    HW235957   2.214   5.889   4.851 -0.1959  0.0291 -1.4989
11506SOL     OW35958   6.481   6.588   1.238  0.2757 -0.7069  0.1117
11506SOL    HW135959   6.430   6.524   1.187  1.5176 -1.3693 -0.3311
11506SOL    HW235960   6.479   6.667   1.184  2.4874 -1.7079 -1.5951
11507SOL     OW35961   6.441   1.446   0.279  0.4737  0.0668  0.2448
11507SOL    HW135962   6.455   1.359   0.244 -2.7415 -0.7867  0.7817
11507SOL    HW235963   6.415   1.432   0.370 -0.9657  1.4517  0.1088
11508SOL     OW35964   0.087   4.189  12.375 -0.3994  0.0060  0.0404
11508SOL    HW135965   0.172   4.166  12.336  1.3258  2.7550  1.8230
11508SOL    HW235966   0.050   4.255  12.317 -0.5433  0.0047  0.1286
11509SOL     OW35967   3.935   6.173   5.027 -0.5983 -0.5946  0.2834
11509SOL    HW135968   4.008   6.111   5.023 -0.6820 -0.6658 -0.1509
11509SOL    HW235969   3.966   6.249   4.979 -1.1021 -0.9332 -0.6088
11510SOL     OW35970   6.187   3.158  10.452 -0.2301 -0.2989 -0.0072
11510SOL    HW135971   6.217   3.211  10.526 -0.0449 -1.6401  0.9257
11510SOL    HW235972   6.245   3.181  10.380  0.9886 -0.5020  0.8689
11511SOL     OW35973   0.459   4.739   3.843 -0.1102  0.0695  0.4211
11511SOL    HW135974   0.433   4.664   3.791  1.3269  0.2415 -0.6166
11511SOL    HW235975   0.449   4.710   3.934 -1.1225 -0.7878  0.0593
11512SOL     OW35976   1.690   3.228   4.636 -0.4787 -0.5029 -0.5302
11512SOL    HW135977   1.761   3.277   4.594  0.3656  0.4725  1.8281
11512SOL    HW235978   1.734   3.151   4.673 -0.1873  0.9008  2.3279
11513SOL     OW35979   1.717   6.505   1.331 -0.1705 -0.1490 -0.2533
11513SOL    HW135980   1.639   6.548   1.296 -1.4974 -1.9458  0.3434
11513SOL    HW235981   1.693   6.413   1.336  1.5490 -0.5666  1.1997
11514SOL     OW35982   2.423   2.691   9.343 -0.1276 -0.0632  0.1468
11514SOL    HW135983   2.513   2.703   9.313 -0.0826 -0.9101 -0.0724
11514SOL    HW235984   2.370   2.698   9.263 -0.3887  1.6119  0.4254
11515SOL     OW35985   2.305   5.326   3.651  0.3654 -0.4463  0.0629
11515SOL    HW135986   2.227   5.359   3.697 -1.9685 -0.2658 -3.5759
11515SOL    HW235987   2.346   5.404   3.615 -1.1631 -0.7857 -2.7182
11516SOL     OW35988   7.315   5.533   7.132 -0.3943  0.8965  0.1147
11516SOL    HW135989   7.364   5.460   7.170  1.2041  1.4177 -0.8784
11516SOL    HW235990   7.231   5.532   7.179  0.8183  0.4531  2.4383
11517SOL     OW35991   3.585   2.186   2.045  0.5389 -0.3188  0.4007
11517SOL    HW135992   3.603   2.149   2.131  1.4481  1.4258  0.9923
11517SOL    HW235993   3.670   2.187   2.001  0.6777  1.6152  0.6486
11518SOL     OW35994   5.294   2.022   0.083  0.1841  0.3225  0.3800
11518SOL    HW135995   5.281   2.067   0.167 -0.2704  0.5555  0.1913
11518SOL    HW235996   5.296   2.093   0.019  2.6319  0.3377  0.3856
11519SOL     OW35997   3.569   1.361   7.530 -0.4626 -0.7749 -0.6216
11519SOL    HW135998   3.488   1.327   7.491  0.0168 -2.8835  0.1403
11519SOL    HW235999   3.544   1.385   7.619 -0.2829 -1.2703 -0.4387
11520SOL     OW36000   3.435   7.315   6.615 -0.0200  0.3521 -0.1229
11520SOL    HW136001   3.462   7.290   6.704 -1.3220  1.3797  0.6019
11520SOL    HW236002   3.339   7.311   6.618 -0.1653  2.3653 -0.8533
11521SOL     OW36003   0.208   7.487   1.909 -0.0390 -0.2201 -0.3608
11521SOL    HW136004   0.278   7.548   1.888 -0.0143 -0.4031 -0.8251
11521SOL    HW236005   0.143   7.540   1.956  0.6111 -0.1525  0.4870
11522SOL     OW36006   1.945   6.964   1.112 -0.1443  0.0017 -0.7815
11522SOL    HW136007   1.996   6.887   1.139 -0.9109 -0.4220 -0.5263
11522SOL    HW236008   2.007   7.037   1.118  0.3432 -0.4516 -0.1349
11523SOL     OW36009   1.453   3.107   2.947 -0.0862 -0.3704 -0.6637
11523SOL    HW136010   1.426   3.105   3.039 -0.3235 -0.6675 -0.7360
11523SOL    HW236011   1.372   3.092   2.898  0.1764 -1.1092 -0.8913
11524SOL     OW36012   7.394   4.315   4.671  0.3640  0.5918  0.2940
11524SOL    HW136013   7.354   4.350   4.591  1.9088 -1.1905 -1.3511
11524SOL    HW236014   7.361   4.372   4.741 -0.8351  2.3993 -1.6213
11525SOL     OW36015   0.800   0.691   4.980  0.0420 -0.5715 -0.1627
11525SOL    HW136016   0.743   0.620   4.951 -1.4914  0.9496 -1.1005
11525SOL    HW236017   0.852   0.713   4.903  0.2884 -0.4854  0.0270
11526SOL     OW36018   0.843   0.120   8.476  0.4681 -0.1867 -0.4553
11526SOL    HW136019   0.849   0.084   8.387  1.2483  1.0718 -0.9370
11526SOL    HW236020   0.932   0.115   8.510  0.1384 -0.8498  0.3639
11527SOL     OW36021   5.769   2.384   4.159 -0.1570  0.2023  0.1430
11527SOL    HW136022   5.843   2.403   4.217  0.4764 -0.3208 -0.4699
11527SOL    HW236023   5.786   2.295   4.128  0.1027  0.8500 -1.6853
11528SOL     OW36024   0.226   4.670   8.834  0.5651 -0.1524  0.2594
11528SOL    HW136025   0.179   4.598   8.790  0.7550 -0.1710  0.0864
11528SOL    HW236026   0.156   4.723   8.873  0.4682 -0.9824  1.2617
11529SOL     OW36027   3.939   5.188   9.776  0.0268 -0.1265  0.2092
11529SOL    HW136028   3.958   5.094   9.781  0.5454 -0.0327  0.1146
11529SOL    HW236029   3.903   5.201   9.689  3.0219  0.2578 -1.1000
11530SOL     OW36030   0.884   5.808   0.989 -0.1107 -0.0750 -0.4128
11530SOL    HW136031   0.967   5.783   1.030  0.4791 -0.5053 -1.8039
11530SOL    HW236032   0.844   5.725   0.963 -1.3592  0.0806  0.9015
11531SOL     OW36033   4.347   6.778   0.485 -0.0597 -0.5232 -0.3146
11531SOL    HW136034   4.288   6.829   0.542  0.6966 -0.3753  0.3628
11531SOL    HW236035   4.290   6.717   0.439 -0.8473  0.1926 -0.3071
11532SOL     OW36036   5.059   6.265   8.730 -0.5204  0.2355  0.4299
11532SOL    HW136037   5.068   6.247   8.824 -0.0189  1.4882  0.6417
11532SOL    HW236038   5.141   6.308   8.706 -1.0861  0.9138 -0.3325
11533SOL     OW36039   6.499   4.501   1.349 -0.1626  0.0460  0.4746
11533SOL    HW136040   6.456   4.585   1.361  0.0634  0.1098  0.8594
11533SOL    HW236041   6.481   4.477   1.258 -1.6187 -0.2666  0.8128
11534SOL     OW36042   5.053   7.035   3.229  0.7788 -0.3623  0.2228
11534SOL    HW136043   5.016   7.101   3.170 -0.7825 -2.0877 -0.8255
11534SOL    HW236044   4.986   7.023   3.296  0.2830 -2.0143 -0.5128
11535SOL     OW36045   5.282   1.269   0.490  0.3319  0.1563 -0.4867
11535SOL    HW136046   5.250   1.197   0.543 -1.7702  0.6014 -1.0682
11535SOL    HW236047   5.357   1.303   0.538 -1.1863  0.2479  1.9548
11536SOL     OW36048   3.494   5.984  10.517 -0.1450 -0.0544  0.1666
11536SOL    HW136049   3.498   6.046  10.591  0.7567  0.4293 -0.2692
11536SOL    HW236050   3.470   6.039  10.442  0.5396 -0.2440 -0.1987
11537SOL     OW36051   6.370   4.488   0.060 -0.3344 -0.4025  0.3753
11537SOL    HW136052   6.316   4.410   0.052 -1.0597  0.0302  0.8665
11537SOL    HW236053   6.331   4.550  -0.002 -0.3554 -0.1163  0.6736
11538SOL     OW36054   3.495   3.972   4.916  0.1066 -0.6122  0.1456
11538SOL    HW136055   3.544   4.042   4.959  0.9185 -0.9618 -0.1838
11538SOL    HW236056   3.403   3.994   4.930  0.3389  0.8526 -0.4870
11539SOL     OW36057   1.710   7.543   1.381  0.2672 -0.1420 -0.4556
11539SOL    HW136058   1.725   7.626   1.425  0.4074  0.0932 -0.9467
11539SOL    HW236059   1.683   7.566   1.293  0.2142 -0.6163 -0.5701
11540SOL     OW36060   5.461   2.401   3.576 -0.2672 -0.8863  0.3369
11540SOL    HW136061   5.447   2.493   3.598 -1.7634 -0.7148 -1.0948
11540SOL    HW236062   5.383   2.356   3.611 -0.6778 -1.2135 -0.9220
11541SOL     OW36063   5.985   1.824   6.138 -1.1263 -0.1502  0.4728
11541SOL    HW136064   6.019   1.913   6.144 -0.1061 -0.5172  0.4269
11541SOL    HW236065   5.890   1.834   6.139 -1.0416  0.8588  1.6853
11542SOL     OW36066   2.795   2.982  11.168 -0.2249 -0.2663 -0.4849
11542SOL    HW136067   2.772   2.897  11.131  0.6420 -0.1513 -1.3192
11542SOL    HW236068   2.831   3.032  11.095 -0.2949  0.6629  0.0915
11543SOL     OW36069   4.311   3.313   2.562 -0.5321 -0.4114  0.2015
11543SOL    HW136070   4.362   3.351   2.634  1.3034  2.6849 -2.4443
11543SOL    HW236071   4.231   3.366   2.559 -0.0931  0.2215 -0.6656
11544SOL     OW36072   6.587   4.072   1.013 -0.2280 -0.3302 -0.0256
11544SOL    HW136073   6.644   4.136   0.971 -1.2431  0.6526  0.0431
11544SOL    HW236074   6.607   4.079   1.106  0.1029 -0.5601 -0.0790
11545SOL     OW36075   5.697   6.013   7.252  0.2248  0.0115 -0.3487
11545SOL    HW136076   5.787   6.029   7.281  0.6319 -0.3230 -1.3913
11545SOL    HW236077   5.706   5.952   7.179 -0.8681 -0.1608 -0.3483
11546SOL     OW36078   5.009   7.582  11.720  0.5098 -0.2222 -0.0554
11546SOL    HW136079   4.972   7.542  11.642 -0.0424 -0.3110  0.2475
11546SOL    HW236080   4.978   7.527  11.792  0.3440  0.3265  0.2973
11547SOL     OW36081   1.913   3.769  11.457 -0.2405  0.1914  0.1892
11547SOL    HW136082   1.870   3.800  11.378 -0.0495  2.8862  1.0194
11547SOL    HW236083   1.865   3.812  11.528  0.7280 -0.6913  1.4194
11548SOL     OW36084   6.046   0.370  11.370  0.3107  0.0202 -0.0903
11548SOL    HW136085   6.009   0.305  11.429 -1.3613  0.8520 -0.1552
11548SOL    HW236086   5.974   0.431  11.354  1.7319  1.7358 -0.2415
11549SOL     OW36087   5.946   2.990   6.724 -0.0836 -0.1053 -0.2551
11549SOL    HW136088   5.967   3.079   6.695 -0.8294 -0.1012 -0.7847
11549SOL    HW236089   5.936   2.998   6.819 -0.3022  0.4081 -0.3167
11550SOL     OW36090   4.054   1.274   8.663 -0.0494 -0.1963  0.1667
11550SOL    HW136091   4.077   1.181   8.664  1.6775  0.2032 -0.5455
11550SOL    HW236092   4.020   1.289   8.575 -0.5037 -0.1831  0.3420
11551SOL     OW36093   1.598   3.577   1.187  0.2339  0.1442 -0.2785
11551SOL    HW136094   1.521   3.543   1.235 -0.0666 -1.7738 -1.9777
11551SOL    HW236095   1.672   3.560   1.245 -0.3690 -0.0598  0.4457
11552SOL     OW36096   2.979   6.716   8.958  0.5605  0.0083 -0.1667
11552SOL    HW136097   2.930   6.662   8.896 -0.4707 -1.8440  2.1036
11552SOL    HW236098   2.961   6.806   8.930 -1.6360 -0.6942 -1.2842
11553SOL     OW36099   5.259   5.125   1.325 -0.5919 -0.5594  0.1136
11553SOL    HW136100   5.339   5.177   1.321 -1.4629  0.9161  1.0073
11553SOL    HW236101   5.198   5.168   1.266 -0.2611 -2.6745 -1.9373
11554SOL     OW36102   5.146   7.712   0.689  0.0697  0.2768  0.1682
11554SOL    HW136103   5.104   7.681   0.769 -0.1739 -0.0415 -0.0827
11554SOL    HW236104   5.205   7.782   0.719 -0.0562  0.1953  0.6171
11555SOL     OW36105   5.352   5.065   6.669  0.4247 -0.1496  0.1948
11555SOL    HW136106   5.340   5.033   6.580 -0.8821 -1.2392  0.7306
11555SOL    HW236107   5.383   5.155   6.658 -0.9432  0.1786 -1.3525
11556SOL     OW36108   3.158   7.150   3.740 -0.0900 -0.6274  0.5368
11556SOL    HW136109   3.137   7.083   3.675 -0.3698 -1.3546  1.3604
11556SOL    HW236110   3.100   7.131   3.814 -0.3844  0.7074  0.6730
11557SOL     OW36111   6.646   5.342   3.089  0.1584  0.2250  0.1342
11557SOL    HW136112   6.735   5.355   3.122 -0.2750 -0.7978  1.8499
11557SOL    HW236113   6.617   5.260   3.130 -0.9375 -0.4353 -1.8186
11558SOL     OW36114   6.769   0.452   2.431  0.3416  0.1915 -0.0464
11558SOL    HW136115   6.698   0.515   2.414  0.8162 -0.0221 -3.6995
11558SOL    HW236116   6.844   0.488   2.384  1.0723 -2.2539 -0.9158
11559SOL     OW36117   5.029   5.206   8.769  0.4390 -0.4666  0.3120
11559SOL    HW136118   5.002   5.295   8.748 -0.7986 -0.3720  2.0491
11559SOL    HW236119   5.108   5.192   8.717 -0.0590  1.1622 -0.9783
11560SOL     OW36120   3.465   7.388   6.990  0.1232 -0.6935  0.1347
11560SOL    HW136121   3.383   7.364   7.034  1.2904 -3.4140  1.0361
11560SOL    HW236122   3.499   7.305   6.957  1.3495  0.7028 -2.4308
11561SOL     OW36123   2.283   4.036   5.866  0.1599  0.1696 -0.6256
11561SOL    HW136124   2.308   4.098   5.936  0.7830  0.6599 -1.2688
11561SOL    HW236125   2.344   4.054   5.795  2.1724 -3.0174  0.1069
11562SOL     OW36126   4.079   6.506   7.899 -0.0633  0.2823  0.1789
11562SOL    HW136127   4.159   6.462   7.872 -1.1350 -0.7980 -1.3854
11562SOL    HW236128   4.067   6.481   7.991  0.3031 -1.2528 -0.1661
11563SOL     OW36129   4.814   1.852  12.069 -0.0273 -0.2732  0.1668
11563SOL    HW136130   4.731   1.805  12.059 -0.3901  0.4013 -0.0290
11563SOL    HW236131   4.789   1.941  12.091  0.6571 -0.1170  0.3403
11564SOL     OW36132   2.592   5.551   3.370 -0.1837 -0.0217  0.2949
11564SOL    HW136133   2.654   5.478   3.372 -1.2239 -0.9141  0.7465
11564SOL    HW236134   2.564   5.555   3.279 -1.6343 -1.5245  0.6292
11565SOL     OW36135   1.465   4.026   2.277  0.2157 -0.2425 -0.1843
11565SOL    HW136136   1.416   4.097   2.236 -0.2562 -1.1787 -1.2906
11565SOL    HW236137   1.504   3.978   2.204 -0.2673 -1.6869  0.4827
11566SOL     OW36138   1.675   1.293   9.841  0.5452  0.2634 -0.4918
11566SOL    HW136139   1.738   1.257   9.903  1.5746 -2.2725 -2.7660
11566SOL    HW236140   1.590   1.282   9.883  1.3412  0.9797  1.4250
11567SOL     OW36141   0.708   3.833   2.353  0.1937  0.0497  0.0265
11567SOL    HW136142   0.637   3.874   2.304 -0.1558 -0.5462  0.0153
11567SOL    HW236143   0.788   3.857   2.305  0.0413  1.0694  0.2819
11568SOL     OW36144   6.391   4.938   0.509 -0.2921  0.4372  0.2601
11568SOL    HW136145   6.426   5.027   0.518 -0.2939  0.2729  2.3854
11568SOL    HW236146   6.379   4.908   0.599  1.6343 -2.5051 -0.3185
11569SOL     OW36147   5.536   4.800   1.736 -0.2705  0.5558  0.0874
11569SOL    HW136148   5.555   4.845   1.654  1.6564  2.6971  1.5848
11569SOL    HW236149   5.441   4.791   1.738 -0.4770  1.9982 -1.6060
11570SOL     OW36150   0.869   1.225   6.085 -0.3172  0.2710  0.4690
11570SOL    HW136151   0.870   1.309   6.038  1.9576 -1.3258 -2.6456
11570SOL    HW236152   0.955   1.219   6.125  0.1826 -1.2523 -0.7598
11571SOL     OW36153   2.870   1.048   7.085 -0.3635  0.2487 -0.2911
11571SOL    HW136154   2.815   1.118   7.122 -0.6839 -0.0490 -0.2024
11571SOL    HW236155   2.954   1.059   7.130 -0.6289  0.1370  0.2461
11572SOL     OW36156   2.822   4.326   2.157 -0.5539 -0.5754 -0.0685
11572SOL    HW136157   2.912   4.293   2.150 -0.1875  0.3347  0.1626
11572SOL    HW236158   2.814   4.389   2.086 -0.1139  1.2993  1.4563
11573SOL     OW36159   0.770   6.046   1.034 -0.0734 -0.0645  0.0813
11573SOL    HW136160   0.698   6.017   1.090  0.0231 -0.7683 -0.1563
11573SOL    HW236161   0.827   5.970   1.026  0.2893  0.2494 -0.3873
11574SOL     OW36162   3.679   7.076   2.123 -0.9400  0.1379 -0.2631
11574SOL    HW136163   3.713   7.039   2.205 -0.2832  0.8527 -0.2067
11574SOL    HW236164   3.661   7.167   2.144  2.5821  1.3721 -1.7714
11575SOL     OW36165   3.572   4.348   4.894 -0.4785  0.2092 -0.0671
11575SOL    HW136166   3.567   4.286   4.821  0.5587 -2.1047  1.6964
11575SOL    HW236167   3.659   4.334   4.931 -1.5290  0.0642  2.5752
11576SOL     OW36168   7.842   7.705  12.193  0.3325  0.4241 -0.4250
11576SOL    HW136169   7.904   7.642  12.156  1.1351  0.3177  1.0206
11576SOL    HW236170   7.756   7.668  12.174  0.7811 -0.8659 -0.0652
11577SOL     OW36171   7.205   3.455  10.285 -0.0409 -0.0878 -0.3543
11577SOL    HW136172   7.191   3.537  10.332  0.1966 -0.6744  0.7683
11577SOL    HW236173   7.132   3.399  10.310 -0.3474 -0.1417 -1.3237
11578SOL     OW36174   5.657   5.886   9.693 -0.4848 -0.4005  0.1395
11578SOL    HW136175   5.689   5.887   9.602 -1.7977 -1.3481 -0.3629
11578SOL    HW236176   5.729   5.847   9.743  0.6276  0.9875 -0.3151
11579SOL     OW36177   1.631   0.196   1.862  0.3330  0.1160 -0.1916
11579SOL    HW136178   1.663   0.258   1.797  2.0116  0.5710  1.0097
11579SOL    HW236179   1.650   0.110   1.825  0.1100  0.3330 -0.8339
11580SOL     OW36180   6.960   7.856   3.166 -0.2605 -0.2028 -0.0983
11580SOL    HW136181   7.054   7.844   3.176 -0.0221 -1.7758 -3.1399
11580SOL    HW236182   6.921   7.776   3.202 -0.1724 -0.9563 -1.6258
11581SOL     OW36183   4.831   7.892  11.826 -0.4519  0.8845  0.4532
11581SOL    HW136184   4.881   7.972  11.840  2.1531 -0.7934  1.6565
11581SOL    HW236185   4.858   7.862  11.739  1.5615 -0.5106  1.4755
11582SOL     OW36186   4.358   7.866   8.213 -0.1094  0.1759  0.3028
11582SOL    HW136187   4.350   7.959   8.234 -0.4440  0.4814 -1.1152
11582SOL    HW236188   4.299   7.853   8.139 -1.2632 -1.5156  1.4411
11583SOL     OW36189   0.528   5.366   6.138 -0.4745 -1.0726  0.0996
11583SOL    HW136190   0.481   5.390   6.057 -2.4861 -2.1344  0.8691
11583SOL    HW236191   0.562   5.449   6.171  2.4052 -0.8545 -2.9322
11584SOL     OW36192   6.096   1.630   7.841 -0.6031  0.5660  0.2807
11584SOL    HW136193   6.046   1.700   7.799 -1.2911 -0.8007 -1.3133
11584SOL    HW236194   6.037   1.593   7.906 -1.0627  0.0650 -0.4100
11585SOL     OW36195   4.282   3.442   4.653  0.2019  0.5541 -0.2436
11585SOL    HW136196   4.353   3.494   4.615  1.8691 -2.2221 -1.2527
11585SOL    HW236197   4.326   3.367   4.692 -2.1785 -1.6801 -1.5267
11586SOL     OW36198   3.581   3.749   2.382 -0.6145  0.0567  0.4171
11586SOL    HW136199   3.491   3.782   2.374 -0.8076 -0.3283  0.9830
11586SOL    HW236200   3.583   3.673   2.325 -0.4994  0.3572  0.0137
11587SOL     OW36201   2.934   3.907  10.643 -0.4625  0.0184 -0.4924
11587SOL    HW136202   2.944   3.837  10.578  1.3773 -0.6324  0.4069
11587SOL    HW236203   2.925   3.861  10.726 -0.3033  0.8479 -0.0101
11588SOL     OW36204   7.185   7.431  11.070  0.2662  0.1262  0.2204
11588SOL    HW136205   7.257   7.474  11.024  0.1308  0.0460 -0.0646
11588SOL    HW236206   7.134   7.503  11.107 -0.1298  0.2300 -0.5095
11589SOL     OW36207   2.136   7.466  10.764  0.1033 -0.9902  0.2067
11589SOL    HW136208   2.146   7.560  10.774 -0.4510 -1.0770  1.8834
11589SOL    HW236209   2.076   7.455  10.690  2.9422 -0.1781 -2.4345
11590SOL     OW36210   7.871   7.209   6.926 -0.4212 -0.0774 -0.4811
11590SOL    HW136211   7.788   7.167   6.904 -0.7906  0.8111 -0.8583
11590SOL    HW236212   7.936   7.162   6.874 -0.5691 -1.2872  0.4069
11591SOL     OW36213   7.277   6.754   6.677  0.0827 -0.1230  0.3032
11591SOL    HW136214   7.268   6.660   6.696 -1.7791  0.4340  2.6268
11591SOL    HW236215   7.217   6.769   6.604  0.5650 -0.7619 -0.2421
11592SOL     OW36216   6.136   5.948   4.847 -0.5591  0.0276 -0.1613
11592SOL    HW136217   6.138   6.038   4.814 -0.7537  0.1394  0.1283
11592SOL    HW236218   6.049   5.939   4.887  0.8805  1.1047  3.6140
11593SOL     OW36219   4.416   2.461   2.127  0.7123  0.6532  0.3156
11593SOL    HW136220   4.510   2.467   2.113  0.6683 -0.3586 -0.6203
11593SOL    HW236221   4.379   2.447   2.039 -0.0773 -1.1629  0.8763
11594SOL     OW36222   3.870   6.670   3.974  0.3403  0.4854  0.4800
11594SOL    HW136223   3.966   6.666   3.978  0.3677 -1.2438 -1.0028
11594SOL    HW236224   3.845   6.603   3.910 -1.8792  0.8344  0.8971
11595SOL     OW36225   6.443   2.303   1.401  0.1016 -0.1578  0.6627
11595SOL    HW136226   6.420   2.230   1.458  0.1849 -0.9339 -0.2636
11595SOL    HW236227   6.522   2.274   1.356 -0.4690  0.0380 -0.5118
11596SOL     OW36228   6.906   5.457   2.488  0.0463  0.8169  0.0677
11596SOL    HW136229   6.853   5.400   2.432  2.2036  0.4117 -1.7137
11596SOL    HW236230   6.964   5.503   2.427  0.4610  2.6577  1.7546
11597SOL     OW36231   5.883   4.773   4.457 -0.1743  0.4843 -0.4443
11597SOL    HW136232   5.821   4.766   4.530  0.1294 -1.8341 -0.3281
11597SOL    HW236233   5.838   4.733   4.383  0.3046  0.9407 -0.9944
11598SOL     OW36234   5.646   0.040   9.156 -0.0316  0.3024  0.2236
11598SOL    HW136235   5.679   0.120   9.116 -2.1403  0.1407 -2.0507
11598SOL    HW236236   5.579   0.070   9.218  1.0473  0.3723  1.4095
11599SOL     OW36237   2.021   5.991  12.010 -0.0400  0.5238  0.4673
11599SOL    HW136238   2.011   6.055  12.081 -1.9291 -0.0905  0.7961
11599SOL    HW236239   2.015   5.906  12.053  0.8390  0.1194 -0.1859
11600SOL     OW36240   6.193   0.607   3.266  0.1992  0.2428  0.0635
11600SOL    HW136241   6.111   0.635   3.307  0.7426  1.1054  0.6001
11600SOL    HW236242   6.198   0.513   3.284 -2.0084 -0.4423 -2.3809
11601SOL     OW36243   6.776   2.840   3.238  0.0281 -0.8560 -0.4105
11601SOL    HW136244   6.830   2.919   3.237 -0.5610 -0.4519 -0.8431
11601SOL    HW236245   6.785   2.806   3.327  0.2504 -0.2795 -0.2114
11602SOL     OW36246   1.335   6.022   7.941  0.2708 -0.8894  0.1690
11602SOL    HW136247   1.280   6.085   7.988  1.1955 -0.0052  0.1199
11602SOL    HW236248   1.284   5.999   7.864  0.4381  0.8597 -0.5204
11603SOL     OW36249   0.725   2.890   7.489 -0.1765 -0.2391 -0.2924
11603SOL    HW136250   0.783   2.910   7.415  0.0890  2.3525  0.5158
11603SOL    HW236251   0.638   2.915   7.459 -0.8298 -3.1663 -1.1359
11604SOL     OW36252   1.216   3.878   2.405 -0.4673  0.1162  0.3477
11604SOL    HW136253   1.291   3.931   2.377  0.1506 -1.2724 -0.7630
11604SOL    HW236254   1.147   3.899   2.342 -0.1089 -0.6281 -0.3089
11605SOL     OW36255   1.436   5.676   8.987 -0.0411 -0.0614  0.1655
11605SOL    HW136256   1.527   5.682   9.016  0.7615 -0.2973 -2.1229
11605SOL    HW236257   1.429   5.740   8.916 -1.7249  0.0660  0.4008
11606SOL     OW36258   7.708   6.739   5.980  0.0314 -0.1668  0.3016
11606SOL    HW136259   7.714   6.665   6.041 -0.2429  0.2954  0.8985
11606SOL    HW236260   7.776   6.799   6.009  1.1828 -0.7710 -1.0244
11607SOL     OW36261   0.165   0.280   2.059 -1.0035 -0.0614 -0.1497
11607SOL    HW136262   0.160   0.361   2.007 -2.3171  0.3929  0.6315
11607SOL    HW236263   0.172   0.310   2.149 -3.6711 -0.7267  0.3755
11608SOL     OW36264   4.386   2.863   7.363 -0.4954 -0.3552 -1.1066
11608SOL    HW136265   4.400   2.857   7.457  0.4427 -0.2847 -1.2322
11608SOL    HW236266   4.330   2.789   7.342 -2.4442  0.7762 -0.1950
11609SOL     OW36267   1.659   6.486   3.546 -0.4504  0.0991 -0.2305
11609SOL    HW136268   1.692   6.506   3.458  2.5142  0.4895  0.8905
11609SOL    HW236269   1.625   6.569   3.579  0.8610  0.5707 -0.0429
11610SOL     OW36270   5.047   1.153   5.213  0.1174 -0.3570 -0.1617
11610SOL    HW136271   4.993   1.135   5.290 -1.3129  1.9026 -0.5192
11610SOL    HW236272   5.002   1.226   5.170  4.0666  2.5969  0.1623
11611SOL     OW36273   6.852   1.999   5.816  0.0941  0.1790  0.1488
11611SOL    HW136274   6.925   1.978   5.758  1.3616  2.2691  0.8551
11611SOL    HW236275   6.819   1.914   5.845  2.3412 -0.8603 -0.1133
11612SOL     OW36276   3.407   0.549   0.044 -0.1232  0.0154 -0.3600
11612SOL    HW136277   3.322   0.507   0.030  1.0836 -3.8559  2.0934
11612SOL    HW236278   3.445   0.556  -0.043 -1.7101 -1.2380 -1.2114
11613SOL     OW36279   5.026   5.686   7.051  0.7674  0.1751 -0.4198
11613SOL    HW136280   5.027   5.775   7.086  0.5648  0.5660 -1.3901
11613SOL    HW236281   5.010   5.697   6.957  4.1194 -0.6556 -1.2364
11614SOL     OW36282   5.131   2.305   6.746  0.2398 -0.2424  0.0304
11614SOL    HW136283   5.040   2.310   6.714  0.2862 -1.3646 -0.3115
11614SOL    HW236284   5.128   2.346   6.832 -0.5027  0.1357 -0.1636
11615SOL     OW36285   4.593   0.703  12.366 -0.6611  0.6446 -0.2978
11615SOL    HW136286   4.681   0.738  12.352 -0.4316  1.5016  2.7102
11615SOL    HW236287   4.607   0.610  12.384 -0.3000  0.8794  0.6596
11616SOL     OW36288   7.216   7.656   2.065 -0.4559 -0.6145 -0.4555
11616SOL    HW136289   7.231   7.727   2.002  0.2227  0.8224  1.2118
11616SOL    HW236290   7.121   7.644   2.066 -0.9566  2.4486  1.3531
11617SOL     OW36291   0.877   3.852   8.376  0.5455 -0.0375 -0.1079
11617SOL    HW136292   0.893   3.856   8.471 -0.4029 -0.2319  0.0763
11617SOL    HW236293   0.833   3.935   8.356  0.4398 -0.1434 -0.3133
11618SOL     OW36294   1.727   3.085   5.258 -0.0500 -0.5932  0.5053
11618SOL    HW136295   1.686   3.005   5.292  1.5189 -2.2619 -1.2243
11618SOL    HW236296   1.796   3.105   5.322 -0.1513 -0.9121  0.7177
11619SOL     OW36297   6.270   3.712   0.074  0.1300 -0.2277 -0.3893
11619SOL    HW136298   6.216   3.776   0.028 -0.2742 -0.9225 -0.8958
11619SOL    HW236299   6.333   3.683   0.008  0.0170 -0.6980 -0.2887
11620SOL     OW36300   1.989   2.741   9.745  0.0873  0.2486 -0.0532
11620SOL    HW136301   1.919   2.805   9.761 -1.1974 -1.0086 -0.3955
11620SOL    HW236302   2.054   2.759   9.813 -0.2830  1.8381 -0.0939
11621SOL     OW36303   2.867   4.424   2.999 -0.6636 -0.7030 -0.5804
11621SOL    HW136304   2.776   4.397   3.005 -0.5806 -0.6349  2.7695
11621SOL    HW236305   2.917   4.343   3.007 -0.4466 -0.5212 -0.0256
11622SOL     OW36306   7.325   0.916   5.822  0.4617 -0.2434 -0.0521
11622SOL    HW136307   7.326   0.892   5.730  2.1434  0.3456 -0.2295
11622SOL    HW236308   7.328   1.012   5.822 -0.1783 -0.2169  0.6146
11623SOL     OW36309   2.803   5.415   6.438  0.5140 -0.0468 -0.0765
11623SOL    HW136310   2.785   5.477   6.508 -1.3179  0.0973 -0.6225
11623SOL    HW236311   2.763   5.453   6.361  1.3398 -0.8444 -0.9327
11624SOL     OW36312   5.879   7.776   9.305 -0.3174  0.3662  0.9210
11624SOL    HW136313   5.800   7.750   9.351 -2.0577  1.3843 -1.2923
11624SOL    HW236314   5.888   7.870   9.323  0.0687  0.3767  0.6931
11625SOL     OW36315   5.480   1.535   0.172  0.2253 -1.2022 -0.0605
11625SOL    HW136316   5.499   1.517   0.080  0.9334 -0.8420  0.0075
11625SOL    HW236317   5.549   1.491   0.220  0.0047 -1.1719  0.2841
11626SOL     OW36318   3.195   3.837   3.398  0.4670 -0.0503  0.5707
11626SOL    HW136319   3.264   3.793   3.349 -0.1985 -1.9840  1.2959
11626SOL    HW236320   3.241   3.877   3.472  0.8994 -0.6599  0.6367
11627SOL     OW36321   5.347   0.974   6.931  0.7915  0.3276  0.0982
11627SOL    HW136322   5.374   0.943   6.844 -0.0118  2.1612 -0.8638
11627SOL    HW236323   5.267   1.023   6.915 -0.5694 -1.0745  2.2133
11628SOL     OW36324   3.106   1.971   5.597 -0.3324 -0.2699 -0.3306
11628SOL    HW136325   3.179   1.932   5.645 -0.8651 -2.5322 -1.2297
11628SOL    HW236326   3.037   1.980   5.662  0.0152 -0.2586  0.0403
11629SOL     OW36327   5.473   1.874  10.088  1.1930 -0.4183 -0.1272
11629SOL    HW136328   5.471   1.929  10.009  0.9084  0.0813  0.2223
11629SOL    HW236329   5.404   1.809  10.074 -0.1858  0.8390  0.5282
11630SOL     OW36330   0.536   2.113   1.550 -0.0483 -0.2121 -0.2493
11630SOL    HW136331   0.469   2.068   1.602  1.5908 -0.2048  1.9890
11630SOL    HW236332   0.490   2.187   1.511 -1.4558 -0.4356  0.8979
11631SOL     OW36333   4.993   2.223   0.375 -0.1145  0.0362 -0.0293
11631SOL    HW136334   5.019   2.237   0.284 -1.3890  0.5060 -0.3309
11631SOL    HW236335   4.898   2.225   0.374 -0.1679  1.9494  1.5898
11632SOL     OW36336   1.405   6.297  12.076 -0.1565  0.0632  0.5802
11632SOL    HW136337   1.411   6.392  12.084 -0.1033 -0.0668  2.6958
11632SOL    HW236338   1.314   6.277  12.097 -0.1706 -0.3599  0.1293
11633SOL     OW36339   6.732   0.636   9.234 -0.3757 -0.0601 -0.1623
11633SOL    HW136340   6.700   0.721   9.205 -1.3424 -0.8183 -1.4025
11633SOL    HW236341   6.784   0.655   9.313 -0.0895  1.7240 -0.7532
11634SOL     OW36342   0.695   5.314   0.375  0.2144 -0.0304  0.1326
11634SOL    HW136343   0.746   5.329   0.454  0.8688 -0.9089 -0.1000
11634SOL    HW236344   0.691   5.399   0.332  1.2782  0.1137  0.2895
11635SOL     OW36345   7.302   4.011   9.815 -0.1402  0.3250  0.1637
11635SOL    HW136346   7.374   3.965   9.857 -0.3355  0.0995  0.2511
11635SOL    HW236347   7.236   4.020   9.883 -1.2976 -1.8129 -0.5978
11636SOL     OW36348   6.700   2.391   9.483 -0.3696 -0.2199  0.5471
11636SOL    HW136349   6.654   2.383   9.400  0.9392  1.8202 -0.4652
11636SOL    HW236350   6.639   2.436   9.541  0.4916  3.5165 -1.1193
11637SOL     OW36351   4.811   4.077   7.942 -0.4771  0.1001  0.2625
11637SOL    HW136352   4.809   4.161   7.897 -1.1050  0.9749  1.8686
11637SOL    HW236353   4.756   4.020   7.888 -0.1314  0.7277 -0.7865
11638SOL     OW36354   2.567   2.076   0.579  0.2449 -0.0517  0.2220
11638SOL    HW136355   2.562   2.069   0.675  1.0699  0.0572  0.2726
11638SOL    HW236356   2.657   2.102   0.561 -0.0323  0.4028 -0.5613
11639SOL     OW36357   6.876   7.589   5.867 -0.3214  0.1117 -0.3852
11639SOL    HW136358   6.839   7.555   5.949  0.3785  0.2051 -0.0191
11639SOL    HW236359   6.970   7.596   5.885 -0.2774  0.9775 -0.9052
11640SOL     OW36360   3.144   1.287   7.558 -0.5895 -0.1329 -0.3159
11640SOL    HW136361   3.081   1.337   7.610 -2.2284 -0.8004 -1.5689
11640SOL    HW236362   3.206   1.251   7.622 -0.6562  1.6636  0.8116
11641SOL     OW36363   4.874   5.401   5.620 -0.1411 -0.2090  0.2742
11641SOL    HW136364   4.891   5.314   5.656 -0.2301  0.1425  1.1855
11641SOL    HW236365   4.779   5.413   5.630  0.2319  1.1795  2.9761
11642SOL     OW36366   0.143   5.698   9.015  0.6060 -0.1762 -0.1707
11642SOL    HW136367   0.144   5.729   8.925  0.4210 -1.4533 -0.6421
11642SOL    HW236368   0.059   5.653   9.025  1.5930 -2.1506 -0.1613
11643SOL     OW36369   0.391   5.071   6.883 -0.0088  0.2411  0.3630
11643SOL    HW136370   0.332   5.113   6.945  0.8931  2.4619 -0.1948
11643SOL    HW236371   0.437   5.143   6.840  1.8150 -1.3354 -0.5039
11644SOL     OW36372   4.191   6.486   4.505  0.8711 -0.6814  0.3901
11644SOL    HW136373   4.122   6.473   4.570  0.7333 -2.2739 -0.0249
11644SOL    HW236374   4.236   6.565   4.533 -1.1039  0.3949  0.6800
11645SOL     OW36375   0.296   6.502  11.446 -0.0030  0.7079  0.4503
11645SOL    HW136376   0.204   6.505  11.471 -0.2500  0.3616 -0.3779
11645SOL    HW236377   0.298   6.449  11.366  1.2243 -1.4903  1.8256
11646SOL     OW36378   3.923   4.872   5.035  0.2891  0.0580 -0.3879
11646SOL    HW136379   3.881   4.944   5.082  1.0102  0.6794 -0.6710
11646SOL    HW236380   3.973   4.915   4.966  0.6937 -0.7237 -0.5880
11647SOL     OW36381   4.856   0.658   8.180 -0.3106 -0.4052  0.4673
11647SOL    HW136382   4.764   0.670   8.202 -0.3679 -0.7260  0.3977
11647SOL    HW236383   4.896   0.744   8.197 -0.3345 -0.6627  1.9267
11648SOL     OW36384   6.549   0.276   7.136 -0.0842  0.0341 -0.4932
11648SOL    HW136385   6.466   0.320   7.156  0.2089  0.2069  0.3969
11648SOL    HW236386   6.548   0.264   7.041 -0.1645  2.0171 -0.7955
11649SOL     OW36387   5.088   0.698   2.251 -0.5171  0.0381 -0.0803
11649SOL    HW136388   5.179   0.713   2.224  0.2237  1.0140  2.5927
11649SOL    HW236389   5.040   0.772   2.215  0.4014  1.2625  1.1259
11650SOL     OW36390   6.576   5.107   2.738 -0.7914  0.1914 -0.1703
11650SOL    HW136391   6.495   5.123   2.688 -0.3072  0.2548 -0.9637
11650SOL    HW236392   6.548   5.057   2.814 -1.4932 -0.4001 -0.7928
11651SOL     OW36393   2.050   1.403   6.807  0.0192 -0.0853 -0.1852
11651SOL    HW136394   2.013   1.410   6.718  2.1973  2.2281 -1.0143
11651SOL    HW236395   1.977   1.424   6.865 -0.7920  1.0891 -1.5742
11652SOL     OW36396   5.469   7.654  10.098 -0.3885 -0.1488 -0.1776
11652SOL    HW136397   5.495   7.623  10.185 -2.1984 -0.6733  0.2242
11652SOL    HW236398   5.481   7.749  10.102 -1.5804 -0.0106  1.0904
11653SOL     OW36399   1.176   2.073  10.108 -0.0467  0.2618  0.2086
11653SOL    HW136400   1.210   2.001  10.162 -1.2391 -0.1072  0.5048
11653SOL    HW236401   1.152   2.032  10.025  1.0664  0.6886 -0.3367
11654SOL     OW36402   4.815   7.021   2.380 -0.3886 -0.2219 -0.1344
11654SOL    HW136403   4.824   7.116   2.369  2.0364 -0.3781  0.0223
11654SOL    HW236404   4.821   7.008   2.474 -0.9646 -0.5328 -0.1369
11655SOL     OW36405   3.204   0.441   6.053 -0.3131 -0.1465 -0.2547
11655SOL    HW136406   3.195   0.531   6.023 -0.3942 -0.4206 -1.0918
11655SOL    HW236407   3.148   0.391   5.993 -1.3120 -0.5986  0.9984
11656SOL     OW36408   7.764   4.351  10.218  0.0655  0.4284 -0.0700
11656SOL    HW136409   7.744   4.284  10.153 -0.3540  0.9355 -0.4787
11656SOL    HW236410   7.824   4.309  10.279 -2.2319 -1.1767  1.2042
11657SOL     OW36411   5.965   5.028   8.609  0.2091  0.6220 -0.0404
11657SOL    HW136412   6.017   4.986   8.677 -0.6182 -0.9330 -0.3268
11657SOL    HW236413   5.874   5.017   8.638 -0.2421 -1.0602 -1.8724
11658SOL     OW36414   0.981   0.363   6.992 -0.3124  0.3510 -0.0330
11658SOL    HW136415   1.020   0.446   7.019 -0.0028  0.5310 -0.9951
11658SOL    HW236416   1.053   0.300   6.999 -0.3153  0.3379 -0.1133
11659SOL     OW36417   3.223   3.537   2.618  0.1032  0.8178 -0.5020
11659SOL    HW136418   3.238   3.576   2.532  1.4885  0.0584 -0.6390
11659SOL    HW236419   3.245   3.445   2.606 -2.0778  0.1817  0.0800
11660SOL     OW36420   6.919   0.155   7.140 -0.4116 -0.4974 -0.1600
11660SOL    HW136421   6.919   0.132   7.233  2.0388  0.5414  0.1824
11660SOL    HW236422   6.900   0.248   7.138 -0.3605 -0.4941 -0.7000
11661SOL     OW36423   4.356   0.174   5.290 -0.5602 -0.4707  0.0249
11661SOL    HW136424   4.328   0.248   5.235 -0.9908 -0.2661  0.5188
11661SOL    HW236425   4.347   0.205   5.380  1.8788 -0.1659  0.2241
11662SOL     OW36426   1.106   6.584   8.381  0.4145  0.0050 -0.0326
11662SOL    HW136427   1.177   6.570   8.319  1.0774  1.9360  0.1971
11662SOL    HW236428   1.047   6.646   8.336 -0.9960 -1.3183 -0.0952
11663SOL     OW36429   5.895   0.288   4.512 -0.6079  0.6502  0.1904
11663SOL    HW136430   5.857   0.327   4.591 -1.2715  0.0882  0.1585
11663SOL    HW236431   5.989   0.291   4.528 -0.6547  1.9574  0.3240
11664SOL     OW36432   4.560   5.302   8.081 -0.4056 -0.3576 -0.3035
11664SOL    HW136433   4.503   5.344   8.145 -2.2096  1.4980 -2.9184
11664SOL    HW236434   4.634   5.362   8.071  0.2555 -1.0086  0.4956
11665SOL     OW36435   3.128   0.916   7.127 -0.5278 -0.1572  0.0766
11665SOL    HW136436   3.152   0.972   7.201 -0.3321 -0.1183 -0.0148
11665SOL    HW236437   3.077   0.845   7.166 -0.1073 -0.3414  0.3036
11666SOL     OW36438   2.879   3.459   1.245 -0.1164  0.0368 -0.5983
11666SOL    HW136439   2.905   3.509   1.167 -0.8464 -0.3185 -1.0802
11666SOL    HW236440   2.937   3.491   1.314  1.1586 -0.2545 -1.4809
11667SOL     OW36441   4.695   6.883   3.621  0.2102  0.1015  0.2455
11667SOL    HW136442   4.773   6.830   3.632  0.9782  1.3498  1.0599
11667SOL    HW236443   4.663   6.898   3.710 -1.1507 -0.6528 -0.0928
11668SOL     OW36444   5.750   4.861   9.914  0.1962 -0.4674 -0.0180
11668SOL    HW136445   5.772   4.947   9.880  1.9842 -0.5579  0.7999
11668SOL    HW236446   5.733   4.808   9.837 -0.1091  0.4067 -0.5621
11669SOL     OW36447   0.421   2.310   1.394 -0.4431 -0.2883 -0.1683
11669SOL    HW136448   0.364   2.376   1.434 -0.4429  0.3095 -1.1384
11669SOL    HW236449   0.362   2.257   1.341 -0.0710  0.6175 -1.5504
11670SOL     OW36450   3.573   2.856   7.835  0.2815  0.0291 -0.6463
11670SOL    HW136451   3.623   2.935   7.814  0.7582 -0.5526 -1.7881
11670SOL    HW236452   3.564   2.858   7.930  0.5928  1.2690 -0.6197
11671SOL     OW36453   2.813   3.604   9.747 -0.9107 -0.2493 -0.2006
11671SOL    HW136454   2.725   3.601   9.710 -0.6368 -0.6314 -0.8376
11671SOL    HW236455   2.871   3.584   9.674 -0.3635 -1.2599  0.4750
11672SOL     OW36456   6.585   0.333  11.984 -0.8937  0.4558  0.6203
11672SOL    HW136457   6.638   0.340  11.905 -1.5449 -0.4748  0.0773
11672SOL    HW236458   6.517   0.400  11.973 -2.2459 -1.0459 -0.6516
11673SOL     OW36459   3.251   1.819   6.372 -0.1271  0.1095 -0.2569
11673SOL    HW136460   3.196   1.811   6.450 -1.1366 -0.0516 -0.9808
11673SOL    HW236461   3.288   1.907   6.378  1.1238 -0.4522  1.2360
11674SOL     OW36462   2.966   5.568   3.142 -0.1274 -0.4289 -0.2819
11674SOL    HW136463   2.965   5.664   3.132  1.2196 -0.2637  0.8611
11674SOL    HW236464   3.053   5.549   3.177 -0.9533 -1.9311  1.0329
11675SOL     OW36465   5.351   0.209   5.884  0.0440 -0.0087 -0.3477
11675SOL    HW136466   5.282   0.262   5.922  0.3311 -0.3522  0.6649
11675SOL    HW236467   5.411   0.191   5.956  0.8429 -0.2789 -1.0588
11676SOL     OW36468   4.345   0.228   6.079 -0.0282 -0.6619  0.2499
11676SOL    HW136469   4.431   0.258   6.050 -0.8912  1.6510 -0.0706
11676SOL    HW236470   4.360   0.196   6.168  0.9801  0.6820  0.5896
11677SOL     OW36471   0.325   7.244   6.470  0.5115  0.4060 -0.5479
11677SOL    HW136472   0.243   7.248   6.420 -0.4553  0.6954  0.9485
11677SOL    HW236473   0.359   7.333   6.467  0.6416  0.3396 -0.9850
11678SOL     OW36474   2.287   6.300   2.449  0.3079 -0.4258  0.4626
11678SOL    HW136475   2.380   6.287   2.471 -0.1039  0.6684  3.1551
11678SOL    HW236476   2.239   6.269   2.525 -1.4549  0.9985  0.0019
11679SOL     OW36477   1.380   2.264   8.377  0.0690 -0.6660  0.0335
11679SOL    HW136478   1.366   2.221   8.292 -2.1166 -0.9822  0.4793
11679SOL    HW236479   1.344   2.202   8.440  1.2067 -0.2084  1.1704
11680SOL     OW36480   2.200   0.080   9.163  0.5415  0.3379 -0.3976
11680SOL    HW136481   2.179   0.145   9.230  0.1145 -0.2286  0.0265
11680SOL    HW236482   2.199   0.130   9.081 -0.6005  0.7089 -0.1741
11681SOL     OW36483   0.868   5.328  10.188  0.3480 -0.1217 -0.2134
11681SOL    HW136484   0.917   5.339  10.107  0.2872 -0.7886 -0.3478
11681SOL    HW236485   0.872   5.234  10.206 -0.6037 -0.1412 -0.0558
11682SOL     OW36486   5.471   7.452   6.837  0.1618  0.2641 -0.0324
11682SOL    HW136487   5.442   7.453   6.928 -0.3997 -0.5652 -0.1962
11682SOL    HW236488   5.407   7.397   6.792  0.6818  0.3133 -0.8428
11683SOL     OW36489   3.739   0.850   5.634  0.1486  0.1386  0.3017
11683SOL    HW136490   3.706   0.848   5.723  1.2861 -2.3680  0.7675
11683SOL    HW236491   3.815   0.909   5.638 -0.6027  1.1108  0.6274
11684SOL     OW36492   6.407   3.231   8.940  0.1139  0.0385  0.0912
11684SOL    HW136493   6.367   3.252   8.856  0.6721  1.0271  0.0595
11684SOL    HW236494   6.446   3.313   8.970  0.5333 -0.4655  0.9818
11685SOL     OW36495   7.856   4.446  12.298  0.0183 -0.3881  0.3721
11685SOL    HW136496   7.870   4.449  12.203 -1.3111 -1.9878  0.0629
11685SOL    HW236497   7.764   4.421  12.307  0.6576 -2.4412  2.0284
11686SOL     OW36498   7.819   1.631   6.584  0.2084 -0.4773  0.2825
11686SOL    HW136499   7.912   1.611   6.582  0.6448  1.3369  0.6669
11686SOL    HW236500   7.810   1.711   6.532 -1.1178 -0.5588  0.3440
11687SOL     OW36501   5.688   0.605   1.878  0.3345  0.3362  0.4341
11687SOL    HW136502   5.619   0.579   1.816  0.9662 -2.2432  0.6878
11687SOL    HW236503   5.657   0.574   1.963  1.2116  0.3251  0.7637
11688SOL     OW36504   7.382   1.277   0.534  0.0541 -0.2921  0.1148
11688SOL    HW136505   7.462   1.232   0.506 -0.9843 -1.3261 -1.3995
11688SOL    HW236506   7.385   1.362   0.490  0.9429  0.2209  1.1478
11689SOL     OW36507   3.546   5.233  11.622  0.0189 -0.0753  1.1948
11689SOL    HW136508   3.504   5.147  11.629  0.8110 -0.9157 -2.2211
11689SOL    HW236509   3.638   5.213  11.609  0.1845  1.2333  0.1070
11690SOL     OW36510   7.921   0.466   6.306 -0.1233  0.3373 -0.6208
11690SOL    HW136511   7.963   0.552   6.302  2.0493 -0.6468 -0.3664
11690SOL    HW236512   7.845   0.473   6.248  1.2335  1.7886 -2.3069
11691SOL     OW36513   7.628   3.824   9.081  0.2335  0.2176  0.0731
11691SOL    HW136514   7.621   3.755   9.146 -1.8646 -0.1299 -0.4375
11691SOL    HW236515   7.578   3.897   9.117  2.0792  1.3921  0.4192
11692SOL     OW36516   4.798   3.038   7.545 -0.4630  0.2263  0.1679
11692SOL    HW136517   4.720   2.992   7.576 -0.7289  0.6543  0.1441
11692SOL    HW236518   4.764   3.119   7.507 -0.0415  0.2197 -0.2257
11693SOL     OW36519   1.666   7.345   1.094 -0.2576  0.0412 -0.1480
11693SOL    HW136520   1.689   7.318   1.183 -0.1558  0.6272  0.0028
11693SOL    HW236521   1.587   7.296   1.074 -1.0468  0.9141  0.7639
11694SOL     OW36522   3.483   4.083   4.027  0.1457 -0.0009  0.2256
11694SOL    HW136523   3.557   4.044   4.075  0.2006 -0.1759  0.0009
11694SOL    HW236524   3.413   4.088   4.091  0.7242  1.3423  0.8125
11695SOL     OW36525   7.227   0.256   7.015  0.1323 -0.1134 -0.1262
11695SOL    HW136526   7.156   0.319   7.009  0.6777  0.3924 -1.8118
11695SOL    HW236527   7.268   0.257   6.928 -0.6685 -3.7567 -0.7017
11696SOL     OW36528   4.792   1.748   8.047 -0.6059 -0.2354 -0.2830
11696SOL    HW136529   4.709   1.790   8.069 -1.8342 -1.6501 -1.8817
11696SOL    HW236530   4.807   1.771   7.955 -0.4755 -1.8202 -0.7042
11697SOL     OW36531   3.060   2.272   5.987  0.2183 -0.2397  0.2335
11697SOL    HW136532   2.998   2.318   6.044 -0.0735  0.6443 -0.7537
11697SOL    HW236533   3.056   2.181   6.015  1.4678  0.4152  2.8527
11698SOL     OW36534   5.713   0.872   2.278 -0.0530  0.0493  0.0553
11698SOL    HW136535   5.685   0.946   2.332  1.6234  1.5017 -0.9813
11698SOL    HW236536   5.681   0.893   2.190  0.8190 -0.2382 -0.3378
11699SOL     OW36537   1.719   2.902  11.959  0.3205  0.1013  0.0618
11699SOL    HW136538   1.738   2.956  11.883 -2.1566  0.0897 -0.6511
11699SOL    HW236539   1.744   2.956  12.034 -0.4392  1.5635 -0.6865
11700SOL     OW36540   7.108   0.379  11.197  0.2703 -0.0836 -0.5099
11700SOL    HW136541   7.166   0.303  11.194  0.6752  0.1519  0.8145
11700SOL    HW236542   7.048   0.366  11.124  1.8629 -0.4299 -1.8357
11701SOL     OW36543   2.711   1.225   3.950  0.3273 -0.0752  0.2579
11701SOL    HW136544   2.789   1.278   3.935  1.3064 -0.3579  3.5373
11701SOL    HW236545   2.647   1.287   3.986 -0.6887 -0.0395 -1.5022
11702SOL     OW36546   6.299   3.930  11.310  0.2921 -0.0736 -0.2129
11702SOL    HW136547   6.353   3.858  11.343 -0.9379 -0.7696  0.3367
11702SOL    HW236548   6.221   3.929  11.365 -0.6763  0.3657 -1.5311
11703SOL     OW36549   5.913   2.808   3.004  0.0056  0.2279  0.2287
11703SOL    HW136550   5.887   2.787   3.094 -0.3796  0.8367  0.2665
11703SOL    HW236551   6.009   2.812   3.007 -0.0097  0.3674  0.6434
11704SOL     OW36552   0.209   0.462   2.286  0.0989  0.4283 -0.4959
11704SOL    HW136553   0.245   0.550   2.273  1.7240 -0.0786  0.2783
11704SOL    HW236554   0.199   0.453   2.381 -0.6138 -0.0216 -0.6033
11705SOL     OW36555   7.225   5.136   5.590  0.6409  0.2347  0.3745
11705SOL    HW136556   7.157   5.077   5.558 -1.2941  1.4716  1.9441
11705SOL    HW236557   7.260   5.091   5.668 -0.8943  1.0892  1.6227
11706SOL     OW36558   2.941   7.267  11.355  0.3109 -0.1599 -0.2181
11706SOL    HW136559   2.969   7.296  11.442 -0.4342 -1.2130  0.3919
11706SOL    HW236560   2.846   7.274  11.357  0.2135 -1.2297 -0.5549
11707SOL     OW36561   4.023   1.252   3.398  0.0564 -0.5883 -0.5651
11707SOL    HW136562   4.097   1.304   3.367 -0.6516  0.7942 -0.0096
11707SOL    HW236563   3.956   1.263   3.331 -0.2810 -0.3561 -0.1913
11708SOL     OW36564   4.748   1.939  10.008  0.2302 -0.3844 -0.1254
11708SOL    HW136565   4.705   1.935   9.923 -1.0603 -0.9957  0.5121
11708SOL    HW236566   4.720   1.859  10.053  0.6943  0.0326  0.9540
11709SOL     OW36567   1.977   1.088  10.183 -0.4351  0.3328 -0.0559
11709SOL    HW136568   1.979   0.993  10.173 -2.7383  0.2836 -0.6103
11709SOL    HW236569   2.039   1.120  10.118  0.0067 -0.7694 -0.2001
11710SOL     OW36570   4.028   1.006   3.075 -0.7037  0.2831  0.3545
11710SOL    HW136571   4.074   1.004   2.991 -1.6318 -0.1572 -0.1520
11710SOL    HW236572   3.936   1.014   3.052 -0.8641  1.6530  1.3739
11711SOL     OW36573   1.767   7.456   5.279 -0.1632 -0.4918  0.5270
11711SOL    HW136574   1.858   7.486   5.278 -0.0842 -0.7201  0.8018
11711SOL    HW236575   1.720   7.524   5.329 -0.2298 -0.1419  0.0009
11712SOL     OW36576   4.480   2.012   3.955 -0.1389 -0.4026  0.2858
11712SOL    HW136577   4.511   1.995   4.044 -1.2081  0.3333  0.8192
11712SOL    HW236578   4.424   1.937   3.935  0.1839 -0.6200  0.1826
11713SOL     OW36579   2.432   2.416   4.905 -0.4298  0.0321 -0.4920
11713SOL    HW136580   2.393   2.469   4.974  0.9834 -0.1076  0.4491
11713SOL    HW236581   2.493   2.476   4.861  0.9523 -0.6987  0.3836
11714SOL     OW36582   5.308   2.745   1.760 -0.5572 -0.3729  0.0123
11714SOL    HW136583   5.359   2.754   1.679  0.8246 -0.7303  0.8157
11714SOL    HW236584   5.225   2.706   1.731 -1.0806  1.7363 -1.5446
11715SOL     OW36585   0.818   0.423   9.146  0.1914  0.5622  0.1900
11715SOL    HW136586   0.784   0.488   9.084  0.6175 -0.5116 -1.2170
11715SOL    HW236587   0.741   0.388   9.190  0.0046  2.6830  1.7340
11716SOL     OW36588   7.449   3.242   6.100 -0.4498 -0.3829  0.0363
11716SOL    HW136589   7.541   3.217   6.094 -0.7863 -1.4684 -1.2048
11716SOL    HW236590   7.442   3.289   6.182  1.4663  0.8350 -0.4394
11717SOL     OW36591   6.485   1.771   5.331  0.4559 -0.0119 -0.2636
11717SOL    HW136592   6.461   1.823   5.407  0.4030  1.9326 -1.5651
11717SOL    HW236593   6.410   1.776   5.273  1.4168  0.5688 -1.4925
11718SOL     OW36594   1.617   0.165   8.629  0.5994 -0.3423  0.5622
11718SOL    HW136595   1.549   0.201   8.572  1.0367  0.7554  0.7251
11718SOL    HW236596   1.605   0.210   8.712  2.5757  1.1735  0.1168
11719SOL     OW36597   1.910   3.966   3.684 -0.2244 -0.0288  0.7476
11719SOL    HW136598   1.894   3.902   3.753 -1.0919 -0.9274 -0.2607
11719SOL    HW236599   1.937   3.915   3.608 -1.2321  0.7352 -0.1706
11720SOL     OW36600   6.088   4.836  10.893 -0.1024 -0.0176  0.2282
11720SOL    HW136601   6.154   4.768  10.879 -0.7684 -0.6641  0.1915
11720SOL    HW236602   6.126   4.892  10.961 -0.2809 -1.4068  1.5058
11721SOL     OW36603   6.453   0.257   8.080  0.1907  0.0172  0.0135
11721SOL    HW136604   6.369   0.236   8.120  0.1129 -2.2466 -1.1689
11721SOL    HW236605   6.516   0.250   8.151 -0.4440  0.4946  0.6392
11722SOL     OW36606   6.467   5.260   7.674  0.2585  0.6522 -0.1565
11722SOL    HW136607   6.409   5.211   7.616  0.4746  0.5191 -0.2619
11722SOL    HW236608   6.555   5.240   7.643  0.4289 -0.1796  0.7903
11723SOL     OW36609   6.890   6.602   5.272  0.4112 -0.4637 -0.2701
11723SOL    HW136610   6.927   6.651   5.199 -0.7417 -0.3784 -0.8177
11723SOL    HW236611   6.841   6.667   5.322 -0.7534 -0.9502 -0.7488
11724SOL     OW36612   3.746   4.675   1.613  0.0219 -0.5164 -0.2389
11724SOL    HW136613   3.683   4.719   1.556  1.7215 -0.6476 -2.3255
11724SOL    HW236614   3.713   4.691   1.702 -2.6155 -0.1231 -1.1986
11725SOL     OW36615   5.723   5.726   7.819 -0.9239  0.4640  0.1060
11725SOL    HW136616   5.718   5.805   7.872  1.7529  0.5063  0.4574
11725SOL    HW236617   5.712   5.654   7.881  0.8102  0.5383  0.5446
11726SOL     OW36618   1.264   2.058   0.936 -0.5911  0.0460 -0.1429
11726SOL    HW136619   1.265   1.968   0.969 -1.2424  0.4360  1.0040
11726SOL    HW236620   1.175   2.070   0.903 -0.2753  0.0323 -1.0350
11727SOL     OW36621   1.176   2.953   7.349 -0.7715  0.1316 -0.3327
11727SOL    HW136622   1.163   2.879   7.290  1.4597 -0.1240 -0.6089
11727SOL    HW236623   1.238   3.010   7.303  0.8060  0.0657  1.5743
11728SOL     OW36624   1.302   6.374   1.926 -0.2170  0.8695  0.2139
11728SOL    HW136625   1.346   6.400   2.006  0.0247  1.1917 -0.0218
11728SOL    HW236626   1.215   6.344   1.955  0.6091 -1.0953  0.8392
11729SOL     OW36627   6.225   3.789  11.053 -0.1566  0.2574  0.6987
11729SOL    HW136628   6.301   3.844  11.034 -0.3206  1.0312  2.1743
11729SOL    HW236629   6.246   3.746  11.135 -1.0967  0.0817  0.8557
11730SOL     OW36630   3.709   0.761   3.617  0.4277 -0.2483  0.0274
11730SOL    HW136631   3.749   0.834   3.570  0.3240 -1.0280 -1.3024
11730SOL    HW236632   3.637   0.801   3.666  1.0140  0.6953  0.1456
11731SOL     OW36633   3.802   4.374   8.144  0.5338  0.5086  0.0831
11731SOL    HW136634   3.893   4.347   8.131  0.4042 -0.3708  0.9424
11731SOL    HW236635   3.808   4.465   8.172  1.0859  0.7617 -0.8072
11732SOL     OW36636   5.590   4.902  12.347  0.4994  0.0399  0.3749
11732SOL    HW136637   5.627   4.816  12.366  0.6401 -0.4729 -1.9672
11732SOL    HW236638   5.495   4.890  12.359  0.2930 -1.0752 -1.8605
11733SOL     OW36639   3.959   2.395   4.518 -0.1607 -0.3759 -0.4920
11733SOL    HW136640   4.045   2.364   4.489  0.0044 -0.5656  0.1810
11733SOL    HW236641   3.964   2.490   4.507 -0.3313 -0.4914 -1.6615
11734SOL     OW36642   6.762   5.684   7.662 -0.0595 -0.2737  0.3635
11734SOL    HW136643   6.701   5.727   7.721  0.3593 -1.8486  2.0071
11734SOL    HW236644   6.712   5.672   7.581 -1.2522  0.3036  0.9848
11735SOL     OW36645   5.735   3.914   9.821  0.2744 -0.5409  0.7027
11735SOL    HW136646   5.807   3.852   9.816  1.3030  0.5529  1.2204
11735SOL    HW236647   5.728   3.951   9.733  0.2883 -0.7146  0.6284
11736SOL     OW36648   6.019   7.033  10.095  0.0662  0.2693 -0.4114
11736SOL    HW136649   5.963   7.055  10.021 -0.4061 -0.8286 -0.3949
11736SOL    HW236650   5.967   7.056  10.172 -1.5373 -3.1146 -0.3041
11737SOL     OW36651   0.318   5.624  11.622  0.0942 -0.1129 -0.1119
11737SOL    HW136652   0.391   5.658  11.674  1.7821 -2.7908 -0.5165
11737SOL    HW236653   0.250   5.605  11.687  1.1747 -0.9523  0.8278
11738SOL     OW36654   4.138   2.899   0.808 -0.2469 -0.4892  0.4360
11738SOL    HW136655   4.136   2.958   0.884 -0.4523 -0.6656  0.5672
11738SOL    HW236656   4.102   2.817   0.840  1.6519 -1.2507  0.7116
11739SOL     OW36657   7.874   0.786   2.925  0.5513 -0.4350 -0.2322
11739SOL    HW136658   7.907   0.844   2.994  1.9685 -1.0968 -0.3025
11739SOL    HW236659   7.783   0.768   2.949  1.2239 -1.2648  1.9221
11740SOL     OW36660   7.096   2.945   0.412 -0.4157  0.0304 -0.0942
11740SOL    HW136661   7.031   2.953   0.343 -2.6380 -2.3835  1.5324
11740SOL    HW236662   7.078   2.860   0.453  1.9701  0.5206  2.2719
11741SOL     OW36663   7.607   3.452   0.221 -0.2422  0.0419 -0.4959
11741SOL    HW136664   7.546   3.486   0.156 -0.4564 -0.8450 -0.7815
11741SOL    HW236665   7.683   3.425   0.171  0.7295  1.8218 -0.0604
11742SOL     OW36666   5.473   7.298  11.186 -0.5544  0.1345 -0.5829
11742SOL    HW136667   5.468   7.291  11.091  1.6475  1.3532 -0.8616
11742SOL    HW236668   5.518   7.218  11.213 -0.4220  0.1744 -0.6792
11743SOL     OW36669   4.390   5.782   8.228  0.5517 -0.1702 -0.2972
11743SOL    HW136670   4.463   5.721   8.236  1.1647  0.5795 -0.1071
11743SOL    HW236671   4.430   5.869   8.230 -0.2409  0.2406 -1.2014
11744SOL     OW36672   1.553   3.716  10.301  0.3360 -0.1946  0.3908
11744SOL    HW136673   1.560   3.695  10.208  0.7797 -1.4575  0.6868
11744SOL    HW236674   1.516   3.637  10.341 -0.1221  0.4371  1.2518
11745SOL     OW36675   6.241   4.010   4.259  0.2649 -0.3143 -0.5820
11745SOL    HW136676   6.219   3.931   4.308 -1.4515 -0.3647 -1.3705
11745SOL    HW236677   6.206   4.081   4.312 -0.0358 -0.2435 -0.8725
11746SOL     OW36678   6.570   3.047   0.324  0.9715 -0.7564  0.0547
11746SOL    HW136679   6.567   2.968   0.379  0.5999 -1.0893 -0.4440
11746SOL    HW236680   6.630   3.105   0.371  1.3077 -1.3599  0.3919
11747SOL     OW36681   3.802   4.310   8.535  0.7249  0.2436  0.3940
11747SOL    HW136682   3.815   4.301   8.630  1.9361  3.1444  0.5903
11747SOL    HW236683   3.858   4.242   8.497  0.3425 -0.8610  1.7293
11748SOL     OW36684   5.281   6.061  12.189  0.1145 -0.1772  0.5403
11748SOL    HW136685   5.370   6.044  12.159  0.4194 -0.6620  1.6583
11748SOL    HW236686   5.289   6.141  12.242 -0.0612 -0.3848  0.8805
11749SOL     OW36687   7.760   1.916   9.420 -0.1799  0.2516 -0.2091
11749SOL    HW136688   7.800   1.895   9.505  0.9518  3.9945  0.3464
11749SOL    HW236689   7.668   1.931   9.441 -0.5052 -1.4697 -0.2212
11750SOL     OW36690   1.830   0.061   8.859 -0.2545 -0.3595  0.2581
11750SOL    HW136691   1.829   0.070   8.954 -0.0009 -1.3053  0.3628
11750SOL    HW236692   1.825   0.150   8.826  0.4542  0.0255  1.1667
11751SOL     OW36693   5.388   2.145   8.530 -0.0428  0.3561 -0.1891
11751SOL    HW136694   5.398   2.153   8.436 -1.6984 -0.9818 -0.5311
11751SOL    HW236695   5.323   2.212   8.553  1.1396  1.4047  0.2057
11752SOL     OW36696   1.732   3.621   6.420 -0.4929  0.0752  0.3358
11752SOL    HW136697   1.771   3.559   6.359 -0.0169  1.4545 -0.8219
11752SOL    HW236698   1.703   3.568   6.494  1.4537 -1.3203  0.1716
11753SOL     OW36699   2.719   3.351   9.346  0.1246 -0.6247 -0.2086
11753SOL    HW136700   2.645   3.408   9.367  1.0461  0.0555  1.3448
11753SOL    HW236701   2.680   3.265   9.332 -0.8904 -0.4811  1.5050
11754SOL     OW36702   0.628   6.975   6.485  0.1646 -0.5144  0.2267
11754SOL    HW136703   0.641   6.927   6.568 -0.4303 -1.5435 -0.2491
11754SOL    HW236704   0.546   6.941   6.451  0.8849 -0.8281 -1.2753
11755SOL     OW36705   7.581   6.865   3.171 -0.4520 -0.0054  0.3387
11755SOL    HW136706   7.630   6.922   3.112  1.4530 -3.4383 -1.6676
11755SOL    HW236707   7.497   6.851   3.127  1.1043 -2.8706 -2.0444
11756SOL     OW36708   3.571   2.145  10.502  0.0737  0.0439  0.2015
11756SOL    HW136709   3.617   2.168  10.422 -1.3494  0.2580 -0.5715
11756SOL    HW236710   3.489   2.195  10.499 -0.0215  0.0370  1.7702
11757SOL     OW36711   2.103   6.051   3.972  0.5706 -0.4219 -0.4824
11757SOL    HW136712   2.094   6.088   3.885  0.2645 -1.0171 -0.7137
11757SOL    HW236713   2.124   6.125   4.029  0.3994  0.0217 -0.9986
11758SOL     OW36714   0.091   0.022   8.492  0.2808  0.0510  0.2110
11758SOL    HW136715   0.128  -0.008   8.575  0.5370  0.4530  0.2417
11758SOL    HW236716   0.040  -0.053   8.461  1.4451 -0.6617 -0.0432
11759SOL     OW36717   3.931   3.584  12.231  0.5662 -0.1678  0.7278
11759SOL    HW136718   3.900   3.501  12.194 -0.2599  0.0522  0.9117
11759SOL    HW236719   3.871   3.602  12.304 -1.7269  2.4579 -1.5636
11760SOL     OW36720   7.218   7.528  12.160  0.3696  0.1141 -0.2117
11760SOL    HW136721   7.256   7.509  12.246 -1.0706 -2.9404 -0.1268
11760SOL    HW236722   7.279   7.488  12.098  0.6776  1.0869 -0.5580
11761SOL     OW36723   6.329   5.603  10.903 -0.3565 -0.5159  0.1872
11761SOL    HW136724   6.319   5.567  10.991 -0.9886  0.1915  0.4073
11761SOL    HW236725   6.246   5.647  10.885  0.4827  1.0845  0.0489
11762SOL     OW36726   5.042   7.142   2.959  0.1551  0.7999  0.5899
11762SOL    HW136727   5.006   7.057   2.937  0.9086  0.6872 -0.2775
11762SOL    HW236728   4.970   7.190   2.999 -0.3305 -0.1635  0.8928
11763SOL     OW36729   2.739   4.958   5.478 -0.7155  0.0416  0.1503
11763SOL    HW136730   2.701   5.034   5.433  0.1898 -0.1478 -0.9938
11763SOL    HW236731   2.815   4.993   5.525  1.3018 -0.4625 -2.4737
11764SOL     OW36732   5.722   5.155   1.183  0.0889  0.2913  0.5062
11764SOL    HW136733   5.772   5.162   1.265  0.6925  1.6204  0.0500
11764SOL    HW236734   5.788   5.138   1.116 -0.6623 -4.0197  0.6056
11765SOL     OW36735   5.618   7.690   9.850 -0.0956 -0.6861 -0.0867
11765SOL    HW136736   5.679   7.722   9.783  0.2050 -0.9047  0.0799
11765SOL    HW236737   5.638   7.744   9.927  0.0312 -0.8993  0.0296
11766SOL     OW36738   6.021   4.504  11.380  0.1765  0.4483  0.7681
11766SOL    HW136739   6.064   4.472  11.459 -0.8184  0.8974  1.5172
11766SOL    HW236740   6.085   4.560  11.338  0.4917  0.7482  1.6214
11767SOL     OW36741   7.437   2.751   4.860  0.1926  0.1069  0.2659
11767SOL    HW136742   7.356   2.800   4.849  1.0937  1.3120 -1.5168
11767SOL    HW236743   7.410   2.659   4.860 -1.0379  0.3546 -2.7907
11768SOL     OW36744   2.871   2.415   6.160 -0.5696 -0.8129 -0.3632
11768SOL    HW136745   2.867   2.478   6.232  0.9307 -1.5452  0.4146
11768SOL    HW236746   2.792   2.363   6.169  0.1818 -1.7346  1.6039
11769SOL     OW36747   2.234   6.931   4.725 -0.2041 -0.0435 -0.2829
11769SOL    HW136748   2.282   6.948   4.644 -0.8269  0.4508 -0.5558
11769SOL    HW236749   2.240   7.012   4.774  2.5170 -1.1595  1.4410
11770SOL     OW36750   0.809   2.897   0.289 -0.5999 -0.3620 -0.2234
11770SOL    HW136751   0.894   2.881   0.248  0.6910  0.3946  1.9882
11770SOL    HW236752   0.753   2.928   0.217  1.2345  0.0076 -1.5734
11771SOL     OW36753   7.195   7.697   7.669  0.4955 -0.0013  0.6800
11771SOL    HW136754   7.212   7.786   7.638  0.0153 -0.3295 -0.5883
11771SOL    HW236755   7.174   7.707   7.762 -0.1230  1.2765  0.4187
11772SOL     OW36756   4.473   1.660   5.404 -0.0085  0.3399  0.1148
11772SOL    HW136757   4.393   1.625   5.366  0.2924 -1.3178  0.9446
11772SOL    HW236758   4.543   1.629   5.347  0.0567  2.2399 -0.9261
11773SOL     OW36759   2.514   1.885   1.249 -0.5136  0.0665 -0.3533
11773SOL    HW136760   2.420   1.872   1.245 -0.5484 -0.4966  1.3412
11773SOL    HW236761   2.551   1.815   1.195 -1.0459 -0.6671  0.2060
11774SOL     OW36762   3.554   3.987   6.135  0.8331 -0.3416  0.0107
11774SOL    HW136763   3.506   3.904   6.135  2.4785 -1.3437  0.6311
11774SOL    HW236764   3.485   4.054   6.142 -0.5487 -1.6199 -0.7110
11775SOL     OW36765   4.911   2.486   3.759  0.0530  0.2604 -0.1887
11775SOL    HW136766   4.920   2.572   3.718  0.3920  0.1440 -0.3617
11775SOL    HW236767   4.818   2.479   3.781 -0.0773  0.4462 -0.6753
11776SOL     OW36768   3.575   0.483   9.971 -0.6022  0.1661 -0.4674
11776SOL    HW136769   3.503   0.503  10.031 -0.4622  0.1635 -0.2993
11776SOL    HW236770   3.600   0.569   9.935 -0.4496  0.2117 -0.2538
11777SOL     OW36771   0.134   1.330  10.146  0.1708 -0.4887 -0.4354
11777SOL    HW136772   0.173   1.281  10.073 -1.9611 -2.1871 -0.5459
11777SOL    HW236773   0.064   1.273  10.178 -1.3152  1.7860  0.6087
11778SOL     OW36774   5.327   6.184  10.104 -0.2232  0.2574  0.0233
11778SOL    HW136775   5.292   6.130  10.175 -0.2596  0.8445  0.4593
11778SOL    HW236776   5.388   6.126  10.057  0.3763  0.0884  0.9866
11779SOL     OW36777   6.637   2.413   9.813 -0.4884  0.1069 -0.8765
11779SOL    HW136778   6.553   2.440   9.778 -0.7639 -1.1016 -1.1823
11779SOL    HW236779   6.626   2.320   9.834  1.1005 -0.3960 -2.0381
11780SOL     OW36780   1.734   2.518   1.856 -0.3082  0.2097 -0.2009
11780SOL    HW136781   1.771   2.548   1.939  2.0077 -0.3613 -0.9602
11780SOL    HW236782   1.763   2.583   1.792 -0.7114 -0.2294 -0.8434
11781SOL     OW36783   0.095   7.392   7.608  0.0851  0.0953  0.6131
11781SOL    HW136784   0.094   7.344   7.691  0.4470  0.6997  0.9770
11781SOL    HW236785   0.160   7.346   7.555  1.1671  0.7536  1.3224
11782SOL     OW36786   3.053   6.181   1.890 -0.2075  0.2691 -0.3982
11782SOL    HW136787   3.131   6.126   1.881 -0.4148 -0.4312  1.6174
11782SOL    HW236788   3.087   6.269   1.906  0.1247  0.6350 -2.8010
11783SOL     OW36789   6.820   1.735   4.070  0.2024 -0.0468 -0.3651
11783SOL    HW136790   6.813   1.767   4.160 -1.7686 -0.8082 -0.2059
11783SOL    HW236791   6.897   1.780   4.035 -0.0175  1.6285  1.1445
11784SOL     OW36792   5.258   6.649   4.457 -0.1286 -0.4495  0.7619
11784SOL    HW136793   5.199   6.722   4.476  0.8767  0.3920  0.7454
11784SOL    HW236794   5.227   6.614   4.374 -0.8505 -0.2837  0.9537
11785SOL     OW36795   4.135   7.690   0.577  0.2291  0.8388 -0.2973
11785SOL    HW136796   4.156   7.699   0.484  0.2151  2.1615 -0.2000
11785SOL    HW236797   4.055   7.638   0.580 -0.7976  2.2987 -1.1557
11786SOL     OW36798   6.950   5.712   6.216 -0.4864  0.8542 -0.4459
11786SOL    HW136799   6.965   5.804   6.196  1.3766  0.5009 -0.7940
11786SOL    HW236800   6.947   5.708   6.312  0.4917  1.1323 -0.3977
11787SOL     OW36801   5.712   1.881   6.133 -0.3471  0.9459 -0.4235
11787SOL    HW136802   5.656   1.871   6.210 -1.2641  1.3830 -1.0179
11787SOL    HW236803   5.739   1.972   6.134  0.5937  0.6801 -0.0013
11788SOL     OW36804   7.120   1.618   5.199 -0.1053 -0.4562 -0.0687
11788SOL    HW136805   7.142   1.584   5.113 -2.7157 -0.7307 -0.7285
11788SOL    HW236806   7.196   1.598   5.254  1.1415 -1.3124 -2.0077
11789SOL     OW36807   4.281   4.004   6.581 -0.2594 -0.0304 -0.2531
11789SOL    HW136808   4.268   4.050   6.664 -2.9769 -0.0524 -0.5685
11789SOL    HW236809   4.280   3.911   6.605  0.3521 -0.0225 -0.1759
11790SOL     OW36810   0.692   2.393   1.509  0.2800 -0.0003 -0.1511
11790SOL    HW136811   0.721   2.426   1.424 -0.2851 -0.4197 -0.5104
11790SOL    HW236812   0.609   2.350   1.491  0.4651 -0.6592  0.5001
11791SOL     OW36813   2.329   4.408   4.482 -0.1282  0.0919 -0.1383
11791SOL    HW136814   2.369   4.374   4.562 -0.1601  0.5037  0.0582
11791SOL    HW236815   2.269   4.339   4.454 -0.3135  0.0539  0.3410
11792SOL     OW36816   6.315   6.011   0.277 -0.0028  0.1433 -0.3553
11792SOL    HW136817   6.369   6.058   0.213 -0.3140 -0.7178 -1.2865
11792SOL    HW236818   6.226   6.039   0.258  0.0549  1.3254  0.9786
11793SOL     OW36819   7.125   7.453   6.410  0.4502 -0.2311  0.3987
11793SOL    HW136820   7.213   7.424   6.388 -0.3008 -1.9947 -0.4680
11793SOL    HW236821   7.127   7.548   6.398  2.3437 -0.1862  0.8676
11794SOL     OW36822   2.632   4.333   8.800  0.0064  0.6686  0.0233
11794SOL    HW136823   2.683   4.361   8.724 -0.9590  0.5106 -0.7167
11794SOL    HW236824   2.647   4.401   8.866  2.9130 -0.5008  0.6781
11795SOL     OW36825   6.132   7.850   7.476 -0.4393  0.0625  0.2102
11795SOL    HW136826   6.194   7.804   7.418 -1.5353 -2.1224  0.6709
11795SOL    HW236827   6.112   7.787   7.545 -3.9705  0.2480 -0.4723
11796SOL     OW36828   2.981   2.251  11.763 -0.6080 -0.6205  0.0057
11796SOL    HW136829   3.036   2.302  11.703 -0.5868 -1.0433 -0.3475
11796SOL    HW236830   2.913   2.214  11.707 -1.4860  0.2126  0.5136
11797SOL     OW36831   3.838   0.515   2.010 -0.1905  0.0209  0.6954
11797SOL    HW136832   3.797   0.570   1.943  2.3444  1.6001  0.3052
11797SOL    HW236833   3.911   0.473   1.964 -0.2832 -1.3394  1.7524
11798SOL     OW36834   6.803   3.624   0.089  0.4003  0.1287  0.1255
11798SOL    HW136835   6.794   3.656   0.179  2.3070  0.7580  0.1505
11798SOL    HW236836   6.856   3.545   0.097 -2.8869 -2.3093 -0.1075
11799SOL     OW36837   2.475   0.653   3.823  0.9617  0.4646  0.8336
11799SOL    HW136838   2.504   0.687   3.908  0.5894  0.7971  0.8279
11799SOL    HW236839   2.395   0.604   3.843  1.3697 -0.2307  0.8089
11800SOL     OW36840   7.110   7.539   3.648  0.2217  0.0494 -0.0063
11800SOL    HW136841   7.204   7.553   3.633 -0.0665  1.9163 -0.3775
11800SOL    HW236842   7.102   7.536   3.744  0.5771  0.8243  0.0616
11801SOL     OW36843   1.341   6.674  10.231  0.0155  0.0177 -0.2029
11801SOL    HW136844   1.406   6.608  10.257 -0.7384 -0.3552  0.7568
11801SOL    HW236845   1.349   6.677  10.135  0.9149 -0.5804 -0.1645
11802SOL     OW36846   1.465   6.328   7.182  0.0208  0.3174 -0.3871
11802SOL    HW136847   1.419   6.347   7.264 -0.6780  0.5418 -0.8201
11802SOL    HW236848   1.396   6.307   7.120  0.5041  0.6210 -1.0459
11803SOL     OW36849   4.422   3.715   5.850 -0.2407 -0.1883 -0.2162
11803SOL    HW136850   4.507   3.673   5.860 -0.1567  0.0309 -0.0109
11803SOL    HW236851   4.425   3.753   5.762  0.9243  2.1560  0.7694
11804SOL     OW36852   2.021   3.625   0.940  0.3241 -0.3801 -0.8744
11804SOL    HW136853   2.015   3.535   0.969 -2.2343  0.4326  1.5202
11804SOL    HW236854   2.061   3.672   1.013 -1.2823  0.8902 -0.7513
11805SOL     OW36855   4.389   3.080  10.857 -0.1167 -0.4230  0.5697
11805SOL    HW136856   4.440   3.001  10.874 -1.3117 -0.9048  2.1326
11805SOL    HW236857   4.326   3.083  10.928 -1.6904  0.6267 -0.8028
11806SOL     OW36858   0.021   6.665   4.049  0.9220 -0.5078  0.6511
11806SOL    HW136859  -0.028   6.638   3.972 -0.2467  1.6344  0.5744
11806SOL    HW236860   0.024   6.587   4.105 -1.7992 -0.9812  0.2568
11807SOL     OW36861   1.473   1.303   5.336  0.2546  0.4223 -0.1170
11807SOL    HW136862   1.403   1.362   5.364  0.5521  0.6235  0.2120
11807SOL    HW236863   1.550   1.333   5.384  0.7971  0.8232 -1.1889
11808SOL     OW36864   1.294   1.199  10.258  0.0802  0.2723  0.1883
11808SOL    HW136865   1.226   1.244  10.207  0.3506  0.8010  0.2878
11808SOL    HW236866   1.277   1.106  10.243 -0.3763  0.4072 -0.1695
11809SOL     OW36867   5.496   3.418   3.479  0.3360  0.3714 -0.1520
11809SOL    HW136868   5.488   3.433   3.573 -0.2498  1.2274 -0.3272
11809SOL    HW236869   5.461   3.497   3.439 -0.4940 -0.4526 -1.1109
11810SOL     OW36870   6.985   4.230  10.200 -0.3311  0.1058  0.3223
11810SOL    HW136871   7.067   4.257  10.161  0.9431 -0.5332  2.3936
11810SOL    HW236872   6.962   4.300  10.261 -0.3664 -0.5282  1.0560
11811SOL     OW36873   6.065   3.774   3.129 -0.2893  0.0636 -0.5659
11811SOL    HW136874   6.068   3.695   3.183  0.6475  0.2812 -0.2986
11811SOL    HW236875   6.139   3.765   3.069 -1.0961  0.0005 -1.5932
11812SOL     OW36876   2.130   4.701   5.076 -0.9086 -0.0632 -0.3515
11812SOL    HW136877   2.191   4.726   5.006 -1.0311  0.5968 -0.2252
11812SOL    HW236878   2.053   4.756   5.062 -1.7817 -1.3959 -0.9370
11813SOL     OW36879   4.208   0.580   1.546  0.3646 -0.0083 -0.1028
11813SOL    HW136880   4.130   0.604   1.598  0.0671  1.2800 -1.0897
11813SOL    HW236881   4.174   0.521   1.478  0.5157 -0.5748  0.3006
11814SOL     OW36882   7.355   2.777   1.897 -0.0207 -0.6462  0.3161
11814SOL    HW136883   7.298   2.841   1.939 -0.2720 -0.5277 -0.1996
11814SOL    HW236884   7.325   2.692   1.931 -0.3800 -0.5706  0.1883
11815SOL     OW36885   6.105   1.662  12.281 -0.1500 -0.1236 -0.0962
11815SOL    HW136886   6.180   1.656  12.340 -0.0029 -1.7226 -0.3941
11815SOL    HW236887   6.132   1.612  12.203 -1.1665  0.0733 -0.5882
11816SOL     OW36888   6.613   2.009   4.480 -0.4997 -0.5474  0.2101
11816SOL    HW136889   6.676   2.021   4.409  0.1949 -1.4740  0.6459
11816SOL    HW236890   6.631   2.080   4.541 -1.0838  0.2376 -0.5135
11817SOL     OW36891   6.557   7.405   0.690 -0.2722 -0.2495  0.6869
11817SOL    HW136892   6.570   7.369   0.777 -0.9025 -0.2769  0.7731
11817SOL    HW236893   6.477   7.457   0.696 -1.0461 -1.2720 -0.1689
11818SOL     OW36894   6.797   2.777   5.067 -0.0449 -0.2662  0.0434
11818SOL    HW136895   6.772   2.762   4.976 -1.7279  2.1697 -0.0011
11818SOL    HW236896   6.893   2.781   5.065 -0.0838  1.0946 -1.8898
11819SOL     OW36897   2.860   6.295   4.703 -0.1535 -0.5259  0.0456
11819SOL    HW136898   2.776   6.339   4.689  0.8022  0.9920 -1.2905
11819SOL    HW236899   2.884   6.317   4.793 -1.2263 -1.0908  0.4884
11820SOL     OW36900   1.183   4.802   0.250  0.3937 -0.3342  0.8787
11820SOL    HW136901   1.236   4.824   0.327  2.3659  1.1142 -0.7794
11820SOL    HW236902   1.148   4.886   0.220  0.2153 -0.7769 -0.2087
11821SOL     OW36903   1.108   2.434   6.588  0.1043 -0.8807 -0.2618
11821SOL    HW136904   1.118   2.339   6.595 -0.0331 -1.1830 -3.1030
11821SOL    HW236905   1.192   2.465   6.555  0.1119 -0.0184  0.5421
11822SOL     OW36906   7.409   5.113   6.306 -0.4408  0.8389  0.1774
11822SOL    HW136907   7.379   5.183   6.249  0.5148  0.4425 -0.8517
11822SOL    HW236908   7.332   5.059   6.320 -0.6749  0.8769 -0.8594
11823SOL     OW36909   6.118   3.359   9.430 -0.5902  0.1355  0.0798
11823SOL    HW136910   6.123   3.331   9.338  1.1697  4.3015 -1.4049
11823SOL    HW236911   6.033   3.401   9.438 -1.0017 -0.7762  0.5890
11824SOL     OW36912   5.048   6.263   6.477  0.4683 -0.1605 -0.1797
11824SOL    HW136913   5.070   6.317   6.553  0.0501  0.8889 -0.7942
11824SOL    HW236914   5.050   6.173   6.511 -0.8293  0.3483  1.3582
11825SOL     OW36915   6.621   1.247   3.574 -0.1877 -0.6656  0.1850
11825SOL    HW136916   6.576   1.172   3.536 -2.1307  1.0686 -1.2104
11825SOL    HW236917   6.701   1.256   3.522  0.0577 -1.7525  0.3631
11826SOL     OW36918   1.351   2.404  10.628  0.0754 -0.3322  0.1294
11826SOL    HW136919   1.407   2.462  10.680 -2.5774  1.6821  1.0070
11826SOL    HW236920   1.402   2.386  10.549  1.6718  1.9678  0.5119
11827SOL     OW36921   5.421   2.052  10.303 -0.1718 -0.5769  0.2766
11827SOL    HW136922   5.408   1.999  10.382  0.4692 -1.1512  0.0049
11827SOL    HW236923   5.416   1.990  10.231 -0.5742 -0.0808 -0.1337
11828SOL     OW36924   7.359   7.380   2.645 -0.5336 -0.2922 -0.1514
11828SOL    HW136925   7.351   7.435   2.723 -0.0235  0.0483 -0.3381
11828SOL    HW236926   7.373   7.441   2.573 -0.4238 -0.6384 -0.4267
11829SOL     OW36927   3.126   4.683   1.802 -0.4319  0.0817  0.0746
11829SOL    HW136928   3.209   4.640   1.824  0.5402  1.3984 -0.8550
11829SOL    HW236929   3.070   4.613   1.768 -0.0382 -0.9876  1.5212
11830SOL     OW36930   1.067   3.700   2.584 -0.4611  0.0721 -0.0699
11830SOL    HW136931   1.012   3.669   2.512 -2.9738  2.3940  0.6466
11830SOL    HW236932   1.139   3.746   2.541 -1.5499  0.8429 -1.1715
11831SOL     OW36933   5.394   6.502   0.202  0.3361  0.0370  0.3064
11831SOL    HW136934   5.326   6.566   0.182  0.1911 -0.3402 -0.4596
11831SOL    HW236935   5.430   6.478   0.117  0.0834 -1.2259  0.5328
11832SOL     OW36936   1.273   5.219  11.257  0.4045  0.4397 -0.7894
11832SOL    HW136937   1.226   5.290  11.212 -0.7049 -0.6064 -1.3300
11832SOL    HW236938   1.260   5.142  11.201 -0.0223 -0.6292  0.7194
11833SOL     OW36939   2.270   3.434  11.296  0.3731 -0.0969  0.1601
11833SOL    HW136940   2.284   3.377  11.371  1.3085 -0.4149 -0.2479
11833SOL    HW236941   2.274   3.523  11.332  0.7292 -0.2478  0.4938
11834SOL     OW36942   2.115   0.594   6.753 -0.3250 -0.3784  0.1471
11834SOL    HW136943   2.096   0.677   6.797 -0.7092 -0.4060  0.0335
11834SOL    HW236944   2.181   0.552   6.809 -0.6544 -0.3183  0.5907
11835SOL     OW36945   0.471   6.252   0.370  0.4895  0.2532 -0.3507
11835SOL    HW136946   0.471   6.183   0.304  0.4738 -0.4693  0.3891
11835SOL    HW236947   0.504   6.329   0.324  0.4883 -0.2355 -1.1936
11836SOL     OW36948   5.964   4.139   0.662 -0.4787 -0.2726  0.5152
11836SOL    HW136949   5.936   4.061   0.709  1.9046 -1.0304  0.7889
11836SOL    HW236950   5.967   4.113   0.570  0.6934 -0.6591  0.6483
11837SOL     OW36951   5.027   1.258  10.953  0.4583 -0.0104  0.7145
11837SOL    HW136952   5.072   1.314  11.017 -0.4022  1.9437 -0.2992
11837SOL    HW236953   5.090   1.247  10.882  0.4395  0.1027  0.6805
11838SOL     OW36954   4.944   5.240  11.003 -0.3301  0.4894 -0.4249
11838SOL    HW136955   5.038   5.221  11.002 -0.2135  0.9960  0.1734
11838SOL    HW236956   4.938   5.330  10.970 -0.5938  0.4883 -0.3787
11839SOL     OW36957   6.080   5.719  11.861 -0.2825 -0.1387 -0.6184
11839SOL    HW136958   6.084   5.701  11.955 -0.9142  2.1344 -0.0725
11839SOL    HW236959   6.167   5.751  11.839 -0.6264  1.0543 -0.3472
11840SOL     OW36960   5.176   1.880   2.281  0.0516 -0.5011  0.1716
11840SOL    HW136961   5.199   1.949   2.218  0.6247 -0.4865  0.3902
11840SOL    HW236962   5.127   1.925   2.349  0.3429 -0.3224  0.2653
11841SOL     OW36963   6.899   7.038   2.416  0.1748  0.0705 -0.3062
11841SOL    HW136964   6.977   7.064   2.367  0.4160  0.7911  0.4469
11841SOL    HW236965   6.929   6.969   2.475 -0.0474 -0.5725 -0.9310
11842SOL     OW36966   4.974   4.866   4.066  0.0431  0.4558 -0.3484
11842SOL    HW136967   5.002   4.815   3.990  1.4911 -0.6753  0.8677
11842SOL    HW236968   4.878   4.866   4.061  0.0825 -0.3954 -1.6628
11843SOL     OW36969   7.682   2.712   8.742  0.1199  0.1600 -0.0779
11843SOL    HW136970   7.695   2.803   8.772  0.9754  0.4396 -1.1993
11843SOL    HW236971   7.735   2.706   8.662  0.8759 -1.6172  0.4967
11844SOL     OW36972   3.503   2.755   2.163  0.0437 -0.2571 -0.0122
11844SOL    HW136973   3.592   2.753   2.199 -0.1321 -1.0701  0.4001
11844SOL    HW236974   3.512   2.717   2.076  0.4318  1.5164 -0.8012
11845SOL     OW36975   5.214   0.805   5.387 -0.1282  0.7070 -0.0907
11845SOL    HW136976   5.262   0.887   5.400 -0.7619  0.9764  0.6538
11845SOL    HW236977   5.280   0.737   5.396  0.8789  1.1493 -2.9764
11846SOL     OW36978   4.280   3.419   8.166 -0.1958 -0.4938  0.0643
11846SOL    HW136979   4.228   3.431   8.246 -0.3732 -1.3451  0.0904
11846SOL    HW236980   4.368   3.449   8.189 -0.2059 -0.8806  0.6385
11847SOL     OW36981   1.828   3.720   3.193 -0.4658  0.3246 -0.5202
11847SOL    HW136982   1.792   3.730   3.281  1.5992 -1.3715  0.6077
11847SOL    HW236983   1.763   3.761   3.136 -2.5673  0.2288  1.6332
11848SOL     OW36984   0.959   3.818   2.242  0.2835  0.2387 -0.4595
11848SOL    HW136985   1.001   3.742   2.201 -1.1682 -0.4722 -0.7196
11848SOL    HW236986   0.975   3.890   2.181  0.9111 -0.0693 -0.6650
11849SOL     OW36987   2.059   6.621   9.314  0.4547  0.2589 -0.4577
11849SOL    HW136988   2.122   6.549   9.316  0.8659  0.6150 -0.1950
11849SOL    HW236989   2.082   6.670   9.235  1.0271  0.8358  0.0555
11850SOL     OW36990   2.695   0.906  10.112 -0.1153 -0.0663  0.3068
11850SOL    HW136991   2.644   0.889  10.033  1.5259  0.0993 -0.8174
11850SOL    HW236992   2.710   0.819  10.150  1.8332 -0.5106 -1.3455
11851SOL     OW36993   7.142   7.658   3.347  0.1344  0.2756  0.0434
11851SOL    HW136994   7.126   7.614   3.431 -0.4275  0.5697  0.0891
11851SOL    HW236995   7.199   7.732   3.370  1.2145 -0.4908 -0.0549
11852SOL     OW36996   1.887   7.426  10.238 -0.2512  0.4133  0.0800
11852SOL    HW136997   1.893   7.494  10.170  0.5815 -0.3077 -0.5967
11852SOL    HW236998   1.828   7.463  10.304  0.4751  1.9510 -0.0795
11853SOL     OW36999   0.520   0.952  10.313 -0.4056 -0.7815 -0.4116
11853SOL    HW137000   0.520   0.876  10.371  0.7439 -0.9961 -0.6589
11853SOL    HW237001   0.429   0.964  10.288 -0.6862 -1.6843  0.1377
11854SOL     OW37002   6.231   0.789   7.105 -0.9022  0.6630 -0.0381
11854SOL    HW137003   6.230   0.884   7.094  0.9731  0.7040 -0.1855
11854SOL    HW237004   6.217   0.755   7.016  2.9735  0.9142 -0.9194
11855SOL     OW37005   2.137   2.963   4.201  0.2538  0.2274  0.1487
11855SOL    HW137006   2.091   2.881   4.183 -0.3467  0.6376 -0.2104
11855SOL    HW237007   2.202   2.970   4.131  1.4162 -0.7289  1.0752
11856SOL     OW37008   5.734   7.208   2.711 -0.4527  0.1571  0.0871
11856SOL    HW137009   5.735   7.274   2.641 -1.6985 -1.6007 -1.7028
11856SOL    HW237010   5.799   7.144   2.684  0.7061  0.5465  1.7841
11857SOL     OW37011   1.095   4.792   5.784 -0.1832  0.0605 -0.8958
11857SOL    HW137012   1.069   4.791   5.692  0.3870 -0.4513 -1.0566
11857SOL    HW237013   1.104   4.885   5.805 -0.4032  0.1823 -1.3325
11858SOL     OW37014   7.266   5.086   1.384 -0.5556  0.8299  0.4105
11858SOL    HW137015   7.268   5.098   1.479  0.9268 -0.7527  0.6294
11858SOL    HW237016   7.186   5.035   1.368  0.0174 -0.2935  1.0260
11859SOL     OW37017   6.968   4.108  10.668 -0.1132 -0.1585  1.0279
11859SOL    HW137018   6.976   4.034  10.608 -0.3506  0.8479 -0.2942
11859SOL    HW237019   6.937   4.180  10.613 -0.2390  0.8316  2.3497
11860SOL     OW37020   5.033   4.913  11.621  0.2526 -0.6075 -0.1898
11860SOL    HW137021   4.951   4.923  11.669  0.2516 -0.3772 -0.2381
11860SOL    HW237022   5.100   4.942  11.683  0.1593  0.7904 -0.7029
11861SOL     OW37023   2.859   2.496   2.458 -0.1974 -0.2285  0.0319
11861SOL    HW137024   2.945   2.457   2.469 -0.0585  0.5585  2.2281
11861SOL    HW237025   2.820   2.449   2.384  1.8187 -1.0767 -0.5418
11862SOL     OW37026   0.480   1.983   6.307 -0.4545 -0.0696  0.3765
11862SOL    HW137027   0.431   1.991   6.388 -0.7211  0.8361  0.1380
11862SOL    HW237028   0.520   2.070   6.295 -0.8222 -0.0393 -0.7098
11863SOL     OW37029   1.855   2.344  11.732  0.0481 -0.0380  0.0468
11863SOL    HW137030   1.869   2.278  11.800  1.1502  0.7302  0.5938
11863SOL    HW237031   1.943   2.373  11.708 -0.3761  0.4814 -0.9425
11864SOL     OW37032   3.471   4.537   9.349  0.6160 -0.8946 -0.6141
11864SOL    HW137033   3.488   4.624   9.387 -1.1197 -1.0877  0.7411
11864SOL    HW237034   3.389   4.547   9.301 -0.4579 -2.1068  0.8638
11865SOL     OW37035   1.891   6.072   5.286 -0.1149 -0.4951 -0.1810
11865SOL    HW137036   1.905   6.165   5.304 -0.0122 -0.3452 -1.0072
11865SOL    HW237037   1.819   6.070   5.223 -0.4325 -1.0049  0.1924
11866SOL     OW37038   3.264   6.435  10.632  0.1065  0.5694  0.4754
11866SOL    HW137039   3.253   6.440  10.727  0.1164 -2.2120  0.6947
11866SOL    HW237040   3.182   6.398  10.601 -0.4855  2.7974 -0.8539
11867SOL     OW37041   4.704   1.175   0.822 -0.3762  0.7401  0.4286
11867SOL    HW137042   4.706   1.152   0.915 -1.5103  0.5913  0.4357
11867SOL    HW237043   4.618   1.214   0.809  0.2371  1.9111 -0.3105
11868SOL     OW37044   6.768   4.446   9.558  0.1492 -0.2044  0.7241
11868SOL    HW137045   6.708   4.464   9.486 -0.1554  3.2190  1.6734
11868SOL    HW237046   6.854   4.438   9.516 -0.2844 -0.2813 -0.1833
11869SOL     OW37047   0.506   4.631   0.644  0.3883 -0.6648 -0.1036
11869SOL    HW137048   0.475   4.550   0.685 -0.8465 -0.0198  0.3044
11869SOL    HW237049   0.481   4.700   0.706  0.9997  0.0756 -0.6603
11870SOL     OW37050   3.861   4.299   2.938  0.4637  0.4959 -0.3312
11870SOL    HW137051   3.881   4.215   2.896 -0.3569  0.1674 -0.0964
11870SOL    HW237052   3.838   4.357   2.866  0.2028  0.2710 -0.4324
11871SOL     OW37053   4.116   1.431   1.706 -0.3748 -0.0942  0.4662
11871SOL    HW137054   4.061   1.390   1.639 -0.5438  1.0604 -0.1157
11871SOL    HW237055   4.164   1.358   1.745 -2.3907 -1.1869  1.0903
11872SOL     OW37056   3.867   0.689   8.831 -0.6195 -0.1803  0.2607
11872SOL    HW137057   3.926   0.740   8.885 -1.4363  0.7746  0.2671
11872SOL    HW237058   3.915   0.675   8.749 -0.4203  0.7047  0.2161
11873SOL     OW37059   0.762   1.626   6.962 -0.5621  0.3524 -0.3664
11873SOL    HW137060   0.742   1.533   6.956  0.8349 -0.1156  1.3187
11873SOL    HW237061   0.748   1.648   7.055  0.7535  1.3877 -0.3764
11874SOL     OW37062   0.456   7.461   6.038 -0.3324 -0.2105  0.1060
11874SOL    HW137063   0.443   7.534   5.977 -1.1209 -0.8448 -0.5139
11874SOL    HW237064   0.471   7.385   5.981 -3.7827 -1.3756  0.5281
11875SOL     OW37065   1.474   4.697   3.748  0.7339  0.6223  0.2592
11875SOL    HW137066   1.516   4.782   3.761 -1.4256  2.0299 -1.2931
11875SOL    HW237067   1.543   4.633   3.766  3.4940  2.7381 -1.8588
11876SOL     OW37068   5.999   5.978  11.321 -0.4046  0.2887  0.2217
11876SOL    HW137069   6.077   6.026  11.349 -0.5020 -0.0728  1.1540
11876SOL    HW237070   5.927   6.017  11.371 -0.5744 -0.3979  0.5304
11877SOL     OW37071   6.553   4.518   4.139 -0.1062 -0.1587 -0.2148
11877SOL    HW137072   6.638   4.552   4.165 -0.1194  0.5271 -1.0544
11877SOL    HW237073   6.498   4.596   4.126 -0.2593 -0.4825 -1.7181
11878SOL     OW37074   4.701   3.431   8.129 -0.3900  0.3701 -0.6816
11878SOL    HW137075   4.719   3.503   8.068  1.4886 -0.1925 -0.8636
11878SOL    HW237076   4.784   3.383   8.134 -1.1662 -0.9117  0.5942
11879SOL     OW37077   4.374   6.285   2.318 -0.5859 -0.3423  0.4103
11879SOL    HW137078   4.370   6.353   2.385  2.9377  1.0231 -0.5546
11879SOL    HW237079   4.310   6.314   2.252 -0.1250  1.3172  0.6553
11880SOL     OW37080   0.407   7.387   3.102  0.0922  0.1305 -0.5176
11880SOL    HW137081   0.362   7.340   3.173 -0.0540 -0.9037 -1.2693
11880SOL    HW237082   0.447   7.463   3.145 -1.9297  0.8225  0.2748
11881SOL     OW37083   7.407   1.260   1.805 -0.4425 -0.0103 -0.0182
11881SOL    HW137084   7.450   1.279   1.888 -0.6279 -0.0024  0.0765
11881SOL    HW237085   7.320   1.301   1.813  0.3462  2.0314 -1.0918
11882SOL     OW37086   7.127   0.061   4.930 -0.9067  0.9315 -0.8082
11882SOL    HW137087   7.133   0.018   5.015  1.0170 -0.1639 -1.4388
11882SOL    HW237088   7.097   0.150   4.950 -0.9960  0.5356  0.9522
11883SOL     OW37089   5.782   1.035  12.226 -0.1269  0.8289 -0.2939
11883SOL    HW137090   5.783   0.972  12.298  0.1522 -1.5457 -2.2154
11883SOL    HW237091   5.702   1.086  12.238 -0.0377  0.5477  1.6979
11884SOL     OW37092   5.455   1.225   7.447  0.0553  0.0328  0.2169
11884SOL    HW137093   5.498   1.223   7.361  1.0511 -0.0103  0.6993
11884SOL    HW237094   5.365   1.251   7.428  0.3381  0.3246 -0.8117
11885SOL     OW37095   4.118   4.033   5.293 -0.1053  0.3253 -0.1923
11885SOL    HW137096   4.112   4.006   5.384 -0.0406 -0.0773 -0.3037
11885SOL    HW237097   4.211   4.035   5.273 -0.1328 -0.0607 -0.3818
11886SOL     OW37098   5.735   6.538   0.314 -0.3081  0.3498 -0.1300
11886SOL    HW137099   5.711   6.625   0.343  0.7739  0.0404  1.9060
11886SOL    HW237100   5.831   6.541   0.306 -0.2009 -0.7607  0.4775
11887SOL     OW37101   0.302   5.783   0.426 -0.5620 -0.3220 -0.2075
11887SOL    HW137102   0.282   5.809   0.336  0.8856  0.9646 -0.1845
11887SOL    HW237103   0.220   5.798   0.473 -0.6965  1.1850 -0.8616
11888SOL     OW37104   7.843   3.690  11.945 -0.4083  0.1552 -0.5155
11888SOL    HW137105   7.748   3.696  11.937 -0.7897  0.3241  2.8102
11888SOL    HW237106   7.863   3.597  11.935 -1.1187 -0.0731  0.1320
11889SOL     OW37107   2.654   0.203   8.276  0.1083 -0.2078 -0.1105
11889SOL    HW137108   2.730   0.170   8.323 -1.0322 -2.2776  0.4032
11889SOL    HW237109   2.600   0.243   8.344 -0.3106 -0.8090 -0.0848
11890SOL     OW37110   4.197   7.078   0.224  0.2913 -0.2718 -0.1000
11890SOL    HW137111   4.109   7.115   0.233 -0.3861 -2.0444  1.4019
11890SOL    HW237112   4.253   7.138   0.272 -0.0859  0.8789 -1.0654
11891SOL     OW37113   1.278   1.869   8.232 -0.5771  0.2576 -0.1338
11891SOL    HW137114   1.189   1.906   8.230 -0.3032  0.9509  0.2093
11891SOL    HW237115   1.314   1.891   8.146 -0.5470  0.4509 -0.0712
11892SOL     OW37116   4.417   2.986   1.847 -0.7193  0.2721  0.3722
11892SOL    HW137117   4.340   3.024   1.889 -0.8254 -1.1502  1.5338
11892SOL    HW237118   4.383   2.913   1.795 -0.0153 -1.6056  2.4306
11893SOL     OW37119   6.566   3.875  11.181  0.1977  0.4882 -0.0037
11893SOL    HW137120   6.493   3.815  11.195 -0.2742  1.2181  0.7439
11893SOL    HW237121   6.642   3.829  11.219 -0.0783  0.1991  0.2077
11894SOL     OW37122   6.360   5.336  12.047  0.2827  0.0787 -0.1266
11894SOL    HW137123   6.322   5.329  12.135 -0.7871  1.0397 -0.4963
11894SOL    HW237124   6.444   5.379  12.061  0.3991 -0.3292  0.4909
11895SOL     OW37125   0.177   3.654  11.410  0.3423 -0.4535 -0.1706
11895SOL    HW137126   0.100   3.679  11.461  0.0466  0.8543 -1.2139
11895SOL    HW237127   0.205   3.735  11.367  2.4682 -0.8444  0.3825
11896SOL     OW37128   4.341   5.203   5.306  0.5667  0.8329  0.5411
11896SOL    HW137129   4.302   5.124   5.343  1.0296  0.2956 -0.0911
11896SOL    HW237130   4.390   5.241   5.379  0.3500  0.5301  0.8506
11897SOL     OW37131   5.001   3.647   4.584  0.4928 -0.7058 -0.1099
11897SOL    HW137132   4.974   3.558   4.563 -1.1528 -0.2999  0.0979
11897SOL    HW237133   4.921   3.689   4.616  1.3190  0.7337  0.1644
11898SOL     OW37134   6.810   1.909   9.879 -0.1246  0.3993 -0.6608
11898SOL    HW137135   6.827   1.859   9.959  0.2392  0.5753 -0.6270
11898SOL    HW237136   6.835   1.999   9.900 -0.2741  0.4956 -0.8884
11899SOL     OW37137   4.026   1.984  10.641 -0.5757 -0.1071  0.5095
11899SOL    HW137138   4.000   1.995  10.550 -1.5597 -0.8202  0.6892
11899SOL    HW237139   3.950   2.012  10.692 -0.6848 -1.3349  1.0728
11900SOL     OW37140   3.487   1.473   0.659 -0.4285  0.0677 -0.6432
11900SOL    HW137141   3.505   1.495   0.751 -0.6752  2.2142 -1.0640
11900SOL    HW237142   3.536   1.392   0.644 -1.8725 -1.3895  1.8676
11901SOL     OW37143   6.157   7.582   1.391 -0.1819 -0.2445  0.6501
11901SOL    HW137144   6.217   7.623   1.454 -1.2165  0.8476  0.9498
11901SOL    HW237145   6.120   7.508   1.439 -0.4039  0.1354  1.0707
11902SOL     OW37146   3.619   5.336   8.504  0.2308  0.2052 -0.4343
11902SOL    HW137147   3.602   5.426   8.476  0.4116  0.7735  1.1570
11902SOL    HW237148   3.542   5.312   8.556  0.9941  0.1540  0.7288
11903SOL     OW37149   0.939   7.265   5.471  0.2851 -0.1204 -0.3983
11903SOL    HW137150   1.006   7.283   5.537  1.8775 -0.3241 -1.8866
11903SOL    HW237151   0.951   7.333   5.405 -0.4899 -0.6090 -1.0672
11904SOL     OW37152   6.813   1.606  12.301  0.7979  0.3070  0.0184
11904SOL    HW137153   6.862   1.682  12.332 -0.5574  1.5917 -0.8127
11904SOL    HW237154   6.770   1.572  12.379  1.2758  0.5042  0.3739
11905SOL     OW37155   2.851   2.243  11.464  0.1997  0.4789  0.2842
11905SOL    HW137156   2.938   2.218  11.431 -0.1745  1.6052 -1.7368
11905SOL    HW237157   2.790   2.194  11.411 -0.4287  1.8606 -0.3234
11906SOL     OW37158   1.019   4.188   0.222 -0.1500  0.0335  0.1268
11906SOL    HW137159   0.954   4.117   0.225  0.3682 -0.4983 -0.7686
11906SOL    HW237160   0.977   4.256   0.169 -0.2030 -0.0787  0.0223
11907SOL     OW37161   6.859   4.461  10.618  0.0874  1.1653 -0.7792
11907SOL    HW137162   6.931   4.466  10.555 -0.9280  1.6760 -1.9311
11907SOL    HW237163   6.785   4.500  10.573 -0.9443  0.5892  0.3602
11908SOL     OW37164   5.693   0.099   5.808 -0.8518  0.6858  0.2400
11908SOL    HW137165   5.625   0.041   5.841 -0.6380  1.4793  2.2960
11908SOL    HW237166   5.719   0.062   5.724 -0.4684 -2.4072  1.5730
11909SOL     OW37167   3.694   7.273   8.496  0.6310 -0.1341 -0.0968
11909SOL    HW137168   3.651   7.188   8.488 -1.2853  0.6878  0.8034
11909SOL    HW237169   3.694   7.292   8.590  0.3410  1.1650 -0.3316
11910SOL     OW37170   5.232   1.424   0.215  0.2830 -0.1615 -0.1460
11910SOL    HW137171   5.304   1.476   0.178 -1.2865  0.2874 -2.8168
11910SOL    HW237172   5.259   1.408   0.306  2.3334  2.5644 -0.1278
11911SOL     OW37173   5.300   7.026  11.388  0.1917  0.4637  0.4477
11911SOL    HW137174   5.389   7.043  11.360  0.4854 -0.6594  0.6399
11911SOL    HW237175   5.263   6.971  11.319 -0.4813  1.2413  0.1783
11912SOL     OW37176   7.412   6.745   8.393  0.3572 -0.3778 -0.0584
11912SOL    HW137177   7.474   6.680   8.425  1.1725 -0.4827 -1.7610
11912SOL    HW237178   7.406   6.729   8.299 -0.5217  1.1040 -0.2880
11913SOL     OW37179   2.204   0.068   9.604  0.4853  0.4575 -0.1124
11913SOL    HW137180   2.191   0.024   9.688  0.7569 -0.5847 -0.6026
11913SOL    HW237181   2.229  -0.002   9.544 -0.7135  1.0179 -1.3115
11914SOL     OW37182   0.504   2.635   7.980  0.4436  0.0693  0.1751
11914SOL    HW137183   0.496   2.607   8.071  0.8559  0.9873  0.4971
11914SOL    HW237184   0.596   2.618   7.958  0.1713 -0.8463 -0.3121
11915SOL     OW37185   3.168   5.578   1.683 -0.1389  0.3407 -0.1816
11915SOL    HW137186   3.152   5.643   1.613 -1.4328 -1.5520 -1.7530
11915SOL    HW237187   3.084   5.532   1.691  0.4784 -0.5325  1.5509
11916SOL     OW37188   3.762   1.085   0.354  0.0497  0.0384  0.2099
11916SOL    HW137189   3.846   1.120   0.324 -0.4058 -0.8279 -2.2636
11916SOL    HW237190   3.715   1.161   0.388  1.2523  0.7902  0.2576
11917SOL     OW37191   0.592   4.386   5.359  0.8101  0.1026  0.2788
11917SOL    HW137192   0.517   4.419   5.309 -0.2218 -1.0521  1.0073
11917SOL    HW237193   0.553   4.327   5.423  2.3367 -0.3015  0.8611
11918SOL     OW37194   3.765   3.865   3.589 -0.3362  0.1379  0.9186
11918SOL    HW137195   3.686   3.810   3.589  0.2949 -0.7946  0.8396
11918SOL    HW237196   3.809   3.844   3.507 -0.5210  1.4495  0.4557
11919SOL     OW37197   3.428   6.777   6.663 -0.0830  0.1668  0.1594
11919SOL    HW137198   3.399   6.863   6.632  1.4517  0.5902 -0.1687
11919SOL    HW237199   3.412   6.718   6.589  0.8456  0.6057 -0.4076
11920SOL     OW37200   4.041   6.823   1.411  0.0994  0.0996 -0.1418
11920SOL    HW137201   4.039   6.918   1.409 -0.8740  0.1287  1.0714
11920SOL    HW237202   4.123   6.801   1.455  0.0090  0.4007  0.1775
11921SOL     OW37203   2.866   2.510   1.389 -0.6542  0.0363 -0.1101
11921SOL    HW137204   2.906   2.501   1.475 -0.7416 -0.0275 -0.0763
11921SOL    HW237205   2.933   2.553   1.335 -0.6668  0.2437  0.0389
11922SOL     OW37206   3.291   6.547  11.981 -0.4519  0.2328  0.3008
11922SOL    HW137207   3.316   6.483  12.048  0.6866 -0.0939 -0.4068
11922SOL    HW237208   3.240   6.496  11.918  1.0799 -0.2060 -0.6508
11923SOL     OW37209   2.534   7.636   7.321  0.4566 -0.1358  0.0193
11923SOL    HW137210   2.572   7.722   7.336 -0.3262  0.2462 -0.1562
11923SOL    HW237211   2.598   7.591   7.266  1.4497 -0.1199  1.1317
11924SOL     OW37212   6.699   4.782   6.623  0.2095  0.0356 -0.3293
11924SOL    HW137213   6.779   4.752   6.667 -0.2588  0.9309  1.2038
11924SOL    HW237214   6.647   4.702   6.613  0.5946 -0.2912  0.1948
11925SOL     OW37215   3.441   7.054   6.164  0.2432  0.1264  0.2136
11925SOL    HW137216   3.459   7.106   6.242 -0.2278 -3.9207  3.3336
11925SOL    HW237217   3.393   7.113   6.106 -1.2002  2.8623  3.8428
11926SOL     OW37218   7.636   4.444   9.865  0.4045  0.3768  0.1753
11926SOL    HW137219   7.592   4.529   9.862 -1.3635 -0.4829  0.0746
11926SOL    HW237220   7.727   4.463   9.846  0.2076  2.3468  0.9701
11927SOL     OW37221   5.887   6.752   3.496  0.4626  0.3051  0.4834
11927SOL    HW137222   5.967   6.702   3.480 -0.3273 -0.3847 -1.6627
11927SOL    HW237223   5.830   6.691   3.543  0.5226  0.1662  0.3778
11928SOL     OW37224   1.237   2.720   1.970  0.1275  0.4173  0.0330
11928SOL    HW137225   1.152   2.764   1.977  0.4251  0.8605  1.0629
11928SOL    HW237226   1.300   2.791   1.959  0.6558  0.3336  2.0952
11929SOL     OW37227   0.562   2.403  12.148 -0.4330  0.1407  0.2127
11929SOL    HW137228   0.603   2.391  12.062 -3.0021 -0.4419 -1.0549
11929SOL    HW237229   0.583   2.493  12.173  0.1184  0.4219 -1.1853
11930SOL     OW37230   0.199   4.360   1.711 -0.2927  0.0115 -0.0757
11930SOL    HW137231   0.133   4.398   1.769  0.5992  1.8753 -0.2159
11930SOL    HW237232   0.274   4.343   1.767 -0.4451 -0.9739 -0.1480
11931SOL     OW37233   5.275   0.103   9.325  0.2764 -0.4713  0.0638
11931SOL    HW137234   5.342   0.037   9.343 -0.5987 -1.0277  1.5409
11931SOL    HW237235   5.322   0.186   9.326  1.2187 -0.9871 -0.6935
11932SOL     OW37236   0.962   2.292   9.025 -0.3353  0.0936 -0.4152
11932SOL    HW137237   0.878   2.335   9.009 -0.4484 -0.8221 -2.7238
11932SOL    HW237238   0.942   2.224   9.090 -1.5377 -0.4492 -1.3061
11933SOL     OW37239   1.718   5.692   7.689 -0.1036 -0.0449 -0.0077
11933SOL    HW137240   1.781   5.726   7.626 -0.6038  3.1026  1.0100
11933SOL    HW237241   1.749   5.725   7.774 -1.0937 -1.6427  1.0448
11934SOL     OW37242   2.342   3.883  12.146 -0.4876 -0.0499 -0.3238
11934SOL    HW137243   2.336   3.859  12.053  1.0017  1.2938 -0.7976
11934SOL    HW237244   2.279   3.954  12.157  0.2425  0.6510 -0.6185
11935SOL     OW37245   5.021   7.825   7.874 -0.4764  0.2140 -0.4584
11935SOL    HW137246   4.989   7.741   7.907  0.1837  0.1976  0.1537
11935SOL    HW237247   4.963   7.845   7.800 -0.5655 -0.8306 -0.6848
11936SOL     OW37248   4.526   1.428   7.961 -0.0713  0.1630  0.3894
11936SOL    HW137249   4.526   1.487   8.037  0.2631 -1.1241  1.4127
11936SOL    HW237250   4.435   1.428   7.930 -0.0786  1.2106  0.3448
11937SOL     OW37251   5.138   1.333   9.203  0.4505 -0.1953 -0.6272
11937SOL    HW137252   5.135   1.249   9.158 -2.8204  0.2906 -1.5757
11937SOL    HW237253   5.153   1.397   9.133  1.0942  0.1759 -0.1630
11938SOL     OW37254   1.676   1.197  12.107  0.4833 -0.0627  0.1297
11938SOL    HW137255   1.629   1.241  12.036  1.1488  1.5942  0.6798
11938SOL    HW237256   1.642   1.107  12.105 -1.0679  0.4957 -0.9001
11939SOL     OW37257   6.360   6.225  11.993  0.1131  0.1641  0.4203
11939SOL    HW137258   6.401   6.184  11.917  0.0032 -0.1330  0.5210
11939SOL    HW237259   6.284   6.272  11.957 -1.8628 -2.6046  0.7034
11940SOL     OW37260   2.313   3.531   6.864 -0.2247  0.5453 -0.6015
11940SOL    HW137261   2.223   3.499   6.873 -0.0283 -0.2090 -1.1888
11940SOL    HW237262   2.348   3.481   6.791  1.2710 -0.5615  0.8074
11941SOL     OW37263   2.663   0.594   0.390 -0.2298  0.2902  0.0793
11941SOL    HW137264   2.718   0.671   0.378  0.7943 -0.1173  1.7536
11941SOL    HW237265   2.574   0.628   0.398 -0.0040  1.1281 -0.8107
11942SOL     OW37266   0.395   7.719   6.403 -0.3788 -0.2307 -0.0441
11942SOL    HW137267   0.397   7.624   6.399 -0.4224 -0.2017 -1.1730
11942SOL    HW237268   0.439   7.747   6.322  0.8498  0.7193  0.9091
11943SOL     OW37269   5.145   4.766   6.381 -0.2331  0.2319  0.2592
11943SOL    HW137270   5.070   4.724   6.339 -1.0425 -1.0384  2.7938
11943SOL    HW237271   5.107   4.813   6.455  1.1912  2.0123 -0.0599
11944SOL     OW37272   0.769   1.914   0.511  0.0057 -0.6443  0.5113
11944SOL    HW137273   0.817   1.974   0.454  0.9301 -1.1079  0.7795
11944SOL    HW237274   0.790   1.827   0.478 -0.1390 -0.8781  1.0232
11945SOL     OW37275   0.110   3.305   9.037  0.2243  0.0543 -0.1327
11945SOL    HW137276   0.192   3.322   8.991  1.0538  0.2697  1.3722
11945SOL    HW237277   0.112   3.211   9.055  0.6624  0.2370  0.8312
11946SOL     OW37278   2.212   1.836   4.475  0.2111 -0.3034 -0.4265
11946SOL    HW137279   2.204   1.815   4.568  1.0652 -0.7238 -0.4366
11946SOL    HW237280   2.162   1.917   4.464  0.8281  0.2281  0.5740
11947SOL     OW37281   5.876   6.358   2.326 -0.1730  0.4328 -0.1183
11947SOL    HW137282   5.865   6.442   2.369 -0.2652  0.7291 -0.7030
11947SOL    HW237283   5.799   6.308   2.351 -0.1848  0.5687  0.1212
11948SOL     OW37284   6.372   7.816   7.671 -0.0870  0.2382 -0.6632
11948SOL    HW137285   6.321   7.758   7.728  1.5940 -0.2326  0.4419
11948SOL    HW237286   6.306   7.865   7.622 -1.6003 -0.0419  0.9802
11949SOL     OW37287   0.299   3.728  10.819 -0.0149 -0.3460  0.2620
11949SOL    HW137288   0.221   3.783  10.812 -0.8794 -1.4916  0.7161
11949SOL    HW237289   0.355   3.774  10.882 -0.4118  0.3634  0.1018
11950SOL     OW37290   2.358   5.174  10.391  0.5552 -0.0557  0.5407
11950SOL    HW137291   2.432   5.114  10.389  0.7268  0.1433 -1.2281
11950SOL    HW237292   2.303   5.147  10.317 -1.6056 -0.7183  2.2971
11951SOL     OW37293   6.339   5.346  10.279  0.1197 -1.0490 -0.3996
11951SOL    HW137294   6.342   5.310  10.190  0.3017 -2.7529  0.2532
11951SOL    HW237295   6.378   5.277  10.333 -1.5985 -0.7989  1.2294
11952SOL     OW37296   5.288   1.340   3.756 -0.0235  0.0075  0.2259
11952SOL    HW137297   5.195   1.316   3.750  0.2565 -1.6990  1.7343
11952SOL    HW237298   5.330   1.286   3.689 -0.2032  1.6610 -1.2964
11953SOL     OW37299   1.841   4.923  10.405  0.2011 -0.7025 -0.4624
11953SOL    HW137300   1.808   5.008  10.433  0.2090 -0.9373  0.2743
11953SOL    HW237301   1.935   4.925  10.425  0.2473 -0.7952 -0.6651
11954SOL     OW37302   1.264   4.482   6.891 -0.5885 -0.1960 -0.1435
11954SOL    HW137303   1.246   4.552   6.953 -0.3619 -0.5449  0.3205
11954SOL    HW237304   1.259   4.524   6.805  1.3651  0.8159  0.1785
11955SOL     OW37305   6.871   4.711  11.319  0.3527 -0.0548  0.0464
11955SOL    HW137306   6.948   4.755  11.356 -0.8758  0.8905  1.5770
11955SOL    HW237307   6.899   4.620  11.310  1.3950  0.0823  1.3930
11956SOL     OW37308   3.824   5.097   9.115 -0.3321  0.0409  0.1281
11956SOL    HW137309   3.850   5.190   9.114 -1.2245  0.2991 -1.0251
11956SOL    HW237310   3.840   5.069   9.205  1.4838  0.8664  0.0999
11957SOL     OW37311   2.791   7.695   4.523  0.5601  0.2120 -0.6338
11957SOL    HW137312   2.794   7.772   4.465  0.1118  0.4523 -0.3492
11957SOL    HW237313   2.882   7.670   4.534  0.5959 -0.6178 -2.4626
11958SOL     OW37314   2.813   2.281   7.024  0.3003  0.4221  0.0972
11958SOL    HW137315   2.765   2.310   6.947 -1.7370 -0.4640  0.9518
11958SOL    HW237316   2.817   2.185   7.015  1.5793  0.4442  0.2607
11959SOL     OW37317   6.647   4.574   2.050 -0.3498  0.4131 -0.1900
11959SOL    HW137318   6.589   4.620   2.111  0.7952  0.7353  0.6743
11959SOL    HW237319   6.589   4.511   2.007 -1.0229 -0.5851  1.9892
11960SOL     OW37320   0.443   2.214   7.263  0.0551 -0.0860 -0.0218
11960SOL    HW137321   0.420   2.184   7.175 -3.1238  2.3804 -0.1943
11960SOL    HW237322   0.455   2.308   7.254  3.1148 -0.1934  1.6712
11961SOL     OW37323   1.399   2.340   6.202 -0.2872 -0.4117  0.3739
11961SOL    HW137324   1.451   2.283   6.145 -1.7688 -0.0619 -1.4144
11961SOL    HW237325   1.313   2.297   6.207 -1.5935  1.7700 -1.4024
11962SOL     OW37326   0.039   7.563   0.000 -0.0341  0.4967 -0.6131
11962SOL    HW137327   0.015   7.477   0.034 -0.8232  1.0704  0.3689
11962SOL    HW237328  -0.044   7.606  -0.017  0.3013  1.6205  0.4243
11963SOL     OW37329   6.951   1.432   7.456  0.0847  0.0564 -0.0623
11963SOL    HW137330   7.003   1.368   7.505 -2.7310 -1.7084  0.8786
11963SOL    HW237331   6.952   1.401   7.366  1.2146  0.4780 -0.2113
11964SOL     OW37332   4.493   2.392  11.426  0.1959 -0.4855 -0.3163
11964SOL    HW137333   4.572   2.421  11.471 -1.9496  2.1901  2.1011
11964SOL    HW237334   4.486   2.449  11.350 -0.1258  0.3298  0.3067
11965SOL     OW37335   2.011   4.594   4.443  1.0102 -0.9559  0.1906
11965SOL    HW137336   1.997   4.519   4.501 -1.2538 -1.8698 -1.4248
11965SOL    HW237337   1.945   4.585   4.375  1.0450  2.1965 -0.4160
11966SOL     OW37338   4.032   6.816   9.658 -1.1620  0.5233 -0.0534
11966SOL    HW137339   3.945   6.850   9.677 -0.2500  2.2460  1.3699
11966SOL    HW237340   4.051   6.844   9.569 -2.4441 -0.7894 -0.7696
11967SOL     OW37341   4.033   1.252  10.807 -0.4968  0.7114  0.2739
11967SOL    HW137342   4.075   1.305  10.739 -0.4412 -0.7032 -0.8307
11967SOL    HW237343   4.022   1.166  10.768 -0.4086 -0.1837  2.0873
11968SOL     OW37344   5.282   7.824  11.983 -0.0986  0.2041  0.0190
11968SOL    HW137345   5.273   7.733  11.955  1.5113  0.1990 -0.5661
11968SOL    HW237346   5.265   7.875  11.904  0.0353  0.3735  0.0983
11969SOL     OW37347   0.512   5.654   4.246 -0.0004 -0.4721 -0.7258
11969SOL    HW137348   0.501   5.559   4.255 -0.8409 -0.3291 -0.0767
11969SOL    HW237349   0.583   5.664   4.183  1.0750 -1.5408  0.2493
11970SOL     OW37350   0.313   4.078  12.298 -0.2641 -0.2644 -0.3465
11970SOL    HW137351   0.355   4.071  12.384  0.8075 -0.4326 -0.8739
11970SOL    HW237352   0.355   4.010  12.245 -1.5073 -0.7279 -0.7791
11971SOL     OW37353   0.089   3.808   1.819  0.0853  0.2987  0.1528
11971SOL    HW137354   0.178   3.820   1.850  0.4362 -0.1865 -0.6125
11971SOL    HW237355   0.049   3.748   1.882  1.4512 -2.4234 -1.3526
11972SOL     OW37356   3.801   5.966  11.066  0.0032  0.1875 -0.1371
11972SOL    HW137357   3.759   6.038  11.114 -2.3418 -0.5696 -0.9355
11972SOL    HW237358   3.823   5.902  11.133  0.6841  0.9487  0.3914
11973SOL     OW37359   0.195   0.115   1.385 -0.6949  0.3222 -0.0260
11973SOL    HW137360   0.256   0.091   1.454  0.1455 -0.4160 -0.9929
11973SOL    HW237361   0.210   0.050   1.316  0.5948  2.7074 -2.1459
11974SOL     OW37362   1.815   3.432   2.530  0.1834  0.5039 -0.6275
11974SOL    HW137363   1.904   3.400   2.517 -0.1777  0.2918 -2.8797
11974SOL    HW237364   1.760   3.354   2.524 -0.1005  0.2030  3.1836
11975SOL     OW37365   2.649   3.395  10.179  0.0300  0.1107 -1.4470
11975SOL    HW137366   2.635   3.307  10.144  1.3130  0.3154 -2.5676
11975SOL    HW237367   2.742   3.398  10.200 -0.6066  0.0171  2.1290
11976SOL     OW37368   0.570   6.726   0.610  0.0718  0.0751  0.3742
11976SOL    HW137369   0.478   6.738   0.631  0.3348 -1.7307  3.0606
11976SOL    HW237370   0.574   6.734   0.514 -2.7448  0.7156  0.2214
11977SOL     OW37371   2.312   5.577   6.961 -0.8316 -0.3255 -0.2759
11977SOL    HW137372   2.268   5.619   6.888 -1.2985  1.5578  1.0120
11977SOL    HW237373   2.245   5.567   7.028 -0.1634 -0.9389  0.3267
11978SOL     OW37374   5.924   1.475  12.002  0.5440  1.0032  0.2075
11978SOL    HW137375   5.876   1.485  12.084  2.7636  1.3222  1.5457
11978SOL    HW237376   5.879   1.533  11.941 -0.1225  2.1208  1.6951
11979SOL     OW37377   6.997   6.134   4.540 -0.4341 -0.2462 -0.4978
11979SOL    HW137378   7.079   6.163   4.579 -1.0969 -1.2048  1.7593
11979SOL    HW237379   6.933   6.137   4.612 -1.6537 -2.4660 -1.3954
11980SOL     OW37380   5.844   6.798   4.029  0.5672 -0.4833 -0.2839
11980SOL    HW137381   5.855   6.801   4.124 -1.6802  3.0566  0.0223
11980SOL    HW237382   5.929   6.826   3.995  0.3081  2.0636  0.9291
11981SOL     OW37383   3.099   7.640   0.228  0.2656 -0.0520  0.0960
11981SOL    HW137384   3.184   7.666   0.193 -0.0966 -0.8240 -1.4832
11981SOL    HW237385   3.117   7.611   0.317  1.9229 -1.4380 -0.6297
11982SOL     OW37386   1.124   1.356   4.415 -0.0980 -0.1246  0.1668
11982SOL    HW137387   1.038   1.397   4.428  0.4552  0.9205  0.6412
11982SOL    HW237388   1.167   1.363   4.500  0.7970  0.1702 -0.2992
11983SOL     OW37389   5.742   3.958   3.802 -0.0418  0.4974 -0.4999
11983SOL    HW137390   5.711   4.038   3.846 -0.6270  0.5403 -0.9632
11983SOL    HW237391   5.717   3.971   3.710  2.0234  0.8434 -1.0508
11984SOL     OW37392   1.075   3.043   7.027  0.4342 -0.1214 -1.0114
11984SOL    HW137393   1.070   2.950   7.050 -0.2574  0.0092 -0.5866
11984SOL    HW237394   1.111   3.085   7.105 -1.0045  0.1951 -0.4765
11985SOL     OW37395   5.120   6.397  10.730  0.0061  0.3892 -0.3434
11985SOL    HW137396   5.213   6.380  10.745 -0.0634  0.0025 -0.3213
11985SOL    HW237397   5.098   6.467  10.792 -0.0585 -0.5372  0.7293
11986SOL     OW37398   5.127   2.531   4.681 -0.3963 -0.3039  0.6431
11986SOL    HW137399   5.069   2.606   4.689  1.5003  1.1174  1.8791
11986SOL    HW237400   5.183   2.535   4.758  0.9864 -1.9232 -0.2022
11987SOL     OW37401   6.860   4.663  12.238 -0.5876  0.5999  0.3791
11987SOL    HW137402   6.849   4.586  12.181 -1.3731  0.7186  0.3624
11987SOL    HW237403   6.913   4.723  12.187 -1.5823  0.8527 -0.3912
11988SOL     OW37404   1.778   6.045   4.374 -0.4350  0.0339  0.1059
11988SOL    HW137405   1.855   5.989   4.382  0.0756  0.7280  0.1891
11988SOL    HW237406   1.806   6.118   4.319 -1.1338  0.1312 -0.1401
11989SOL     OW37407   2.242   3.252   7.560 -1.0617  0.1793  0.0692
11989SOL    HW137408   2.304   3.179   7.548 -0.5471  0.9444 -2.5081
11989SOL    HW237409   2.156   3.211   7.554 -0.7840 -0.3403 -0.5217
11990SOL     OW37410   6.463   2.824   6.574  0.3238 -0.5189  0.2277
11990SOL    HW137411   6.474   2.766   6.499 -1.6717 -0.3454 -0.2621
11990SOL    HW237412   6.376   2.802   6.609  0.5999  0.4208  1.5938
11991SOL     OW37413   2.972   3.299   5.977 -0.1580 -0.3260 -0.1372
11991SOL    HW137414   3.039   3.257   6.031 -0.3153  0.8822  1.0531
11991SOL    HW237415   2.937   3.228   5.923  1.3146 -1.1938 -0.0113
11992SOL     OW37416   3.985   4.107   8.480 -0.2715 -0.0922 -0.8396
11992SOL    HW137417   3.997   4.056   8.560  1.2260  0.9766 -0.3229
11992SOL    HW237418   4.074   4.131   8.454 -0.7890  0.2965 -2.3675
11993SOL     OW37419   3.313   5.047   7.756 -0.3363  0.5637 -0.5509
11993SOL    HW137420   3.355   4.970   7.717 -0.2018  0.5102 -0.2987
11993SOL    HW237421   3.373   5.119   7.738 -0.1316  0.4859 -0.1838
11994SOL     OW37422   4.447   3.282   3.460 -0.1214 -0.0941  0.1666
11994SOL    HW137423   4.522   3.330   3.496 -1.3891  0.9278  1.5684
11994SOL    HW237424   4.484   3.198   3.434  2.1497  1.5069 -2.2524
11995SOL     OW37425   1.320   2.958   4.080 -0.1014  0.5411  0.0224
11995SOL    HW137426   1.335   2.949   3.985  0.1826 -0.7412  0.1673
11995SOL    HW237427   1.342   2.872   4.115  1.5724  1.5184  1.4963
11996SOL     OW37428   1.314   7.645   1.496 -0.4568 -0.5206 -0.7124
11996SOL    HW137429   1.366   7.685   1.565 -0.9485 -0.5327 -0.3318
11996SOL    HW237430   1.350   7.556   1.488  1.4546  0.3324 -2.4051
11997SOL     OW37431   2.346   2.442   9.466 -0.2864 -0.7344  0.7495
11997SOL    HW137432   2.295   2.462   9.544  1.6032 -0.9886  2.1295
11997SOL    HW237433   2.374   2.527   9.432  1.1732 -0.6829  1.9966
11998SOL     OW37434   6.349   4.936   0.830  0.4486  0.2620  0.0783
11998SOL    HW137435   6.395   5.019   0.831 -0.3417  0.7351 -0.8967
11998SOL    HW237436   6.264   4.956   0.790 -0.8648 -0.4641  2.3303
11999SOL     OW37437   5.254   1.762   9.382  0.0564  0.1128 -0.3386
11999SOL    HW137438   5.197   1.685   9.386 -0.4825  0.4020 -1.8130
11999SOL    HW237439   5.228   1.815   9.457 -2.2723  0.6244 -1.4077
12000SOL     OW37440   2.041   7.057  11.731  0.2035 -0.5471 -0.5644
12000SOL    HW137441   2.129   7.090  11.713  0.1908  0.8121  1.4737
12000SOL    HW237442   1.988   7.087  11.657  0.9545  0.9907 -0.5268
12001SOL     OW37443   4.835   4.308   9.764  0.0305  0.0892 -0.1546
12001SOL    HW137444   4.748   4.341   9.784  0.5237  0.7573  0.9673
12001SOL    HW237445   4.828   4.275   9.675 -0.9749  1.5595 -0.6627
12002SOL     OW37446   2.351   0.927   5.669 -0.3891 -0.1148  0.0835
12002SOL    HW137447   2.352   0.883   5.584  0.4962  0.1665 -0.0600
12002SOL    HW237448   2.325   1.017   5.649  0.6341  0.1715 -0.0118
12003SOL     OW37449   1.421   4.280   0.881 -0.1901 -0.4542 -0.4216
12003SOL    HW137450   1.411   4.221   0.956 -1.7583  1.0512  0.6359
12003SOL    HW237451   1.484   4.237   0.824 -0.6921 -2.7527  0.6731
12004SOL     OW37452   6.009   6.970   0.869  0.6064  0.2879 -0.2063
12004SOL    HW137453   5.944   6.904   0.892  0.4400  0.9065  1.1444
12004SOL    HW237454   5.960   7.051   0.861  0.9150  0.3865 -1.1941
12005SOL     OW37455   2.993   5.469   3.986  0.4069 -0.0523 -0.4084
12005SOL    HW137456   2.929   5.440   3.921 -0.8592  0.2148  0.6890
12005SOL    HW237457   3.054   5.524   3.937 -1.3997  1.4039 -1.1002
12006SOL     OW37458   5.841   2.146  10.614  0.2215  0.4827 -0.0619
12006SOL    HW137459   5.924   2.186  10.590  0.3804  0.0420 -0.2623
12006SOL    HW237460   5.787   2.155  10.536  0.9149 -1.4270 -0.8259
12007SOL     OW37461   7.534   0.489   6.920  0.1037 -0.0645 -0.1415
12007SOL    HW137462   7.595   0.437   6.973  0.3154 -0.0110 -0.3322
12007SOL    HW237463   7.463   0.428   6.900 -1.8088  0.8475  3.1769
12008SOL     OW37464   4.370   6.109   5.216  0.3528  0.1340  0.2067
12008SOL    HW137465   4.368   6.091   5.310  0.5559 -0.0466  0.1761
12008SOL    HW237466   4.313   6.041   5.178 -1.0197  1.1644  0.3539
12009SOL     OW37467   6.766   2.778   4.794 -0.0621 -0.4326 -0.3448
12009SOL    HW137468   6.815   2.850   4.755  0.2752 -1.3743 -1.7520
12009SOL    HW237469   6.750   2.718   4.721 -2.4990 -0.6221  0.2450
12010SOL     OW37470   6.538   0.976   4.194  0.1535 -0.1861 -0.2574
12010SOL    HW137471   6.559   1.005   4.105  3.3557 -0.7577  0.2122
12010SOL    HW237472   6.481   0.900   4.181 -0.4913  0.4964 -1.7384
12011SOL     OW37473   1.951   1.405   4.590 -0.0867 -0.5951 -0.0268
12011SOL    HW137474   1.946   1.465   4.665 -2.2566  0.6348 -1.0238
12011SOL    HW237475   1.945   1.318   4.628  2.2069 -0.1939  1.4133
12012SOL     OW37476   0.796   4.789   9.357  0.5047 -0.3453 -0.2397
12012SOL    HW137477   0.828   4.775   9.446 -0.5700  0.0414  0.2237
12012SOL    HW237478   0.801   4.883   9.344  0.1769 -0.3498 -0.4050
12013SOL     OW37479   2.581   1.016   7.833  0.4624 -0.0837  0.4165
12013SOL    HW137480   2.613   1.089   7.780  3.4512 -0.9967  0.7382
12013SOL    HW237481   2.556   1.055   7.917  1.6696  0.6502  0.4569
12014SOL     OW37482   5.634   3.767   7.034 -0.1470 -0.5002 -0.4783
12014SOL    HW137483   5.594   3.741   6.952  1.4782 -0.8806 -1.1768
12014SOL    HW237484   5.724   3.789   7.012  0.1853 -0.0795  1.1137
12015SOL     OW37485   5.976   0.110   8.069 -0.0515 -0.5090 -0.0806
12015SOL    HW137486   6.001   0.195   8.104 -0.7339 -0.0543 -0.6715
12015SOL    HW237487   5.947   0.060   8.145  0.8656 -0.4120  0.3493
12016SOL     OW37488   7.863   4.999   3.303 -0.5310  0.3154 -0.5931
12016SOL    HW137489   7.828   4.915   3.332 -0.2665  0.6783  0.8641
12016SOL    HW237490   7.808   5.064   3.347 -0.7728  0.9311 -1.7478
12017SOL     OW37491   1.134   7.690   2.320 -0.5306 -0.4509 -0.0860
12017SOL    HW137492   1.129   7.757   2.388  1.9397  2.3119 -2.3322
12017SOL    HW237493   1.145   7.740   2.239 -1.2783 -3.6068 -2.2921
12018SOL     OW37494   4.702   0.815   3.733  0.6567 -0.6190  0.5425
12018SOL    HW137495   4.621   0.771   3.711  0.0721  0.9077 -0.5158
12018SOL    HW237496   4.691   0.842   3.824 -0.3163  0.1578  0.2085
12019SOL     OW37497   4.613   3.059   4.277 -0.1658 -0.8297 -0.2365
12019SOL    HW137498   4.538   3.015   4.236  0.9429 -2.1874 -0.8849
12019SOL    HW237499   4.591   3.152   4.274 -1.5701 -1.1566 -0.9309
12020SOL     OW37500   4.554   0.411   2.993 -0.1467  0.5164 -0.0557
12020SOL    HW137501   4.630   0.422   2.936 -0.2218 -0.0523 -0.2757
12020SOL    HW237502   4.483   0.457   2.949 -0.2263  0.0058 -0.4744
12021SOL     OW37503   5.533   4.542   4.956 -0.4468  0.1462  0.2113
12021SOL    HW137504   5.549   4.624   5.003 -3.1728  0.3972  0.8456
12021SOL    HW237505   5.443   4.549   4.925  0.6838 -0.6875 -3.8066
12022SOL     OW37506   0.824   6.403   9.192  0.0655 -0.3461  0.0935
12022SOL    HW137507   0.774   6.442   9.264 -2.1570 -2.8332  0.0251
12022SOL    HW237508   0.790   6.445   9.114  0.4639  0.3233  0.2709
12023SOL     OW37509   7.479   0.306   4.505 -0.0061  0.2320  0.3615
12023SOL    HW137510   7.407   0.255   4.468  0.1132 -1.3418  2.1769
12023SOL    HW237511   7.456   0.397   4.484 -3.0045 -0.1302  1.6055
12024SOL     OW37512   7.348   7.492   5.928  0.1811 -0.4034  0.2965
12024SOL    HW137513   7.310   7.551   5.863  1.9418  0.8521  0.3496
12024SOL    HW237514   7.430   7.534   5.955 -0.0268 -1.3238  2.6666
12025SOL     OW37515   1.399   0.285   9.272 -0.4855 -0.0241  0.5669
12025SOL    HW137516   1.331   0.218   9.279  0.0613 -0.7295 -0.4335
12025SOL    HW237517   1.377   0.333   9.192  0.8491 -1.0859 -0.4928
12026SOL     OW37518   0.813   0.266  11.560 -0.0566 -0.1927 -0.6538
12026SOL    HW137519   0.868   0.243  11.635 -2.0295  2.0410  1.6609
12026SOL    HW237520   0.756   0.191  11.548  0.4734 -0.6954 -0.1122
12027SOL     OW37521   7.312   0.755   2.851  0.3094 -0.2591 -0.2674
12027SOL    HW137522   7.276   0.842   2.872  1.5832  0.3211 -0.3911
12027SOL    HW237523   7.375   0.772   2.780  0.4256 -1.3170 -0.4293
12028SOL     OW37524   4.040   5.278   0.444  0.1558  0.2322 -0.6642
12028SOL    HW137525   4.025   5.282   0.539  0.8392  0.4822 -0.5618
12028SOL    HW237526   4.101   5.204   0.433 -0.0974  0.0621 -0.9352
12029SOL     OW37527   7.449   5.693   8.720 -1.0096 -0.1107  0.0029
12029SOL    HW137528   7.450   5.739   8.636 -0.6531 -0.6225 -0.2742
12029SOL    HW237529   7.386   5.742   8.773 -0.2385  1.0316 -0.0953
12030SOL     OW37530   5.834   4.150  10.111 -0.0715 -0.2761  0.5191
12030SOL    HW137531   5.828   4.062  10.074  0.1089  0.1240 -0.4828
12030SOL    HW237532   5.925   4.160  10.137 -0.2967 -0.7330  1.5688
12031SOL     OW37533   0.702   0.860   3.341  0.5744  0.6116 -0.0056
12031SOL    HW137534   0.725   0.942   3.298 -0.6678  0.6166 -0.6976
12031SOL    HW237535   0.707   0.794   3.272  1.0670  0.1833  0.4309
12032SOL     OW37536   6.471   5.452   5.046 -0.1278 -1.0028 -0.0823
12032SOL    HW137537   6.490   5.509   5.121 -2.1637 -1.4930  0.8949
12032SOL    HW237538   6.556   5.436   5.006  0.7141  1.3782  0.5691
12033SOL     OW37539   6.494   4.052   2.072  0.0329  0.9538 -0.8128
12033SOL    HW137540   6.449   4.072   1.990 -1.5588  0.6039 -0.0564
12033SOL    HW237541   6.455   4.112   2.136  1.0533  1.0288 -0.2475
12034SOL     OW37542   2.736   1.310  12.129 -0.2121 -0.1559  0.5294
12034SOL    HW137543   2.664   1.372  12.136  0.9685  1.3894 -0.4520
12034SOL    HW237544   2.710   1.252  12.056  0.1016  1.2444 -0.7461
12035SOL     OW37545   3.005   4.037   7.040 -0.3367  0.6322  0.1583
12035SOL    HW137546   2.981   4.009   6.952  0.4693 -1.4421  0.5436
12035SOL    HW237547   2.951   3.982   7.098 -0.0091  1.1379  0.9665
12036SOL     OW37548   1.248   5.491   6.404 -0.2178 -0.0332 -0.3151
12036SOL    HW137549   1.252   5.550   6.329 -3.0477  0.0174 -0.5357
12036SOL    HW237550   1.244   5.403   6.365  0.1868 -0.1417 -0.1236
12037SOL     OW37551   2.655   2.247   6.264  0.1928 -0.5297  0.2724
12037SOL    HW137552   2.577   2.198   6.235  0.5382 -1.1880  0.4479
12037SOL    HW237553   2.720   2.179   6.284  1.2073  0.0370 -0.9583
12038SOL     OW37554   7.116   3.635   9.731 -0.0191 -0.1028 -0.3242
12038SOL    HW137555   7.055   3.562   9.743  0.3411 -0.2811  0.5033
12038SOL    HW237556   7.201   3.599   9.757 -0.0611  0.9936  1.4164
12039SOL     OW37557   2.143   1.730   6.532  0.3904  0.4747 -0.1439
12039SOL    HW137558   2.078   1.781   6.482  2.2919  1.4216 -1.8001
12039SOL    HW237559   2.107   1.641   6.534 -1.4302  1.1609 -0.0949
12040SOL     OW37560   5.065   3.203   4.879 -0.7101  0.8762 -0.1095
12040SOL    HW137561   5.074   3.162   4.965 -3.2609 -1.8770 -1.0098
12040SOL    HW237562   4.986   3.257   4.887  1.5255  4.4415  0.4601
12041SOL     OW37563   7.628   4.458   7.749  0.1367  0.4058 -0.2349
12041SOL    HW137564   7.722   4.465   7.731 -0.0382  1.7226 -0.7396
12041SOL    HW237565   7.588   4.519   7.688 -0.8415  1.8537  1.7530
12042SOL     OW37566   1.280   1.656  11.046 -0.1764 -0.0808 -0.1130
12042SOL    HW137567   1.357   1.703  11.013 -1.3412  2.5325  0.6071
12042SOL    HW237568   1.285   1.570  11.005  2.3121  0.5147 -1.2534
12043SOL     OW37569   1.215   3.383   3.526  0.6046 -0.3025  0.4538
12043SOL    HW137570   1.205   3.478   3.525 -0.9242 -0.3267 -2.9107
12043SOL    HW237571   1.180   3.355   3.441  2.5647 -3.7292  0.5942
12044SOL     OW37572   5.461   4.092   2.098  0.1079  0.1905  0.6705
12044SOL    HW137573   5.419   4.032   2.037  0.6881  1.9092 -1.5296
12044SOL    HW237574   5.554   4.077   2.087  0.3043 -2.1358  4.0233
12045SOL     OW37575   2.824   6.426  12.343 -0.1450  0.2575 -0.5731
12045SOL    HW137576   2.758   6.470  12.397  0.3921 -0.3011  0.5881
12045SOL    HW237577   2.860   6.358  12.400 -0.6752 -1.4606 -2.1828
12046SOL     OW37578   0.796   4.105   0.532  0.0876 -0.0991  0.2893
12046SOL    HW137579   0.859   4.083   0.601 -1.0304 -1.1529  1.0155
12046SOL    HW237580   0.828   4.057   0.455  0.0414 -0.8248  0.7168
12047SOL     OW37581   7.042   4.120   7.601 -0.0321 -0.1376 -0.5223
12047SOL    HW137582   7.050   4.025   7.596 -1.2238 -0.2864  0.1981
12047SOL    HW237583   7.005   4.145   7.516 -3.0451 -0.7404  0.4723
12048SOL     OW37584   0.852   5.475   4.745  0.1460  0.2083 -0.4703
12048SOL    HW137585   0.931   5.471   4.799  0.2895 -2.4536 -0.7331
12048SOL    HW237586   0.816   5.562   4.761  2.5781  1.1336  0.4263
12049SOL     OW37587   7.613   4.929   6.251  0.0903  0.5067 -0.2554
12049SOL    HW137588   7.685   4.991   6.249  0.9295 -0.3470  1.4350
12049SOL    HW237589   7.538   4.981   6.280  0.8024  0.7537  1.2378
12050SOL     OW37590   5.344   0.333   5.012 -0.5560 -0.2285  0.6245
12050SOL    HW137591   5.372   0.408   4.959 -0.6454  0.2213  1.2133
12050SOL    HW237592   5.315   0.371   5.095  0.7873 -1.0388  1.5009
12051SOL     OW37593   7.833   3.185   8.309 -0.0490  0.1550 -0.3833
12051SOL    HW137594   7.912   3.152   8.352 -0.8468 -1.8399 -0.3604
12051SOL    HW237595   7.859   3.200   8.218  0.0413 -1.8210 -0.7136
12052SOL     OW37596   0.310   0.813   9.577  0.2936  0.8644  0.2292
12052SOL    HW137597   0.327   0.776   9.664  0.7100 -0.0563 -0.2329
12052SOL    HW237598   0.305   0.737   9.520 -0.3711  1.4431 -0.4946
12053SOL     OW37599   5.582   2.415   8.163  0.5425  0.8117 -0.2123
12053SOL    HW137600   5.502   2.420   8.112  1.7716  0.1746 -2.3169
12053SOL    HW237601   5.604   2.506   8.183 -0.3218  1.0238 -0.2161
12054SOL     OW37602   6.296   0.872   0.800 -0.6994 -0.2458  0.0443
12054SOL    HW137603   6.226   0.806   0.803 -0.8219 -0.1303 -0.2644
12054SOL    HW237604   6.377   0.822   0.799 -0.7755 -0.3785  0.5608
12055SOL     OW37605   4.278   3.018   2.659  0.0630  0.0150 -0.0265
12055SOL    HW137606   4.301   3.095   2.608 -0.0944 -0.4529 -0.8123
12055SOL    HW237607   4.235   3.053   2.737  1.6101  0.7970  0.5154
12056SOL     OW37608   0.575   7.564   9.030 -0.1570 -1.0283 -0.0310
12056SOL    HW137609   0.633   7.549   9.104  0.4458  1.4398  0.0750
12056SOL    HW237610   0.497   7.605   9.068 -0.1932 -0.4937 -0.6495
12057SOL     OW37611   3.368   4.452   3.426  0.2117 -0.0227 -0.4451
12057SOL    HW137612   3.340   4.402   3.349 -0.8515  1.5571 -1.1387
12057SOL    HW237613   3.458   4.478   3.406  0.0921  0.0090 -0.9746
12058SOL     OW37614   4.258   6.538   3.287 -0.2513 -0.0027 -0.4275
12058SOL    HW137615   4.287   6.565   3.200 -1.0316  0.3354 -0.5936
12058SOL    HW237616   4.205   6.460   3.270  0.8951 -0.8911 -0.0836
12059SOL     OW37617   0.108   5.352  10.938 -0.0908  0.0201 -0.2797
12059SOL    HW137618   0.160   5.344  11.019  1.3343 -0.8646 -1.2346
12059SOL    HW237619   0.018   5.363  10.969  0.2804 -1.2702  1.4454
12060SOL     OW37620   6.819   1.061  10.173  0.2946 -1.0015  0.2514
12060SOL    HW137621   6.801   1.155  10.161  0.1178 -1.0471  0.1654
12060SOL    HW237622   6.914   1.057  10.184  0.2703 -0.7759  0.5811
12061SOL     OW37623   3.279   7.749   9.544 -0.3387 -0.1461  0.1539
12061SOL    HW137624   3.232   7.797   9.476 -0.6438 -1.2560 -0.4500
12061SOL    HW237625   3.235   7.773   9.626 -0.8071  0.2066 -0.1965
12062SOL     OW37626   6.711   4.171   0.287  0.3650  0.0014  0.4858
12062SOL    HW137627   6.709   4.260   0.251  1.4424  0.5096  1.6303
12062SOL    HW237628   6.646   4.123   0.235  1.2525  0.9131 -1.5611
12063SOL     OW37629   7.740   2.370  10.218  0.5939 -0.0862 -0.0491
12063SOL    HW137630   7.714   2.279  10.204  1.1479 -0.1618 -0.6708
12063SOL    HW237631   7.819   2.365  10.270  1.6525 -0.0658 -1.5923
12064SOL     OW37632   3.116   6.774   1.024 -0.0787  0.1602 -0.0980
12064SOL    HW137633   3.086   6.690   0.990  0.3560 -0.3724  0.8116
12064SOL    HW237634   3.126   6.829   0.946  0.3922 -0.8664 -0.7880
12065SOL     OW37635   0.788   6.389   3.294 -0.8206  0.0579 -0.5137
12065SOL    HW137636   0.798   6.429   3.208 -1.1213  1.1841 -0.0371
12065SOL    HW237637   0.847   6.439   3.350  0.8383 -1.8591 -0.4043
12066SOL     OW37638   4.430   5.326   9.943 -0.1184  0.0135 -0.0663
12066SOL    HW137639   4.363   5.357   9.882  0.0008 -1.5699 -1.0414
12066SOL    HW237640   4.510   5.371   9.914 -0.0939 -0.6150 -1.0000
12067SOL     OW37641   1.083   4.827   1.028 -0.0901  0.2630 -0.1765
12067SOL    HW137642   1.177   4.814   1.010 -0.1654 -0.1391 -0.2983
12067SOL    HW237643   1.051   4.880   0.956  0.0430  0.4019 -0.1343
12068SOL     OW37644   0.143   4.859  10.367  0.1533  0.5861  0.3492
12068SOL    HW137645   0.137   4.830  10.276 -0.7871 -0.0668  0.6068
12068SOL    HW237646   0.225   4.820  10.398 -1.0507 -1.8856  0.6704
12069SOL     OW37647   6.616   1.631   7.752  0.5029  0.3344 -0.2264
12069SOL    HW137648   6.692   1.679   7.786 -0.3916  1.0974  0.7632
12069SOL    HW237649   6.557   1.700   7.720 -0.3627 -0.1570  0.2838
12070SOL     OW37650   6.303   6.073   2.480  0.2101 -0.0587  0.1467
12070SOL    HW137651   6.293   6.046   2.389  0.2777 -0.7689  0.3441
12070SOL    HW237652   6.300   6.169   2.478  1.4602 -0.0229 -0.7541
12071SOL     OW37653   0.331   6.592   3.411  0.1148 -0.0488 -0.8143
12071SOL    HW137654   0.237   6.587   3.424  0.4501 -1.3575  2.0652
12071SOL    HW237655   0.357   6.503   3.387  0.7473 -0.1162  0.0451
12072SOL     OW37656   0.190   5.682   7.264  0.3234  0.5155 -0.1310
12072SOL    HW137657   0.165   5.745   7.197  1.5162 -0.1549 -1.2574
12072SOL    HW237658   0.272   5.717   7.300  0.2598  0.3201  0.2060
12073SOL     OW37659   7.262   5.883   3.957 -0.0187 -0.0722  0.4351
12073SOL    HW137660   7.295   5.805   3.913  1.2781  0.6919  0.0023
12073SOL    HW237661   7.168   5.883   3.940 -0.0280 -1.4901  0.3891
12074SOL     OW37662   6.450   5.794   0.367  0.1639 -0.2765  0.6693
12074SOL    HW137663   6.419   5.875   0.326  0.5304 -0.1980  0.5368
12074SOL    HW237664   6.421   5.800   0.458 -1.6761 -0.9878  0.1789
12075SOL     OW37665   7.222   0.830   7.658 -0.0214  0.1454 -0.3501
12075SOL    HW137666   7.234   0.923   7.637 -1.5436  0.8236  1.4624
12075SOL    HW237667   7.178   0.831   7.743  0.2762 -2.2688 -0.1105
12076SOL     OW37668   3.292   7.860   5.595  0.2242  0.0112  0.0722
12076SOL    HW137669   3.276   7.839   5.503  1.6216 -1.1653  0.0507
12076SOL    HW237670   3.206   7.855   5.636 -0.5512  1.3171 -1.2852
12077SOL     OW37671   3.681   6.585   4.140 -0.0996 -0.2053 -0.0883
12077SOL    HW137672   3.760   6.598   4.088  0.1647  1.7191  0.7050
12077SOL    HW237673   3.624   6.657   4.114 -0.2953  0.3090  1.6572
12078SOL     OW37674   1.229   7.274   8.800  0.7902 -0.2215  0.0625
12078SOL    HW137675   1.147   7.246   8.760  0.9158 -0.8346  0.2201
12078SOL    HW237676   1.263   7.340   8.740 -1.0361  1.9220  1.2648
12079SOL     OW37677   3.383   5.617  11.304 -0.2442  0.2973  0.2270
12079SOL    HW137678   3.442   5.542  11.291  0.4359  0.7544  0.6403
12079SOL    HW237679   3.419   5.663  11.379 -0.0442  1.6346 -0.6694
12080SOL     OW37680   1.586   5.005   0.960 -0.6934 -0.1382 -0.7505
12080SOL    HW137681   1.616   4.959   1.039  1.0805  1.3789 -0.4674
12080SOL    HW237682   1.492   5.018   0.974 -1.4285 -4.0216 -1.0995
12081SOL     OW37683   2.692   4.528   5.209 -0.4085 -0.7017  0.3498
12081SOL    HW137684   2.755   4.512   5.139 -0.6743 -0.8333  0.1406
12081SOL    HW237685   2.727   4.604   5.256 -1.4820  0.9536 -1.3961
12082SOL     OW37686   0.925   3.387  11.832  0.1215 -0.3001 -0.7353
12082SOL    HW137687   0.955   3.297  11.827 -0.4805 -0.4802 -1.1410
12082SOL    HW237688   1.004   3.440  11.818  0.8724 -0.7175  1.4102
12083SOL     OW37689   3.659   6.630  12.149 -0.4242  0.2698 -0.2146
12083SOL    HW137690   3.609   6.549  12.148 -0.0169 -0.1964  3.4823
12083SOL    HW237691   3.598   6.695  12.185 -0.0966  1.1051 -1.1333
12084SOL     OW37692   3.113   6.382   2.791  0.0676  0.2241  0.9374
12084SOL    HW137693   3.153   6.358   2.875 -0.1987  1.0464  1.3032
12084SOL    HW237694   3.108   6.477   2.793  1.4682  0.3785 -0.6560
12085SOL     OW37695   2.269   5.875   1.000 -0.0441  0.7228  0.2128
12085SOL    HW137696   2.246   5.966   0.980 -1.8384  0.2581  0.0661
12085SOL    HW237697   2.306   5.841   0.919 -3.1737  0.1594 -1.1288
12086SOL     OW37698   6.914   7.288   7.400  0.4194 -0.4149 -0.1966
12086SOL    HW137699   7.009   7.298   7.396  0.2422  1.6250 -0.6848
12086SOL    HW237700   6.886   7.349   7.467 -0.6570  0.2389 -1.1924
12087SOL     OW37701   5.697   2.956   6.571 -0.1680  0.1058  0.2592
12087SOL    HW137702   5.790   2.968   6.589  0.1957 -0.3592 -1.1500
12087SOL    HW237703   5.678   2.866   6.599  0.0058 -0.0667 -0.1652
12088SOL     OW37704   1.570   0.776   9.590 -0.3398  0.4069  0.2624
12088SOL    HW137705   1.531   0.827   9.660 -0.1450 -0.1882  0.8173
12088SOL    HW237706   1.585   0.839   9.519 -2.1210  0.6861  0.0945
12089SOL     OW37707   0.402   6.846   3.810  0.0682 -0.5011  0.1254
12089SOL    HW137708   0.441   6.807   3.732 -0.3430  0.7788 -0.7471
12089SOL    HW237709   0.310   6.859   3.788 -0.0308 -0.0155  0.7870
12090SOL     OW37710   7.803   1.478   0.098  0.2938 -0.2452 -0.4540
12090SOL    HW137711   7.789   1.571   0.077  0.3140 -0.5236 -1.7839
12090SOL    HW237712   7.771   1.469   0.188 -0.1507  0.9517 -0.4680
12091SOL     OW37713   6.855   5.515  11.361  0.4860 -0.4964 -0.4044
12091SOL    HW137714   6.893   5.440  11.407  0.5250 -0.3736 -0.2366
12091SOL    HW237715   6.861   5.492  11.269 -2.2306 -2.0407 -0.2927
12092SOL     OW37716   0.698   5.319   3.648 -0.0675 -0.0138 -0.5835
12092SOL    HW137717   0.698   5.287   3.557 -0.4214  1.0612 -0.9755
12092SOL    HW237718   0.745   5.402   3.644 -0.6850  0.3747  0.0953
12093SOL     OW37719   1.239   4.304  11.767  0.3859 -0.4848 -0.5595
12093SOL    HW137720   1.325   4.290  11.807 -0.3883 -2.3147  0.5827
12093SOL    HW237721   1.193   4.361  11.828 -0.1803 -1.8426  0.3172
12094SOL     OW37722   4.877   4.574   2.252  0.0967  0.1341 -0.0599
12094SOL    HW137723   4.825   4.580   2.171 -0.7240  2.9139  0.5586
12094SOL    HW237724   4.964   4.604   2.226 -0.0659  0.6555 -0.0247
12095SOL     OW37725   5.739   1.376   4.034  0.3824  0.7321  0.3663
12095SOL    HW137726   5.644   1.386   4.035  0.2947  0.2782 -1.3102
12095SOL    HW237727   5.772   1.458   3.999  0.3689 -0.2205 -2.0786
12096SOL     OW37728   1.686   0.824   0.610 -0.5541 -0.0135  0.6496
12096SOL    HW137729   1.755   0.830   0.543 -0.7267  1.4280  0.5816
12096SOL    HW237730   1.658   0.732   0.606  1.4497 -0.6973  0.7878
12097SOL     OW37731   4.846   3.960   2.477 -0.2759  0.3745  0.4050
12097SOL    HW137732   4.839   3.893   2.545 -0.2309 -0.9860 -0.8591
12097SOL    HW237733   4.757   3.991   2.465 -0.7838 -1.3309 -0.7178
12098SOL     OW37734   2.491   6.401   6.681 -0.0564 -0.1023 -0.1686
12098SOL    HW137735   2.466   6.384   6.590  0.2047  1.2594 -0.5185
12098SOL    HW237736   2.437   6.341   6.732  0.9557 -2.0500 -1.2898
12099SOL     OW37737   4.436   2.130   9.902 -0.2214  0.6719 -0.4219
12099SOL    HW137738   4.402   2.219   9.892  0.6917  1.0667 -0.0833
12099SOL    HW237739   4.466   2.105   9.815 -1.9631  0.0531 -0.8873
12100SOL     OW37740   0.445   3.352   3.505 -0.2489 -0.0674  0.4187
12100SOL    HW137741   0.436   3.379   3.414 -0.1822 -1.1774  0.0657
12100SOL    HW237742   0.442   3.256   3.502 -0.9766 -0.1028  1.6665
12101SOL     OW37743   2.528   2.227   9.450  0.3823 -0.0030  0.3376
12101SOL    HW137744   2.475   2.150   9.473  0.8715 -0.0009  1.5646
12101SOL    HW237745   2.469   2.301   9.466  0.3287 -0.0662  0.4373
12102SOL     OW37746   0.323   5.651   2.366 -0.0783 -0.2146 -0.4656
12102SOL    HW137747   0.349   5.590   2.298  0.8082 -1.5944  1.0276
12102SOL    HW237748   0.313   5.596   2.444 -0.1524  1.4292  0.7224
12103SOL     OW37749   2.603   2.289   3.449 -0.4035  0.8298  0.2688
12103SOL    HW137750   2.686   2.291   3.402 -0.7466 -1.1349 -0.5209
12103SOL    HW237751   2.628   2.271   3.540  0.0268 -1.3524 -0.2208
12104SOL     OW37752   5.742   3.496   4.022 -0.1300  0.2892 -0.0909
12104SOL    HW137753   5.725   3.545   3.941 -1.1652 -0.5717 -0.4249
12104SOL    HW237754   5.656   3.479   4.059  0.2515 -0.4866  0.4861
12105SOL     OW37755   5.833   4.615   9.775 -0.1540  0.0799 -0.2805
12105SOL    HW137756   5.770   4.644   9.709  0.3573 -0.0033 -0.8125
12105SOL    HW237757   5.801   4.530   9.805 -0.0993 -0.1237 -0.8063
12106SOL     OW37758   0.239   5.503   5.179 -0.4290  0.3918 -0.2321
12106SOL    HW137759   0.266   5.563   5.109 -0.6934  1.3749  0.4750
12106SOL    HW237760   0.319   5.459   5.205 -0.4970 -0.8060 -1.8645
12107SOL     OW37761   3.374   5.219   0.503 -0.1869  0.2342  0.0270
12107SOL    HW137762   3.434   5.232   0.430 -1.1323  0.4040 -0.7404
12107SOL    HW237763   3.423   5.165   0.565  1.5514  2.1667  0.4474
12108SOL     OW37764   6.325   4.893   5.530  0.0925  0.8625  0.2198
12108SOL    HW137765   6.316   4.958   5.460  0.9794  0.0913 -0.6320
12108SOL    HW237766   6.420   4.876   5.535 -0.1579 -0.6944  0.1181
12109SOL     OW37767   7.388   5.979   0.215  0.3209 -0.1554  0.2702
12109SOL    HW137768   7.428   6.045   0.157 -1.1505 -1.0596 -1.9374
12109SOL    HW237769   7.319   6.027   0.261  0.3115  0.2105 -0.1101
12110SOL     OW37770   7.840   0.892   1.027 -0.1622  0.3432  0.8113
12110SOL    HW137771   7.838   0.930   0.939  0.3747  0.6917  0.9471
12110SOL    HW237772   7.910   0.939   1.072 -0.2506 -0.0252  1.3413
12111SOL     OW37773   5.568   1.770   6.899 -0.2310 -0.0620  0.0504
12111SOL    HW137774   5.638   1.708   6.921  0.9471  0.8314 -1.0633
12111SOL    HW237775   5.488   1.716   6.900  0.2955 -0.9155  2.2451
12112SOL     OW37776   6.449   5.523   3.327 -0.0047 -0.1178 -0.4301
12112SOL    HW137777   6.429   5.577   3.404 -0.1202  0.4197 -0.8306
12112SOL    HW237778   6.477   5.439   3.364 -1.1901 -0.2649  0.1717
12113SOL     OW37779   4.062   4.323   3.629  0.4834 -0.9426 -0.3640
12113SOL    HW137780   4.002   4.327   3.703  1.3702 -1.9032  0.4310
12113SOL    HW237781   4.045   4.237   3.589  0.9558 -0.9924 -0.4599
12114SOL     OW37782   3.120   1.634   6.610 -0.4561  0.7845  0.4873
12114SOL    HW137783   3.025   1.634   6.619 -0.4348 -1.9456  1.6270
12114SOL    HW237784   3.142   1.544   6.587  1.7868  1.6606 -1.1317
12115SOL     OW37785   5.584   5.360   9.619  0.1619 -0.0277  0.0865
12115SOL    HW137786   5.568   5.445   9.578  2.6134  0.5252  0.1681
12115SOL    HW237787   5.580   5.298   9.546  0.1364  0.3827 -0.2652
12116SOL     OW37788   0.987   0.965  10.011 -0.6193 -0.3859  0.0227
12116SOL    HW137789   0.932   0.928   9.942  0.5420 -0.1637 -1.0807
12116SOL    HW237790   1.011   0.890  10.065  0.4886 -1.0454 -1.3116
12117SOL     OW37791   6.197   3.254   5.739  0.2202  0.1023 -0.4311
12117SOL    HW137792   6.182   3.332   5.792  0.9379 -1.1551  1.8004
12117SOL    HW237793   6.250   3.285   5.665 -1.5319  2.0855 -0.9477
12118SOL     OW37794   4.678   7.130   8.288  0.0378 -0.4531  0.7349
12118SOL    HW137795   4.655   7.208   8.238 -0.1820  0.4472  2.1647
12118SOL    HW237796   4.726   7.164   8.364  0.3574 -1.7611  1.1517
12119SOL     OW37797   0.500   0.793   8.605 -0.2583 -0.3231  0.0095
12119SOL    HW137798   0.501   0.819   8.513 -2.0824 -0.5208 -0.1028
12119SOL    HW237799   0.415   0.823   8.637  1.3960  2.3068  2.4184
12120SOL     OW37800   0.244   1.040   2.684  0.0183  0.2751  0.0837
12120SOL    HW137801   0.169   0.981   2.688  1.0205 -1.1017 -0.3867
12120SOL    HW237802   0.309   0.999   2.742  0.0875  1.9570  1.2761
12121SOL     OW37803   4.058   1.691   3.399 -0.2648  0.4593  0.2369
12121SOL    HW137804   4.011   1.769   3.427  0.4082  0.9164  0.1117
12121SOL    HW237805   4.005   1.655   3.328 -1.6102 -0.3113  1.5825
12122SOL     OW37806   3.206   0.700   0.318  0.0785 -0.3070 -0.1680
12122SOL    HW137807   3.283   0.755   0.336  0.4333 -0.7495 -0.3008
12122SOL    HW237808   3.135   0.743   0.366  0.3650  0.2134 -0.1912
12123SOL     OW37809   6.601   2.013   6.815 -0.0638 -0.0592  0.2129
12123SOL    HW137810   6.570   1.981   6.730  0.4528 -0.9706  0.3490
12123SOL    HW237811   6.691   1.982   6.821 -0.8092 -2.1762  2.1100
12124SOL     OW37812   3.436   2.124   3.795 -0.2736  0.5754 -0.2700
12124SOL    HW137813   3.494   2.098   3.724 -0.0265  0.9971 -0.2231
12124SOL    HW237814   3.447   2.219   3.802 -0.0411  0.4901  0.5611
12125SOL     OW37815   5.762   7.356   1.820 -0.1830  0.3892  0.6601
12125SOL    HW137816   5.782   7.263   1.807 -1.5551  0.4141 -2.8452
12125SOL    HW237817   5.847   7.400   1.809  0.2573 -0.3507  0.9830
12126SOL     OW37818   0.827   0.187  10.751  0.7399  0.2479 -0.3789
12126SOL    HW137819   0.857   0.149  10.834  1.2641  2.7865  0.6714
12126SOL    HW237820   0.889   0.153  10.686 -0.1420 -2.4047  0.0458
12127SOL     OW37821   1.551   7.801   7.919  0.3265  0.0380 -0.1900
12127SOL    HW137822   1.500   7.771   7.844 -0.7273 -0.0036  0.5351
12127SOL    HW237823   1.640   7.809   7.885 -0.0552 -0.3926 -1.3340
12128SOL     OW37824   2.414   0.303   5.511  0.0613  0.9838 -0.1991
12128SOL    HW137825   2.418   0.325   5.604  0.1813 -1.2011  0.3590
12128SOL    HW237826   2.380   0.214   5.509  0.5680  0.7890 -2.2363
12129SOL     OW37827   0.770   4.027   2.834  0.0886  0.1924 -0.0264
12129SOL    HW137828   0.864   4.040   2.832  0.4513 -2.0990 -0.1548
12129SOL    HW237829   0.757   3.934   2.815 -2.1806  0.3664  0.2902
12130SOL     OW37830   6.705   3.278  11.714 -0.0514 -0.2739 -0.0547
12130SOL    HW137831   6.748   3.352  11.759  1.7172 -1.0142 -0.4339
12130SOL    HW237832   6.687   3.215  11.784  1.9477 -1.0693 -0.1652
12131SOL     OW37833   1.359   4.687   0.030 -0.2352  0.1019  0.4330
12131SOL    HW137834   1.352   4.604   0.075  0.3483  0.0499  0.4372
12131SOL    HW237835   1.303   4.747   0.080  0.8725  0.2006  1.5817
12132SOL     OW37836   0.767   4.207   4.164 -0.3154 -0.0187  0.0662
12132SOL    HW137837   0.745   4.199   4.257  1.5676 -0.4429  0.5305
12132SOL    HW237838   0.707   4.147   4.120 -0.6453 -0.4933  1.1259
12133SOL     OW37839   7.002   4.154   8.719 -0.6399  0.3191 -0.5439
12133SOL    HW137840   7.000   4.220   8.788 -0.1695  0.6073 -0.8006
12133SOL    HW237841   6.946   4.190   8.650  0.6115  1.0524 -1.2077
12134SOL     OW37842   0.389   0.428   4.753 -0.4400 -0.1213 -0.1469
12134SOL    HW137843   0.296   0.424   4.774 -0.3397  0.7489  0.5219
12134SOL    HW237844   0.393   0.412   4.659 -1.3946  1.0936 -0.4134
12135SOL     OW37845   6.200   5.291   6.024  0.8328 -0.4690  0.3864
12135SOL    HW137846   6.287   5.327   6.041 -0.1533  2.0904  0.3725
12135SOL    HW237847   6.210   5.243   5.942  1.9796  0.7626 -0.2258
12136SOL     OW37848   2.077   1.512  11.982 -0.3409  0.5188 -0.3615
12136SOL    HW137849   2.007   1.481  12.040 -0.5723  2.2082  0.3244
12136SOL    HW237850   2.072   1.455  11.906 -1.9008  0.0299  0.0605
12137SOL     OW37851   3.939   1.780   6.034  0.1727 -0.2599 -0.1912
12137SOL    HW137852   3.982   1.738   6.108 -0.4937  2.0157  1.6308
12137SOL    HW237853   3.850   1.744   6.035  0.5770 -1.3194 -0.8543
12138SOL     OW37854   2.597   1.316   0.422 -0.2470  0.3709  0.1729
12138SOL    HW137855   2.660   1.348   0.487 -0.2507  0.7081  0.0155
12138SOL    HW237856   2.607   1.377   0.349 -1.2947  0.8912  0.4488
12139SOL     OW37857   7.813   7.709   7.812  0.2702 -0.0965 -0.3743
12139SOL    HW137858   7.795   7.653   7.737 -0.5423  1.9120 -1.7751
12139SOL    HW237859   7.808   7.798   7.777  4.3755  0.9175  1.0928
12140SOL     OW37860   7.699   1.161   8.843 -0.3577 -0.4368 -0.1010
12140SOL    HW137861   7.787   1.130   8.865  0.2098  0.8011 -0.5505
12140SOL    HW237862   7.652   1.082   8.818  1.2230 -0.9174 -1.8308
12141SOL     OW37863   1.191   4.622   4.787 -0.2409 -0.8670  0.3024
12141SOL    HW137864   1.128   4.694   4.783 -0.1237 -0.7350  0.7475
12141SOL    HW237865   1.191   4.585   4.699 -0.9650 -0.8914  0.3076
12142SOL     OW37866   7.296   4.861  10.060  0.1753  0.4342  0.4536
12142SOL    HW137867   7.241   4.783  10.070 -1.5839  1.3868 -1.1811
12142SOL    HW237868   7.319   4.861   9.967  1.4270  1.0788  0.7458
12143SOL     OW37869   4.633   1.009   4.387  0.2235 -0.3744  0.3179
12143SOL    HW137870   4.719   1.038   4.419 -0.1905  3.3956 -1.3536
12143SOL    HW237871   4.573   1.030   4.458  0.1680  1.6007 -0.2453
12144SOL     OW37872   1.179   2.222  11.908  0.0869  0.4070 -0.3562
12144SOL    HW137873   1.101   2.272  11.886 -0.7109  0.3170  2.0262
12144SOL    HW237874   1.247   2.288  11.922 -0.5157  0.7351  1.0888
12145SOL     OW37875   1.862   7.435  12.099 -0.7142 -0.0717 -0.2590
12145SOL    HW137876   1.890   7.519  12.062  0.4537 -0.5210 -0.4479
12145SOL    HW237877   1.890   7.440  12.190 -1.5161  0.1140 -0.0142
12146SOL     OW37878   1.133   1.188   2.039 -0.1725  0.4373 -0.1010
12146SOL    HW137879   1.144   1.131   2.114 -0.0337 -0.2378 -0.6287
12146SOL    HW237880   1.060   1.150   1.990  0.8925 -0.1800 -1.2573
12147SOL     OW37881   3.965   6.115  12.225  0.4369 -0.3335 -0.8851
12147SOL    HW137882   3.903   6.082  12.160 -0.6233 -2.0638  0.9131
12147SOL    HW237883   4.010   6.037  12.257  0.7311  0.4265  0.6434
12148SOL     OW37884   3.448   2.324   1.842  0.5302 -0.5688 -0.0796
12148SOL    HW137885   3.503   2.292   1.913 -0.0550 -1.8262 -0.1598
12148SOL    HW237886   3.450   2.253   1.777  0.4689  0.2461 -0.9907
12149SOL     OW37887   7.711   0.955   8.563 -0.2115  0.0341  0.1363
12149SOL    HW137888   7.619   0.943   8.586  0.5123 -0.1570  3.3465
12149SOL    HW237889   7.738   0.871   8.526 -0.7400 -0.7436  1.4702
12150SOL     OW37890   2.047   6.250   8.900 -1.0034  0.0454  0.0152
12150SOL    HW137891   2.012   6.212   8.980 -3.5746  0.1444 -0.9660
12150SOL    HW237892   2.089   6.331   8.928 -1.9651  0.1362  1.2818
12151SOL     OW37893   6.314   6.060   9.577 -0.1271 -0.1942 -0.3590
12151SOL    HW137894   6.223   6.030   9.582 -0.8947  1.9825 -0.1897
12151SOL    HW237895   6.349   6.018   9.498 -1.5153 -0.5040 -0.8329
12152SOL     OW37896   6.968   1.203   1.209  0.1161  0.2036  0.1313
12152SOL    HW137897   6.945   1.292   1.185  0.3380  0.1677 -0.2198
12152SOL    HW237898   6.902   1.177   1.273 -1.6165 -0.3481 -1.7691
12153SOL     OW37899   3.076   0.565   7.777  0.4811  0.1678  0.5760
12153SOL    HW137900   3.033   0.559   7.862  0.5462  1.8536  0.7632
12153SOL    HW237901   3.037   0.495   7.725 -0.8882  0.2665  1.4275
12154SOL     OW37902   0.288   0.073   1.668 -0.0105 -0.1360 -0.2846
12154SOL    HW137903   0.229   0.022   1.724 -1.3376 -0.7575 -2.1571
12154SOL    HW237904   0.367   0.019   1.661  0.1917 -0.0324  0.9728
12155SOL     OW37905   5.324   3.477   4.464  0.4086 -0.4215  0.5773
12155SOL    HW137906   5.298   3.558   4.420 -1.3619 -0.8377  0.7780
12155SOL    HW237907   5.261   3.412   4.432  1.5388 -1.6380  0.7369
12156SOL     OW37908   3.542   6.233  10.378 -0.0931  0.5361 -0.4376
12156SOL    HW137909   3.602   6.244  10.305  0.3250  3.6135  0.2254
12156SOL    HW237910   3.461   6.274  10.349 -0.2524  0.8732  0.4589
12157SOL     OW37911   3.516   0.978   9.001  0.3934  0.7270 -0.0121
12157SOL    HW137912   3.599   0.953   9.042 -0.0914 -1.0130  0.0114
12157SOL    HW237913   3.478   1.043   9.060  2.1274  2.2503 -0.4984
12158SOL     OW37914   5.472   6.029   6.613 -0.0019 -0.0703  0.1359
12158SOL    HW137915   5.567   6.040   6.606 -0.0779  1.4327  1.1527
12158SOL    HW237916   5.459   5.988   6.698 -0.2383 -1.1087 -0.3802
12159SOL     OW37917   1.183   0.545  11.591  0.1041 -0.1790  0.7357
12159SOL    HW137918   1.096   0.544  11.551  1.7595  0.3676 -3.3562
12159SOL    HW237919   1.205   0.452  11.602 -0.2077 -0.3872 -0.2550
12160SOL     OW37920   4.302   5.212   2.902 -0.7642  0.4715 -0.5322
12160SOL    HW137921   4.347   5.241   2.981  3.2899 -0.7453 -2.1575
12160SOL    HW237922   4.267   5.126   2.924  0.5938  0.0104 -0.1076
12161SOL     OW37923   4.168   0.883   7.444  0.0856  0.2441 -0.0194
12161SOL    HW137924   4.169   0.910   7.536  0.9705 -0.8215  0.2935
12161SOL    HW237925   4.193   0.962   7.396  0.5770  0.5559  0.7310
12162SOL     OW37926   6.536   4.066  11.810  0.1277 -0.0072 -0.1744
12162SOL    HW137927   6.561   4.051  11.718  0.3046  1.5028 -0.4023
12162SOL    HW237928   6.459   4.011  11.823 -0.0403 -0.0753 -1.3171
12163SOL     OW37929   3.753   2.949   1.879 -0.1147 -0.1832 -0.2357
12163SOL    HW137930   3.659   2.932   1.873 -0.0347 -0.6296 -0.2662
12163SOL    HW237931   3.778   2.921   1.967 -0.0256  0.0226 -0.1932
12164SOL     OW37932   7.328   4.978   3.812  0.5642 -0.3106 -0.3515
12164SOL    HW137933   7.371   5.049   3.860  2.9221 -0.9808 -1.3510
12164SOL    HW237934   7.235   4.985   3.836  1.2861  0.8200  2.4303
12165SOL     OW37935   7.409   3.685   3.215 -0.5553 -0.8662 -0.5134
12165SOL    HW137936   7.470   3.620   3.182 -1.0899 -1.1712 -0.9037
12165SOL    HW237937   7.395   3.662   3.307 -1.0192 -1.5211 -0.7427
12166SOL     OW37938   6.148   0.432   7.572  0.4810 -0.6259  0.3186
12166SOL    HW137939   6.193   0.350   7.551 -0.3173 -0.9477 -0.1809
12166SOL    HW237940   6.218   0.494   7.591  1.1152 -1.2510  0.0618
12167SOL     OW37941   4.020   0.941  11.247 -0.0086  0.0947  0.3554
12167SOL    HW137942   4.028   1.032  11.276  0.9601  0.2500 -0.3388
12167SOL    HW237943   4.021   0.946  11.152 -0.2558 -0.6234  0.3101
12168SOL     OW37944   3.909   3.990   6.532 -0.5125  0.3013 -0.0791
12168SOL    HW137945   3.856   3.960   6.606 -0.5849  1.1419  0.2152
12168SOL    HW237946   3.854   3.973   6.455 -0.4870 -0.4568  0.0612
12169SOL     OW37947   2.824   2.710   5.663 -0.6281 -0.2869 -0.1387
12169SOL    HW137948   2.839   2.665   5.746 -0.9263 -0.2292 -0.0538
12169SOL    HW237949   2.875   2.659   5.599  1.1334  0.7562  0.3682
12170SOL     OW37950   5.744   2.093   7.256  0.3056 -0.1635 -0.4600
12170SOL    HW137951   5.676   2.082   7.323  0.1645  1.5012 -0.2829
12170SOL    HW237952   5.717   2.035   7.186  0.3129 -1.7568  0.7998
12171SOL     OW37953   0.676   4.322   7.424  0.6431 -0.5848  0.0152
12171SOL    HW137954   0.767   4.327   7.453  0.7537 -1.1541 -0.2269
12171SOL    HW237955   0.668   4.392   7.359  0.5102  0.4190  1.0765
12172SOL     OW37956   6.166   6.476   2.822  0.2323  0.3213  0.0514
12172SOL    HW137957   6.131   6.397   2.863  0.6264  0.6099  0.9930
12172SOL    HW237958   6.197   6.447   2.736  0.4339 -0.5665  0.4111
12173SOL     OW37959   4.223   1.788   9.786  0.3814  0.4209 -0.0251
12173SOL    HW137960   4.314   1.812   9.770  0.1902 -1.1836 -5.1094
12173SOL    HW237961   4.172   1.850   9.734 -1.0924 -1.3039 -0.7488
12174SOL     OW37962   7.518   0.410   7.210 -0.1029  0.3842 -0.2451
12174SOL    HW137963   7.471   0.332   7.240 -1.0932  1.0179 -0.0912
12174SOL    HW237964   7.599   0.410   7.260 -1.0287  0.5845  1.3490
12175SOL     OW37965   1.152   1.799   7.241 -0.0674  0.1498  0.3894
12175SOL    HW137966   1.193   1.727   7.289  2.2616  1.0210 -0.1331
12175SOL    HW237967   1.112   1.757   7.165  2.8266 -0.5262 -0.9128
12176SOL     OW37968   7.250   7.617   6.879  0.3316 -0.3271 -0.2777
12176SOL    HW137969   7.326   7.562   6.893 -0.0128 -0.5447  0.7690
12176SOL    HW237970   7.273   7.671   6.802  2.0587  0.5446  0.7974
12177SOL     OW37971   5.931   0.218   2.855 -0.4576 -0.0854  0.0501
12177SOL    HW137972   6.005   0.159   2.837 -0.2178 -0.5178  2.2278
12177SOL    HW237973   5.922   0.270   2.775  1.8227 -0.4191 -0.4856
12178SOL     OW37974   6.776   2.655   0.666 -0.0039  0.1383  0.3003
12178SOL    HW137975   6.804   2.571   0.702 -0.6604  0.7354  2.3274
12178SOL    HW237976   6.857   2.700   0.645  0.3757 -0.5463  0.2503
12179SOL     OW37977   7.654   6.480   7.615  0.7024  0.4396 -0.0735
12179SOL    HW137978   7.614   6.396   7.638  0.3617  0.6010 -0.0780
12179SOL    HW237979   7.687   6.467   7.526  1.8585 -0.1272  0.4159
12180SOL     OW37980   1.469   4.805   9.816  0.1947 -0.6164 -0.1361
12180SOL    HW137981   1.454   4.891   9.777  0.1456  0.0524  1.2801
12180SOL    HW237982   1.396   4.751   9.786  0.3439 -0.2450 -1.2147
12181SOL     OW37983   7.160   1.909   9.565 -0.1987 -0.1683 -0.2682
12181SOL    HW137984   7.104   1.971   9.610 -2.8233 -1.8806 -0.9812
12181SOL    HW237985   7.225   1.964   9.520  0.0058  1.7586  2.1787
12182SOL     OW37986   7.427   7.821   0.510  0.5594  0.2731  0.0484
12182SOL    HW137987   7.432   7.730   0.480 -1.0200  0.2826 -0.3204
12182SOL    HW237988   7.502   7.864   0.469  0.0648 -0.3625 -1.6073
12183SOL     OW37989   1.293   4.358   8.927  0.1115 -0.3614 -0.2321
12183SOL    HW137990   1.205   4.359   8.963  0.4958  1.1291  0.7731
12183SOL    HW237991   1.347   4.399   8.995  1.1322  1.2103 -1.9025
12184SOL     OW37992   6.107   0.532   8.301 -0.2609 -0.1896 -0.0552
12184SOL    HW137993   6.043   0.486   8.246 -1.7706  1.0306  0.6210
12184SOL    HW237994   6.065   0.538   8.387  0.3455  1.4798  0.1600
12185SOL     OW37995   2.450   1.339  12.368  0.5797 -0.1232 -0.1701
12185SOL    HW137996   2.399   1.316  12.290 -0.6961 -1.5444  1.0205
12185SOL    HW237997   2.384   1.354  12.435  1.5871  2.4879  0.3364
12186SOL     OW37998   1.479   5.731   2.159  0.1176 -0.3320 -0.1773
12186SOL    HW137999   1.458   5.794   2.090 -1.0649 -0.6759 -0.1602
12186SOL    HW238000   1.558   5.687   2.128 -0.1585 -0.1923 -1.1262
12187SOL     OW38001   2.395   5.632   2.245 -0.4823  0.3910 -0.2139
12187SOL    HW138002   2.456   5.698   2.280  1.0481 -1.3544  0.5616
12187SOL    HW238003   2.312   5.651   2.289  0.7891 -0.2760  2.7118
12188SOL     OW38004   7.753   0.531   2.598 -0.2570 -0.3319 -0.0213
12188SOL    HW138005   7.707   0.587   2.537  0.7171  0.1235 -0.3614
12188SOL    HW238006   7.808   0.475   2.544  1.8325  1.1546  0.4242
12189SOL     OW38007   3.179   3.972   4.690 -0.2387 -0.0085 -0.0616
12189SOL    HW138008   3.203   3.915   4.762 -1.2287  0.0750  0.3433
12189SOL    HW238009   3.214   4.058   4.715  1.3914 -0.4195 -0.7461
12190SOL     OW38010   1.583   3.331   2.802 -0.2430 -0.2364  0.0944
12190SOL    HW138011   1.536   3.268   2.856 -1.4215 -0.3742 -1.0573
12190SOL    HW238012   1.538   3.414   2.816  0.1236 -0.0448  0.1514
12191SOL     OW38013   4.001   2.474   9.148  0.8593 -0.1547  0.0511
12191SOL    HW138014   3.994   2.444   9.057 -1.6718 -1.1662  0.5038
12191SOL    HW238015   3.930   2.537   9.158 -0.3127 -1.6572  1.8452
12192SOL     OW38016   3.016   0.759   5.309  0.1359  0.3069 -0.5860
12192SOL    HW138017   3.079   0.822   5.344 -0.6330  1.4885 -1.2715
12192SOL    HW238018   2.964   0.732   5.384  0.9786 -0.1490 -0.1409
12193SOL     OW38019   6.183   2.430  10.867  0.0846 -0.4349  1.0365
12193SOL    HW138020   6.147   2.342  10.877 -1.6055  0.0500 -0.3166
12193SOL    HW238021   6.129   2.485  10.924  0.0891 -0.0312  0.6583
12194SOL     OW38022   2.308   6.531   3.454  0.3441  0.2249  0.2000
12194SOL    HW138023   2.395   6.567   3.440  0.1893  0.6233  0.2437
12194SOL    HW238024   2.267   6.536   3.367  1.4937 -3.0913 -0.6584
12195SOL     OW38025   0.831   0.466   3.002  0.3447 -0.0481 -0.7804
12195SOL    HW138026   0.823   0.538   3.065  0.4158 -0.0901 -0.7241
12195SOL    HW238027   0.882   0.399   3.048 -0.0852 -0.3118 -0.6764
12196SOL     OW38028   4.907   6.646   3.419 -0.2704 -0.3097  0.5893
12196SOL    HW138029   4.905   6.726   3.473 -0.7224  0.1405 -0.0831
12196SOL    HW238030   4.888   6.576   3.481  0.1651  0.0957  1.1994
12197SOL     OW38031   3.656   5.733   9.502  0.3671  0.1517 -0.2222
12197SOL    HW138032   3.669   5.828   9.513  0.6482  0.1012 -0.0954
12197SOL    HW238033   3.743   5.700   9.480  0.3695 -0.1505  0.2462
12198SOL     OW38034   1.686   7.294   6.963 -0.0254 -0.5502  0.3151
12198SOL    HW138035   1.751   7.360   6.987 -1.5487  0.8435  0.8017
12198SOL    HW238036   1.737   7.214   6.947  1.6962  0.2114  1.6837
12199SOL     OW38037   4.385   4.730   1.153 -0.2634  0.0757 -0.2781
12199SOL    HW138038   4.314   4.786   1.120 -0.8270 -1.5969 -2.0868
12199SOL    HW238039   4.340   4.652   1.186  0.7091 -0.8030 -1.0135
12200SOL     OW38040   5.423   1.147   7.982 -0.2744 -0.0641  0.0511
12200SOL    HW138041   5.474   1.226   8.004  2.2141 -1.7518  0.7360
12200SOL    HW238042   5.381   1.168   7.898 -2.1303  3.0038  1.5530
12201SOL     OW38043   1.110   4.492   5.829  0.5749 -0.2375 -0.4181
12201SOL    HW138044   1.179   4.547   5.792 -1.3666  2.4450 -0.3932
12201SOL    HW238045   1.030   4.544   5.817 -1.1889 -2.4323  1.0785
12202SOL     OW38046   2.263   7.750   7.765 -0.0494  0.1389 -0.6615
12202SOL    HW138047   2.196   7.757   7.697  0.5535 -0.3442 -1.3183
12202SOL    HW238048   2.341   7.789   7.727 -0.0131  0.9528  0.2013
12203SOL     OW38049   0.492   7.347   2.270  0.1967 -0.3202 -0.3233
12203SOL    HW138050   0.501   7.442   2.259  1.8822 -0.5220 -0.9365
12203SOL    HW238051   0.496   7.312   2.181  0.3145 -1.0169 -0.0493
12204SOL     OW38052   2.113   6.168   6.621  0.2824 -0.8297  0.1922
12204SOL    HW138053   2.035   6.221   6.607 -0.4201 -2.0390 -0.5434
12204SOL    HW238054   2.140   6.190   6.710  0.0244  0.7593 -0.0824
12205SOL     OW38055   4.893   2.818   0.971  0.0251 -0.2407  0.5169
12205SOL    HW138056   4.864   2.817   1.062  0.0217  0.7051  0.5363
12205SOL    HW238057   4.842   2.887   0.930  0.4714 -0.2424 -0.0567
12206SOL     OW38058   0.669   2.017   4.064  0.4070 -0.2736  0.1588
12206SOL    HW138059   0.663   1.921   4.056  1.3741 -0.3584  0.2658
12206SOL    HW238060   0.639   2.050   3.979  0.4424 -0.6892 -0.0183
12207SOL     OW38061   6.290   2.197   0.415 -0.2649  0.4366  0.1608
12207SOL    HW138062   6.195   2.209   0.410 -0.0924  1.5819 -1.2739
12207SOL    HW238063   6.326   2.275   0.373  1.2894 -0.4251 -0.1958
12208SOL     OW38064   2.218   7.482   7.703 -0.3345  0.1391  0.2951
12208SOL    HW138065   2.237   7.571   7.732  1.3616 -0.5285  1.3865
12208SOL    HW238066   2.294   7.457   7.650 -1.0615 -0.4658 -0.5021
12209SOL     OW38067   6.941   6.908   6.938 -0.2790  0.3144  0.0424
12209SOL    HW138068   6.959   6.855   6.861 -0.0969  1.8693 -1.0316
12209SOL    HW238069   6.846   6.912   6.944 -0.3033 -0.7068  0.5698
12210SOL     OW38070   2.417   1.342   6.489 -0.1244 -0.0465 -0.0909
12210SOL    HW138071   2.398   1.353   6.396 -2.1373  1.6782  0.4503
12210SOL    HW238072   2.337   1.302   6.525  0.1410  0.4472  1.0906
12211SOL     OW38073   5.500   0.005  11.649  0.7007  0.3228 -0.4858
12211SOL    HW138074   5.430  -0.059  11.638  0.8154 -0.0737  0.9532
12211SOL    HW238075   5.529   0.024  11.560 -1.9415  1.3062 -1.2476
12212SOL     OW38076   3.865   0.379   3.316  0.4069  0.3796  0.0210
12212SOL    HW138077   3.832   0.400   3.229 -0.8046 -1.7023 -0.1032
12212SOL    HW238078   3.801   0.417   3.376  0.0867 -0.0034 -0.0759
12213SOL     OW38079   3.035   7.540   2.364 -0.0225 -0.5965 -0.0537
12213SOL    HW138080   3.016   7.550   2.271 -0.4423  1.2032  0.1916
12213SOL    HW238081   2.959   7.577   2.408  0.9807  0.2971  0.9815
12214SOL     OW38082   3.132   5.915   2.468 -0.3597  0.0708  0.7306
12214SOL    HW138083   3.192   5.951   2.534 -0.3222 -0.5324  1.0328
12214SOL    HW238084   3.050   5.899   2.516  0.2442 -2.1824  1.1371
12215SOL     OW38085   3.205   1.176  11.783  0.2965  0.3104 -0.4123
12215SOL    HW138086   3.203   1.083  11.759  1.1883  0.2149 -0.1577
12215SOL    HW238087   3.160   1.180  11.867  1.2544 -0.0868  0.1388
12216SOL     OW38088   3.141   0.550   4.864 -0.2329 -0.2077  0.8121
12216SOL    HW138089   3.097   0.495   4.928  0.3333 -0.5264  0.9364
12216SOL    HW238090   3.097   0.532   4.781  1.2256 -2.4091  0.4373
12217SOL     OW38091   1.686   3.585   5.299 -0.3221  0.2961 -0.1723
12217SOL    HW138092   1.608   3.589   5.353  0.8229 -0.0329  1.5802
12217SOL    HW238093   1.736   3.510   5.333  0.6518  0.3327 -1.4132
12218SOL     OW38094   7.360   4.569   3.655  0.2623  0.5026  0.3496
12218SOL    HW138095   7.307   4.594   3.731 -0.4321  0.1777 -0.0182
12218SOL    HW238096   7.332   4.480   3.634 -1.0094  1.2673 -1.4911
12219SOL     OW38097   5.153   7.481   7.496 -0.2172 -0.2751 -0.2651
12219SOL    HW138098   5.065   7.505   7.524  0.5545  1.8058  0.6191
12219SOL    HW238099   5.210   7.545   7.539  1.6952 -1.3093 -1.1231
12220SOL     OW38100   3.136   4.875   6.670  0.2054  0.2300  0.5436
12220SOL    HW138101   3.120   4.815   6.598 -0.7115  0.0950  0.8433
12220SOL    HW238102   3.231   4.887   6.672  0.3290 -0.6416  0.0321
12221SOL     OW38103   3.019   0.118   9.648  0.1137  0.0425  0.3881
12221SOL    HW138104   3.113   0.129   9.665  0.1129  0.5250  0.1019
12221SOL    HW238105   2.977   0.180   9.707  0.0330  0.6028 -0.2480
12222SOL     OW38106   6.914   0.090   7.602  0.1028  0.1032 -0.6670
12222SOL    HW138107   6.858   0.038   7.660  0.5365  0.0388 -0.3003
12222SOL    HW238108   6.913   0.043   7.519  0.1339 -0.2506 -0.4673
12223SOL     OW38109   4.569   5.382   9.661 -0.1141 -0.3901  0.1715
12223SOL    HW138110   4.619   5.369   9.742  2.4960  0.4268 -1.2048
12223SOL    HW238111   4.610   5.323   9.598 -3.5232 -2.6993 -0.1472
12224SOL     OW38112   0.803   4.708   7.674  0.2812 -0.3964 -0.2882
12224SOL    HW138113   0.776   4.784   7.725 -1.0827 -0.6202 -0.6286
12224SOL    HW238114   0.857   4.657   7.733 -0.1258  0.0383  0.4811
12225SOL     OW38115   0.786   3.987   8.844  0.1026 -0.6507  0.0809
12225SOL    HW138116   0.807   3.967   8.935  1.1313  2.0068  0.5501
12225SOL    HW238117   0.694   4.011   8.844  0.3735  0.4312  0.6771
12226SOL     OW38118   1.078   5.987   6.467  0.2122 -0.6852  0.1186
12226SOL    HW138119   1.014   5.971   6.397  0.1638 -2.2560  0.4821
12226SOL    HW238120   1.029   5.970   6.548  1.0097 -1.7180  0.4075
12227SOL     OW38121   0.013   0.808   7.927 -0.1431  0.4874 -0.4464
12227SOL    HW138122  -0.010   0.814   8.020  0.1628 -0.4903 -0.2939
12227SOL    HW238123  -0.014   0.720   7.902 -0.2845  0.7753 -1.3044
12228SOL     OW38124   7.295   0.783  10.423  0.1497 -0.0147  0.5069
12228SOL    HW138125   7.371   0.799  10.479 -0.3822 -0.7901  1.4841
12228SOL    HW238126   7.281   0.688  10.427 -0.6408  0.0725  0.0601
12229SOL     OW38127   1.141   3.182   4.601 -0.2684  0.0696  0.7638
12229SOL    HW138128   1.142   3.250   4.533  1.1655  1.0291  1.6994
12229SOL    HW238129   1.207   3.119   4.572 -0.5362 -0.1687  0.6609
12230SOL     OW38130   0.573   0.230  10.498 -0.3147  0.0031  0.8824
12230SOL    HW138131   0.596   0.263  10.411  1.2696 -1.1832  0.8097
12230SOL    HW238132   0.613   0.143  10.502 -1.0789 -0.3138  2.4995
12231SOL     OW38133   4.831   6.584  10.743 -0.2238  0.4153 -0.2994
12231SOL    HW138134   4.755   6.637  10.718  0.6184  1.9510  0.2401
12231SOL    HW238135   4.869   6.630  10.818  1.1168 -0.4280 -0.4150
12232SOL     OW38136   6.505   3.730   3.032  0.2892  0.8547 -0.1593
12232SOL    HW138137   6.588   3.712   3.075  0.1561  1.4186  0.3425
12232SOL    HW238138   6.456   3.648   3.038  1.7331 -0.3154 -2.6630
12233SOL     OW38139   3.030   5.601   9.103  0.2539  0.0672  0.1909
12233SOL    HW138140   3.013   5.696   9.100  2.3189  0.4767  0.1872
12233SOL    HW238141   3.024   5.580   9.196  1.4301  0.5589  0.3949
12234SOL     OW38142   7.073   4.966   0.918  0.1741  0.2472  0.5486
12234SOL    HW138143   7.166   4.986   0.931 -0.0729  1.8163  0.1440
12234SOL    HW238144   7.054   4.998   0.830 -0.3146 -1.8780 -0.1722
12235SOL     OW38145   2.514   4.818   9.347  0.0830  0.3934 -0.1958
12235SOL    HW138146   2.600   4.860   9.352 -0.2200  0.9123  0.8728
12235SOL    HW238147   2.452   4.890   9.340 -0.3526  0.0750  0.3090
12236SOL     OW38148   3.875   5.296  12.221  0.0690  0.1495  0.3433
12236SOL    HW138149   3.863   5.328  12.132 -0.1388  2.4200  1.1113
12236SOL    HW238150   3.960   5.252  12.221  0.4745  0.9035 -0.7828
12237SOL     OW38151   4.549   3.147   6.374  0.3036 -0.4870 -0.0266
12237SOL    HW138152   4.468   3.187   6.344  0.1924 -0.2047  0.6357
12237SOL    HW238153   4.604   3.221   6.402  0.9213 -0.6474 -0.7583
12238SOL     OW38154   4.553   1.340   5.929  0.1496  0.0430 -0.0166
12238SOL    HW138155   4.584   1.403   5.864 -1.1898  1.2477  0.4419
12238SOL    HW238156   4.530   1.394   6.005  1.5640 -1.3101  1.4433
12239SOL     OW38157   6.979   6.472  10.354 -0.0021  0.3911  0.6230
12239SOL    HW138158   6.961   6.492  10.445  1.6328  1.1326  0.8241
12239SOL    HW238159   7.073   6.487  10.344 -0.3199  1.4491 -1.4586
12240SOL     OW38160   4.145   3.970  11.974  0.1524 -0.1568  0.9940
12240SOL    HW138161   4.207   3.941  11.907  0.4516  1.5756  0.4668
12240SOL    HW238162   4.073   4.009  11.925 -0.6184 -0.7443  1.6457
12241SOL     OW38163   1.542   7.714   4.924  0.0189  0.4984  0.1731
12241SOL    HW138164   1.605   7.784   4.937  1.3754 -0.4709 -0.8949
12241SOL    HW238165   1.484   7.746   4.855  1.6122  0.0277 -1.4895
12242SOL     OW38166   1.379   1.052  11.368  0.0971 -0.5364 -0.0310
12242SOL    HW138167   1.350   1.130  11.320  1.0056 -0.7286 -0.9452
12242SOL    HW238168   1.450   1.083  11.424  1.1986 -0.8482 -1.1822
12243SOL     OW38169   1.957   6.492   3.924 -0.3194  0.4568  0.4157
12243SOL    HW138170   2.028   6.428   3.916 -1.1003 -0.3504 -0.1656
12243SOL    HW238171   1.967   6.549   3.848 -1.0455 -0.4317 -0.3611
12244SOL     OW38172   5.766   6.333   2.679  0.2283  0.2492  0.6491
12244SOL    HW138173   5.826   6.277   2.629  0.4719  0.6346  0.5035
12244SOL    HW238174   5.767   6.295   2.767  1.4723  0.8389  0.9160
12245SOL     OW38175   3.459   0.238   0.560 -0.0216 -0.0507  0.3189
12245SOL    HW138176   3.476   0.263   0.651 -0.7542  0.1174  0.4119
12245SOL    HW238177   3.413   0.154   0.567  1.5247 -0.9732  0.0407
12246SOL     OW38178   4.616   6.147   0.929 -0.0873 -0.2151 -0.5099
12246SOL    HW138179   4.535   6.192   0.908 -0.3210  0.0169  0.8265
12246SOL    HW238180   4.682   6.191   0.875 -0.2982  1.7687  0.7720
12247SOL     OW38181   1.020   0.825   8.852 -0.3974  0.2173  0.4191
12247SOL    HW138182   0.949   0.796   8.796  1.5377 -2.4602 -0.8788
12247SOL    HW238183   1.024   0.760   8.922 -1.2723  2.2023  2.4243
12248SOL     OW38184   1.134   3.382   9.078  0.2944 -0.1017 -0.0507
12248SOL    HW138185   1.206   3.370   9.140  0.1686 -0.7955 -0.0344
12248SOL    HW238186   1.123   3.297   9.037  1.0304  0.5870 -1.7716
12249SOL     OW38187   6.601   0.807   7.104  0.3011  0.3699  0.0943
12249SOL    HW138188   6.532   0.766   7.157 -0.6935  1.9167  0.0574
12249SOL    HW238189   6.554   0.852   7.034  1.3006  1.8094  0.3047
12250SOL     OW38190   7.019   1.643   7.205  0.6542  0.2420  0.7288
12250SOL    HW138191   6.988   1.552   7.201 -1.2277  0.8392  0.4185
12250SOL    HW238192   7.012   1.675   7.115  0.6945  0.8713  0.9456
12251SOL     OW38193   5.142   0.993  10.334 -0.5077 -0.0645  0.4312
12251SOL    HW138194   5.114   1.080  10.363  2.2083  0.6077  1.3404
12251SOL    HW238195   5.149   1.002  10.239  1.4867  1.3596  0.6532
12252SOL     OW38196   5.683   1.853   3.582 -0.0606  0.1226  0.3613
12252SOL    HW138197   5.745   1.917   3.617  1.6256 -0.1163 -1.9605
12252SOL    HW238198   5.737   1.778   3.558 -1.5528 -0.8839  0.0232
12253SOL     OW38199   6.805   7.541  10.742  0.2309 -0.1947 -0.0500
12253SOL    HW138200   6.884   7.583  10.709 -1.1973  1.3776 -1.6685
12253SOL    HW238201   6.764   7.607  10.797 -2.3750  0.9899 -3.1327
12254SOL     OW38202   6.769   1.685   9.676  0.0482  0.2358 -0.6482
12254SOL    HW138203   6.836   1.681   9.744 -0.7189 -1.4571  0.0556
12254SOL    HW238204   6.785   1.769   9.633  1.4907  0.6864  0.6426
12255SOL     OW38205   1.611   5.908  11.087 -0.3344 -0.5367 -0.0751
12255SOL    HW138206   1.579   5.842  11.026 -1.3353 -0.0224 -0.1329
12255SOL    HW238207   1.580   5.991  11.051  1.0565  0.0028 -0.1056
12256SOL     OW38208   3.099   7.544  11.669 -0.5530  0.5727 -0.1191
12256SOL    HW138209   3.099   7.576  11.759 -0.4307  0.6774 -0.1550
12256SOL    HW238210   3.112   7.450  11.677 -1.3803  0.4604  0.0116
12257SOL     OW38211   0.411   5.900   6.398 -0.1021  0.5349  0.3922
12257SOL    HW138212   0.431   5.992   6.380 -1.7342  1.1347  1.3997
12257SOL    HW238213   0.358   5.903   6.478  0.4136 -1.3576  0.8545
12258SOL     OW38214   1.880   2.769   8.457  0.1450  0.7982 -0.0652
12258SOL    HW138215   1.803   2.755   8.512 -0.1603  0.6676 -0.5191
12258SOL    HW238216   1.920   2.849   8.492  0.1503  0.5243  0.5608
12259SOL     OW38217   7.389   1.387   3.171  0.0010  0.0143  0.2616
12259SOL    HW138218   7.449   1.413   3.101  0.3683 -0.2423  0.4747
12259SOL    HW238219   7.428   1.424   3.251 -0.6995  0.7657  0.2660
12260SOL     OW38220   4.814   6.015   2.729  0.1313 -0.2691  0.1145
12260SOL    HW138221   4.783   6.106   2.736 -1.7126 -0.9529  1.4520
12260SOL    HW238222   4.739   5.962   2.754  1.5184 -2.1548  0.4527
12261SOL     OW38223   7.087   4.783   0.371 -0.0685 -0.1031 -0.4326
12261SOL    HW138224   7.168   4.791   0.421 -0.4924  0.0521  0.2440
12261SOL    HW238225   7.105   4.713   0.308  0.7792  0.3271 -0.6739
12262SOL     OW38226   0.157   7.888   6.108  0.4420 -0.0387  0.3884
12262SOL    HW138227   0.076   7.931   6.134  0.4641 -0.2500  0.8126
12262SOL    HW238228   0.222   7.917   6.172  0.5278 -0.4653  0.4965
12263SOL     OW38229   5.631   1.027   3.381 -0.2908  0.3687  0.1353
12263SOL    HW138230   5.623   0.992   3.470 -0.5330 -2.0025 -0.7488
12263SOL    HW238231   5.692   0.968   3.338 -0.9720  0.8585 -1.5738
12264SOL     OW38232   0.591   5.722   1.204 -0.1229 -0.9330  0.3719
12264SOL    HW138233   0.594   5.817   1.195  1.5141 -1.0034 -0.0135
12264SOL    HW238234   0.529   5.707   1.275 -0.9861  0.3693 -0.0588
12265SOL     OW38235   6.302   3.469   6.551 -0.0652 -0.5999  0.7521
12265SOL    HW138236   6.299   3.507   6.464 -0.5945 -1.9653  0.1409
12265SOL    HW238237   6.383   3.501   6.589  1.0410 -1.3012 -0.8939
12266SOL     OW38238   7.726   2.022   7.253 -0.0262  0.3203  0.2477
12266SOL    HW138239   7.673   2.095   7.222 -0.7630  0.1835  1.1236
12266SOL    HW238240   7.734   2.038   7.348 -1.3385 -1.4189  0.6930
12267SOL     OW38241   6.190   4.203   6.372  0.2338  0.1684 -0.5498
12267SOL    HW138242   6.137   4.280   6.394  0.7833  0.6134 -0.7742
12267SOL    HW238243   6.138   4.129   6.404 -0.1277  0.6490 -0.0007
12268SOL     OW38244   7.843   3.515   8.051 -0.6255  0.3042 -0.1734
12268SOL    HW138245   7.749   3.503   8.043 -0.7448  1.1038 -0.0778
12268SOL    HW238246   7.853   3.597   8.100  0.1187  0.0680  0.0840
12269SOL     OW38247   1.683   4.834   5.630  0.2984 -0.1039  0.2123
12269SOL    HW138248   1.648   4.746   5.624  2.5559 -1.0225 -0.8376
12269SOL    HW238249   1.619   4.889   5.584 -0.5019 -1.3959 -0.2635
12270SOL     OW38250   2.223   5.028   5.364 -0.2113 -0.0130  0.0775
12270SOL    HW138251   2.215   5.115   5.403 -4.3286  1.0967 -2.5130
12270SOL    HW238252   2.262   5.043   5.278 -0.8196 -0.6763 -0.3348
12271SOL     OW38253   6.866   3.886   9.339 -0.2691 -0.2472  0.3280
12271SOL    HW138254   6.854   3.896   9.433 -0.0708 -0.3407  0.3656
12271SOL    HW238255   6.934   3.950   9.316 -1.1637  0.6172  0.0377
12272SOL     OW38256   1.680   1.647   6.881 -0.2664 -0.1213 -0.3593
12272SOL    HW138257   1.624   1.674   6.808 -0.6877 -0.3851 -0.1387
12272SOL    HW238258   1.755   1.706   6.877  0.5481 -1.1800 -2.0327
12273SOL     OW38259   0.799   6.918   0.667 -0.1332 -0.0121 -0.2724
12273SOL    HW138260   0.859   6.943   0.596  1.1751 -0.7480  0.5231
12273SOL    HW238261   0.739   6.855   0.628  0.5508 -0.3788 -0.7566
12274SOL     OW38262   5.064   7.215   2.437 -0.3082  0.0354  0.6527
12274SOL    HW138263   5.093   7.162   2.512  1.1782 -0.0687  0.0470
12274SOL    HW238264   5.120   7.185   2.364 -1.2714  0.5917 -0.3384
12275SOL     OW38265   3.491   5.287   2.100  0.1448  0.0793 -0.0282
12275SOL    HW138266   3.554   5.342   2.147 -0.4842  0.4566  0.3866
12275SOL    HW238267   3.460   5.225   2.166  1.3113 -1.2297 -0.6313
12276SOL     OW38268   2.721   7.746   6.836  0.3598  0.4281  0.1061
12276SOL    HW138269   2.654   7.811   6.858 -0.1126  0.7927 -2.1256
12276SOL    HW238270   2.769   7.786   6.764  2.4817 -0.1927  1.1152
12277SOL     OW38271   6.651   7.254   9.787 -0.4732 -0.7390 -0.0885
12277SOL    HW138272   6.715   7.273   9.855  0.1418 -0.5192 -0.7080
12277SOL    HW238273   6.659   7.327   9.726 -1.5335 -0.5598 -0.0285
12278SOL     OW38274   2.414   6.386  10.177 -0.3084  0.3839 -0.3289
12278SOL    HW138275   2.387   6.343  10.096  0.9993 -0.2203 -0.4708
12278SOL    HW238276   2.445   6.315  10.233 -0.9862  0.8257  0.6222
12279SOL     OW38277   0.953   5.654  12.141 -0.0887  0.3587  0.0865
12279SOL    HW138278   0.998   5.732  12.107 -1.2945  1.1309  0.2068
12279SOL    HW238279   1.020   5.606  12.189  0.8516  0.9492 -0.6085
12280SOL     OW38280   3.467   0.424  10.620  0.0894  0.3110 -0.1269
12280SOL    HW138281   3.507   0.447  10.536 -1.5451 -0.0177 -1.0441
12280SOL    HW238282   3.409   0.351  10.600 -0.6596  0.5019  1.2029
12281SOL     OW38283   2.858   2.131   0.583 -0.2970  1.0387 -0.3295
12281SOL    HW138284   2.936   2.126   0.527 -0.2645 -0.1876 -0.2008
12281SOL    HW238285   2.894   2.136   0.672 -0.2304 -3.4594  0.0983
12282SOL     OW38286   5.644   3.884   8.187 -0.5050  0.0499 -0.8176
12282SOL    HW138287   5.616   3.859   8.275 -0.4111 -0.7607 -1.0105
12282SOL    HW238288   5.584   3.953   8.161 -0.2958  0.5643  0.0286
12283SOL     OW38289   4.892   0.583   5.858  0.3422  0.0140  0.3996
12283SOL    HW138290   4.853   0.519   5.918 -2.2046 -0.5776 -1.7046
12283SOL    HW238291   4.971   0.613   5.903  0.0760 -2.4359  2.7545
12284SOL     OW38292   5.534   5.440   0.404  0.3124  0.5100  0.6368
12284SOL    HW138293   5.458   5.396   0.366  1.1873  0.6816 -1.4354
12284SOL    HW238294   5.593   5.369   0.430  0.2909  0.3909  0.3680
12285SOL     OW38295   3.443   0.416   5.949  0.1703 -0.9140 -0.4849
12285SOL    HW138296   3.426   0.433   5.856  0.1240 -0.8904 -0.4722
12285SOL    HW238297   3.356   0.412   5.989  0.2047 -0.5554 -0.3780
12286SOL     OW38298   7.756   4.399   2.906  0.1980  0.1526 -0.2080
12286SOL    HW138299   7.770   4.361   2.993  1.4351  1.0271  0.0033
12286SOL    HW238300   7.665   4.426   2.906 -0.2621 -1.3004  0.2326
12287SOL     OW38301   5.412   7.475   7.086  1.0399 -0.5209  0.3917
12287SOL    HW138302   5.389   7.566   7.105  2.1645  0.2904 -1.7107
12287SOL    HW238303   5.476   7.452   7.153  0.4469  0.0817  1.1880
12288SOL     OW38304   7.368   1.580  12.035  0.4301  0.2742  0.7015
12288SOL    HW138305   7.395   1.609  12.122 -0.1214  2.0681  0.3148
12288SOL    HW238306   7.277   1.551  12.047  0.6776 -0.4308  0.9070
12289SOL     OW38307   5.556   5.901   4.160 -0.3818  0.6444  0.2146
12289SOL    HW138308   5.558   5.943   4.246  2.3511 -0.9503  1.0629
12289SOL    HW238309   5.468   5.919   4.126 -0.7531  3.3319  2.2823
12290SOL     OW38310   2.534   4.172   9.109 -0.6138  0.7625 -0.5140
12290SOL    HW138311   2.483   4.148   9.031 -0.7729  1.3226 -0.5923
12290SOL    HW238312   2.497   4.256   9.136  0.1127  1.0622 -0.4295
12291SOL     OW38313   0.747   4.993   9.796  0.0106 -0.0708  0.6722
12291SOL    HW138314   0.732   5.015   9.888  0.0636 -0.6099  0.8143
12291SOL    HW238315   0.842   4.993   9.787 -0.0091  1.0919  0.3347
12292SOL     OW38316   1.690   3.434   5.042 -0.1271  0.4916 -0.0093
12292SOL    HW138317   1.637   3.477   4.975  0.2291 -0.1154 -0.6993
12292SOL    HW238318   1.677   3.486   5.121  0.2972  1.8658 -0.8158
12293SOL     OW38319   1.770   3.127  12.110  0.1486  0.8728  0.8382
12293SOL    HW138320   1.862   3.118  12.088 -0.1675  1.0011 -0.6390
12293SOL    HW238321   1.769   3.172  12.194  1.4110  1.1793  0.7013
12294SOL     OW38322   5.619   1.565   6.256 -0.3752  0.3520 -0.3702
12294SOL    HW138323   5.613   1.562   6.351 -1.4975 -1.3281 -0.4504
12294SOL    HW238324   5.712   1.554   6.237 -0.2702 -0.3544  0.5193
12295SOL     OW38325   5.221   3.376   3.133 -0.0455  0.1107  0.4428
12295SOL    HW138326   5.228   3.445   3.198 -0.0664  1.1703 -0.6396
12295SOL    HW238327   5.193   3.421   3.053 -0.4947 -1.2182 -0.1791
12296SOL     OW38328   2.925   6.143  11.729 -0.6233 -0.3170  0.3067
12296SOL    HW138329   2.841   6.184  11.710 -0.9251 -0.5837  1.0449
12296SOL    HW238330   2.911   6.094  11.810 -0.0052 -1.1080 -0.0543
12297SOL     OW38331   2.684   7.599  11.155 -0.5290 -0.8036  0.3730
12297SOL    HW138332   2.613   7.567  11.100 -1.0483  2.3510 -0.9945
12297SOL    HW238333   2.651   7.680  11.193  1.4313 -0.5988  1.7816
12298SOL     OW38334   7.798   6.775   0.832 -0.7022  0.1002  0.4455
12298SOL    HW138335   7.716   6.822   0.849 -1.1034 -0.3153 -0.2665
12298SOL    HW238336   7.860   6.811   0.894 -1.0065  1.5423 -0.0562
12299SOL     OW38337   3.594   0.803   0.442  0.3782  0.3915 -0.0533
12299SOL    HW138338   3.528   0.818   0.374  0.9909 -0.7528 -0.9407
12299SOL    HW238339   3.560   0.730   0.493  0.6827  0.1721 -0.1602
12300SOL     OW38340   1.195   7.030   5.247 -0.0785  0.0420 -0.2145
12300SOL    HW138341   1.157   7.045   5.160 -3.7253  1.6394  1.4764
12300SOL    HW238342   1.128   6.981   5.294  1.4090  0.0515  2.0505
12301SOL     OW38343   1.095   6.003   0.766  0.1569  0.2428 -0.0993
12301SOL    HW138344   1.054   5.963   0.690  1.7601 -0.0700 -0.8464
12301SOL    HW238345   1.183   5.964   0.770  0.5474  1.1576  1.1800
12302SOL     OW38346   3.518   6.559  11.726 -0.4451 -0.1450  0.7324
12302SOL    HW138347   3.461   6.511  11.667 -0.7794  2.3700 -1.1697
12302SOL    HW238348   3.560   6.492  11.780 -2.3645 -2.3283 -0.3451
12303SOL     OW38349   5.345   0.515  10.383  0.0566  0.4892  0.1374
12303SOL    HW138350   5.268   0.566  10.359 -0.2900  0.0327  0.2863
12303SOL    HW238351   5.414   0.581  10.394 -0.0423  0.8077 -1.0147
12304SOL     OW38352   1.038   3.045   7.623 -0.5467 -0.2132 -0.2869
12304SOL    HW138353   1.113   3.104   7.631 -0.3723 -0.4213 -0.3909
12304SOL    HW238354   1.035   3.022   7.530 -1.1120  0.2817 -0.3968
12305SOL     OW38355   0.929   4.354  10.263  0.1102  0.2583  0.2274
12305SOL    HW138356   0.972   4.272  10.238  1.0282  0.6839  0.3535
12305SOL    HW238357   0.856   4.363  10.202  1.1174  0.2742 -1.0049
12306SOL     OW38358   1.740   0.768   0.182 -0.0649  0.1531 -0.6428
12306SOL    HW138359   1.780   0.682   0.184  0.1897  0.2815  1.2117
12306SOL    HW238360   1.813   0.829   0.189 -0.1910  0.5929 -2.4564
12307SOL     OW38361   3.481   0.487   7.444 -0.1662  0.1224 -0.9754
12307SOL    HW138362   3.430   0.538   7.381 -2.0086  0.5152  0.7279
12307SOL    HW238363   3.417   0.432   7.488  0.4068  2.0237  2.6250
12308SOL     OW38364   4.740   4.621   1.251  0.4859  0.1364 -0.1181
12308SOL    HW138365   4.761   4.556   1.184  1.6450 -1.4594  1.6877
12308SOL    HW238366   4.781   4.587   1.331 -0.7574  1.9955  1.3920
12309SOL     OW38367   3.302   7.547  11.161  0.0624  0.6992  0.3169
12309SOL    HW138368   3.304   7.593  11.077 -0.5669  0.7102  0.3063
12309SOL    HW238369   3.257   7.465  11.142 -2.4030  1.7912  1.1713
12310SOL     OW38370   7.772   4.758   7.474  0.5904 -0.6148  0.3691
12310SOL    HW138371   7.805   4.686   7.421  0.3493 -0.5455  0.1247
12310SOL    HW238372   7.843   4.777   7.535  1.7754  0.7039 -1.3026
12311SOL     OW38373   0.073   2.802  12.341  0.2200 -0.8948 -0.3862
12311SOL    HW138374   0.156   2.771  12.305  0.3342  0.0979 -1.0138
12311SOL    HW238375   0.030   2.846  12.267 -0.8777 -1.4268 -0.0734
12312SOL     OW38376   2.066   1.181   2.857  0.0782  0.1407 -0.2322
12312SOL    HW138377   2.120   1.210   2.783 -0.3870 -0.5188 -0.8470
12312SOL    HW238378   2.010   1.113   2.820 -1.1945  0.8266  0.3896
12313SOL     OW38379   1.425   5.207   1.679 -0.6436 -0.4823  0.1566
12313SOL    HW138380   1.499   5.199   1.740 -0.6379  0.9746  0.3761
12313SOL    HW238381   1.455   5.162   1.600 -0.8707 -2.9143  1.3487
12314SOL     OW38382   2.829   6.306  12.092  0.0818 -0.6295  0.8428
12314SOL    HW138383   2.837   6.211  12.091  1.0170 -0.5652 -0.5711
12314SOL    HW238384   2.853   6.331  12.181  1.5194 -1.6192  0.7784
12315SOL     OW38385   2.616   5.678   5.184  0.1763  0.2567 -0.6573
12315SOL    HW138386   2.536   5.727   5.201  0.0313  0.3076 -1.4366
12315SOL    HW238387   2.677   5.706   5.252 -0.5172  0.0873  0.0509
12316SOL     OW38388   2.216   0.551   9.834  0.3941  0.1301 -0.3755
12316SOL    HW138389   2.132   0.551   9.880 -0.3034 -0.9644 -1.5659
12316SOL    HW238390   2.263   0.475   9.870  0.8217  0.6390  0.1640
12317SOL     OW38391   3.414   7.134   2.310 -0.0864  0.9634 -0.1336
12317SOL    HW138392   3.460   7.177   2.238  1.4369  0.0572  0.2408
12317SOL    HW238393   3.411   7.200   2.380  2.0617  0.6264  0.3715
12318SOL     OW38394   1.856   0.118  10.845 -0.0561 -0.1543  0.7287
12318SOL    HW138395   1.779   0.117  10.788  0.1246 -1.2597  0.4831
12318SOL    HW238396   1.928   0.146  10.789 -0.0856 -0.1646  0.6862
12319SOL     OW38397   3.634   0.158  12.385  0.2583  0.3292  0.1317
12319SOL    HW138398   3.633   0.102  12.307 -1.2503  0.3403  0.1232
12319SOL    HW238399   3.632   0.247  12.349  0.0719  0.3444  0.1817
12320SOL     OW38400   4.296   1.553   4.352 -0.0983 -0.1841 -0.4886
12320SOL    HW138401   4.240   1.476   4.353 -0.8373  0.3396 -0.7982
12320SOL    HW238402   4.237   1.627   4.369  0.3682  0.4423 -1.4697
12321SOL     OW38403   5.349   3.210  12.234  0.5347  0.0092  0.5614
12321SOL    HW138404   5.276   3.152  12.214 -1.0104  2.0331 -0.0293
12321SOL    HW238405   5.354   3.212  12.330 -1.1544  0.9302  0.6582
12322SOL     OW38406   2.057   2.995  12.200  0.5001 -0.1088 -0.1882
12322SOL    HW138407   2.142   2.977  12.160 -0.5215 -1.8689 -1.6913
12322SOL    HW238408   2.067   2.968  12.291  1.8240  0.6457 -0.0881
12323SOL     OW38409   3.937   0.791   0.401  0.1562 -0.1667 -0.0161
12323SOL    HW138410   4.020   0.762   0.363  1.2945  1.6507  0.9507
12323SOL    HW238411   3.917   0.727   0.468  0.4395 -0.9611 -0.6721
12324SOL     OW38412   3.895   0.205   1.678 -0.5361 -0.3075  0.7123
12324SOL    HW138413   3.856   0.145   1.614 -0.6965 -1.0307  1.4748
12324SOL    HW238414   3.970   0.156   1.712  0.9379  0.9577 -0.5586
12325SOL     OW38415   4.217   7.523   0.011 -0.0126  0.1306 -0.4942
12325SOL    HW138416   4.308   7.506  -0.012  0.9565  1.6997  1.8086
12325SOL    HW238417   4.202   7.614  -0.017 -0.5612  0.2026  0.0177
12326SOL     OW38418   1.734   7.658   9.059 -0.0927 -0.4437 -0.4631
12326SOL    HW138419   1.705   7.731   9.005  0.8961 -0.5433 -1.1767
12326SOL    HW238420   1.670   7.652   9.130 -0.2848  0.9937 -0.4896
12327SOL     OW38421   2.354   5.706   8.467  0.0793 -0.6704 -0.3250
12327SOL    HW138422   2.330   5.773   8.530  0.4780 -0.8123 -0.0219
12327SOL    HW238423   2.304   5.729   8.388  1.1521  0.7121 -0.6394
12328SOL     OW38424   5.513   7.333   8.954 -0.2202 -0.2686 -0.7310
12328SOL    HW138425   5.446   7.319   8.887  0.5843 -0.8342 -1.4521
12328SOL    HW238426   5.566   7.405   8.919 -0.5744  0.3247 -0.0605
12329SOL     OW38427   1.829   5.710   3.842  0.3342 -0.4073  0.0743
12329SOL    HW138428   1.849   5.616   3.846  0.4160 -0.3641  0.8425
12329SOL    HW238429   1.786   5.729   3.925  1.7710  0.5558  0.6340
12330SOL     OW38430   5.529   5.265   1.937  0.0402 -0.6807  0.0548
12330SOL    HW138431   5.446   5.313   1.932 -0.4458 -1.4758  0.2034
12330SOL    HW238432   5.592   5.322   1.894 -0.6241 -0.1336 -0.2214
12331SOL     OW38433   7.610   7.538   9.555 -0.0695 -0.2650  0.0085
12331SOL    HW138434   7.530   7.487   9.572 -1.0141  1.0065 -0.4165
12331SOL    HW238435   7.665   7.523   9.631 -0.3577 -1.8308 -0.0667
12332SOL     OW38436   4.923   7.230  10.673 -0.0641  0.0575  0.2813
12332SOL    HW138437   4.912   7.156  10.614  1.2718  0.1416 -0.0844
12332SOL    HW238438   4.909   7.193  10.760  0.5813 -0.6167  0.1021
12333SOL     OW38439   1.658   2.700  10.955  0.5717  0.5107  0.0014
12333SOL    HW138440   1.741   2.747  10.970  0.6950  0.7122 -1.2021
12333SOL    HW238441   1.619   2.693  11.042  2.7815 -1.3707  0.9504
12334SOL     OW38442   1.396   1.000   5.310  0.2005  0.4347 -0.2839
12334SOL    HW138443   1.415   0.908   5.329 -1.8114  0.0871  0.2793
12334SOL    HW238444   1.356   1.033   5.390 -0.6540  1.3277 -1.0600
12335SOL     OW38445   2.606   3.128   5.220  0.6434 -0.5778 -0.8724
12335SOL    HW138446   2.562   3.045   5.201  0.6489 -0.7658 -0.0961
12335SOL    HW238447   2.589   3.144   5.313 -1.6279  1.6369 -1.5463
12336SOL     OW38448   0.777   7.482   5.198  0.7881 -0.3770  0.3851
12336SOL    HW138449   0.786   7.566   5.154 -2.0093 -0.0570  0.2429
12336SOL    HW238450   0.818   7.419   5.139 -0.2980  0.4252 -1.2861
12337SOL     OW38451   3.784   0.454   1.470  0.7719 -0.2577 -0.0357
12337SOL    HW138452   3.877   0.431   1.474  0.7383 -0.6227 -1.1740
12337SOL    HW238453   3.769   0.475   1.378  0.3722  2.5453  0.5920
12338SOL     OW38454   1.261   1.919   0.000 -0.0365  0.4679 -0.6187
12338SOL    HW138455   1.340   1.870  -0.024  0.2009 -0.3087  1.5298
12338SOL    HW238456   1.189   1.861  -0.020 -0.1510  1.3270 -2.9515
12339SOL     OW38457   0.168   4.598  11.811  0.0703  0.1414  0.3262
12339SOL    HW138458   0.129   4.533  11.752  1.0759 -0.0402 -0.1577
12339SOL    HW238459   0.115   4.676  11.798  0.6234  0.2871 -1.2994
12340SOL     OW38460   5.848   0.452   3.135  0.3619 -0.5016 -0.3359
12340SOL    HW138461   5.845   0.475   3.228 -0.3667  0.0235 -0.4737
12340SOL    HW238462   5.833   0.358   3.132 -0.7376 -0.3544  0.0307
12341SOL     OW38463   2.514   1.051   1.063 -0.0516  0.0155  0.4879
12341SOL    HW138464   2.593   1.010   1.100 -1.3173 -2.4470  0.6397
12341SOL    HW238465   2.544   1.092   0.982  1.8302  1.3038  1.7499
12342SOL     OW38466   7.542   1.590   5.730  0.4748  0.5801  0.7651
12342SOL    HW138467   7.498   1.675   5.736  1.3696  1.0230  1.1685
12342SOL    HW238468   7.542   1.570   5.636 -0.2099  0.7663  0.7194
12343SOL     OW38469   6.040   4.822  11.295 -0.0710  0.2304  0.2527
12343SOL    HW138470   6.040   4.917  11.305 -1.5677  0.3668 -0.6259
12343SOL    HW238471   6.131   4.799  11.280  0.3012  1.5391  0.3777
12344SOL     OW38472   2.736   4.796   7.129 -0.2782 -0.2362 -0.6087
12344SOL    HW138473   2.762   4.880   7.168  1.2434 -0.4672 -1.0880
12344SOL    HW238474   2.716   4.740   7.204  1.3127 -0.2614 -0.1664
12345SOL     OW38475   0.456   6.284   3.898  0.5200 -0.3284 -0.1965
12345SOL    HW138476   0.501   6.228   3.835  0.8936  0.1046 -0.3135
12345SOL    HW238477   0.387   6.228   3.933  1.0744 -0.9635 -0.0912
12346SOL     OW38478   7.355   3.222   4.257 -0.0015 -0.3546 -0.1649
12346SOL    HW138479   7.279   3.189   4.307  0.2496  0.2310  0.6249
12346SOL    HW238480   7.364   3.313   4.285  0.4541 -0.1615 -0.9320
12347SOL     OW38481   3.701   6.681   8.613  0.1001 -0.3783 -0.0996
12347SOL    HW138482   3.631   6.692   8.549  0.9015  0.4062 -0.8644
12347SOL    HW238483   3.663   6.711   8.695  0.1056  1.9608 -0.8684
12348SOL     OW38484   1.783   4.817   0.594  0.4303  0.4119 -0.4406
12348SOL    HW138485   1.718   4.812   0.664  1.2824  4.6602  0.9293
12348SOL    HW238486   1.825   4.731   0.595 -0.8549 -0.3416  3.0243
12349SOL     OW38487   2.916   3.507  11.946 -0.1670  0.5902  0.2284
12349SOL    HW138488   2.955   3.556  12.019 -3.7644  2.6627  1.0009
12349SOL    HW238489   2.932   3.415  11.967  4.7848  1.0883 -0.0417
12350SOL     OW38490   1.510   6.132  11.481  0.8707 -0.5761 -0.3997
12350SOL    HW138491   1.507   6.140  11.576  5.2915  1.0796 -0.1773
12350SOL    HW238492   1.423   6.161  11.452 -1.0409 -2.2630  3.0651
12351SOL     OW38493   1.649   6.950   2.437 -0.0521  0.4392 -0.1427
12351SOL    HW138494   1.704   7.029   2.432  0.5608  0.0285  0.0021
12351SOL    HW238495   1.627   6.931   2.346  1.5561 -0.4247 -0.3892
12352SOL     OW38496   2.846   2.292   0.061  0.1526 -0.2882  0.3130
12352SOL    HW138497   2.790   2.255   0.129 -0.3108 -0.3315 -0.0789
12352SOL    HW238498   2.880   2.215   0.014  1.4820 -0.3082  1.2642
12353SOL     OW38499   7.665   7.141   6.080  0.4865  0.0196  0.1826
12353SOL    HW138500   7.697   7.229   6.064  0.2886  1.0234  4.3453
12353SOL    HW238501   7.572   7.152   6.102  0.7132 -1.0223  1.8489
12354SOL     OW38502   5.223   6.615  10.908 -0.7212  0.7548 -0.0758
12354SOL    HW138503   5.135   6.623  10.945 -1.2610 -0.8342 -0.9295
12354SOL    HW238504   5.248   6.705  10.885 -2.0801  1.2343  0.2686
12355SOL     OW38505   7.758   7.255   6.332 -0.5155 -0.1818 -0.3446
12355SOL    HW138506   7.756   7.349   6.313  0.2940 -0.1168 -0.1678
12355SOL    HW238507   7.716   7.214   6.257 -1.8219  0.3804  0.0560
12356SOL     OW38508   1.741   1.270   5.539  0.0415  0.2384  0.0764
12356SOL    HW138509   1.743   1.238   5.449  1.2685 -1.0530  0.5312
12356SOL    HW238510   1.786   1.355   5.536  0.6355 -0.0872 -0.4226
12357SOL     OW38511   0.522   5.703   6.603 -0.0052  1.1830 -0.5140
12357SOL    HW138512   0.429   5.684   6.606 -0.1122  1.3936 -1.8325
12357SOL    HW238513   0.543   5.734   6.691 -0.7210 -0.8079  0.3935
12358SOL     OW38514   3.841   7.070   3.863  0.4983  0.4631  0.4482
12358SOL    HW138515   3.867   7.135   3.797 -0.1281  0.8371  0.5629
12358SOL    HW238516   3.907   7.001   3.855 -0.3723 -0.1993 -1.5737
12359SOL     OW38517   0.962   5.905   2.331  0.1448  0.0784  0.5657
12359SOL    HW138518   0.974   5.994   2.298  1.1256 -0.3026 -0.1505
12359SOL    HW238519   0.868   5.897   2.344 -0.3294  0.3001 -2.0885
12360SOL     OW38520   3.641   5.074   2.535  0.2784 -0.6129 -0.1586
12360SOL    HW138521   3.733   5.094   2.522  0.1392  0.5791  0.6096
12360SOL    HW238522   3.619   5.112   2.620 -0.5933 -2.0522  0.2953
12361SOL     OW38523   0.858   3.346   4.118  0.1326 -0.3520  0.0842
12361SOL    HW138524   0.776   3.352   4.168 -0.0791 -0.6508 -0.2224
12361SOL    HW238525   0.849   3.412   4.049  0.4038  0.0252  0.4018
12362SOL     OW38526   5.508   7.775   3.959 -0.5266 -0.0266  0.7768
12362SOL    HW138527   5.595   7.757   3.926 -0.8902 -0.1964 -0.1117
12362SOL    HW238528   5.522   7.833   4.034  0.2162  2.1073 -0.9284
12363SOL     OW38529   1.877   7.076  11.946 -0.0604  0.4188  0.4961
12363SOL    HW138530   1.948   7.085  11.883  0.8296  1.2340  1.5628
12363SOL    HW238531   1.878   6.983  11.971 -0.5513  0.0530 -0.8020
12364SOL     OW38532   2.090   1.851   7.623 -0.4672 -0.1332  0.8706
12364SOL    HW138533   2.000   1.838   7.592 -0.4570  0.7458  0.4247
12364SOL    HW238534   2.143   1.850   7.543  0.2771 -3.0563  1.2854
12365SOL     OW38535   6.368   0.197   2.126 -0.2040  0.4866  0.1882
12365SOL    HW138536   6.457   0.223   2.152  0.0537  0.1538 -0.3223
12365SOL    HW238537   6.339   0.139   2.196 -0.4108  1.3752  0.8544
12366SOL     OW38538   2.009   5.464   8.609 -0.1191 -0.1366 -0.3546
12366SOL    HW138539   2.089   5.457   8.662 -0.3915 -3.0488 -0.1250
12366SOL    HW238540   2.035   5.432   8.523 -0.7621  0.0740 -0.6346
12367SOL     OW38541   4.394   1.184   3.032  0.0727  0.0804 -0.5252
12367SOL    HW138542   4.464   1.234   3.074  0.0909 -0.4657  0.1058
12367SOL    HW238543   4.436   1.139   2.960  0.1305  0.6770 -0.8724
12368SOL     OW38544   1.262   1.415  10.937  0.1242 -0.2114 -0.6154
12368SOL    HW138545   1.261   1.341  10.998 -0.7534  0.6809  0.5078
12368SOL    HW238546   1.303   1.380  10.858  2.6236 -1.0679  0.9176
12369SOL     OW38547   3.442   6.790   4.445  0.6434 -0.1761  0.6845
12369SOL    HW138548   3.511   6.837   4.398 -0.0448  0.8238  0.6210
12369SOL    HW238549   3.468   6.698   4.441  2.0397  0.1897  0.8103
12370SOL     OW38550   4.453   7.647  10.517  0.1911  0.6029  0.9737
12370SOL    HW138551   4.424   7.610  10.601  1.4116 -0.4618  0.9574
12370SOL    HW238552   4.403   7.598  10.451  0.6090  0.1032  1.0190
12371SOL     OW38553   2.971   2.584   3.043  0.1296  0.8947  0.4246
12371SOL    HW138554   3.066   2.596   3.051  1.0595 -1.5020 -3.9771
12371SOL    HW238555   2.959   2.489   3.049 -1.3044  0.7435 -2.8171
12372SOL     OW38556   4.375   4.493   7.546  0.4357  0.3056 -0.4911
12372SOL    HW138557   4.354   4.452   7.630  1.2624  2.6814  0.9815
12372SOL    HW238558   4.414   4.423   7.494  0.9492 -1.0000  1.5263
12373SOL     OW38559   5.560   7.463  10.887  0.2283  0.2238  0.3413
12373SOL    HW138560   5.520   7.376  10.885  2.0715 -0.6562  0.0629
12373SOL    HW238561   5.486   7.523  10.887 -1.0915 -1.3378  0.4812
12374SOL     OW38562   1.142   5.044  11.845 -0.1218 -0.0355 -0.2707
12374SOL    HW138563   1.105   5.074  11.762  0.6638  1.6310 -0.0593
12374SOL    HW238564   1.158   4.951  11.831  1.4071  0.4841 -2.5755
12375SOL     OW38565   2.801   1.121   5.128 -0.0189 -0.0334  0.1553
12375SOL    HW138566   2.804   1.139   5.222  0.4034  0.7533  0.0023
12375SOL    HW238567   2.851   1.040   5.118  0.7255  0.3729  0.5042
12376SOL     OW38568   5.058   0.783  10.026 -0.0014 -0.4072  0.2192
12376SOL    HW138569   5.063   0.877  10.039 -0.6031 -0.1593 -1.1328
12376SOL    HW238570   4.974   0.757  10.066 -1.6113  0.2663 -2.4618
12377SOL     OW38571   3.062   2.083  11.379  0.1443 -0.1097  0.9517
12377SOL    HW138572   3.096   2.086  11.468 -0.1584  0.2536  1.0582
12377SOL    HW238573   3.125   2.031  11.331  0.6564  0.2428  1.2345
12378SOL     OW38574   0.078   3.270   6.394  0.0419 -0.0677 -0.0991
12378SOL    HW138575   0.035   3.220   6.325 -0.4357  0.4909 -0.2143
12378SOL    HW238576   0.172   3.259   6.377 -0.0642  1.3523 -1.8039
12379SOL     OW38577   2.480   2.316   0.262  0.1702  0.4218  0.2082
12379SOL    HW138578   2.390   2.306   0.292  0.1935  0.1107  0.1782
12379SOL    HW238579   2.488   2.254   0.189  0.1024  1.1890 -0.4611
12380SOL     OW38580   4.511   1.068   0.580  0.0298 -0.8041  0.0247
12380SOL    HW138581   4.601   1.089   0.555 -0.3580  2.2026  0.7691
12380SOL    HW238582   4.503   1.102   0.669 -2.0580 -0.2297 -0.3333
12381SOL     OW38583   3.303   0.250  12.302  0.1663 -0.1280  0.3991
12381SOL    HW138584   3.240   0.194  12.258  0.5586 -2.4248  2.5831
12381SOL    HW238585   3.351   0.293  12.231 -1.5863 -0.8941 -1.3131
12382SOL     OW38586   3.006   3.962   5.162 -0.0676 -0.6006  0.6780
12382SOL    HW138587   2.944   3.890   5.154 -0.2041 -0.4355  0.2118
12382SOL    HW238588   2.962   4.027   5.217 -0.5106 -0.2718 -0.0573
12383SOL     OW38589   0.521   3.248   6.226  0.0090 -0.1216 -0.4364
12383SOL    HW138590   0.444   3.192   6.240 -0.0891  0.2190  0.4517
12383SOL    HW238591   0.578   3.229   6.300 -0.6624  1.9758  0.7178
12384SOL     OW38592   7.853   7.720   0.894 -0.3106  0.3755 -0.3441
12384SOL    HW138593   7.818   7.746   0.979 -1.7472  0.3765 -0.9089
12384SOL    HW238594   7.927   7.779   0.880  0.1610  0.1604  1.0266
12385SOL     OW38595   3.410   4.002   8.295 -0.5757 -0.0187 -0.2154
12385SOL    HW138596   3.317   3.996   8.315 -0.4469 -0.0646  0.3839
12385SOL    HW238597   3.423   3.941   8.222 -0.5431 -2.1115  1.4424
12386SOL     OW38598   0.950   6.464   8.834 -0.2615 -0.1901 -0.2804
12386SOL    HW138599   1.015   6.466   8.763  0.3505 -1.4597  0.2164
12386SOL    HW238600   0.939   6.556   8.858  0.6917  0.1295 -0.9803
12387SOL     OW38601   4.836   0.575   4.129 -0.1623 -0.3700  0.2186
12387SOL    HW138602   4.746   0.600   4.153 -1.4138 -1.0823 -3.2437
12387SOL    HW238603   4.859   0.634   4.058  2.8773  0.8951  2.0687
12388SOL     OW38604   1.728   3.187   3.324 -0.0565  1.0513 -0.1208
12388SOL    HW138605   1.781   3.147   3.393 -1.0945 -1.0930 -0.4519
12388SOL    HW238606   1.681   3.258   3.366 -1.0962 -0.5608  1.6032
12389SOL     OW38607   4.292   0.809   5.106  0.8375 -0.2619 -0.4590
12389SOL    HW138608   4.202   0.785   5.125  0.2390  0.6513 -2.0088
12389SOL    HW238609   4.314   0.876   5.172  0.3513 -0.3855 -0.1711
12390SOL     OW38610   7.849   4.361   4.449 -0.0270 -0.3372 -0.0873
12390SOL    HW138611   7.907   4.415   4.503  0.2626 -2.1624  1.4972
12390SOL    HW238612   7.793   4.315   4.511 -1.8901 -0.0920 -1.5139
12391SOL     OW38613   6.718   4.327   4.821  0.1125  0.1669  0.0860
12391SOL    HW138614   6.715   4.232   4.816 -1.6087  0.1830  0.5010
12391SOL    HW238615   6.749   4.346   4.909 -1.9255 -0.0450  0.9045
12392SOL     OW38616   7.672   5.316   8.392 -0.6624 -0.0921  0.0376
12392SOL    HW138617   7.733   5.354   8.329 -1.5106  0.3918 -0.5199
12392SOL    HW238618   7.589   5.361   8.374 -1.1034 -0.5158  0.9795
12393SOL     OW38619   1.237   4.871   3.091 -0.2660  0.2807  0.4069
12393SOL    HW138620   1.202   4.786   3.116  0.7848 -0.1782  0.3469
12393SOL    HW238621   1.278   4.905   3.171  0.9336 -0.1013 -0.0227
12394SOL     OW38622   5.700   5.696   3.653  0.1751  0.5443 -0.0881
12394SOL    HW138623   5.780   5.721   3.699  0.9351  0.4270 -1.3162
12394SOL    HW238624   5.730   5.655   3.572 -1.0897 -1.6674  0.4847
12395SOL     OW38625   7.040   2.338   9.842 -0.2653  0.0662 -0.3115
12395SOL    HW138626   6.997   2.424   9.835  0.7200  0.5540 -0.5463
12395SOL    HW238627   7.125   2.357   9.883 -0.2613 -0.8816  0.1518
12396SOL     OW38628   5.096   2.280   4.739 -0.0157 -0.2977  0.0269
12396SOL    HW138629   5.053   2.243   4.662  0.3773  0.1184 -0.4057
12396SOL    HW238630   5.119   2.369   4.713 -3.4283  1.3373  1.9604
12397SOL     OW38631   4.105   0.816  11.896  0.3080  0.1306  0.0450
12397SOL    HW138632   4.032   0.843  11.841  0.4834  1.3596  0.3914
12397SOL    HW238633   4.112   0.884  11.963  1.4235 -0.2442  0.3402
12398SOL     OW38634   5.407   6.877   8.057 -0.1853  1.0722 -0.0608
12398SOL    HW138635   5.440   6.864   8.145  0.2489 -0.6892 -0.4442
12398SOL    HW238636   5.313   6.860   8.063 -0.0778  0.4785 -0.0178
12399SOL     OW38637   2.051   7.550   5.215  0.5775 -0.1204 -0.3533
12399SOL    HW138638   2.106   7.497   5.158  0.8217 -1.1626  0.7983
12399SOL    HW238639   2.027   7.627   5.162 -2.3944 -2.7487 -3.2714
12400SOL     OW38640   1.902   5.889   4.058  0.2028 -0.0488 -0.2649
12400SOL    HW138641   1.913   5.864   4.150 -0.1693 -0.7862 -0.4127
12400SOL    HW238642   1.982   5.938   4.036  1.2228 -1.5625 -0.1036
12401SOL     OW38643   0.157   1.817   1.253  0.4673  0.2758 -0.0992
12401SOL    HW138644   0.101   1.742   1.275 -1.3905  1.7320  0.4128
12401SOL    HW238645   0.233   1.778   1.209 -0.7268 -1.8392 -0.4367
12402SOL     OW38646   3.174   1.372   9.137  0.7211  0.0763 -0.0996
12402SOL    HW138647   3.185   1.318   9.060  0.6892  2.9443 -2.2917
12402SOL    HW238648   3.262   1.404   9.157  0.7427 -0.6982  1.1618
12403SOL     OW38649   1.396   5.108   0.219  0.0711 -0.3933  0.1927
12403SOL    HW138650   1.332   5.095   0.149  0.2149  1.9812 -0.4505
12403SOL    HW238651   1.405   5.203   0.226  1.4094 -0.6182  2.2297
12404SOL     OW38652   7.149   4.586   0.194  0.0263 -0.1037 -0.4619
12404SOL    HW138653   7.198   4.542   0.264 -0.2420  0.2887 -0.0150
12404SOL    HW238654   7.097   4.516   0.154  0.5513 -0.4235 -0.5979
12405SOL     OW38655   3.495   5.731  10.992 -0.6602  0.2139 -0.3664
12405SOL    HW138656   3.526   5.822  10.990  0.5646 -0.1494  0.4919
12405SOL    HW238657   3.421   5.731  11.053  0.0831  0.4508  0.5632
12406SOL     OW38658   4.879   1.954   9.665 -0.6833 -0.1571  0.0598
12406SOL    HW138659   4.917   2.030   9.621  0.1357 -0.9175 -0.5819
12406SOL    HW238660   4.938   1.936   9.738 -1.5328  0.5365  0.9347
12407SOL     OW38661   5.260   4.800  11.466 -0.1923 -0.1662  0.3519
12407SOL    HW138662   5.235   4.712  11.437 -1.2277  0.4580 -0.7664
12407SOL    HW238663   5.183   4.832  11.514 -0.4802  0.7012 -0.6343
12408SOL     OW38664   3.776   0.027  11.050 -0.0506  0.0632 -0.2795
12408SOL    HW138665   3.709   0.018  10.981  0.9212  1.0744 -1.4009
12408SOL    HW238666   3.858   0.005  11.006  0.6419  1.1592  0.4298
12409SOL     OW38667   2.833   1.637   5.893  0.2573  0.2811  0.1959
12409SOL    HW138668   2.779   1.704   5.935 -0.0219  0.5406 -0.5515
12409SOL    HW238669   2.811   1.644   5.800  0.8563 -0.2790  0.0049
12410SOL     OW38670   3.211   7.534   6.434 -0.1642  0.5068 -0.0036
12410SOL    HW138671   3.142   7.484   6.478 -0.5692  1.3841  0.3764
12410SOL    HW238672   3.192   7.524   6.341 -0.4012  0.1903  0.0770
12411SOL     OW38673   0.769   5.212   3.402 -0.1771  0.1346  0.2023
12411SOL    HW138674   0.856   5.209   3.362 -0.6047 -0.8737 -0.7294
12411SOL    HW238675   0.735   5.123   3.391 -1.8352  0.8297 -0.6494
12412SOL     OW38676   5.700   6.599   0.020 -0.1449  0.3609 -0.1868
12412SOL    HW138677   5.709   6.567   0.110  0.3745  1.7603  0.2915
12412SOL    HW238678   5.616   6.564  -0.010 -0.4458  0.0811  0.9299
12413SOL     OW38679   3.791   6.006  10.485 -0.1845  0.0667  0.4903
12413SOL    HW138680   3.721   6.065  10.458  1.2240  0.8738 -1.6017
12413SOL    HW238681   3.789   5.935  10.421  0.9801  0.1834  0.2999
12414SOL     OW38682   2.123   5.726  11.359 -0.6591 -0.1277  0.0490
12414SOL    HW138683   2.038   5.759  11.389 -1.4740 -0.6481 -1.5697
12414SOL    HW238684   2.153   5.791  11.295 -1.8993 -1.9657 -2.5563
12415SOL     OW38685   2.005   5.083   2.005  0.1478 -0.3474  0.0936
12415SOL    HW138686   2.097   5.079   1.978  0.4800  0.5011  1.0506
12415SOL    HW238687   2.005   5.055   2.096 -0.4293  0.3881  0.3298
12416SOL     OW38688   2.718   0.356  11.466  0.1342  0.7879 -0.2900
12416SOL    HW138689   2.678   0.337  11.381  0.0651  2.6459 -0.7184
12416SOL    HW238690   2.645   0.386  11.520  0.3402  0.5302  0.1353
12417SOL     OW38691   4.628   7.510  11.777  0.1657 -0.4685  0.0669
12417SOL    HW138692   4.644   7.490  11.870  0.1852 -1.4842 -0.1421
12417SOL    HW238693   4.582   7.434  11.744  1.0205 -0.5541 -0.9955
12418SOL     OW38694   0.723   1.667   3.481 -0.5089 -0.3699  0.1986
12418SOL    HW138695   0.732   1.729   3.553 -0.5119 -1.2300  0.9537
12418SOL    HW238696   0.798   1.685   3.425  0.8626 -1.2804  1.6681
12419SOL     OW38697   7.227   3.756   4.229 -0.0048  0.3714 -0.0539
12419SOL    HW138698   7.310   3.805   4.233  0.8448 -1.0076  0.0621
12419SOL    HW238699   7.235   3.691   4.298 -1.5812  0.7370  0.5179
12420SOL     OW38700   5.203   6.986   5.353 -0.1048  0.6279  0.1678
12420SOL    HW138701   5.254   6.933   5.415  0.5878  1.7591  0.6006
12420SOL    HW238702   5.127   7.015   5.403 -0.4732  0.0830 -0.0632
12421SOL     OW38703   1.874   5.179   5.533  0.7174  0.0916  0.3261
12421SOL    HW138704   1.780   5.192   5.516  0.0811 -1.2376  2.3921
12421SOL    HW238705   1.901   5.114   5.469 -0.6793 -2.0451  1.7331
12422SOL     OW38706   4.346   4.322   9.569  0.8361 -0.7926 -0.2412
12422SOL    HW138707   4.382   4.235   9.586  3.1489 -0.4816 -2.6881
12422SOL    HW238708   4.421   4.381   9.581 -0.7767  0.9621  1.7452
12423SOL     OW38709   2.597   3.102   9.279  0.8018  0.2787 -0.6464
12423SOL    HW138710   2.608   3.025   9.335 -0.1024  1.6151  1.4724
12423SOL    HW238711   2.611   3.069   9.190  0.6496 -2.2790  0.2055
12424SOL     OW38712   3.948   0.525   6.249  0.0547 -0.2070 -0.0710
12424SOL    HW138713   3.857   0.495   6.249  0.1302 -0.5617 -1.7490
12424SOL    HW238714   3.945   0.613   6.210  0.4284 -0.2346 -0.1705
12425SOL     OW38715   7.574   7.629  12.100  0.4414  0.6249 -0.2481
12425SOL    HW138716   7.544   7.706  12.052  1.4738  0.1339 -1.7752
12425SOL    HW238717   7.518   7.558  12.069  0.9782  0.3455 -0.5984
12426SOL     OW38718   6.284   2.043   7.763 -1.2698 -0.7409 -0.0617
12426SOL    HW138719   6.200   2.003   7.738 -1.4739 -0.2113 -0.2329
12426SOL    HW238720   6.269   2.137   7.756 -0.6799 -0.6398 -0.0125
12427SOL     OW38721   4.369   4.562   0.416 -0.1055 -0.5764 -0.0124
12427SOL    HW138722   4.426   4.638   0.421 -0.0113 -0.7080  1.1668
12427SOL    HW238723   4.402   4.502   0.483 -1.0556 -1.0460  0.0557
12428SOL     OW38724   4.425   3.152   2.194  0.6602  0.3820 -0.1404
12428SOL    HW138725   4.462   3.071   2.231 -1.3586 -1.0841 -1.1426
12428SOL    HW238726   4.498   3.214   2.194  1.9951 -1.0816  1.6834
12429SOL     OW38727   3.596   5.756   3.766  0.0281  0.0340  0.3101
12429SOL    HW138728   3.532   5.704   3.814 -0.2930  0.7180  0.6229
12429SOL    HW238729   3.549   5.788   3.689 -0.9846  3.0255  1.9974
12430SOL     OW38730   1.414   6.958   8.696  0.7811 -0.6113  0.3478
12430SOL    HW138731   1.335   6.970   8.749  1.5932 -2.0848  1.9587
12430SOL    HW238732   1.383   6.907   8.620  0.4474 -2.9641  1.9452
12431SOL     OW38733   2.451   7.487   7.568 -0.2384 -0.0261  0.2573
12431SOL    HW138734   2.508   7.524   7.635  0.7349  0.2593 -0.6870
12431SOL    HW238735   2.481   7.527   7.486 -0.4376 -1.4221 -0.5411
12432SOL     OW38736   4.678   5.410   7.410 -0.0650  0.0716 -0.2165
12432SOL    HW138737   4.739   5.432   7.341  0.3132 -0.4404 -0.0483
12432SOL    HW238738   4.598   5.385   7.364 -1.0114  3.0430 -0.4211
12433SOL     OW38739   7.347   2.005   2.405 -0.3471 -0.1025 -0.0301
12433SOL    HW138740   7.397   1.942   2.456  1.9049  1.4660 -0.1432
12433SOL    HW238741   7.337   1.965   2.319 -2.0083 -1.7008  0.8283
12434SOL     OW38742   5.326   3.576   3.280 -0.1564 -0.4498  0.4074
12434SOL    HW138743   5.242   3.623   3.279 -0.1304 -0.3376  1.4612
12434SOL    HW238744   5.383   3.631   3.335  0.2508 -1.0966  0.6456
12435SOL     OW38745   7.733   2.233  10.857 -0.1875  0.0189 -0.0947
12435SOL    HW138746   7.783   2.239  10.939 -0.4349 -1.6092  0.2137
12435SOL    HW238747   7.642   2.246  10.883 -0.4140 -1.7796  0.1392
12436SOL     OW38748   2.359   7.890   8.195  0.0075  0.3183  0.5104
12436SOL    HW138749   2.398   7.938   8.268  0.4903 -1.0970  1.2149
12436SOL    HW238750   2.353   7.954   8.124 -0.5638  1.7571  1.8113
12437SOL     OW38751   0.317   7.293   5.170  0.0492 -0.3518  0.3725
12437SOL    HW138752   0.354   7.349   5.101 -1.1814  0.4849  0.3619
12437SOL    HW238753   0.265   7.228   5.122 -0.1091 -0.2967  0.4686
12438SOL     OW38754   2.944   4.574   1.194 -0.7094  0.2355  0.2386
12438SOL    HW138755   3.021   4.541   1.149 -1.8134 -0.0409 -1.5103
12438SOL    HW238756   2.955   4.669   1.193 -0.0050  0.1713  0.7600
12439SOL     OW38757   4.767   5.154  11.520  0.0759 -0.3225  0.3976
12439SOL    HW138758   4.717   5.073  11.517 -0.1245 -0.1583 -1.1692
12439SOL    HW238759   4.834   5.144  11.453 -1.1405  1.5431 -1.1917
12440SOL     OW38760   7.753   5.646   9.423  0.0984  0.2291  0.3748
12440SOL    HW138761   7.670   5.600   9.436 -0.9313  1.3691 -1.6044
12440SOL    HW238762   7.797   5.640   9.508 -2.4646  0.4906  1.8365
12441SOL     OW38763   3.226   3.483  11.879 -0.7013  0.5343 -0.2890
12441SOL    HW138764   3.248   3.390  11.885 -2.2949  0.0420 -1.1860
12441SOL    HW238765   3.133   3.486  11.901 -0.1990  2.2473  1.8614
12442SOL     OW38766   2.527   1.866   2.839  0.4573  0.0258 -0.2536
12442SOL    HW138767   2.502   1.862   2.747  3.0501  0.0382 -1.0242
12442SOL    HW238768   2.488   1.947   2.871  1.0311  0.9757 -1.8592
12443SOL     OW38769   4.410   3.395   8.760  0.2606  0.5021 -0.0230
12443SOL    HW138770   4.437   3.481   8.729 -1.1694  1.1005  0.3311
12443SOL    HW238771   4.492   3.348   8.776  1.0491  1.5875 -0.7672
12444SOL     OW38772   7.258   3.281   2.352 -0.4845 -0.3486 -0.2976
12444SOL    HW138773   7.345   3.262   2.387 -0.2129  0.1062 -0.7178
12444SOL    HW238774   7.214   3.329   2.422 -0.1587  0.0245 -0.3491
12445SOL     OW38775   5.281   0.268   2.891  0.2126  0.0183  0.1487
12445SOL    HW138776   5.370   0.302   2.879  0.3083 -0.6941 -1.4840
12445SOL    HW238777   5.225   0.344   2.875  0.5044  0.6082  1.7502
12446SOL     OW38778   5.393   1.154   3.544  0.5140 -0.1196 -0.0506
12446SOL    HW138779   5.425   1.064   3.544  1.2630  0.1430 -0.3981
12446SOL    HW238780   5.469   1.207   3.519  0.0672  0.6040  0.0958
12447SOL     OW38781   5.844   0.100   7.722  0.3584  0.6495 -0.0536
12447SOL    HW138782   5.791   0.102   7.802 -1.2120  2.0433 -1.0436
12447SOL    HW238783   5.874   0.010   7.715 -0.1384  0.3087  1.6629
12448SOL     OW38784   0.697   7.260   1.363  0.2470 -0.1046 -0.1483
12448SOL    HW138785   0.632   7.200   1.399 -0.7474 -0.7818 -2.8782
12448SOL    HW238786   0.656   7.346   1.369  0.1203 -0.1920  0.3194
12449SOL     OW38787   6.567   0.774   5.420 -0.1314 -0.3312 -0.3206
12449SOL    HW138788   6.646   0.792   5.368 -0.4711  1.9040 -0.1388
12449SOL    HW238789   6.495   0.788   5.359 -0.4951  1.3086  0.4558
12450SOL     OW38790   6.580   3.464   8.384 -0.1754  0.3013 -0.3241
12450SOL    HW138791   6.529   3.384   8.401  0.6565 -0.0326  0.6652
12450SOL    HW238792   6.571   3.478   8.290  0.8305 -1.7870 -0.7809
12451SOL     OW38793   4.711   5.803  10.298 -0.2748 -0.0357 -0.2550
12451SOL    HW138794   4.624   5.830  10.268  0.0462  0.0541 -1.1375
12451SOL    HW238795   4.708   5.707  10.294 -0.7522 -0.0781  0.9511
12452SOL     OW38796   6.318   6.391   4.562  0.4312  0.0168  0.1875
12452SOL    HW138797   6.244   6.334   4.580  0.4658 -1.0441 -2.6111
12452SOL    HW238798   6.280   6.479   4.559 -0.4587 -0.3548  0.1996
12453SOL     OW38799   0.433   6.875   3.090  0.4546  1.0783 -0.0875
12453SOL    HW138800   0.389   6.925   3.021  0.1848 -0.6686 -1.2334
12453SOL    HW238801   0.361   6.843   3.145  0.3280 -0.6436 -1.1846
12454SOL     OW38802   2.752   3.988  11.331  0.8226  0.3461  0.3169
12454SOL    HW138803   2.830   3.934  11.348  2.1483  1.1595 -2.5329
12454SOL    HW238804   2.772   4.072  11.373  1.1530  0.2904  0.2768
12455SOL     OW38805   3.155   2.304   7.827  0.5249 -0.0772 -0.0327
12455SOL    HW138806   3.243   2.337   7.845  1.1268 -1.4722 -0.2656
12455SOL    HW238807   3.118   2.286   7.914 -0.0672  1.7311  0.1363
12456SOL     OW38808   0.015   3.787   6.651 -0.0504 -0.3256  0.0014
12456SOL    HW138809   0.049   3.871   6.680 -0.2686 -0.2491  0.0382
12456SOL    HW238810  -0.007   3.801   6.558 -0.3047 -0.2737  0.0689
12457SOL     OW38811   4.598   7.321   4.605 -0.3079 -0.6114  0.1158
12457SOL    HW138812   4.629   7.331   4.695  0.1865  2.0614 -0.2780
12457SOL    HW238813   4.535   7.249   4.609  0.7795 -1.5319  2.2843
12458SOL     OW38814   7.537   6.052   2.417 -0.0824 -0.0139  0.6458
12458SOL    HW138815   7.615   6.016   2.460  0.2001 -0.6357 -0.3416
12458SOL    HW238816   7.463   6.015   2.465  0.2311  0.3041  1.3776
12459SOL     OW38817   0.664   6.361  10.474  0.3260  0.1042  0.1805
12459SOL    HW138818   0.637   6.301  10.405  1.0062  2.7710 -2.6371
12459SOL    HW238819   0.752   6.390  10.448  0.8671  0.8078  2.5080
12460SOL     OW38820   7.917   5.769   1.832  0.5444  0.0415 -0.7073
12460SOL    HW138821   7.959   5.748   1.749  0.2071 -0.3799 -0.7761
12460SOL    HW238822   7.843   5.824   1.809  0.8332  0.4786 -0.6188
12461SOL     OW38823   5.254   3.884  11.978  0.0161 -0.2166  0.2886
12461SOL    HW138824   5.267   3.821  11.906  0.8966 -0.4295  0.6143
12461SOL    HW238825   5.195   3.950  11.942 -0.4330 -0.9038 -0.2677
12462SOL     OW38826   6.366   4.149   1.841  0.3378  0.7683  0.0933
12462SOL    HW138827   6.314   4.194   1.775  1.0426 -0.2072 -1.1906
12462SOL    HW238828   6.350   4.056   1.825  0.8915  0.4992  1.0009
12463SOL     OW38829   5.538   2.172   0.170  0.3860 -0.2581  0.5265
12463SOL    HW138830   5.457   2.170   0.119  0.8553  0.2336 -0.2525
12463SOL    HW238831   5.608   2.170   0.105  1.0001 -0.3013  1.1743
12464SOL     OW38832   3.332   2.948   7.776  0.0246 -0.1940 -0.5353
12464SOL    HW138833   3.284   2.876   7.734  0.9439 -0.2139 -1.5839
12464SOL    HW238834   3.414   2.909   7.805  0.0270  0.1739 -0.0255
12465SOL     OW38835   6.284   1.394   6.703  0.3676  0.4298  0.6026
12465SOL    HW138836   6.254   1.483   6.726 -0.3800  0.1154  0.8802
12465SOL    HW238837   6.374   1.390   6.736  0.6721  1.3333 -0.0702
12466SOL     OW38838   2.806   5.090   3.724  0.5369  0.4693 -0.2942
12466SOL    HW138839   2.767   5.093   3.637  1.1994  2.9490 -0.5744
12466SOL    HW238840   2.867   5.017   3.720  0.2692  0.2970 -1.7819
12467SOL     OW38841   0.829   5.237   3.870 -0.3190  0.2199  0.0563
12467SOL    HW138842   0.785   5.282   3.798 -0.8745  0.7781  0.7273
12467SOL    HW238843   0.911   5.206   3.832 -0.9708 -0.2267 -1.0298
12468SOL     OW38844   7.044   6.226   3.143 -0.1521  0.4960  0.1544
12468SOL    HW138845   7.112   6.211   3.077  0.1100  1.7670  0.1114
12468SOL    HW238846   7.070   6.308   3.185 -2.1670  1.5536 -0.5239
12469SOL     OW38847   5.309   2.923   6.862 -0.5964 -1.1068  0.3226
12469SOL    HW138848   5.291   2.958   6.774 -0.1862  0.3909  0.8002
12469SOL    HW238849   5.401   2.942   6.877 -1.2256  1.1421  2.0700
12470SOL     OW38850   3.050   4.654   5.530  0.1137  0.3484 -0.9198
12470SOL    HW138851   3.105   4.715   5.578  0.0186 -0.4431  0.2674
12470SOL    HW238852   3.111   4.597   5.484  0.4865 -1.6596  1.7940
12471SOL     OW38853   4.270   4.396   7.772 -0.0919  0.0868 -0.5756
12471SOL    HW138854   4.322   4.321   7.801  1.2839  0.8768 -0.8905
12471SOL    HW238855   4.189   4.390   7.823  0.4292 -1.0046  0.1792
12472SOL     OW38856   4.185   2.819   7.081  0.7330  0.0241 -0.2344
12472SOL    HW138857   4.132   2.750   7.043  0.3071 -0.5770  1.3579
12472SOL    HW238858   4.158   2.822   7.173  1.6583  1.4387  0.0221
12473SOL     OW38859   3.830   3.305   1.735  0.0929 -0.3941 -0.0379
12473SOL    HW138860   3.902   3.257   1.775  0.9680  0.9486  0.0800
12473SOL    HW238861   3.798   3.364   1.804  0.1922  0.4130 -0.6618
12474SOL     OW38862   2.885   3.472  11.095  0.9186  0.0200  0.2356
12474SOL    HW138863   2.814   3.438  11.148 -0.5736  1.4289 -0.7620
12474SOL    HW238864   2.929   3.536  11.151  0.1196  0.6106  0.1986
12475SOL     OW38865   4.858   5.459  11.323  0.1093  0.4976 -0.1878
12475SOL    HW138866   4.831   5.391  11.385  0.3370  0.5399 -0.0409
12475SOL    HW238867   4.877   5.535  11.379  1.3726  0.2134 -0.2039
12476SOL     OW38868   6.974   4.929   1.187 -0.4486  0.4193 -0.2391
12476SOL    HW138869   7.006   4.842   1.208  2.3557  1.6235  1.0248
12476SOL    HW238870   6.985   4.937   1.093 -0.5932 -0.5256 -0.3440
12477SOL     OW38871   3.029   3.979   8.680 -0.1915  0.1388 -0.4738
12477SOL    HW138872   3.026   4.070   8.710 -1.5559  0.6869 -2.1047
12477SOL    HW238873   2.939   3.948   8.689 -0.4042 -0.0591 -2.6694
12478SOL     OW38874   7.638   1.118   9.361 -0.5603  0.1762  1.0844
12478SOL    HW138875   7.609   1.116   9.270 -0.4771 -2.1778  1.0455
12478SOL    HW238876   7.711   1.056   9.364 -0.0364  0.8255  2.5969
12479SOL     OW38877   1.031   6.331   6.421  0.0323 -0.0635  0.0526
12479SOL    HW138878   1.050   6.278   6.343 -0.8620 -1.1648  0.5558
12479SOL    HW238879   1.098   6.304   6.484 -0.3006 -0.4397  0.2428
12480SOL     OW38880   4.903   6.099   1.450  0.3443  0.1623  0.5014
12480SOL    HW138881   4.907   6.059   1.537 -1.3849 -0.0729  0.5086
12480SOL    HW238882   4.905   6.025   1.390 -2.0567 -0.0027  0.4943
12481SOL     OW38883   7.303   7.284   5.353 -0.3107 -0.5745 -0.4182
12481SOL    HW138884   7.323   7.377   5.351  0.5844 -0.6342  2.1579
12481SOL    HW238885   7.209   7.279   5.367 -0.2789 -0.0429 -0.0073
12482SOL     OW38886   1.258   1.832   3.656  0.3519 -0.2487 -0.3947
12482SOL    HW138887   1.337   1.781   3.636  0.3095 -0.2448 -0.5784
12482SOL    HW238888   1.289   1.922   3.665  0.5257 -0.4017  0.5903
12483SOL     OW38889   5.545   6.558   4.371 -0.6794  0.0146 -0.5082
12483SOL    HW138890   5.582   6.611   4.301 -2.8472  0.9071 -1.0584
12483SOL    HW238891   5.506   6.483   4.326  0.6104 -1.0509  0.0801
12484SOL     OW38892   1.882   7.785   2.529  0.4246 -0.2826  0.1042
12484SOL    HW138893   1.856   7.735   2.606  2.1413  0.2522  1.0679
12484SOL    HW238894   1.894   7.719   2.460 -0.7702 -0.7999  0.3683
12485SOL     OW38895   7.622   1.073   3.620  0.3260 -0.5833 -0.4559
12485SOL    HW138896   7.568   1.152   3.627  0.1463 -0.8349  1.8617
12485SOL    HW238897   7.706   1.104   3.585  0.6128  0.8598  1.3725
12486SOL     OW38898   7.806   5.402   0.930  0.4139 -0.3201  0.2482
12486SOL    HW138899   7.850   5.364   0.853  0.2857 -0.4494  0.2385
12486SOL    HW238900   7.715   5.372   0.923  0.1342  0.5626 -0.1444
12487SOL     OW38901   3.371   0.116   7.380  0.2196  0.2081  0.2501
12487SOL    HW138902   3.308   0.125   7.309  0.3895 -0.1087  0.0559
12487SOL    HW238903   3.450   0.159   7.348 -0.0436  1.0516  0.6898
12488SOL     OW38904   2.588   5.319   0.409  0.0518 -0.1356 -0.0627
12488SOL    HW138905   2.646   5.256   0.452 -1.1530 -0.8722  0.5515
12488SOL    HW238906   2.582   5.391   0.472 -0.1916 -0.3430  0.1540
12489SOL     OW38907   2.986   3.785  11.094  0.1374  0.0621  0.2324
12489SOL    HW138908   2.978   3.807  11.187 -0.6497 -3.1699  1.0459
12489SOL    HW238909   3.062   3.726  11.089 -1.3276 -1.8751 -0.6591
12490SOL     OW38910   4.731   6.197   4.672 -0.2503 -0.2224 -0.9862
12490SOL    HW138911   4.790   6.187   4.746 -0.4428 -0.9480 -0.9324
12490SOL    HW238912   4.746   6.288   4.643 -0.3536  0.1482  0.0768
12491SOL     OW38913   3.824   6.358   2.230 -0.7472  0.0595  0.0362
12491SOL    HW138914   3.759   6.297   2.267 -0.1908 -0.8868 -0.5267
12491SOL    HW238915   3.873   6.307   2.166  1.3174  0.4352  1.2257
12492SOL     OW38916   7.455   6.695   8.126 -0.1912  0.1250  0.1659
12492SOL    HW138917   7.459   6.747   8.046  0.1797 -1.1322 -0.6664
12492SOL    HW238918   7.459   6.604   8.096 -2.1840 -0.4590  1.4777
12493SOL     OW38919   4.305   0.637   7.755 -0.4723 -0.1004  0.2972
12493SOL    HW138920   4.271   0.590   7.831 -2.0888 -0.4096 -0.5678
12493SOL    HW238921   4.229   0.682   7.719  0.0488 -0.6948 -1.6652
12494SOL     OW38922   2.361   1.250   3.871  0.2573  0.8328 -0.1848
12494SOL    HW138923   2.343   1.334   3.913 -3.2804  0.4227 -0.5701
12494SOL    HW238924   2.360   1.269   3.777  1.0017  0.5692 -0.2576
12495SOL     OW38925   2.030   2.568   1.284 -0.0994 -0.3709 -0.0110
12495SOL    HW138926   2.090   2.642   1.282 -0.0516 -0.4060  0.1376
12495SOL    HW238927   2.086   2.491   1.274 -0.0407 -0.4471  0.8680
12496SOL     OW38928   1.681   4.365   6.919  0.1386  0.5750 -0.1792
12496SOL    HW138929   1.735   4.443   6.918 -1.1117  1.5154 -2.5767
12496SOL    HW238930   1.627   4.374   6.998  1.6970  0.8574  0.8778
12497SOL     OW38931   1.312   7.064   4.452  0.0040  0.0907 -0.7469
12497SOL    HW138932   1.275   6.979   4.476  1.8363 -0.7443 -0.7315
12497SOL    HW238933   1.353   7.048   4.367  0.3799  0.9677 -0.7320
12498SOL     OW38934   5.805   2.474   6.739 -0.3936  0.6846  0.1066
12498SOL    HW138935   5.889   2.512   6.764  0.3908 -1.7359  1.4865
12498SOL    HW238936   5.823   2.425   6.659 -0.6840  0.7801 -0.0197
12499SOL     OW38937   2.961   5.070   0.925 -0.8174 -0.4291 -0.6317
12499SOL    HW138938   2.990   4.979   0.923  1.4526  0.2428 -1.0128
12499SOL    HW238939   2.879   5.068   0.975 -0.6165 -2.6016 -0.3011
12500SOL     OW38940   4.635   6.113   5.086 -0.4029  0.4504  0.5121
12500SOL    HW138941   4.637   6.032   5.035  0.0807 -0.0285  1.2635
12500SOL    HW238942   4.549   6.113   5.128 -0.5577  0.5256  0.1923
12501SOL     OW38943   2.655   4.330   7.206  0.4882  0.5354  0.0753
12501SOL    HW138944   2.597   4.358   7.277 -1.4084 -0.3902 -1.0106
12501SOL    HW238945   2.643   4.235   7.202  0.7728  0.5400 -1.2664
12502SOL     OW38946   4.774   3.032   2.177  0.1693  0.2489  0.3396
12502SOL    HW138947   4.719   2.959   2.150  0.2725  0.1471  0.4040
12502SOL    HW238948   4.790   3.081   2.097  1.7778 -0.9164 -0.1015
12503SOL     OW38949   6.789   1.869   1.893  0.1608  0.1198 -0.8558
12503SOL    HW138950   6.866   1.926   1.891  0.5157 -0.2528  0.6500
12503SOL    HW238951   6.726   1.911   1.835  0.5690  1.8171 -0.1139
12504SOL     OW38952   3.496   6.753   8.437 -0.2428 -0.4328  0.1212
12504SOL    HW138953   3.421   6.797   8.397  0.0067  0.0947  0.2252
12504SOL    HW238954   3.542   6.714   8.363 -0.8910 -1.1969  0.1050
12505SOL     OW38955   3.731   4.100   2.677 -0.0383  0.0074 -0.3635
12505SOL    HW138956   3.691   4.090   2.763 -0.7925 -0.9163 -0.8088
12505SOL    HW238957   3.715   4.017   2.632  0.6193  0.3537 -1.2872
12506SOL     OW38958   0.853   5.754  12.384 -0.5238  0.0070 -0.5322
12506SOL    HW138959   0.869   5.716  12.297  1.3573  0.3868 -0.3937
12506SOL    HW238960   0.870   5.682  12.445 -0.8204  0.0183 -0.4369
12507SOL     OW38961   6.553   4.978   1.184  0.0148 -0.4415 -0.0023
12507SOL    HW138962   6.564   5.020   1.269  0.9016 -1.7506  0.5714
12507SOL    HW238963   6.592   5.040   1.122 -0.2933  0.3552  0.5820
12508SOL     OW38964   7.570   2.093   0.807  0.0830 -0.2119 -0.0482
12508SOL    HW138965   7.623   2.093   0.727  0.8845 -0.9220  0.4698
12508SOL    HW238966   7.506   2.162   0.793  0.8928  0.4000 -0.8633
12509SOL     OW38967   7.325   7.829   4.514  0.0072  0.0366  0.3556
12509SOL    HW138968   7.358   7.825   4.604 -1.1073 -0.3675  0.7664
12509SOL    HW238969   7.291   7.918   4.505  2.3808  0.9299 -0.5341
12510SOL     OW38970   6.647   4.134   1.557  0.2007 -0.7387 -0.0241
12510SOL    HW138971   6.653   4.128   1.462  0.1983 -1.3316  0.0076
12510SOL    HW238972   6.611   4.221   1.574  1.7010  0.0171 -0.5000
12511SOL     OW38973   7.391   1.450  11.193 -0.7167 -0.0838  0.0544
12511SOL    HW138974   7.468   1.485  11.238 -1.6012  0.3923  1.2570
12511SOL    HW238975   7.398   1.483  11.104  1.7086 -2.0215 -0.5724
12512SOL     OW38976   7.078   6.839   6.519 -0.4567 -0.0102 -0.5383
12512SOL    HW138977   7.032   6.762   6.552 -4.1014  1.0081 -2.6788
12512SOL    HW238978   7.027   6.913   6.550  1.4074  1.4526 -0.7635
12513SOL     OW38979   7.473   3.777   5.531 -0.0675 -0.7709  0.1475
12513SOL    HW138980   7.501   3.798   5.620 -0.7098 -0.8844  0.3777
12513SOL    HW238981   7.386   3.739   5.541  0.0514 -1.2308 -0.4856
12514SOL     OW38982   6.058   5.903   3.032  0.1400 -0.5224 -0.8121
12514SOL    HW138983   6.135   5.940   2.988  0.1515  0.3160 -0.1082
12514SOL    HW238984   6.079   5.810   3.041  1.0135 -0.3365 -0.7789
12515SOL     OW38985   0.546   6.351   6.935  0.0031  0.4673 -0.3432
12515SOL    HW138986   0.473   6.410   6.915  0.1732  0.6218 -0.5096
12515SOL    HW238987   0.592   6.341   6.852  2.3566  3.3266  0.4387
12516SOL     OW38988   1.558   7.726  10.734 -0.2052 -0.1669  0.0811
12516SOL    HW138989   1.529   7.817  10.726  0.8172  0.3107  1.3301
12516SOL    HW238990   1.555   7.709  10.828  1.0574 -0.9160  0.0014
12517SOL     OW38991   7.858   1.932  12.056 -0.2332  0.0254 -0.0418
12517SOL    HW138992   7.909   1.948  11.977  0.5921  1.5033  0.7274
12517SOL    HW238993   7.916   1.960  12.127 -1.3754 -0.1664  1.0043
12518SOL     OW38994   0.390   7.690   9.780 -0.1915  0.5158  0.2102
12518SOL    HW138995   0.374   7.621   9.715  2.3085 -0.1613  0.2341
12518SOL    HW238996   0.387   7.645   9.864 -0.6120  0.8580  0.3840
12519SOL     OW38997   6.570   0.223   6.881 -0.4635 -0.1822 -0.1942
12519SOL    HW138998   6.658   0.245   6.851  0.3388 -1.8147  0.8709
12519SOL    HW238999   6.554   0.135   6.848 -1.5466 -0.0840  0.0093
12520SOL     OW39000   1.848   3.533   0.216 -0.1256  0.5688  0.0536
12520SOL    HW139001   1.783   3.555   0.284 -1.3956 -1.2585 -0.4984
12520SOL    HW239002   1.823   3.446   0.186  1.1803  0.7923 -1.8751
12521SOL     OW39003   0.101   5.918   1.339  0.3980 -0.0210 -0.5534
12521SOL    HW139004   0.042   5.985   1.373  1.1520 -0.0987  0.9898
12521SOL    HW239005   0.048   5.868   1.277 -0.8354  0.5674  0.0026
12522SOL     OW39006   4.018   3.615   5.266  0.1780  0.5622  0.1184
12522SOL    HW139007   3.994   3.541   5.321  0.0843  0.7174  0.2881
12522SOL    HW239008   4.093   3.584   5.215  0.0574  0.3079  0.0924
12523SOL     OW39009   3.905   6.878  10.842 -0.2205  0.0839 -0.6228
12523SOL    HW139010   3.988   6.921  10.823 -1.2652  2.0293 -0.9846
12523SOL    HW239011   3.841   6.921  10.786 -1.4527 -1.6059 -0.6135
12524SOL     OW39012   2.914   0.221   7.356 -0.2858  0.1194  0.2293
12524SOL    HW139013   2.936   0.133   7.324 -1.2342 -0.3402  0.7670
12524SOL    HW239014   2.869   0.204   7.439  1.2381  1.2148  1.3191
12525SOL     OW39015   1.340   0.723   8.650  0.3165  0.4615 -0.1110
12525SOL    HW139016   1.424   0.684   8.674  0.3827 -0.2697 -1.4142
12525SOL    HW239017   1.327   0.793   8.713  0.1527 -1.6861  2.4410
12526SOL     OW39018   7.063   7.108  10.400 -0.1255  0.0442 -0.3055
12526SOL    HW139019   7.143   7.057  10.410 -0.2229  0.0959  0.9882
12526SOL    HW239020   7.073   7.180  10.463 -1.3575 -0.1895  0.1875
12527SOL     OW39021   5.632   0.886   2.715  0.3517 -0.1124 -0.0526
12527SOL    HW139022   5.682   0.824   2.662  0.2756  0.2335 -0.5352
12527SOL    HW239023   5.681   0.968   2.708 -0.0486  0.1194 -0.1773
12528SOL     OW39024   7.566   3.360   8.996  0.0883  0.1860 -0.7088
12528SOL    HW139025   7.594   3.301   8.926  0.1519 -1.5096  0.6947
12528SOL    HW239026   7.647   3.394   9.034  0.1509 -0.8568  0.1357
12529SOL     OW39027   0.389   0.021   5.839 -0.0062 -0.3314  0.2793
12529SOL    HW139028   0.297   0.046   5.839  0.1977  0.4494  0.8162
12529SOL    HW239029   0.436   0.102   5.816  0.5224 -0.8174 -0.4050
12530SOL     OW39030   0.027   3.221   6.723 -0.0599  0.4021 -0.0425
12530SOL    HW139031   0.018   3.141   6.775  3.2877 -0.9902 -1.2718
12530SOL    HW239032   0.057   3.287   6.786  1.9129 -0.7043  0.2803
12531SOL     OW39033   0.175   6.641   6.065  0.6791 -0.2252 -0.5411
12531SOL    HW139034   0.226   6.722   6.078  0.3682  0.0145 -0.8029
12531SOL    HW239035   0.156   6.639   5.972 -0.2797 -0.0085 -0.3692
12532SOL     OW39036   1.484   1.508  10.280 -0.6591  0.2927  0.1810
12532SOL    HW139037   1.560   1.557  10.248  0.0041 -1.1043 -0.5155
12532SOL    HW239038   1.409   1.549  10.237  0.0562 -0.4490 -1.8952
12533SOL     OW39039   5.123   2.773   1.308  0.3370 -0.4477  0.0537
12533SOL    HW139040   5.031   2.745   1.313  0.4472 -0.7871  0.1508
12533SOL    HW239041   5.120   2.867   1.328  0.0327 -0.4966  0.2459
12534SOL     OW39042   2.635   6.302   9.196  0.5625  0.3083 -0.3384
12534SOL    HW139043   2.688   6.287   9.274  1.0940  1.3469 -0.4830
12534SOL    HW239044   2.555   6.344   9.229  0.5141  0.1805 -0.2914
12535SOL     OW39045   1.799   5.329   0.644  0.1727  0.0262 -0.1867
12535SOL    HW139046   1.851   5.354   0.721  1.6468 -1.6042 -0.5838
12535SOL    HW239047   1.756   5.247   0.670  0.5411 -0.4411 -1.0132
12536SOL     OW39048   2.687   1.609  11.061 -0.3338  0.4520 -0.5071
12536SOL    HW139049   2.659   1.556  10.987 -1.0903  0.6515 -0.3732
12536SOL    HW239050   2.606   1.636  11.104  0.0476  1.4876 -0.4079
12537SOL     OW39051   4.886   2.040   5.180  0.4036 -0.1785  0.2301
12537SOL    HW139052   4.900   2.039   5.085 -0.8237  1.9771 -0.0554
12537SOL    HW239053   4.968   2.009   5.217  1.1012 -0.5427 -1.5356
12538SOL     OW39054   5.981   2.305   0.875  0.5421  0.0815 -0.3875
12538SOL    HW139055   6.042   2.341   0.810 -0.0289  0.8018 -0.5413
12538SOL    HW239056   5.897   2.300   0.828  0.0263  1.0031  0.4200
12539SOL     OW39057   5.929   2.530  10.447  0.1303  0.0105 -0.3768
12539SOL    HW139058   5.876   2.530  10.367  0.4602  1.7431 -0.6416
12539SOL    HW239059   6.007   2.580  10.424  1.4540 -1.6454  0.3078
12540SOL     OW39060   0.764   6.255   7.485  0.4974 -0.1506 -0.1030
12540SOL    HW139061   0.689   6.314   7.478  0.7847  0.0904 -1.2346
12540SOL    HW239062   0.809   6.263   7.402 -0.1209 -2.8901 -0.8021
12541SOL     OW39063   7.474   4.488   5.251  0.3253 -0.2838 -0.2493
12541SOL    HW139064   7.409   4.440   5.302 -0.0619  0.8008  0.3031
12541SOL    HW239065   7.485   4.437   5.171 -3.1187  0.7967 -1.5622
12542SOL     OW39066   6.581   6.391   0.507 -0.0127 -0.8198 -0.0199
12542SOL    HW139067   6.662   6.427   0.471  0.7955 -0.6615  1.8356
12542SOL    HW239068   6.574   6.304   0.469  1.1643 -0.9152 -0.0591
12543SOL     OW39069   1.209   3.060   3.129 -0.4333  0.0205 -0.1167
12543SOL    HW139070   1.150   2.986   3.143  0.4696 -0.5308  0.9916
12543SOL    HW239071   1.294   3.028   3.158  0.2789  1.0281 -1.0149
12544SOL     OW39072   4.688   0.242   5.713  0.1067  0.2959 -0.2893
12544SOL    HW139073   4.640   0.279   5.787  1.4690 -0.5073  1.0670
12544SOL    HW239074   4.763   0.300   5.702 -0.5176  0.8909 -1.6369
12545SOL     OW39075   4.475   1.789   9.460  0.0111  0.7386 -0.1161
12545SOL    HW139076   4.406   1.735   9.422  1.2183 -2.2420  1.6477
12545SOL    HW239077   4.428   1.858   9.508 -1.6687 -0.1045 -0.4920
12546SOL     OW39078   1.539   6.026   0.964 -0.4215  0.5736  0.5032
12546SOL    HW139079   1.457   5.978   0.974 -0.5439  0.6777  0.0420
12546SOL    HW239080   1.553   6.029   0.869  0.3905  0.0851  0.5987
12547SOL     OW39081   3.726   7.013   1.372 -1.0555  0.1357 -0.1569
12547SOL    HW139082   3.776   7.035   1.293 -1.1575  1.7986  0.2020
12547SOL    HW239083   3.698   7.098   1.407 -0.6102 -0.5021  1.9256
12548SOL     OW39084   3.083   1.876   1.359  0.1097 -0.3000  0.2235
12548SOL    HW139085   3.097   1.966   1.330 -0.1248 -0.5507 -0.7028
12548SOL    HW239086   3.078   1.882   1.454  2.1706  0.3853  0.3385
12549SOL     OW39087   5.891   0.279   4.088 -0.1075  0.4251 -0.2073
12549SOL    HW139088   5.983   0.252   4.087  0.3745  1.9285  0.1304
12549SOL    HW239089   5.866   0.282   3.996  0.2109  0.0952 -0.3060
12550SOL     OW39090   0.045   4.916   0.708  0.2447  0.1929  1.0165
12550SOL    HW139091   0.047   4.824   0.679 -0.1123  0.5645 -0.2380
12550SOL    HW239092  -0.048   4.936   0.716  0.3055  0.6847  0.4933
12551SOL     OW39093   3.904   1.205   9.713  0.5255  0.3449 -0.1236
12551SOL    HW139094   3.808   1.209   9.712  0.4140 -1.2412 -1.8245
12551SOL    HW239095   3.932   1.296   9.715 -1.0675  0.9567 -2.0559
12552SOL     OW39096   1.944   3.320   8.681 -0.8650  0.0398  0.5957
12552SOL    HW139097   2.027   3.275   8.663  0.3545  0.8720  3.5250
12552SOL    HW239098   1.970   3.410   8.702 -2.5199  0.3569  1.4187
12553SOL     OW39099   6.572   3.793   1.538 -0.2403  0.4557 -0.3936
12553SOL    HW139100   6.625   3.868   1.562 -0.3623  0.8307 -1.2477
12553SOL    HW239101   6.633   3.732   1.496 -0.3134  0.5056 -0.5770
12554SOL     OW39102   7.559   0.606   5.366  0.2386  1.0589  0.0893
12554SOL    HW139103   7.475   0.608   5.412  0.6054  3.6042  0.7960
12554SOL    HW239104   7.539   0.575   5.278 -0.9842 -0.9098  1.0076
12555SOL     OW39105   0.039   4.270   7.522  0.5959  0.2749  0.4916
12555SOL    HW139106   0.015   4.316   7.442 -0.8501 -2.0138 -0.5017
12555SOL    HW239107   0.012   4.330   7.592 -1.1055  1.0210 -0.7092
12556SOL     OW39108   0.736   6.610   1.869  0.6679  0.2998  0.4030
12556SOL    HW139109   0.814   6.651   1.832  2.0639 -2.2502  0.2610
12556SOL    HW239110   0.714   6.540   1.807 -1.8808  1.0452  0.3622
12557SOL     OW39111   7.261   4.590  12.198  0.3453 -0.0395  0.2240
12557SOL    HW139112   7.231   4.636  12.277  0.3979 -0.9013  0.7623
12557SOL    HW239113   7.356   4.584  12.209  0.7027  2.1360 -1.1812
12558SOL     OW39114   7.288   5.824  11.763 -0.5596 -0.2903 -0.4534
12558SOL    HW139115   7.372   5.849  11.803 -0.5201  0.1747 -0.8114
12558SOL    HW239116   7.292   5.729  11.757 -0.6608 -0.3872  0.8310
12559SOL     OW39117   0.863   7.255   6.326 -0.4177  0.3831  0.2561
12559SOL    HW139118   0.884   7.308   6.249 -3.0154  1.4638  0.1741
12559SOL    HW239119   0.828   7.173   6.290 -0.2243  0.2825  0.3000
12560SOL     OW39120   5.747   3.211  10.677  0.0966  0.5701  0.1679
12560SOL    HW139121   5.794   3.131  10.656 -0.5589  0.0706  0.5385
12560SOL    HW239122   5.753   3.219  10.772 -0.9191  0.2565  0.2710
12561SOL     OW39123   5.773   4.332   2.193  0.5508  0.2473  0.2497
12561SOL    HW139124   5.679   4.331   2.177  0.6746  1.7057 -0.7964
12561SOL    HW239125   5.799   4.240   2.194 -0.8156 -0.1487  0.1626
12562SOL     OW39126   5.032   4.293   5.107  0.6752 -0.1910  0.1562
12562SOL    HW139127   5.001   4.296   5.197 -1.9152  0.8798 -0.6733
12562SOL    HW239128   5.109   4.237   5.110  0.8808  0.1057  3.0670
12563SOL     OW39129   0.718   0.029   7.299 -0.6942 -0.4122  0.5947
12563SOL    HW139130   0.699   0.035   7.393  0.0264 -1.1389  0.8048
12563SOL    HW239131   0.730  -0.065   7.283  1.0329 -0.1645  0.1788
12564SOL     OW39132   4.150   6.321   6.042 -0.4596  0.0065 -0.8399
12564SOL    HW139133   4.080   6.336   6.105  0.0663 -1.3266  0.1076
12564SOL    HW239134   4.209   6.260   6.086  2.9001  3.2195 -0.4000
12565SOL     OW39135   1.058   4.563   9.461  0.1511  0.0293 -0.4798
12565SOL    HW139136   1.122   4.571   9.531 -0.0519 -0.3027 -0.2521
12565SOL    HW239137   0.977   4.598   9.499 -0.3848 -1.6861  0.0329
12566SOL     OW39138   1.795   2.793   2.485  0.6212 -0.0469  0.2070
12566SOL    HW139139   1.879   2.757   2.512  0.3298  0.2870  1.6758
12566SOL    HW239140   1.732   2.754   2.546 -0.2645 -0.1759 -0.7747
12567SOL     OW39141   6.196   0.281   5.084  0.7243  0.0500 -0.4252
12567SOL    HW139142   6.232   0.216   5.144 -0.7708  0.7075  1.3350
12567SOL    HW239143   6.126   0.323   5.135  0.9677  2.3360 -1.8220
12568SOL     OW39144   0.701   3.106  10.399  0.3815 -0.1737 -0.5070
12568SOL    HW139145   0.660   3.118  10.485 -0.1726  3.1770 -1.1120
12568SOL    HW239146   0.635   3.137  10.337  1.7373 -0.0450 -1.9425
12569SOL     OW39147   7.351   2.059   5.457 -0.1997  0.5859 -0.3371
12569SOL    HW139148   7.372   1.974   5.496 -0.8079  0.5897  0.0032
12569SOL    HW239149   7.437   2.100   5.442  0.0995 -0.1287 -0.6104
12570SOL     OW39150   1.193   7.685   5.493  0.3109 -0.3412  0.6492
12570SOL    HW139151   1.168   7.735   5.571 -0.5849 -0.7850  0.6524
12570SOL    HW239152   1.118   7.692   5.434  0.4676 -1.0767  0.3516
12571SOL     OW39153   1.937   6.371   1.625  0.0451 -0.1750  0.2488
12571SOL    HW139154   1.872   6.339   1.564 -0.2107  1.4339 -0.3704
12571SOL    HW239155   2.020   6.363   1.578 -0.0809  0.5159 -0.1047
12572SOL     OW39156   2.031   3.853  10.332  0.2109 -0.6470  0.7757
12572SOL    HW139157   2.066   3.878  10.247  0.6332 -1.2828  0.7527
12572SOL    HW239158   1.981   3.773  10.315  0.0135 -0.5875  1.0651
12573SOL     OW39159   0.317   5.152  11.427 -0.0398  0.0960  0.4471
12573SOL    HW139160   0.255   5.192  11.488 -0.3807  1.2489 -0.6235
12573SOL    HW239161   0.403   5.178  11.460 -0.1611 -0.3091  1.1112
12574SOL     OW39162   7.128   3.999   6.606 -0.4495 -0.5986  0.3352
12574SOL    HW139163   7.064   4.023   6.673  1.5863 -1.2770  2.6661
12574SOL    HW239164   7.077   3.993   6.525 -2.7684  1.6968  1.4820
12575SOL     OW39165   4.649   6.953   3.908  0.2783 -0.2255 -0.2410
12575SOL    HW139166   4.722   6.976   3.964 -0.8479  0.7629  0.8976
12575SOL    HW239167   4.581   6.921   3.968 -0.4320 -0.5507 -1.1856
12576SOL     OW39168   6.582   7.543   1.369  0.0020  0.2192  0.9240
12576SOL    HW139169   6.492   7.526   1.343 -0.4766  1.1926  1.8663
12576SOL    HW239170   6.632   7.470   1.332 -1.0326  0.1167 -0.3424
12577SOL     OW39171   5.890   1.149  10.280  0.6104  0.1276  0.1445
12577SOL    HW139172   5.861   1.120  10.193  2.2647  1.4212 -0.9021
12577SOL    HW239173   5.979   1.116  10.288  0.5096  0.1001  1.3494
12578SOL     OW39174   5.857   6.012   7.725 -0.1606 -0.0774  0.5675
12578SOL    HW139175   5.905   6.090   7.697 -1.2487  0.2497 -0.4525
12578SOL    HW239176   5.894   5.992   7.811  2.4694 -0.4146 -0.5488
12579SOL     OW39177   7.386   6.682   5.981  0.2145  0.2705  0.1454
12579SOL    HW139178   7.358   6.664   6.071  0.2446  1.3050  0.3764
12579SOL    HW239179   7.343   6.615   5.928 -0.0403 -0.1696  0.8957
12580SOL     OW39180   6.173   6.956   6.527  0.3021 -0.3564  0.7827
12580SOL    HW139181   6.252   7.004   6.502 -0.7748  0.9525 -0.3139
12580SOL    HW239182   6.108   7.025   6.542 -1.3554 -1.4377 -0.9914
12581SOL     OW39183   7.546   2.966   7.931 -0.5998  0.3454  0.2376
12581SOL    HW139184   7.611   2.898   7.914 -0.8678 -0.2848  1.6385
12581SOL    HW239185   7.463   2.930   7.899 -0.8417 -0.2409  1.4765
12582SOL     OW39186   0.862   2.825  11.718 -0.1299  0.2601 -0.4355
12582SOL    HW139187   0.834   2.820  11.809 -1.7105  2.8729 -0.6587
12582SOL    HW239188   0.789   2.790  11.668  1.1636 -2.1892 -0.7504
12583SOL     OW39189   6.685   5.530   7.172 -0.1463 -0.6234  0.4999
12583SOL    HW139190   6.611   5.566   7.124  0.2503 -0.7164 -0.1973
12583SOL    HW239191   6.667   5.550   7.264 -1.1041 -0.7849  0.3519
12584SOL     OW39192   5.836   5.180   9.881  0.0406 -0.2097  0.4754
12584SOL    HW139193   5.855   5.127   9.803  0.6457 -1.1709  1.2650
12584SOL    HW239194   5.921   5.203   9.916 -0.2323  0.2769  0.8299
12585SOL     OW39195   1.107   3.981  10.935 -0.1118 -0.4030  0.2311
12585SOL    HW139196   1.185   3.926  10.924 -0.3502 -1.1834  2.1097
12585SOL    HW239197   1.048   3.928  10.988 -2.4997 -0.3584 -2.1583
12586SOL     OW39198   1.057   4.645   0.766 -0.3893 -0.3105 -0.7934
12586SOL    HW139199   1.091   4.679   0.849 -0.4735  0.5502 -1.1054
12586SOL    HW239200   0.981   4.593   0.790  0.6401 -1.5845 -0.1609
12587SOL     OW39201   7.669   5.351   8.657  0.0027  0.7185  0.1393
12587SOL    HW139202   7.683   5.344   8.563  0.2375  0.3488  0.1995
12587SOL    HW239203   7.577   5.326   8.670  0.3946 -0.8198  0.1752
12588SOL     OW39204   2.723   2.022  10.510  0.0413  0.6774  0.2691
12588SOL    HW139205   2.658   2.019  10.440  0.5052  0.7722 -0.1701
12588SOL    HW239206   2.674   2.052  10.587 -0.3010  1.3623 -0.2061
12589SOL     OW39207   1.001   5.122  12.046  0.0946  0.0621  0.4578
12589SOL    HW139208   1.050   5.084  11.973 -0.6877  1.9018 -1.0865
12589SOL    HW239209   0.910   5.120  12.018 -0.5134 -1.1291  2.3091
12590SOL     OW39210   4.547   1.975  10.482 -0.2216 -0.3408 -0.3214
12590SOL    HW139211   4.452   1.988  10.480 -0.0251  1.3604 -0.2229
12590SOL    HW239212   4.573   1.996  10.572  0.2475 -0.8029 -0.3440
12591SOL     OW39213   2.399   5.820   7.279 -0.1741 -0.4590 -0.0705
12591SOL    HW139214   2.367   5.730   7.279 -1.6063  0.0250 -0.3023
12591SOL    HW239215   2.416   5.840   7.186  0.9441 -0.7530  0.0638
12592SOL     OW39216   5.229   2.507  12.235 -0.7267  0.2653  0.5052
12592SOL    HW139217   5.151   2.453  12.241  0.6685 -2.2131 -1.5209
12592SOL    HW239218   5.232   2.536  12.143 -0.9682  3.2324  1.3176
12593SOL     OW39219   0.352   4.846   3.242  0.1011 -0.6394  0.3732
12593SOL    HW139220   0.303   4.766   3.263 -0.5662 -0.3368  0.0107
12593SOL    HW239221   0.343   4.854   3.147 -0.5768  0.3331  0.5120
12594SOL     OW39222   2.969   5.271   9.978  0.3757 -0.1199  0.0823
12594SOL    HW139223   2.939   5.353  10.017  0.3491 -0.6037  1.1127
12594SOL    HW239224   3.054   5.293   9.939  0.9295  0.1499  1.3770
12595SOL     OW39225   6.402   5.508   9.007  0.1510 -0.5292  0.2423
12595SOL    HW139226   6.411   5.443   9.076 -0.5793 -1.9003 -0.8978
12595SOL    HW239227   6.356   5.462   8.937  1.9878  0.4019 -1.6804
12596SOL     OW39228   6.465   0.075   0.170  0.0685  0.3578 -0.3729
12596SOL    HW139229   6.467   0.014   0.244 -1.0506 -0.2639 -0.8261
12596SOL    HW239230   6.556   0.102   0.159  0.3554 -0.0608  0.7982
12597SOL     OW39231   0.227   0.566   0.791 -0.0860 -0.4574  0.6137
12597SOL    HW139232   0.213   0.627   0.863 -1.3493 -0.3332  0.2842
12597SOL    HW239233   0.265   0.488   0.833 -1.5137 -0.6925  1.5644
12598SOL     OW39234   7.491   3.360  11.607  0.8653 -0.7753  0.2957
12598SOL    HW139235   7.586   3.367  11.596  0.9279 -0.8198  0.8036
12598SOL    HW239236   7.456   3.433  11.556  1.1902 -0.5417  0.4052
12599SOL     OW39237   4.235   3.764  11.377 -0.3987  0.0254  0.4754
12599SOL    HW139238   4.156   3.756  11.431 -1.5231 -0.7471 -1.1856
12599SOL    HW239239   4.202   3.790  11.291  1.4068  2.1097  0.3265
12600SOL     OW39240   7.555   7.353  10.475  0.1537  0.1839  0.1507
12600SOL    HW139241   7.547   7.365  10.381  1.2482 -0.6641 -0.0755
12600SOL    HW239242   7.635   7.400  10.499 -0.9409  1.7424  0.9553
12601SOL     OW39243   2.908   6.486   1.988  0.1972  0.3246  0.1680
12601SOL    HW139244   2.878   6.565   1.944 -0.5021  0.8637  1.5377
12601SOL    HW239245   3.003   6.487   1.976  0.0805  0.7306 -0.8328
12602SOL     OW39246   5.476   7.610   4.386 -0.1245 -0.2983  0.2664
12602SOL    HW139247   5.515   7.692   4.417 -0.9122 -0.2427  1.1427
12602SOL    HW239248   5.490   7.548   4.458 -0.0211 -0.7915 -0.1711
12603SOL     OW39249   2.882   4.680   5.815  0.8704 -0.6644  0.1567
12603SOL    HW139250   2.817   4.613   5.839 -1.0448  0.7364 -0.8605
12603SOL    HW239251   2.910   4.655   5.727 -1.0946  0.6782 -0.9235
12604SOL     OW39252   4.139   0.275   5.745  0.4655  0.1107 -0.6165
12604SOL    HW139253   4.165   0.221   5.820  1.8716  0.2354 -0.9869
12604SOL    HW239254   4.117   0.359   5.784  0.2871 -0.1051 -0.2415
12605SOL     OW39255   7.348   3.487   5.237 -0.0213  0.4414  0.4429
12605SOL    HW139256   7.288   3.484   5.162  0.3992 -0.9331  0.1360
12605SOL    HW239257   7.429   3.524   5.203 -0.2589  1.0606  0.5429
12606SOL     OW39258   6.330   3.616   8.962 -0.0268 -0.5569  0.1535
12606SOL    HW139259   6.419   3.584   8.948  0.1770  0.8546 -2.4477
12606SOL    HW239260   6.282   3.539   8.992  1.0302 -2.7540 -3.1111
12607SOL     OW39261   6.999   5.793  12.014 -0.4698 -0.1206 -0.1627
12607SOL    HW139262   7.011   5.863  11.950  1.0206 -0.4283 -0.2547
12607SOL    HW239263   6.932   5.737  11.975  0.5072 -0.3864 -1.5714
12608SOL     OW39264   7.518   7.924  11.455  0.7193 -0.0932 -0.7282
12608SOL    HW139265   7.434   7.879  11.450  0.9465 -0.6365  0.1392
12608SOL    HW239266   7.508   7.985  11.529  1.1609 -0.3399 -0.4591
12609SOL     OW39267   5.664   5.453  12.293 -0.1062  0.2046 -0.4684
12609SOL    HW139268   5.722   5.402  12.351 -2.1198 -2.5586 -0.6766
12609SOL    HW239269   5.577   5.442  12.331 -1.1905  0.0706 -2.8269
12610SOL     OW39270   3.143   2.183   8.625 -0.2930  0.4356  0.0334
12610SOL    HW139271   3.158   2.173   8.531 -2.3066  1.2800 -0.4318
12610SOL    HW239272   3.182   2.268   8.646 -3.4157  2.2971 -1.0163
12611SOL     OW39273   1.259   0.159   4.827 -0.3218  0.3833  0.3995
12611SOL    HW139274   1.256   0.171   4.732  0.2704 -0.3099  0.2792
12611SOL    HW239275   1.235   0.244   4.863  0.0664  0.8348 -0.3722
12612SOL     OW39276   1.419   6.549  10.783  0.0601  0.4089  0.0001
12612SOL    HW139277   1.324   6.535  10.794 -0.5809  2.8250 -1.6574
12612SOL    HW239278   1.452   6.558  10.872 -1.4833  0.6130  0.5862
12613SOL     OW39279   5.507   6.456   1.417 -0.3112 -0.3186 -0.0918
12613SOL    HW139280   5.537   6.429   1.504 -1.4304 -0.8715  0.1281
12613SOL    HW239281   5.583   6.440   1.360  0.8295  1.1325  0.9535
12614SOL     OW39282   3.530   4.869   0.344  0.0586  0.0756  0.9927
12614SOL    HW139283   3.518   4.827   0.429 -0.4738  1.8508  1.8612
12614SOL    HW239284   3.445   4.861   0.301  0.7839 -2.2725 -0.1255
12615SOL     OW39285   6.667   1.206   9.516 -0.1454  0.2898  0.1582
12615SOL    HW139286   6.700   1.268   9.451  0.0701 -0.1694 -0.1696
12615SOL    HW239287   6.580   1.182   9.484  0.6702 -1.3514 -0.9690
12616SOL     OW39288   1.735   3.156   4.995 -0.3464  0.1176  0.3633
12616SOL    HW139289   1.736   3.136   5.089 -2.0052 -0.3205  0.3194
12616SOL    HW239290   1.689   3.239   4.988 -2.7803 -1.1820 -0.2143
12617SOL     OW39291   2.862   5.000   4.787  0.6920  0.4350 -0.5660
12617SOL    HW139292   2.821   4.924   4.830  0.0720  1.3751  0.5616
12617SOL    HW239293   2.884   5.059   4.859 -0.1135  1.9467 -1.5185
12618SOL     OW39294   7.194   3.704   5.264 -0.2000 -0.6237 -0.1017
12618SOL    HW139295   7.260   3.772   5.280  0.7039 -1.2588 -1.0306
12618SOL    HW239296   7.245   3.624   5.250 -1.2203 -1.3478  0.1992
12619SOL     OW39297   2.264   1.334   0.169 -0.2249  0.0204  0.1580
12619SOL    HW139298   2.216   1.253   0.187 -0.1587  0.2225  1.2882
12619SOL    HW239299   2.234   1.396   0.235  0.5107  0.5999 -0.0291
12620SOL     OW39300   7.127   4.807   3.012  0.0649  0.4346  0.7186
12620SOL    HW139301   7.079   4.849   2.941 -1.0910  2.3022  2.4647
12620SOL    HW239302   7.059   4.772   3.070  0.9798 -3.3193 -0.2021
12621SOL     OW39303   5.801   5.992   3.429  0.1080  0.4544 -0.9011
12621SOL    HW139304   5.848   5.910   3.414 -0.2088 -0.0121  0.5192
12621SOL    HW239305   5.869   6.056   3.451  0.1568 -0.2325  1.2077
12622SOL     OW39306   6.238   2.818   4.115 -0.0723 -0.5138 -0.1525
12622SOL    HW139307   6.173   2.776   4.171  0.4247  1.3338  1.9645
12622SOL    HW239308   6.321   2.782   4.144  0.1055 -0.4218 -0.5410
12623SOL     OW39309   5.811   0.174  10.326 -0.0051 -0.1914  0.1437
12623SOL    HW139310   5.761   0.178  10.244 -0.6056 -0.0952  0.5130
12623SOL    HW239311   5.849   0.261  10.335 -1.3057  0.3185  0.8164
12624SOL     OW39312   2.954   2.922   1.482  0.0819  0.1981  0.1894
12624SOL    HW139313   2.931   2.923   1.389 -1.1988  1.5110  0.4758
12624SOL    HW239314   3.047   2.898   1.485 -0.0896 -0.7547 -1.3518
12625SOL     OW39315   7.283   4.745  10.592  0.2080 -0.2712  0.2986
12625SOL    HW139316   7.203   4.751  10.539  0.1423  2.0205  0.5414
12625SOL    HW239317   7.354   4.749  10.528  0.1215  2.0597  0.2614
12626SOL     OW39318   5.791   2.046   1.811  0.3807  0.1481  0.4645
12626SOL    HW139319   5.745   2.001   1.741 -1.4416 -0.7754  2.1599
12626SOL    HW239320   5.869   1.992   1.827 -1.0005 -1.6580  1.4589
12627SOL     OW39321   1.693   3.147   1.926 -0.3671  0.0707  0.0382
12627SOL    HW139322   1.653   3.110   1.847 -2.6765  2.7425 -0.1703
12627SOL    HW239323   1.653   3.099   1.998  0.0157 -0.7922 -0.3022
12628SOL     OW39324   3.588   7.776   8.334 -0.2565  0.5021  0.0343
12628SOL    HW139325   3.548   7.742   8.254 -1.5724  0.8684  0.5189
12628SOL    HW239326   3.589   7.871   8.322  0.1354  0.5189  0.1868
12629SOL     OW39327   6.888   3.292   7.275 -0.0562 -0.2216 -0.1744
12629SOL    HW139328   6.873   3.364   7.336  1.5509  2.1057 -2.2940
12629SOL    HW239329   6.826   3.308   7.204 -1.8363 -2.8293  0.6585
12630SOL     OW39330   7.707   2.712   0.918 -0.0959  0.1507  0.1165
12630SOL    HW139331   7.643   2.782   0.903 -1.9595 -1.3903  0.5387
12630SOL    HW239332   7.730   2.681   0.831 -0.0232  0.6264 -0.0359
12631SOL     OW39333   4.706   3.625   7.931 -0.2725  0.1982  0.2042
12631SOL    HW139334   4.630   3.682   7.927  0.2702  0.9695  0.6002
12631SOL    HW239335   4.750   3.638   7.847  0.1901  0.8653  0.5373
12632SOL     OW39336   7.574   1.795   7.606  0.1687  0.0452 -0.0156
12632SOL    HW139337   7.558   1.839   7.523 -0.5059  1.2088  0.7018
12632SOL    HW239338   7.668   1.775   7.604  0.5344  1.6295 -0.3443
12633SOL     OW39339   3.480   2.515  11.303  0.2323 -0.2708 -0.3262
12633SOL    HW139340   3.487   2.549  11.214 -2.9969  1.4241 -0.0871
12633SOL    HW239341   3.483   2.593  11.359 -1.7529 -0.8589  0.6925
12634SOL     OW39342   5.496   5.912   4.701 -0.1223 -0.5783 -0.1243
12634SOL    HW139343   5.490   5.968   4.623  1.1681  0.1234  0.2652
12634SOL    HW239344   5.589   5.910   4.722 -0.2051 -2.4044  0.2377
12635SOL     OW39345   7.786   4.046   1.155  0.3745 -0.0062  0.2483
12635SOL    HW139346   7.825   4.084   1.234 -1.2292  3.0759 -0.2800
12635SOL    HW239347   7.745   3.964   1.186  2.9323 -0.8368  1.7435
12636SOL     OW39348   5.470   1.908   8.617 -0.2123  0.0107 -0.1290
12636SOL    HW139349   5.454   1.860   8.536  0.6174  0.8851 -0.8358
12636SOL    HW239350   5.454   2.000   8.594 -0.8851  0.1896  0.9566
12637SOL     OW39351   4.767   2.200  11.327 -0.5213  0.5669 -0.6384
12637SOL    HW139352   4.680   2.168  11.306  0.4270 -2.8784  0.0484
12637SOL    HW239353   4.761   2.226  11.419 -0.6316 -0.5647 -0.3144
12638SOL     OW39354   6.853   1.580  10.726  0.1600  0.0813  0.5339
12638SOL    HW139355   6.843   1.633  10.647  1.0121  0.0274  0.3859
12638SOL    HW239356   6.811   1.497  10.705 -0.2862  0.3354  0.4102
12639SOL     OW39357   2.590   5.301  10.231  0.4286  0.7044 -0.5378
12639SOL    HW139358   2.647   5.355  10.177  1.6861 -0.1983 -0.1432
12639SOL    HW239359   2.645   5.229  10.261 -1.0850 -0.5612 -0.6659
12640SOL     OW39360   3.721   5.602   4.393 -0.4943 -0.5245  0.2654
12640SOL    HW139361   3.714   5.536   4.324  0.5828 -0.8694  0.4708
12640SOL    HW239362   3.723   5.685   4.347 -1.3333 -0.6539 -0.0233
12641SOL     OW39363   5.425   3.099   0.620  0.1745 -0.4577 -0.8375
12641SOL    HW139364   5.485   3.139   0.558  1.9687  0.5068  1.3864
12641SOL    HW239365   5.378   3.172   0.660 -0.1627 -0.9657 -0.2759
12642SOL     OW39366   3.280   3.879   7.378  0.1464  0.0553 -0.6186
12642SOL    HW139367   3.210   3.941   7.399 -1.1354 -1.0166 -1.5255
12642SOL    HW239368   3.264   3.805   7.436  1.5796  0.4662  0.3544
12643SOL     OW39369   4.986   1.913   1.503  0.1545 -0.4661 -0.4486
12643SOL    HW139370   5.051   1.970   1.463  0.7406 -1.0028 -0.2781
12643SOL    HW239371   5.028   1.827   1.505  0.0078 -0.5277  0.9798
12644SOL     OW39372   4.240   3.743   8.515  0.8723 -0.6146 -0.3129
12644SOL    HW139373   4.238   3.754   8.610 -1.8857  0.6044 -0.4331
12644SOL    HW239374   4.328   3.774   8.490  0.6034  2.0539  1.5710
12645SOL     OW39375   1.902   2.966   0.671  0.2297 -0.5031  0.4353
12645SOL    HW139376   1.997   2.968   0.672  0.2822  0.7713 -1.3128
12645SOL    HW239377   1.876   3.013   0.750  1.0168 -1.5775  1.3571
12646SOL     OW39378   1.775   5.129   2.445  0.2261 -0.0684 -0.3105
12646SOL    HW139379   1.709   5.173   2.391 -0.9235  0.3977  1.3859
12646SOL    HW239380   1.839   5.197   2.464 -0.0762  0.1268  0.0137
12647SOL     OW39381   1.559   1.299   4.687 -0.2088 -0.2606 -0.2006
12647SOL    HW139382   1.544   1.205   4.695  0.7088 -0.4517 -0.6395
12647SOL    HW239383   1.471   1.337   4.688 -0.7317 -1.3014 -2.0629
12648SOL     OW39384   5.053   2.098   5.847  0.4519  0.3504 -0.0111
12648SOL    HW139385   4.980   2.159   5.833 -0.4822 -0.4051  1.3722
12648SOL    HW239386   5.011   2.017   5.874  1.7054 -0.7869 -1.3120
12649SOL     OW39387   2.662   6.748  11.915 -0.2599 -0.3239 -0.9036
12649SOL    HW139388   2.756   6.746  11.895 -0.2446 -2.5644 -0.8414
12649SOL    HW239389   2.649   6.677  11.977 -1.8732  0.5474 -0.1769
12650SOL     OW39390   1.645   0.572   6.993  0.3506  0.3741 -0.0652
12650SOL    HW139391   1.661   0.478   7.000  1.1775  0.5364  0.3222
12650SOL    HW239392   1.566   0.587   7.046  1.7730  0.2997  2.2147
12651SOL     OW39393   1.747   7.849  12.322 -0.3743 -0.6844  0.3929
12651SOL    HW139394   1.814   7.913  12.297 -0.6085  0.6254  2.8014
12651SOL    HW239395   1.666   7.885  12.287 -0.3574 -0.1696  0.8680
12652SOL     OW39396   5.312   4.425  10.288  0.4695 -0.2202 -0.0786
12652SOL    HW139397   5.313   4.338  10.327  0.8677  0.7913  2.3370
12652SOL    HW239398   5.222   4.456  10.299  0.5538  0.0292 -0.0815
12653SOL     OW39399   2.506   0.708   2.732 -0.2296 -0.1656 -0.2580
12653SOL    HW139400   2.522   0.786   2.785  0.2973 -1.4653  1.5881
12653SOL    HW239401   2.496   0.741   2.643  2.3228  1.8327  0.0711
12654SOL     OW39402   3.782   3.420   4.415 -0.0512  0.4559 -0.0252
12654SOL    HW139403   3.872   3.429   4.448  0.0880 -1.3060  0.1668
12654SOL    HW239404   3.793   3.400   4.322 -0.0657 -2.3704  0.4980
12655SOL     OW39405   5.662   7.202  12.053 -0.0660 -0.4383 -0.0032
12655SOL    HW139406   5.749   7.221  12.087 -0.5849  1.8233  0.2256
12655SOL    HW239407   5.620   7.150  12.122  0.6910 -0.4816  0.4287
12656SOL     OW39408   2.001   7.344   1.298 -0.1830  0.5331  0.0100
12656SOL    HW139409   2.029   7.295   1.221  1.1930 -0.4229  1.0763
12656SOL    HW239410   2.079   7.393   1.325 -0.7496  1.1299  0.5979
12657SOL     OW39411   0.182   2.555   0.637 -0.0839 -0.0868  0.4812
12657SOL    HW139412   0.182   2.631   0.578 -0.2780  0.7108  1.4855
12657SOL    HW239413   0.181   2.480   0.578 -0.6086  0.6886 -0.5428
12658SOL     OW39414   5.225   7.578   1.606  0.4986 -0.2916  0.1692
12658SOL    HW139415   5.212   7.663   1.648 -0.9207 -0.5680  0.3572
12658SOL    HW239416   5.147   7.528   1.630  1.5434 -1.8461  0.5271
12659SOL     OW39417   2.183   4.463   2.957 -0.3033  0.0243 -0.4261
12659SOL    HW139418   2.227   4.547   2.964  0.2738 -0.1564 -1.5348
12659SOL    HW239419   2.254   4.401   2.936 -0.6808 -0.7766  0.6017
12660SOL     OW39420   1.953   3.164  10.225 -0.0610  0.2980 -0.0458
12660SOL    HW139421   1.952   3.112  10.306 -0.1833 -0.9560 -0.8350
12660SOL    HW239422   1.861   3.172  10.201  0.0774 -1.3128 -1.2705
12661SOL     OW39423   5.992   6.473   9.071  0.6692 -0.2325  0.0364
12661SOL    HW139424   5.962   6.389   9.036  2.4254 -1.4052  1.1974
12661SOL    HW239425   5.989   6.462   9.166  2.1980  0.4880  0.2027
12662SOL     OW39426   6.768   3.842   5.739  0.3176  0.5964 -0.4466
12662SOL    HW139427   6.701   3.789   5.696 -2.1449  1.4957  1.9388
12662SOL    HW239428   6.825   3.778   5.782 -1.7152 -0.2604  1.1404
12663SOL     OW39429   2.837   2.177  10.113 -0.0515  0.5398  0.0807
12663SOL    HW139430   2.846   2.252  10.055  1.9413  1.3108  1.2914
12663SOL    HW239431   2.744   2.174  10.135 -0.4959  1.4191 -1.5496
12664SOL     OW39432   6.402   1.546  12.352 -0.2237 -0.1238  0.1079
12664SOL    HW139433   6.474   1.512  12.405  0.7363  0.9568 -0.4541
12664SOL    HW239434   6.416   1.641  12.351 -0.8667 -0.0222 -1.1368
12665SOL     OW39435   3.338   6.909   8.230 -0.3261 -0.5026  0.1655
12665SOL    HW139436   3.285   6.831   8.214  0.2067 -0.9776  0.6380
12665SOL    HW239437   3.373   6.933   8.144 -1.4483 -0.0627 -0.1832
12666SOL     OW39438   1.960   6.634  10.843  0.5021 -0.7670  0.1197
12666SOL    HW139439   1.916   6.621  10.759  0.0673 -3.4703  0.6494
12666SOL    HW239440   1.982   6.545  10.872  4.1636  0.3084  1.0741
12667SOL     OW39441   1.576   4.530   8.905 -0.0420  0.6351  0.5196
12667SOL    HW139442   1.660   4.486   8.901 -0.1845  0.1096  2.4136
12667SOL    HW239443   1.512   4.462   8.884 -0.0579  0.7931  0.0505
12668SOL     OW39444   6.933   2.379   8.023 -0.4705  0.1955 -0.4845
12668SOL    HW139445   6.906   2.345   7.937  0.8769  0.3749 -1.0064
12668SOL    HW239446   6.859   2.433   8.051 -0.0857  1.9850 -2.5896
12669SOL     OW39447   4.695   4.530  11.762  0.3275 -0.2081 -0.1418
12669SOL    HW139448   4.699   4.436  11.781 -1.3374 -0.3281 -0.1831
12669SOL    HW239449   4.618   4.560  11.810  0.4283  0.9904 -0.7089
12670SOL     OW39450   6.270   0.176   5.538 -0.0961 -0.3973  0.6018
12670SOL    HW139451   6.196   0.126   5.574 -0.0925  2.2399  5.0234
12670SOL    HW239452   6.231   0.256   5.503  0.4629  0.4805  1.8919
12671SOL     OW39453   4.031   0.774  10.754  0.3785 -0.1352 -0.1239
12671SOL    HW139454   4.048   0.680  10.763  0.6203 -0.0744  0.0828
12671SOL    HW239455   4.087   0.801  10.681  0.8207 -0.0257  0.2506
12672SOL     OW39456   0.988   5.537   8.067  0.1123  0.1878  0.0445
12672SOL    HW139457   0.897   5.534   8.038  0.2878  0.4953 -0.5498
12672SOL    HW239458   1.019   5.447   8.060 -0.4691 -0.1373  1.3306
12673SOL     OW39459   1.282   1.395   7.788  0.5667  0.1174  0.0086
12673SOL    HW139460   1.263   1.478   7.745  0.5608 -0.7008 -1.6612
12673SOL    HW239461   1.248   1.329   7.727  1.0153 -1.1175  1.0616
12674SOL     OW39462   0.081   3.080  10.050  0.4103  0.1470  0.1194
12674SOL    HW139463   0.051   3.047  10.134 -0.5160  0.9807  0.1395
12674SOL    HW239464   0.001   3.097  10.001  0.9309 -0.0800 -0.8392
12675SOL     OW39465   3.395   4.622   7.907  0.0050  0.1402 -0.4467
12675SOL    HW139466   3.328   4.558   7.885  1.3275 -1.2776 -0.5459
12675SOL    HW239467   3.477   4.572   7.907  1.3796  2.2080 -2.4132
12676SOL     OW39468   6.947   1.646  11.252  0.8010 -0.4919 -0.1603
12676SOL    HW139469   6.882   1.651  11.182  1.1975  1.2729 -0.4376
12676SOL    HW239470   6.922   1.714  11.314  1.0015 -1.4122  0.9597
12677SOL     OW39471   0.695   5.080   4.486 -0.4211  0.1642 -0.0983
12677SOL    HW139472   0.652   5.010   4.534  2.9346 -0.3986  2.4816
12677SOL    HW239473   0.707   5.151   4.550  2.3816  0.2214 -0.5281
12678SOL     OW39474   2.979   4.657   8.842 -0.5908 -0.4431  0.1418
12678SOL    HW139475   2.892   4.693   8.860 -0.1939  0.0115  1.2866
12678SOL    HW239476   2.974   4.623   8.753 -2.0636 -0.7821  0.3253
12679SOL     OW39477   1.301   0.344  11.281 -0.4187  0.4171  0.0756
12679SOL    HW139478   1.338   0.275  11.226  0.7759 -0.1505  1.5068
12679SOL    HW239479   1.325   0.425  11.237 -0.6745 -0.0374 -0.9322
12680SOL     OW39480   0.982   7.473   9.705 -0.2026 -0.2435 -0.4477
12680SOL    HW139481   1.032   7.520   9.772 -1.7999 -0.0865  0.6872
12680SOL    HW239482   0.987   7.381   9.732  1.4227 -0.5495 -1.6706
12681SOL     OW39483   2.592   6.165   5.703  0.2340  0.6810 -0.3229
12681SOL    HW139484   2.613   6.144   5.612 -0.4033 -0.4343 -0.2347
12681SOL    HW239485   2.664   6.129   5.753  0.1786  0.5675 -0.3255
12682SOL     OW39486   6.884   3.667  11.620 -0.1565  0.3493 -0.2840
12682SOL    HW139487   6.949   3.716  11.670 -0.5429  1.6870 -1.0249
12682SOL    HW239488   6.895   3.699  11.530 -1.5754  0.3362 -0.4868
12683SOL     OW39489   0.677   7.265   1.884 -0.1176 -0.2490 -0.6900
12683SOL    HW139490   0.679   7.176   1.917  0.8178  0.4107  1.1799
12683SOL    HW239491   0.768   7.286   1.864  0.3917  1.5082  2.6639
12684SOL     OW39492   6.420   3.247  10.643 -0.3673 -0.5161  0.4167
12684SOL    HW139493   6.434   3.339  10.665 -1.9164 -0.1814  0.1278
12684SOL    HW239494   6.464   3.235  10.559  1.7799 -0.6623  1.4760
12685SOL     OW39495   6.371   5.955   3.675 -0.2444  0.0411 -0.0939
12685SOL    HW139496   6.339   6.042   3.651  1.5419  0.3270 -1.7385
12685SOL    HW239497   6.426   5.970   3.752  0.5058  0.5172 -0.6945
12686SOL     OW39498   2.877   0.745   4.873 -0.2105 -0.3408 -0.2247
12686SOL    HW139499   2.799   0.703   4.836 -1.2611  1.9776 -0.7842
12686SOL    HW239500   2.934   0.762   4.798  0.0008 -0.3110 -0.0585
12687SOL     OW39501   5.561   4.955   7.711  0.1846 -0.2896 -0.2799
12687SOL    HW139502   5.494   5.016   7.739 -0.3376 -1.0253  0.1009
12687SOL    HW239503   5.640   4.982   7.759 -0.0696  0.0141 -0.0297
12688SOL     OW39504   7.156   6.803  10.829  0.6704 -0.1041 -0.5081
12688SOL    HW139505   7.098   6.802  10.905 -2.0889  1.4904 -2.4311
12688SOL    HW239506   7.158   6.711  10.801 -1.7087 -0.1095 -0.8676
12689SOL     OW39507   1.245   5.998  10.391  0.5122 -0.1649  0.3017
12689SOL    HW139508   1.158   5.975  10.358  0.3461  2.0545 -1.0139
12689SOL    HW239509   1.229   6.043  10.473  0.1080  2.5468 -1.1571
12690SOL     OW39510   6.535   4.892   0.285 -0.1227  0.2486 -0.3599
12690SOL    HW139511   6.482   4.935   0.352  1.2894  1.1908  0.1872
12690SOL    HW239512   6.520   4.798   0.299  0.2547  0.4218  1.3784
12691SOL     OW39513   4.899   1.966   8.524 -0.4809  0.0021  0.0690
12691SOL    HW139514   4.904   2.003   8.436  0.5191  2.4161  1.0585
12691SOL    HW239515   4.961   1.893   8.523 -0.2188  0.2253 -1.1310
12692SOL     OW39516   4.768   4.289   4.092  0.3175 -0.4422 -0.8144
12692SOL    HW139517   4.824   4.367   4.085 -0.5757  0.4248  1.0071
12692SOL    HW239518   4.699   4.303   4.027  1.6948 -1.1453 -2.5247
12693SOL     OW39519   3.985   0.126   6.266 -0.1222  0.3136  0.1213
12693SOL    HW139520   3.975   0.202   6.324 -1.4032 -0.3249  0.7842
12693SOL    HW239521   3.901   0.080   6.273  0.3548 -0.7441 -0.8711
12694SOL     OW39522   7.800   1.954   8.797  0.7412 -0.3947  0.2411
12694SOL    HW139523   7.894   1.952   8.816  1.1985 -2.2970 -1.8163
12694SOL    HW239524   7.768   1.869   8.825 -0.5697  0.5092  1.6113
12695SOL     OW39525   1.075   5.236   9.649  0.0415  0.1458 -0.7299
12695SOL    HW139526   1.147   5.173   9.662  1.0373  1.5506  0.9034
12695SOL    HW239527   1.098   5.281   9.568  0.5708  0.0216 -0.6542
12696SOL     OW39528   5.796   5.244  10.195  0.5317  0.8635  0.3755
12696SOL    HW139529   5.764   5.186  10.126  1.7069 -0.1235  0.6118
12696SOL    HW239530   5.878   5.203  10.224  0.1990  1.4004  2.1771
12697SOL     OW39531   0.345   2.768   3.382  0.1697  0.0120  0.1267
12697SOL    HW139532   0.289   2.750   3.307  0.8700 -0.4286 -0.2987
12697SOL    HW239533   0.406   2.695   3.385  0.6560  0.4296  0.6452
12698SOL     OW39534   3.153   3.121   1.269 -0.0734 -0.3050  0.0195
12698SOL    HW139535   3.156   3.097   1.176 -0.5695 -2.1595  0.4469
12698SOL    HW239536   3.060   3.130   1.289  0.0582  0.9414  0.1614
12699SOL     OW39537   0.417   5.666   8.376 -0.2747  0.2965 -0.2962
12699SOL    HW139538   0.477   5.678   8.302 -0.3232 -1.9070 -0.7348
12699SOL    HW239539   0.449   5.588   8.420 -1.2401  0.6461  1.0781
12700SOL     OW39540   7.500   7.603   0.371  0.2556 -0.3265 -0.6294
12700SOL    HW139541   7.535   7.620   0.284  1.1939  2.0995  0.1194
12700SOL    HW239542   7.477   7.510   0.371 -1.2352 -0.0893 -3.9237
12701SOL     OW39543   1.428   2.265   0.118 -0.4013  0.3631 -0.0735
12701SOL    HW139544   1.468   2.178   0.116  0.4697  0.7123  1.0553
12701SOL    HW239545   1.477   2.312   0.186 -1.3793  1.4818 -0.1164
12702SOL     OW39546   7.678   4.193   2.482  0.3621 -0.0708  0.1143
12702SOL    HW139547   7.662   4.221   2.392 -1.4513 -0.6400  0.2195
12702SOL    HW239548   7.686   4.274   2.532 -2.7820  0.3395  0.0895
12703SOL     OW39549   6.322   1.964  12.205 -0.1127 -0.4433  0.0726
12703SOL    HW139550   6.332   1.920  12.289 -1.0020 -0.7900  0.0084
12703SOL    HW239551   6.284   2.049  12.227 -0.4841 -0.5924  0.0129
12704SOL     OW39552   4.012   5.008   4.496 -0.2917 -0.5929  0.0709
12704SOL    HW139553   3.952   5.049   4.434 -1.1771  0.4921  1.5760
12704SOL    HW239554   4.098   5.040   4.471 -0.2133 -2.2801 -2.2101
12705SOL     OW39555   0.965   7.871   3.812 -0.2990  0.3564  0.0059
12705SOL    HW139556   0.933   7.894   3.900  0.3498 -1.4915  0.7641
12705SOL    HW239557   0.968   7.776   3.811 -0.5395  0.3244 -2.1434
12706SOL     OW39558   2.055   1.147   5.538  0.5219  0.2128  0.2542
12706SOL    HW139559   2.040   1.187   5.452 -1.4759  0.1364  0.5169
12706SOL    HW239560   2.150   1.139   5.544  0.7136 -0.5363 -2.2835
12707SOL     OW39561   6.987   5.197   8.528  0.2739  0.2417  0.3606
12707SOL    HW139562   7.013   5.106   8.514  0.1449  0.3110 -0.3639
12707SOL    HW239563   7.025   5.244   8.454 -2.6861  0.1979 -1.3605
12708SOL     OW39564   5.868   7.061  12.382  0.6448 -0.5406  0.7692
12708SOL    HW139565   5.935   7.121  12.347  1.5329 -2.0197 -0.2068
12708SOL    HW239566   5.809   7.117  12.433  1.6620  1.0783  0.2408
12709SOL     OW39567   0.478   2.575   2.288  0.3012 -0.1698  0.2440
12709SOL    HW139568   0.514   2.512   2.351 -0.3119  0.3790  1.1626
12709SOL    HW239569   0.396   2.603   2.327 -0.6789 -0.6951 -1.3713
12710SOL     OW39570   5.039   5.970   4.050 -0.3318 -0.0230  0.3608
12710SOL    HW139571   5.028   5.915   3.972 -1.3498 -0.4098  0.7528
12710SOL    HW239572   4.981   6.045   4.035  0.2600  0.4248  0.2915
12711SOL     OW39573   6.675   7.861   9.463  0.0056  0.4210 -0.2070
12711SOL    HW139574   6.754   7.911   9.444  0.3594 -0.7232 -2.0073
12711SOL    HW239575   6.604   7.926   9.461  0.5093  0.9679 -1.9589
12712SOL     OW39576   6.208   0.748   1.257  0.6328  0.1440 -0.3713
12712SOL    HW139577   6.276   0.710   1.201 -0.5689  0.7421 -2.3629
12712SOL    HW239578   6.193   0.835   1.220 -2.0518 -0.4235 -0.8292
12713SOL     OW39579   5.634   3.345   0.573  0.0440 -0.4189  0.6935
12713SOL    HW139580   5.639   3.317   0.665  0.0279 -0.8107  0.5765
12713SOL    HW239581   5.578   3.422   0.575  0.7514  0.0883  1.1313
12714SOL     OW39582   1.909   2.056   5.492  0.0162  0.1458 -0.0106
12714SOL    HW139583   1.951   2.060   5.406  1.5016 -1.5672  0.5730
12714SOL    HW239584   1.823   2.016   5.475  0.7812 -1.3231 -0.5664
12715SOL     OW39585   2.961   1.600  12.098  0.1709  0.0335  0.4404
12715SOL    HW139586   3.015   1.678  12.105 -0.4705  0.6955 -1.4767
12715SOL    HW239587   2.872   1.629  12.119 -0.1284 -0.0856 -0.6104
12716SOL     OW39588   2.278   0.136   7.037 -0.5250  0.4691  0.4704
12716SOL    HW139589   2.328   0.054   7.043 -0.5833  0.4859  1.2047
12716SOL    HW239590   2.266   0.149   6.943 -0.2749 -0.2206  0.3353
12717SOL     OW39591   6.040   0.429   9.068 -0.5645 -0.0393 -0.0460
12717SOL    HW139592   6.101   0.372   9.115 -0.2699 -1.5524 -2.1714
12717SOL    HW239593   5.955   0.414   9.111  0.1308  0.6503  1.6865
12718SOL     OW39594   3.184   3.235   6.143 -0.2131  0.0703  0.0903
12718SOL    HW139595   3.096   3.259   6.171 -1.4977 -1.2670 -2.4317
12718SOL    HW239596   3.203   3.154   6.189  0.5059  1.2492  1.9790
12719SOL     OW39597   1.592   7.288   7.754 -0.8544 -0.4346 -0.0025
12719SOL    HW139598   1.551   7.302   7.668 -0.8956 -0.4417  0.0160
12719SOL    HW239599   1.518   7.273   7.813 -0.7762 -2.1032 -0.2618
12720SOL     OW39600   2.546   6.943   1.093  0.9005  0.0995  0.0086
12720SOL    HW139601   2.555   7.035   1.117 -3.4606  0.5003  0.8948
12720SOL    HW239602   2.596   6.896   1.159  1.6289  1.7188  0.6842
12721SOL     OW39603   4.902   3.748   5.975  0.5091  0.3517  0.1813
12721SOL    HW139604   4.928   3.828   5.931 -0.5226  1.6422  1.7985
12721SOL    HW239605   4.846   3.777   6.047 -0.6537 -1.8860  0.2754
12722SOL     OW39606   5.870   3.960   3.183 -0.0314  0.0536 -0.0020
12722SOL    HW139607   5.956   3.918   3.186  0.0333  0.1647 -0.2964
12722SOL    HW239608   5.840   3.948   3.093 -0.2371  0.1868  0.0478
12723SOL     OW39609   1.041   2.232   1.020 -0.5498  0.1923 -0.1513
12723SOL    HW139610   1.131   2.202   1.015 -0.8801 -1.0455  0.6738
12723SOL    HW239611   0.993   2.157   1.056 -1.4368  1.7021  2.0650
12724SOL     OW39612   0.476   7.860   3.190  1.0133  0.1463  0.9934
12724SOL    HW139613   0.452   7.858   3.097  0.3756  1.0954  1.1263
12724SOL    HW239614   0.498   7.769   3.211  0.9137 -0.1274 -0.0185
12725SOL     OW39615   4.467   2.805   3.855 -0.4366  0.6727 -0.9957
12725SOL    HW139616   4.494   2.784   3.766 -0.1785  1.0802 -1.0165
12725SOL    HW239617   4.458   2.901   3.855  0.8162  0.8069 -0.2432
12726SOL     OW39618   7.246   7.860   9.769 -0.4895 -0.0301 -0.0946
12726SOL    HW139619   7.171   7.909   9.802 -0.6332  0.1274 -0.6432
12726SOL    HW239620   7.274   7.806   9.843 -0.9266  0.1686  0.2193
12727SOL     OW39621   2.653   3.130   8.082  0.4868 -0.3909  0.2558
12727SOL    HW139622   2.742   3.124   8.117 -0.1097 -0.4962  1.8289
12727SOL    HW239623   2.650   3.064   8.012  1.9066  0.2655 -0.4689
12728SOL     OW39624   6.774   3.500   7.696  0.2998  0.1075 -0.2446
12728SOL    HW139625   6.695   3.505   7.642  0.3535 -1.3149 -0.4734
12728SOL    HW239626   6.824   3.427   7.660  1.1634  0.2456  0.6365
12729SOL     OW39627   4.627   1.057   6.002 -0.5188  0.2946 -0.1137
12729SOL    HW139628   4.579   1.068   6.084  1.2256  2.1129  0.7401
12729SOL    HW239629   4.630   1.144   5.963 -0.4038 -0.3362 -1.6067
12730SOL     OW39630   7.362   1.379   2.444  0.1591  0.3785 -0.1216
12730SOL    HW139631   7.431   1.398   2.381 -0.8604  1.8389 -0.8601
12730SOL    HW239632   7.394   1.415   2.527  0.6875  0.1474 -0.2183
12731SOL     OW39633   5.985   3.100   9.862 -0.2663 -0.1081  0.0532
12731SOL    HW139634   6.021   3.013   9.847  0.5799  0.0540  1.0080
12731SOL    HW239635   5.890   3.090   9.849 -0.0940 -0.9856 -0.5920
12732SOL     OW39636   2.167   3.794  11.012  0.2073  0.7228 -0.0734
12732SOL    HW139637   2.117   3.851  10.953 -0.6682 -0.2839 -0.3352
12732SOL    HW239638   2.197   3.852  11.081  0.2018  1.6998 -0.8607
12733SOL     OW39639   7.295   2.907   4.035  0.9113  0.2103  0.8622
12733SOL    HW139640   7.251   2.879   3.954 -0.0514 -0.1179  1.4842
12733SOL    HW239641   7.343   2.986   4.009  0.4342  0.2404  0.0129
12734SOL     OW39642   1.046   1.141   9.117 -0.1740  0.0171  0.2342
12734SOL    HW139643   0.994   1.174   9.191  1.3418  2.0035  0.4952
12734SOL    HW239644   1.013   1.052   9.103 -0.4736 -0.4899  3.3443
12735SOL     OW39645   2.925   4.546   7.444  0.0220  0.0032 -0.0687
12735SOL    HW139646   2.992   4.607   7.413 -0.9743  0.8693 -0.5657
12735SOL    HW239647   2.850   4.601   7.466 -0.4198 -0.9092  0.8347
12736SOL     OW39648   7.534   7.228   3.960 -0.1869  0.1509 -0.4548
12736SOL    HW139649   7.589   7.225   3.882  1.1961 -1.1030  0.5034
12736SOL    HW239650   7.596   7.218   4.033 -1.7067 -2.1730  0.6397
12737SOL     OW39651   6.533   4.394   1.582  0.0433  0.2202  0.2355
12737SOL    HW139652   6.446   4.397   1.622  0.4193  1.8012  1.0244
12737SOL    HW239653   6.519   4.424   1.492 -0.0151  2.1776  0.8579
12738SOL     OW39654   3.894   4.169   3.988 -0.4075  0.1730 -0.0110
12738SOL    HW139655   3.807   4.197   4.015  0.6307  2.4295  1.3111
12738SOL    HW239656   3.879   4.092   3.934 -3.0396 -0.8803  2.0262
12739SOL     OW39657   7.871   2.056   2.900 -0.3893 -0.4804 -0.0728
12739SOL    HW139658   7.932   2.002   2.850 -0.5779  0.2690 -1.1475
12739SOL    HW239659   7.798   2.073   2.840 -0.2585  1.0809  0.1494
12740SOL     OW39660   2.228   6.566   7.767  0.6333  0.2649 -0.3328
12740SOL    HW139661   2.257   6.638   7.712  2.0161  0.2125  0.2775
12740SOL    HW239662   2.229   6.490   7.709  2.7580  0.0750 -0.1449
12741SOL     OW39663   1.602   3.836   4.226  0.1579  0.0001 -0.2053
12741SOL    HW139664   1.558   3.920   4.212 -0.9436 -0.7952 -1.9973
12741SOL    HW239665   1.532   3.776   4.251  1.0848 -0.2298  2.0849
12742SOL     OW39666   2.590   6.028   9.099  0.0007 -0.0631 -0.3342
12742SOL    HW139667   2.545   6.022   9.015 -0.1862  0.9748 -0.3236
12742SOL    HW239668   2.589   6.122   9.120 -0.9121 -0.4176  1.3408
12743SOL     OW39669   5.550   4.914  10.084 -0.6587  0.6751  0.6259
12743SOL    HW139670   5.500   4.906  10.003  0.5466  0.0382 -0.0929
12743SOL    HW239671   5.639   4.887  10.060 -0.4696 -0.4332  2.3657
12744SOL     OW39672   3.904   3.357   5.618 -0.2541 -0.3914 -0.3312
12744SOL    HW139673   3.860   3.380   5.536 -0.0715 -1.4049 -0.7299
12744SOL    HW239674   3.946   3.273   5.600 -1.2055 -1.2371  1.1489
12745SOL     OW39675   2.131   6.535   9.749  0.3854 -0.4906  0.3053
12745SOL    HW139676   2.212   6.529   9.698  0.0329  0.6828 -0.4141
12745SOL    HW239677   2.158   6.573   9.832  0.8920 -2.0232  0.8821
12746SOL     OW39678   2.550   0.931   7.044  0.1860  0.3356  0.1173
12746SOL    HW139679   2.573   1.001   7.105 -1.7598  0.8877  0.2864
12746SOL    HW239680   2.460   0.951   7.017  0.5900 -0.5268 -2.0663
12747SOL     OW39681   1.545   5.219   7.422  0.0672  0.4309  0.1001
12747SOL    HW139682   1.504   5.193   7.504  1.2647 -1.1567  0.2328
12747SOL    HW239683   1.632   5.249   7.448 -0.2673  1.9446 -0.3949
12748SOL     OW39684   4.560   6.075  11.655 -0.1612 -0.7890 -0.0001
12748SOL    HW139685   4.504   6.094  11.730 -0.6847 -0.8525 -0.3686
12748SOL    HW239686   4.501   6.080  11.579  0.5431  0.1664 -0.5014
12749SOL     OW39687   3.525   0.224   5.294  0.1372 -0.0392  0.2457
12749SOL    HW139688   3.527   0.128   5.295  1.9670 -0.0860 -1.7585
12749SOL    HW239689   3.608   0.250   5.334  0.5804  0.6438 -1.0723
12750SOL     OW39690   3.690   7.139   1.053  0.0585  0.1867  0.4511
12750SOL    HW139691   3.600   7.109   1.056 -0.5758  1.9233 -0.1107
12750SOL    HW239692   3.739   7.064   1.019 -1.2946 -0.4688 -0.1186
12751SOL     OW39693   6.810   4.561   4.250  0.0239 -0.6897  0.3291
12751SOL    HW139694   6.829   4.511   4.330  3.7762  0.4835  0.3590
12751SOL    HW239695   6.828   4.652   4.274 -0.5113 -0.0927 -1.4011
12752SOL     OW39696   3.848   7.784  11.317 -0.2266  0.3739  0.3711
12752SOL    HW139697   3.861   7.801  11.224 -0.9465  1.3722  0.4468
12752SOL    HW239698   3.923   7.730  11.342 -0.4827 -0.6641 -0.9798
12753SOL     OW39699   5.858   6.656   5.998  0.0279 -0.2361 -0.0292
12753SOL    HW139700   5.904   6.675   6.080  1.5818 -0.7937 -0.7224
12753SOL    HW239701   5.771   6.628   6.025  0.2707  0.3140  1.3863
12754SOL     OW39702   5.083   4.906   1.193 -0.1595  0.0282  0.2080
12754SOL    HW139703   5.060   4.998   1.208 -0.0801 -0.2500  2.4076
12754SOL    HW239704   5.067   4.892   1.100  0.6031  2.4732 -0.3669
12755SOL     OW39705   5.837   3.720  10.899  0.1258  0.2007  0.1015
12755SOL    HW139706   5.768   3.782  10.875  0.0141  0.0875  0.1353
12755SOL    HW239707   5.816   3.640  10.852 -0.1117 -0.0319  0.6021
12756SOL     OW39708   3.795   5.451   6.546 -0.3534  0.3850  0.1916
12756SOL    HW139709   3.760   5.368   6.514 -0.3054  0.1096  0.8206
12756SOL    HW239710   3.783   5.446   6.641  0.0362  0.9165  0.2717
12757SOL     OW39711   7.260   0.725   6.061 -0.6884  0.0438  0.1732
12757SOL    HW139712   7.249   0.800   6.002 -2.3161  0.3541  0.8246
12757SOL    HW239713   7.198   0.660   6.028  2.0710 -1.9417 -1.6510
12758SOL     OW39714   5.761   7.516   7.718 -0.4758 -1.2371 -0.6709
12758SOL    HW139715   5.671   7.499   7.692 -0.3262 -2.0854 -0.6541
12758SOL    HW239716   5.790   7.434   7.759 -0.1646 -0.5174  0.6300
12759SOL     OW39717   7.582   0.997   2.334 -0.5592  0.0101  0.2098
12759SOL    HW139718   7.610   0.908   2.312 -0.1486 -0.0220  0.8367
12759SOL    HW239719   7.487   0.995   2.323 -0.6143 -0.6561  0.7097
12760SOL     OW39720   0.706   7.664   7.897 -0.3672  0.1473  0.2603
12760SOL    HW139721   0.680   7.751   7.927  0.4525  0.0370  1.3262
12760SOL    HW239722   0.732   7.618   7.977  1.7619 -0.2076 -0.5729
12761SOL     OW39723   6.188   0.174   4.127 -0.1857 -0.4782  0.0874
12761SOL    HW139724   6.257   0.234   4.154 -0.5007  0.2024 -0.5586
12761SOL    HW239725   6.193   0.101   4.188 -0.4098  0.6530  1.5142
12762SOL     OW39726   5.096   3.171   2.115 -0.0504  0.5751 -0.6994
12762SOL    HW139727   5.071   3.259   2.143  0.4226  0.1892  1.0512
12762SOL    HW239728   5.190   3.166   2.134 -0.1181 -0.3717 -0.5917
12763SOL     OW39729   6.619   6.030   7.105  0.4569 -0.4766  0.2852
12763SOL    HW139730   6.553   5.999   7.168 -0.7541 -0.1680 -0.7757
12763SOL    HW239731   6.603   5.978   7.026  1.7404 -0.6344  0.1143
12764SOL     OW39732   5.119   0.703  10.359 -0.3088  0.4245 -0.0840
12764SOL    HW139733   5.028   0.693  10.384  0.0112 -1.2910  0.5528
12764SOL    HW239734   5.132   0.797  10.350 -1.8697  0.7486  0.8080
12765SOL     OW39735   4.379   5.510  12.042  0.5600  0.5455 -0.4520
12765SOL    HW139736   4.442   5.468  11.984  3.4196  3.8730 -0.0831
12765SOL    HW239737   4.392   5.467  12.127  2.4780  1.2057 -0.3677
12766SOL     OW39738   3.897   0.498   4.247  0.6072 -0.0508  0.5824
12766SOL    HW139739   3.971   0.534   4.295  1.8000 -1.2713 -0.2618
12766SOL    HW239740   3.937   0.447   4.176 -1.0346 -1.0882  0.3517
12767SOL     OW39741   6.974   0.400  11.497  0.3457 -0.0513 -0.7565
12767SOL    HW139742   7.034   0.353  11.555 -1.1414 -0.9728  0.0999
12767SOL    HW239743   7.014   0.394  11.410  2.7281  1.5267  0.1364
12768SOL     OW39744   7.020   3.279   9.871  0.2948 -0.1213 -0.3946
12768SOL    HW139745   7.082   3.246   9.936  2.7281  0.4646 -2.2574
12768SOL    HW239746   6.936   3.281   9.917  1.8445  0.2455  2.6920
12769SOL     OW39747   0.002   2.857   5.832  0.1842 -0.1975 -0.1544
12769SOL    HW139748   0.092   2.860   5.865 -0.0274 -0.1462  0.4328
12769SOL    HW239749  -0.034   2.944   5.853 -0.3575 -0.6025  0.6755
12770SOL     OW39750   4.829   5.125  10.060 -0.4193 -0.0046  0.5485
12770SOL    HW139751   4.850   5.061   9.992  0.3387  0.0594  0.7111
12770SOL    HW239752   4.773   5.189  10.016 -0.7685 -0.5073  0.2538
12771SOL     OW39753   1.228   6.083   4.576 -0.1401  0.1733  0.1019
12771SOL    HW139754   1.275   6.006   4.544 -0.7767 -0.7157  1.2304
12771SOL    HW239755   1.238   6.148   4.507  1.2424 -0.5900 -0.4445
12772SOL     OW39756   7.464   6.840   6.225 -0.6997  0.1084  0.0657
12772SOL    HW139757   7.413   6.877   6.297 -0.2873  1.0940 -0.1279
12772SOL    HW239758   7.486   6.752   6.254 -1.0934  0.2624  0.8640
12773SOL     OW39759   6.911   0.322   4.022  0.0702  0.5204  0.0342
12773SOL    HW139760   6.860   0.398   3.996 -0.8157  0.3748  1.2333
12773SOL    HW239761   6.845   0.257   4.048  0.8126 -0.5610 -0.6945
12774SOL     OW39762   2.991   4.895   5.257  0.2764 -0.1638  0.2499
12774SOL    HW139763   2.900   4.906   5.228  0.0611  0.1177  1.0214
12774SOL    HW239764   3.004   4.964   5.321  0.9124 -0.4641  0.4468
12775SOL     OW39765   2.319   5.205   0.416 -0.5374 -0.1537 -0.0428
12775SOL    HW139766   2.356   5.118   0.431 -1.2142 -0.6440 -1.1098
12775SOL    HW239767   2.395   5.264   0.421 -0.1653 -0.7098  1.3154
12776SOL     OW39768   5.839   3.507   5.894 -0.1458 -0.2243 -0.0680
12776SOL    HW139769   5.919   3.517   5.841  1.4250  1.2513  2.3508
12776SOL    HW239770   5.836   3.414   5.916 -0.4539 -0.7333 -2.0738
12777SOL     OW39771   7.697   7.015   7.882  0.0168 -0.1235  0.1950
12777SOL    HW139772   7.710   7.019   7.787  2.2290 -2.3461  0.2912
12777SOL    HW239773   7.610   6.977   7.893  0.9885 -3.0287 -1.1026
12778SOL     OW39774   1.713   7.025   7.767 -0.3038  0.3383 -0.2386
12778SOL    HW139775   1.674   7.108   7.738  0.6434  0.6689 -0.6134
12778SOL    HW239776   1.640   6.964   7.771 -0.8218  0.8591 -1.2321
12779SOL     OW39777   1.909   4.898   5.739  0.0185  0.1106  0.3803
12779SOL    HW139778   1.833   4.885   5.683  0.8053 -2.2177 -0.2598
12779SOL    HW239779   1.937   4.988   5.721 -0.6690 -0.0569 -1.8251
12780SOL     OW39780   7.524   6.071   9.408  0.2776  0.7084  0.4894
12780SOL    HW139781   7.455   6.006   9.422  0.2102  0.2757 -1.6105
12780SOL    HW239782   7.483   6.154   9.432 -0.9597  0.4360 -0.5622
12781SOL     OW39783   7.465   0.499   3.903 -0.1259  0.2899 -0.0970
12781SOL    HW139784   7.549   0.523   3.864 -0.0491 -0.4491 -0.4155
12781SOL    HW239785   7.407   0.486   3.828 -0.6559  1.2354  0.1378
12782SOL     OW39786   1.942   0.166   6.538  0.5541 -0.1575 -0.0634
12782SOL    HW139787   2.027   0.128   6.513  1.2377  0.5495  1.1116
12782SOL    HW239788   1.951   0.186   6.631 -0.4947  1.0230 -0.1899
12783SOL     OW39789   7.821   4.657   1.819 -0.6831  0.3228  0.0757
12783SOL    HW139790   7.746   4.612   1.780 -2.1761  0.6031  2.4465
12783SOL    HW239791   7.871   4.588   1.862 -1.6425  0.5655  1.6360
12784SOL     OW39792   5.048   1.409   3.244  0.1382 -0.7837 -0.5856
12784SOL    HW139793   5.059   1.315   3.229 -3.7144 -1.6917  1.0982
12784SOL    HW239794   5.013   1.443   3.161  1.8568 -0.6881 -1.3093
12785SOL     OW39795   4.856   4.673   8.984 -0.4583 -0.0835 -0.0514
12785SOL    HW139796   4.902   4.752   8.954 -0.4525  0.1919  0.6745
12785SOL    HW239797   4.841   4.623   8.904 -0.1343  0.4806 -0.4747
12786SOL     OW39798   5.809   7.762   3.837 -0.3247  0.3786 -0.8983
12786SOL    HW139799   5.885   7.751   3.780  0.2806  0.9316 -0.2200
12786SOL    HW239800   5.832   7.717   3.919 -0.0011  1.9898 -0.0607
12787SOL     OW39801   4.840   7.896  10.142  0.7019 -0.0914 -0.3343
12787SOL    HW139802   4.761   7.923  10.189  1.2698 -0.1062  0.6732
12787SOL    HW239803   4.836   7.800  10.141 -0.7142 -0.0871 -2.8530
12788SOL     OW39804   6.838   1.726  10.482  0.3416  0.2370  0.2007
12788SOL    HW139805   6.749   1.759  10.468  0.4770  0.9377  0.8741
12788SOL    HW239806   6.845   1.649  10.427 -0.9709 -0.3003  0.7512
12789SOL     OW39807   2.995   2.685   0.955  0.7889  0.0152  0.0886
12789SOL    HW139808   2.988   2.591   0.969  0.2949  0.0084 -0.2033
12789SOL    HW239809   2.983   2.697   0.861  0.2587  0.4259  0.2072
12790SOL     OW39810   0.006   2.606   4.210 -0.2347  0.0596  0.2640
12790SOL    HW139811   0.100   2.602   4.195 -0.6159 -1.6298 -2.4187
12790SOL    HW239812  -0.011   2.537   4.273  0.3497  0.7316  1.1809
12791SOL     OW39813   5.606   7.325  11.586 -0.2696  0.2041  0.2989
12791SOL    HW139814   5.513   7.316  11.608 -0.3001  1.7922  0.9781
12791SOL    HW239815   5.651   7.311  11.669 -0.0187  0.8682  0.2855
12792SOL     OW39816   1.587   0.732   3.477  0.5277  0.2605  0.3853
12792SOL    HW139817   1.558   0.817   3.512  0.3775 -0.2674  1.6100
12792SOL    HW239818   1.673   0.749   3.441  0.5928  0.8935  0.8248
12793SOL     OW39819   1.065   3.209   8.033 -0.3011 -0.6894 -0.3838
12793SOL    HW139820   1.028   3.293   8.061  1.1017 -0.8747  2.3862
12793SOL    HW239821   1.005   3.177   7.966 -0.2117  3.0660 -2.5251
12794SOL     OW39822   7.352   1.732   8.695  0.0561  0.1363 -0.0549
12794SOL    HW139823   7.371   1.714   8.787 -2.2602  0.6836  0.6013
12794SOL    HW239824   7.436   1.723   8.651  1.6276  1.6659  2.3902
12795SOL     OW39825   7.559   5.832   4.749 -0.0414 -0.0585  0.1483
12795SOL    HW139826   7.647   5.795   4.760  0.2528  0.2727 -1.0389
12795SOL    HW239827   7.518   5.777   4.683 -1.3340 -1.2173  1.8400
12796SOL     OW39828   7.495   3.795   6.309 -0.9647 -0.0220  0.4245
12796SOL    HW139829   7.513   3.702   6.296  0.5882  0.4637 -1.2192
12796SOL    HW239830   7.561   3.823   6.372 -0.6171  0.2185 -0.0415
12797SOL     OW39831   3.703   5.647   2.463 -0.1292 -0.0634  0.0456
12797SOL    HW139832   3.677   5.672   2.551 -0.2667 -0.2086  0.0476
12797SOL    HW239833   3.798   5.642   2.466 -0.1240  0.0820  0.1444
12798SOL     OW39834   6.682   2.950   5.592 -0.2717  0.1981 -0.5251
12798SOL    HW139835   6.724   3.026   5.632 -0.1097 -1.2360  2.3158
12798SOL    HW239836   6.609   2.929   5.651  0.7550 -2.8431 -0.1796
12799SOL     OW39837   6.199   2.000   6.155 -0.0876 -0.2862  0.7327
12799SOL    HW139838   6.177   2.089   6.128  0.5522 -0.1816  0.5510
12799SOL    HW239839   6.290   2.005   6.184 -0.7956 -0.3450  3.1516
12800SOL     OW39840   4.567   2.276   5.101 -0.4327  0.3509 -0.2468
12800SOL    HW139841   4.481   2.243   5.128  0.0403 -1.4268 -0.7849
12800SOL    HW239842   4.570   2.259   5.007  0.8786 -0.5389 -0.0711
12801SOL     OW39843   2.976   7.032   6.454  0.6472 -0.5776  0.1937
12801SOL    HW139844   2.908   7.097   6.474 -1.2178 -2.4436  0.1479
12801SOL    HW239845   2.974   6.972   6.528  2.1758 -0.7704  0.1126
12802SOL     OW39846   1.572   5.588   8.642 -0.2033  0.2474 -0.4095
12802SOL    HW139847   1.652   5.588   8.695 -1.3943  0.3201  1.4627
12802SOL    HW239848   1.532   5.673   8.659 -0.6991  0.2063 -1.3229
12803SOL     OW39849   6.385   2.979   9.045 -0.2220 -0.2711 -0.2610
12803SOL    HW139850   6.412   3.066   9.015 -1.5019 -0.2985 -1.6240
12803SOL    HW239851   6.291   2.987   9.061 -0.3466 -1.3789 -0.3467
12804SOL     OW39852   7.718   3.978   6.680 -0.3106  0.2567  0.0293
12804SOL    HW139853   7.729   3.948   6.590 -0.2915 -0.0175  0.1231
12804SOL    HW239854   7.749   4.068   6.679  1.1715 -0.2268  0.0940
12805SOL     OW39855   4.918   1.558   9.656 -0.1918  0.3044 -0.0530
12805SOL    HW139856   4.863   1.612   9.600  0.1307  0.3339 -0.3452
12805SOL    HW239857   4.999   1.547   9.606  0.1341  0.4104  0.4491
12806SOL     OW39858   1.747   3.407   7.544  0.2249 -0.0976 -0.0178
12806SOL    HW139859   1.753   3.461   7.465 -0.8347 -1.6183 -1.1965
12806SOL    HW239860   1.787   3.460   7.613  0.1680  1.7351 -1.3369
12807SOL     OW39861   2.620   3.152   1.207 -0.4792  0.0199  0.3159
12807SOL    HW139862   2.560   3.105   1.150 -1.0013 -0.3690  1.1708
12807SOL    HW239863   2.638   3.091   1.279  0.5622  0.3108  0.3191
12808SOL     OW39864   7.142   3.706  10.429 -0.0733 -0.4794  0.1721
12808SOL    HW139865   7.072   3.724  10.367  0.3269  1.4568  0.2337
12808SOL    HW239866   7.103   3.646  10.493 -1.6825  0.5635  0.2098
12809SOL     OW39867   3.519   1.283   5.810 -0.1618  0.6380  0.4092
12809SOL    HW139868   3.502   1.374   5.833 -2.8057  0.0921  1.0376
12809SOL    HW239869   3.527   1.238   5.894  0.6645  0.2205  0.1108
12810SOL     OW39870   1.307   2.973  12.181 -0.3251  0.1620  0.0512
12810SOL    HW139871   1.294   3.050  12.235 -2.7136 -0.2683  0.1701
12810SOL    HW239872   1.354   2.911  12.237 -0.9166  0.4959  0.9285
12811SOL     OW39873   7.115   1.712  10.758 -0.5655  0.1280 -0.1128
12811SOL    HW139874   7.050   1.641  10.759  0.8441 -1.2008 -0.0439
12811SOL    HW239875   7.098   1.760  10.839 -0.2601 -1.3640  0.8730
12812SOL     OW39876   1.943   2.772  10.423 -0.2470  0.1596 -0.6391
12812SOL    HW139877   2.003   2.713  10.467 -1.8969 -0.1088  1.4168
12812SOL    HW239878   1.856   2.732  10.435 -1.0948  1.6136 -1.5828
12813SOL     OW39879   0.706   5.563   0.291 -0.6739 -0.1955 -0.2648
12813SOL    HW139880   0.656   5.641   0.315 -1.0080 -0.7516  0.9225
12813SOL    HW239881   0.713   5.568   0.196 -1.4582  0.8198 -0.2920
12814SOL     OW39882   0.442   4.747  11.359 -0.4409  0.0292  0.2421
12814SOL    HW139883   0.416   4.660  11.389  1.9867 -1.6251 -1.9640
12814SOL    HW239884   0.517   4.770  11.413  0.7075 -0.6283 -1.0004
12815SOL     OW39885   3.642   0.918   9.328 -0.1542  0.1126  0.3098
12815SOL    HW139886   3.618   0.835   9.369 -0.6452  0.9764  1.8691
12815SOL    HW239887   3.579   0.981   9.363  1.2985  1.4833  0.5992
12816SOL     OW39888   7.776   5.707   0.178 -0.0938  0.3268 -0.0380
12816SOL    HW139889   7.759   5.621   0.216  0.3162  0.8684  1.4308
12816SOL    HW239890   7.747   5.769   0.245  0.8731  1.3245 -0.5115
12817SOL     OW39891   2.235   4.613   9.484  0.2926 -0.6739  0.2497
12817SOL    HW139892   2.253   4.529   9.526 -1.3521 -0.0159  2.4585
12817SOL    HW239893   2.307   4.670   9.513  0.0719 -0.6824  0.8415
12818SOL     OW39894   6.471   4.376   4.736  0.0085 -0.2463  0.9764
12818SOL    HW139895   6.448   4.468   4.752 -0.7012 -0.2795  0.1774
12818SOL    HW239896   6.557   4.366   4.778 -0.2562  0.5648  1.7644
12819SOL     OW39897   5.209   0.632   8.963 -0.3672 -0.2165 -0.2582
12819SOL    HW139898   5.262   0.664   9.036 -0.7571  0.5578 -0.3004
12819SOL    HW239899   5.208   0.537   8.974 -0.0157 -0.1471  0.4626
12820SOL     OW39900   1.453   1.872   7.995  0.4955  0.0510 -0.3155
12820SOL    HW139901   1.479   1.780   8.006  0.1047  0.0781  1.0285
12820SOL    HW239902   1.508   1.904   7.924  2.2691 -0.5912  0.7235
12821SOL     OW39903   2.619   0.023   9.932 -0.3121  0.0815  0.4435
12821SOL    HW139904   2.697   0.023   9.987 -0.3737 -0.0125  0.5313
12821SOL    HW239905   2.548  -0.005   9.990 -0.7633  1.9452  0.8666
12822SOL     OW39906   4.973   6.642   4.807  0.4679 -0.1048  0.1066
12822SOL    HW139907   4.898   6.584   4.793 -0.2527  0.8455 -0.0976
12822SOL    HW239908   4.945   6.725   4.769  1.4458  0.3968  0.4767
12823SOL     OW39909   1.520   6.151   4.539 -0.0896 -0.1439  0.8410
12823SOL    HW139910   1.545   6.108   4.457 -3.3892  0.5711 -0.6968
12823SOL    HW239911   1.536   6.244   4.523 -0.2114 -0.0568  1.2201
12824SOL     OW39912   6.837   3.347  11.438  0.1727  0.8339 -0.5973
12824SOL    HW139913   6.921   3.386  11.462  0.9158 -1.3019  0.5541
12824SOL    HW239914   6.828   3.366  11.345  2.3734  0.3597 -0.9667
12825SOL     OW39915   5.822   6.496   4.077  0.3626  0.4015 -0.2387
12825SOL    HW139916   5.740   6.543   4.063 -0.4777 -0.9698 -0.1224
12825SOL    HW239917   5.796   6.404   4.088  1.8767 -0.0109  0.2069
12826SOL     OW39918   2.875   3.730   6.387  0.2470  0.6916 -0.2609
12826SOL    HW139919   2.782   3.734   6.366 -0.0887  3.2242  1.3012
12826SOL    HW239920   2.882   3.660   6.452 -0.0320 -1.3077 -2.2137
12827SOL     OW39921   1.049   0.860  11.141  0.0503  1.2267  0.4187
12827SOL    HW139922   1.089   0.928  11.088 -0.1918  1.3665  0.4111
12827SOL    HW239923   0.998   0.808  11.079  2.6067 -0.8369 -0.1327
12828SOL     OW39924   1.868   7.063   6.904 -0.6852  0.1129 -0.5318
12828SOL    HW139925   1.931   7.011   6.855  1.3341  0.5550  1.4381
12828SOL    HW239926   1.812   6.998   6.948  1.3855 -0.5064  1.3717
12829SOL     OW39927   2.240   0.873   9.141 -0.5284 -0.4190 -0.4426
12829SOL    HW139928   2.218   0.913   9.057 -1.6622 -1.5548 -0.7050
12829SOL    HW239929   2.158   0.836   9.173 -0.1168 -0.0278  1.1668
12830SOL     OW39930   3.364   5.024  12.032 -0.6573  0.6107 -0.0385
12830SOL    HW139931   3.363   5.112  11.993  0.2545  0.7269  0.1665
12830SOL    HW239932   3.437   5.026  12.094 -2.2953  0.5653  2.0327
12831SOL     OW39933   5.987   2.281   9.469  0.0507 -0.3845  0.3732
12831SOL    HW139934   5.976   2.229   9.548  0.1550 -2.2284 -0.7640
12831SOL    HW239935   6.029   2.222   9.407  1.8256  1.6176 -0.4640
12832SOL     OW39936   6.562   5.658  10.782 -0.1678  0.3244 -0.0624
12832SOL    HW139937   6.483   5.633  10.830 -0.6287  0.0816 -0.9234
12832SOL    HW239938   6.536   5.652  10.690  0.4457  1.5661 -0.3311
12833SOL     OW39939   1.952   2.902   4.558  0.3516  0.1744 -0.8508
12833SOL    HW139940   1.904   2.943   4.630 -0.8930  0.6060 -1.8950
12833SOL    HW239941   1.884   2.873   4.498  1.2310 -2.4663 -0.6902
12834SOL     OW39942   3.863   6.505   6.486 -0.1574  0.1085 -0.1086
12834SOL    HW139943   3.789   6.470   6.535 -0.3620  1.2200  0.4060
12834SOL    HW239944   3.927   6.530   6.553 -0.0261  0.7170 -0.4514
12835SOL     OW39945   6.640   6.921  11.176 -0.4342  0.0937  0.3355
12835SOL    HW139946   6.669   6.848  11.232 -0.3694 -0.2450 -0.1290
12835SOL    HW239947   6.616   6.990  11.237  2.1251  0.7078  0.7464
12836SOL     OW39948   6.816   6.996  10.360 -0.7449 -0.1137  0.5765
12836SOL    HW139949   6.894   7.043  10.389 -0.8886  0.5577 -0.1066
12836SOL    HW239950   6.746   7.026  10.418 -0.8705  0.6489  0.0364
12837SOL     OW39951   2.218   3.801   7.906 -0.0290  0.2781 -0.0644
12837SOL    HW139952   2.143   3.764   7.952 -1.2829  0.5039 -1.8547
12837SOL    HW239953   2.268   3.846   7.975 -0.4893 -1.4236  1.4856
12838SOL     OW39954   4.443   5.766  10.152  0.4364  0.7287 -0.0477
12838SOL    HW139955   4.384   5.696  10.122  1.2783 -0.1012  0.1970
12838SOL    HW239956   4.507   5.775  10.081  0.1516  1.4767 -0.2152
12839SOL     OW39957   1.019   0.757   3.896 -0.0442 -0.6564 -0.1419
12839SOL    HW139958   0.928   0.785   3.890 -0.1149 -0.8020  0.2428
12839SOL    HW239959   1.044   0.774   3.987  0.7310  0.6509 -0.5625
12840SOL     OW39960   4.843   5.496  11.066 -0.0942  0.7356 -0.3986
12840SOL    HW139961   4.764   5.449  11.036 -0.2160  0.4134  0.4207
12840SOL    HW239962   4.849   5.476  11.159  1.4632  0.0376 -0.6254
12841SOL     OW39963   3.047   6.001  10.828 -0.4992 -0.2327  0.2054
12841SOL    HW139964   2.994   5.948  10.768  0.5564 -1.5459  0.4113
12841SOL    HW239965   3.085   6.069  10.772  0.6676 -1.5827 -0.6962
12842SOL     OW39966   4.711   2.902   3.204 -0.1223 -0.5427  0.8179
12842SOL    HW139967   4.661   2.951   3.269  0.8204  2.4746 -0.5217
12842SOL    HW239968   4.787   2.869   3.251  0.0219  0.6961  1.4989
12843SOL     OW39969   6.135   1.191   6.569 -0.1598  0.1800  0.0783
12843SOL    HW139970   6.193   1.261   6.598  1.0588  0.2022 -2.1671
12843SOL    HW239971   6.128   1.203   6.474  1.6050 -3.7431 -0.7514
12844SOL     OW39972   1.854   2.344   3.303  0.2712 -0.3161 -0.5109
12844SOL    HW139973   1.902   2.311   3.380  0.3225 -1.3774 -0.9807
12844SOL    HW239974   1.901   2.423   3.279 -0.3757  0.6336  1.1737
12845SOL     OW39975   2.105   6.428  10.257 -0.2905  0.2214  0.2697
12845SOL    HW139976   2.134   6.373  10.185 -1.6728  1.2472 -1.1373
12845SOL    HW239977   2.144   6.388  10.335  1.4945 -0.7394 -1.0502
12846SOL     OW39978   7.785   1.222   7.398 -0.0459 -0.1112  0.0349
12846SOL    HW139979   7.786   1.284   7.325 -1.8474 -1.2957 -1.0798
12846SOL    HW239980   7.871   1.180   7.395  0.9040  1.7245  0.3217
12847SOL     OW39981   7.226   3.373   0.145  0.2270  0.9276 -0.3730
12847SOL    HW139982   7.138   3.337   0.137  1.1728 -1.7778  0.1139
12847SOL    HW239983   7.250   3.356   0.237  1.1648  1.8311 -0.4388
12848SOL     OW39984   0.335   7.512   9.579  0.3189  0.0729  0.3362
12848SOL    HW139985   0.379   7.427   9.570  0.6413  0.3649 -1.0387
12848SOL    HW239986   0.285   7.522   9.498  0.6698  1.4082  0.2687
12849SOL     OW39987   0.195   4.035   3.477  0.1316 -0.1692  0.2741
12849SOL    HW139988   0.125   4.097   3.500  0.6240  1.2473 -1.8637
12849SOL    HW239989   0.269   4.090   3.453  1.0474 -1.6271 -0.3286
12850SOL     OW39990   6.814   5.135   1.745  0.2218 -0.4110 -0.1335
12850SOL    HW139991   6.802   5.145   1.650 -0.8239  1.8655  0.1906
12850SOL    HW239992   6.908   5.121   1.755  0.4910  0.2408 -1.4537
12851SOL     OW39993   5.115   5.595  11.719 -0.2004 -0.1960  0.5145
12851SOL    HW139994   5.089   5.504  11.732 -0.5393 -0.0808  0.6637
12851SOL    HW239995   5.094   5.613  11.628 -0.2818 -0.2203  0.5285
12852SOL     OW39996   2.703   3.828  12.216  0.4914  0.5140  0.1779
12852SOL    HW139997   2.727   3.920  12.210 -2.3152  1.4103  1.1940
12852SOL    HW239998   2.702   3.797  12.125 -0.2416  2.0184 -0.3629
12853SOL     OW39999   7.234   2.405   8.910 -0.3582 -0.0450 -0.0847
12853SOL    HW140000   7.230   2.324   8.859 -0.8283 -0.5993  0.8020
12853SOL    HW240001   7.168   2.461   8.870  1.6049  0.8928 -2.2734
12854SOL     OW40002   7.756   2.797   4.094  1.1488  0.5733  0.0877
12854SOL    HW140003   7.819   2.744   4.143 -0.6301 -3.3627 -1.4199
12854SOL    HW240004   7.800   2.817   4.011  1.4386  0.3625  0.1892
12855SOL     OW40005   7.020   1.741   6.919 -0.1419  0.0045  0.1955
12855SOL    HW140006   7.115   1.729   6.917 -0.2999 -1.3734  0.3085
12855SOL    HW240007   7.006   1.820   6.866  0.9242 -0.8148 -1.3976
12856SOL     OW40008   0.101   2.229   0.743  0.4440 -0.1460  0.2756
12856SOL    HW140009   0.121   2.168   0.673  0.8111 -0.1763  0.4048
12856SOL    HW240010   0.042   2.293   0.703  1.1688  0.2120 -0.2389
12857SOL     OW40011   6.628   5.393  10.061  0.5970  0.0432 -0.3737
12857SOL    HW140012   6.541   5.367  10.031  0.6319  0.5982 -0.9827
12857SOL    HW240013   6.686   5.322  10.032  0.8650  1.2077 -2.9830
12858SOL     OW40014   5.772   0.491  10.623 -0.1172 -0.0516  0.0060
12858SOL    HW140015   5.697   0.431  10.625  0.0060 -0.1846  1.5905
12858SOL    HW240016   5.839   0.447  10.674  0.3795  0.9182  0.2045
12859SOL     OW40017   1.040   0.517   6.571  0.6779 -0.4215  0.3426
12859SOL    HW140018   1.015   0.462   6.645  1.5433  1.5084  2.1713
12859SOL    HW240019   0.971   0.583   6.566 -0.2347 -1.4290 -1.6819
12860SOL     OW40020   7.187   5.636   0.273 -0.1545  0.4996  0.9521
12860SOL    HW140021   7.273   5.633   0.314  0.0479 -0.7078  0.4990
12860SOL    HW240022   7.199   5.691   0.195  0.8231 -1.3937 -0.3397
12861SOL     OW40023   7.852   4.899  11.363 -0.0856 -0.5394  0.5287
12861SOL    HW140024   7.925   4.959  11.378 -0.0003 -0.4877 -0.0726
12861SOL    HW240025   7.879   4.817  11.404  0.1622 -0.4175  0.6070
12862SOL     OW40026   4.766   2.867   9.759  0.8444  0.3064 -0.4971
12862SOL    HW140027   4.853   2.855   9.796  0.1927 -0.5768  0.8017
12862SOL    HW240028   4.723   2.783   9.770 -0.8744  1.2849  0.7749
12863SOL     OW40029   0.660   1.563   1.382 -0.5104 -0.2945  0.3076
12863SOL    HW140030   0.737   1.615   1.405  0.2288 -1.2888  0.1207
12863SOL    HW240031   0.593   1.591   1.444 -0.1206  0.8534  0.2298
12864SOL     OW40032   5.109   4.853  11.076 -0.4375 -0.1431  0.1109
12864SOL    HW140033   5.155   4.926  11.035 -0.2300  0.2280  0.9842
12864SOL    HW240034   5.166   4.777  11.062 -0.9425 -0.3025 -1.3489
12865SOL     OW40035   5.435   7.748   1.310  0.0922 -0.0649  0.3419
12865SOL    HW140036   5.514   7.766   1.260  1.2144 -0.0123  2.0489
12865SOL    HW240037   5.422   7.654   1.300  0.9031 -0.2328  0.7797
12866SOL     OW40038   4.705   2.273  10.533 -0.4341 -0.1772 -0.0921
12866SOL    HW140039   4.651   2.341  10.574 -1.7254 -0.2789 -1.5450
12866SOL    HW240040   4.676   2.192  10.573  0.7510  0.0255  1.2690
12867SOL     OW40041   7.311   7.679   9.956 -0.0432 -0.1504 -0.3397
12867SOL    HW140042   7.396   7.717   9.975  1.2045 -2.7129 -0.4358
12867SOL    HW240043   7.273   7.661  10.042  0.1909 -0.3952 -0.2850
12868SOL     OW40044   0.138   6.524   5.462  0.2119 -0.1677 -0.0392
12868SOL    HW140045   0.053   6.560   5.489  0.0678  0.1083 -0.8341
12868SOL    HW240046   0.167   6.582   5.392  1.0159 -0.3220  0.1582
12869SOL     OW40047   5.514   6.321   2.851 -0.3061  0.1068  0.5018
12869SOL    HW140048   5.552   6.241   2.816 -0.1280  0.9902 -1.4279
12869SOL    HW240049   5.421   6.315   2.830 -0.3526  0.2437  0.6664
12870SOL     OW40050   5.832   0.382   2.165 -0.3103  0.0273 -0.5758
12870SOL    HW140051   5.771   0.402   2.236  0.0357  0.4331 -0.3906
12870SOL    HW240052   5.858   0.468   2.131  0.6969 -0.1227 -0.2029
12871SOL     OW40053   6.998   4.302   1.104 -0.3142  0.2928 -0.1569
12871SOL    HW140054   7.011   4.243   1.030  1.0585 -0.3108  0.5149
12871SOL    HW240055   7.059   4.374   1.089  1.0741 -0.5551  1.0544
12872SOL     OW40056   0.773   2.457   0.999  0.7501  0.3633  0.4146
12872SOL    HW140057   0.818   2.411   0.928 -0.3648 -0.2460  0.0884
12872SOL    HW240058   0.775   2.549   0.973  0.0336  0.1097 -0.6040
12873SOL     OW40059   3.318   1.690   1.340  0.0261 -0.0314  0.3188
12873SOL    HW140060   3.294   1.619   1.400 -1.4008 -0.2348 -0.4430
12873SOL    HW240061   3.244   1.750   1.343  1.1290  1.3640  0.8027
12874SOL     OW40062   4.090   5.848   1.403  0.2103 -0.3820 -0.3407
12874SOL    HW140063   4.129   5.879   1.322 -0.5818  0.8381 -0.2793
12874SOL    HW240064   4.032   5.920   1.431 -0.5945 -1.3470  0.5585
12875SOL     OW40065   3.133   5.068  10.819  0.4069 -0.6893 -0.8152
12875SOL    HW140066   3.078   5.017  10.879  0.9502 -0.4634 -0.1192
12875SOL    HW240067   3.218   5.071  10.862  0.6940 -0.1989 -1.4241
12876SOL     OW40068   0.076   1.137   5.974  0.0706 -0.4337  0.4197
12876SOL    HW140069   0.021   1.082   5.918 -0.9465  1.3084 -0.3929
12876SOL    HW240070   0.034   1.133   6.060 -0.0814 -0.8203  0.3271
12877SOL     OW40071   5.652   3.958   2.521 -0.0663  0.9480 -0.4347
12877SOL    HW140072   5.652   3.915   2.606  1.8861  0.7348 -0.4783
12877SOL    HW240073   5.566   3.940   2.484  0.1987 -1.8440  0.0918
12878SOL     OW40074   3.530   4.469   8.259  0.0316  0.1336 -0.1623
12878SOL    HW140075   3.621   4.452   8.236  0.9041  0.3712  2.6999
12878SOL    HW240076   3.528   4.562   8.283 -1.1540  0.3238 -0.9168
12879SOL     OW40077   4.277   3.787   4.026  0.3842 -0.2691  0.8566
12879SOL    HW140078   4.270   3.694   4.049 -0.3476 -0.2432  0.7776
12879SOL    HW240079   4.351   3.819   4.077  1.8832 -1.3234 -0.5645
12880SOL     OW40080   5.808   2.995   7.226 -0.4015  0.2024 -0.3724
12880SOL    HW140081   5.764   2.924   7.274 -1.9323 -0.2278 -2.2890
12880SOL    HW240082   5.748   3.069   7.231  0.9251  1.2619  1.1091
12881SOL     OW40083   3.043   6.778   0.221 -0.0174  0.6612  0.0072
12881SOL    HW140084   3.016   6.851   0.278 -0.5621 -0.0271  0.6558
12881SOL    HW240085   3.096   6.722   0.277  0.7921  0.7852 -0.6209
12882SOL     OW40086   1.163   6.247  12.187  0.1367 -0.0224 -0.1111
12882SOL    HW140087   1.113   6.326  12.164 -0.9078 -0.5360  0.3401
12882SOL    HW240088   1.151   6.238  12.282 -0.2493 -1.0490 -0.2455
12883SOL     OW40089   2.006   5.648   6.344 -0.1339 -0.4878 -0.2621
12883SOL    HW140090   2.027   5.652   6.251  1.0896 -0.2253  0.0092
12883SOL    HW240091   2.084   5.681   6.388 -0.7044 -0.5767  0.8628
12884SOL     OW40092   4.392   2.036   3.053  0.1507 -1.0647  0.2533
12884SOL    HW140093   4.309   1.989   3.053  0.2683 -1.2787  0.7145
12884SOL    HW240094   4.437   2.006   3.132 -0.6040  1.3016  1.6909
12885SOL     OW40095   4.251   2.076  10.114  0.2945 -0.6501  0.0866
12885SOL    HW140096   4.310   2.100  10.043  0.3767 -0.2792  0.2791
12885SOL    HW240097   4.166   2.112  10.087  0.4468 -0.0067  0.4391
12886SOL     OW40098   0.041   5.171  10.734  0.0698  0.1499 -0.7161
12886SOL    HW140099   0.127   5.139  10.708  0.8356  2.7137 -1.6286
12886SOL    HW240100   0.059   5.226  10.811 -0.9420 -0.2705 -0.1657
12887SOL     OW40101   2.737   6.330   8.066  0.3516 -0.6106 -0.3234
12887SOL    HW140102   2.796   6.332   7.991  0.6064 -0.1593 -0.1164
12887SOL    HW240103   2.738   6.420   8.099 -1.1494 -0.3646 -0.8726
12888SOL     OW40104   6.220   5.118   9.511 -0.1356  0.1417 -0.0150
12888SOL    HW140105   6.240   5.211   9.522  0.8355  0.1959 -1.8101
12888SOL    HW240106   6.284   5.088   9.446 -0.5796 -1.7349  0.3717
12889SOL     OW40107   2.198   0.487   0.724  0.2274 -0.0032  0.0867
12889SOL    HW140108   2.238   0.431   0.791 -0.1294  0.3029  0.5707
12889SOL    HW240109   2.117   0.518   0.765  1.1359  2.0708  0.4410
12890SOL     OW40110   2.534   7.475   6.380 -0.6932 -0.4569  0.1498
12890SOL    HW140111   2.525   7.452   6.288 -1.4512 -0.6491  0.2683
12890SOL    HW240112   2.521   7.393   6.427 -1.8716 -0.0979  0.4970
12891SOL     OW40113   0.620   3.001   4.586 -0.5733 -0.1126 -0.0889
12891SOL    HW140114   0.579   3.085   4.568 -1.1684 -0.3148  0.2959
12891SOL    HW240115   0.609   2.988   4.680  2.0333  0.6899  0.4186
12892SOL     OW40116   4.132   7.823   1.192 -0.1074  0.2484 -0.0144
12892SOL    HW140117   4.113   7.730   1.188 -0.9112  0.4392 -0.7714
12892SOL    HW240118   4.228   7.828   1.188 -0.0589 -0.5386  0.0658
12893SOL     OW40119   7.666   4.976   9.852  0.4591 -0.4696  0.2165
12893SOL    HW140120   7.580   4.974   9.893  0.8263  0.0357  1.0521
12893SOL    HW240121   7.726   4.953   9.923  0.9258 -2.0273 -0.6302
12894SOL     OW40122   0.319   6.331  11.229  0.5896 -0.4611 -0.6370
12894SOL    HW140123   0.332   6.374  11.144 -0.1337 -2.7227 -1.9797
12894SOL    HW240124   0.231   6.295  11.225  0.1255  0.2569  1.5525
12895SOL     OW40125   2.254   2.004   4.825 -0.9655  0.2194 -0.3597
12895SOL    HW140126   2.227   1.927   4.876  0.1598  0.4605  0.6519
12895SOL    HW240127   2.350   2.005   4.833 -1.0345  2.6502  1.0644
12896SOL     OW40128   5.211   1.718   6.982  0.1592  0.3635  0.1788
12896SOL    HW140129   5.178   1.792   6.931  0.5800  0.3400 -0.1299
12896SOL    HW240130   5.216   1.752   7.072  1.7485  1.1995 -0.1836
12897SOL     OW40131   3.019   4.372   7.252  0.0078 -0.0073 -0.2382
12897SOL    HW140132   2.975   4.422   7.320  0.8475  0.7844 -0.2496
12897SOL    HW240133   2.983   4.406   7.170  0.1776  0.1949 -0.2301
12898SOL     OW40134   0.853   7.024   5.744  0.5617  0.2169  0.2918
12898SOL    HW140135   0.790   6.977   5.690 -1.1402  0.8885  1.5847
12898SOL    HW240136   0.827   7.116   5.737 -1.2257  0.1562  3.9263
12899SOL     OW40137   1.812   3.132   7.973  0.0172 -0.6790  0.0716
12899SOL    HW140138   1.801   3.096   8.061  1.2494  1.5064  1.2110
12899SOL    HW240139   1.738   3.192   7.962 -0.6301 -1.5938 -0.7928
12900SOL     OW40140   5.626   5.108   7.091  0.1597  0.1188  0.3760
12900SOL    HW140141   5.559   5.091   7.024 -0.7197 -2.0024  1.7025
12900SOL    HW240142   5.699   5.051   7.067 -0.3136 -0.9514  1.3835
12901SOL     OW40143   3.807   5.734   9.830 -0.3848  0.3895  0.8681
12901SOL    HW140144   3.884   5.753   9.883 -0.5150  1.5067  0.6642
12901SOL    HW240145   3.837   5.737   9.740 -0.8072  1.6208  0.7466
12902SOL     OW40146   5.017   5.879   3.521  0.1444  0.6250 -0.0790
12902SOL    HW140147   4.974   5.794   3.509  1.4974  0.1827 -2.5594
12902SOL    HW240148   5.101   5.870   3.476  1.0903  2.7507  1.0891
12903SOL     OW40149   1.314   5.092   0.866  0.1618  0.2246  0.1181
12903SOL    HW140150   1.330   5.140   0.785  2.2297 -1.2282 -0.4241
12903SOL    HW240151   1.235   5.040   0.848  0.3790  0.2037 -0.8434
12904SOL     OW40152   1.982   0.717  12.334  0.5751  0.2981  0.5559
12904SOL    HW140153   1.928   0.673  12.267  1.0712  1.0395 -0.3506
12904SOL    HW240154   1.938   0.697  12.416 -1.2646  1.1053 -0.1651
12905SOL     OW40155   1.409   7.887   4.715 -0.2255  0.4151 -0.1576
12905SOL    HW140156   1.484   7.947   4.714  0.4950 -0.4740 -1.1195
12905SOL    HW240157   1.335   7.942   4.739  0.8587  1.1603  1.7450
12906SOL     OW40158   7.316   0.565   6.309  0.0280  0.0253  0.8506
12906SOL    HW140159   7.309   0.539   6.217  1.0640  0.8086  0.5289
12906SOL    HW240160   7.238   0.527   6.350 -0.1298 -0.8827 -0.2101
12907SOL     OW40161   6.680   1.316   0.077  0.0260  0.7399 -0.7251
12907SOL    HW140162   6.759   1.262   0.086 -0.1254  0.4548 -1.0532
12907SOL    HW240163   6.712   1.406   0.080  0.3046  0.6311 -0.3371
12908SOL     OW40164   1.395   6.641   9.298 -0.1880 -0.4339 -0.1603
12908SOL    HW140165   1.403   6.628   9.203  0.7136  0.4692 -0.2286
12908SOL    HW240166   1.459   6.710   9.318  0.4726 -1.4112  1.2896
12909SOL     OW40167   0.740   0.121   9.518  0.3688  0.0269  0.3719
12909SOL    HW140168   0.704   0.060   9.583  0.3671 -0.7798 -0.3791
12909SOL    HW240169   0.774   0.065   9.448  0.2766  0.8905 -0.3777
12910SOL     OW40170   0.305   1.447   9.854  0.2146  0.8099  0.8334
12910SOL    HW140171   0.269   1.361   9.875  0.3836  0.9849  1.8609
12910SOL    HW240172   0.316   1.491   9.938 -0.0977  1.9365  0.3068
12911SOL     OW40173   5.795   2.693   8.850 -0.0190 -0.1430 -0.0510
12911SOL    HW140174   5.891   2.699   8.853  0.0002  0.0104 -0.7851
12911SOL    HW240175   5.778   2.608   8.811 -0.1515  0.5719 -1.6170
12912SOL     OW40176   2.108   4.230   1.253  0.1442 -0.1808 -0.4453
12912SOL    HW140177   2.027   4.221   1.204 -0.2163  1.9734 -0.3285
12912SOL    HW240178   2.173   4.257   1.188  0.5923 -1.0186 -0.3713
12913SOL     OW40179   4.539   2.849   2.963 -0.5507  0.1555 -0.2319
12913SOL    HW140180   4.452   2.890   2.961 -1.0646 -0.9089 -0.8189
12913SOL    HW240181   4.562   2.847   3.056 -1.1530  0.4555 -0.0719
12914SOL     OW40182   1.755   4.254  10.771 -0.1265 -0.0089  0.0332
12914SOL    HW140183   1.705   4.270  10.851  0.0363 -0.0871  0.1523
12914SOL    HW240184   1.712   4.308  10.704 -1.1940 -1.1017 -0.1923
12915SOL     OW40185   4.640   4.705   9.606 -0.6813  0.0016  0.4067
12915SOL    HW140186   4.547   4.708   9.582 -0.4307 -2.2062 -1.0410
12915SOL    HW240187   4.670   4.796   9.596 -2.7962  0.9090  1.5773
12916SOL     OW40188   1.831   2.373   9.129  0.1608 -0.4362  0.6001
12916SOL    HW140189   1.790   2.330   9.053  0.4875  0.1710  0.0669
12916SOL    HW240190   1.832   2.466   9.106  0.6260 -0.2933  1.1805
12917SOL     OW40191   3.947   0.571   4.587  0.0415 -0.1283 -0.2702
12917SOL    HW140192   3.858   0.595   4.560 -0.2874 -0.7665  0.2355
12917SOL    HW240193   3.935   0.503   4.653  0.9362 -1.8191 -1.7359
12918SOL     OW40194   1.190   0.780   7.341  0.0428 -0.2935 -0.3130
12918SOL    HW140195   1.245   0.854   7.315  0.1830 -0.6438 -1.0357
12918SOL    HW240196   1.174   0.794   7.435  2.3806 -0.8170  0.2396
12919SOL     OW40197   5.768   1.110   4.223  0.1000 -0.3659  0.5985
12919SOL    HW140198   5.857   1.076   4.230 -0.0725 -0.7467  0.9729
12919SOL    HW240199   5.777   1.188   4.167  0.5329 -0.9013 -0.1020
12920SOL     OW40200   3.073   6.518   7.961  0.4425 -0.5517 -0.0135
12920SOL    HW140201   3.077   6.572   8.039 -0.9331 -2.1685  1.2628
12920SOL    HW240202   3.024   6.570   7.898  0.1925  0.1522  0.7441
12921SOL     OW40203   5.074   7.770   6.303 -0.3797 -0.5917  0.0746
12921SOL    HW140204   5.125   7.806   6.376  1.1870 -1.4059 -0.5761
12921SOL    HW240205   5.108   7.682   6.291 -1.7337 -1.0452 -0.6232
12922SOL     OW40206   0.281   2.540  10.161  0.0481  0.1040  0.6779
12922SOL    HW140207   0.325   2.482  10.223 -2.6151 -1.7579  0.9662
12922SOL    HW240208   0.222   2.593  10.216 -0.3728  0.3455  0.0028
12923SOL     OW40209   2.403   2.270   9.758 -0.1010  0.1535  0.1864
12923SOL    HW140210   2.454   2.351   9.753 -1.1855  0.8598  0.3193
12923SOL    HW240211   2.330   2.292   9.815  0.5013 -1.4326  1.6527
12924SOL     OW40212   2.315   4.664   4.626 -0.0049  0.7424  0.0799
12924SOL    HW140213   2.278   4.605   4.560  0.8210 -0.3998  0.5972
12924SOL    HW240214   2.305   4.616   4.708  0.9470  1.2025  0.4719
12925SOL     OW40215   4.645   4.056   2.093  0.4266  1.0242  0.3911
12925SOL    HW140216   4.710   4.016   2.035  0.1583 -0.3646  1.0237
12925SOL    HW240217   4.627   4.141   2.053  1.8728  1.0213 -0.3559
12926SOL     OW40218   2.602   1.670   9.097 -0.0276  0.0249  0.2040
12926SOL    HW140219   2.649   1.625   9.027 -0.7884  0.4905 -0.6256
12926SOL    HW240220   2.581   1.602   9.160 -0.5429 -0.6631 -0.6948
12927SOL     OW40221   6.798   6.154   8.982  0.1537 -0.3058  0.3163
12927SOL    HW140222   6.827   6.166   8.892  1.0205 -0.4724  0.5669
12927SOL    HW240223   6.836   6.071   9.009  1.0686  0.3989  1.2794
12928SOL     OW40224   0.547   3.328   3.961 -0.0157 -0.1211  0.1024
12928SOL    HW140225   0.578   3.269   4.029  0.3632 -1.1063 -0.8778
12928SOL    HW240226   0.627   3.358   3.917 -0.2852 -0.3840 -0.5928
12929SOL     OW40227   6.831   5.349   1.334  0.0265 -0.2902 -0.2638
12929SOL    HW140228   6.888   5.383   1.265 -0.6207  1.4986  0.0457
12929SOL    HW240229   6.844   5.409   1.407 -1.5529 -0.3865  0.1225
12930SOL     OW40230   4.077   7.498  12.005  0.0351 -0.5132 -0.6342
12930SOL    HW140231   4.169   7.523  12.015  0.3281 -1.6123 -0.5077
12930SOL    HW240232   4.030   7.559  12.062  0.7753 -0.5183  0.0046
12931SOL     OW40233   3.335   5.185   4.422 -0.3166  0.0963  0.1407
12931SOL    HW140234   3.373   5.153   4.504  0.4867  1.7334  0.4653
12931SOL    HW240235   3.241   5.172   4.432 -0.1249 -0.8877  0.7920
12932SOL     OW40236   7.299   7.839   7.352  0.8240 -0.0811 -0.5486
12932SOL    HW140237   7.259   7.883   7.276  1.5663 -1.4355 -1.7723
12932SOL    HW240238   7.365   7.781   7.314 -0.3315 -2.5120  0.9426
12933SOL     OW40239   7.504   0.558   1.690 -0.1406 -0.5437 -0.4593
12933SOL    HW140240   7.522   0.523   1.603 -0.7826 -0.4932 -0.6140
12933SOL    HW240241   7.575   0.524   1.744  0.8374  0.2310 -1.2099
12934SOL     OW40242   2.746   0.680   6.501  0.2948 -0.1776 -0.3189
12934SOL    HW140243   2.668   0.725   6.533  0.6158 -0.7429  1.3885
12934SOL    HW240244   2.819   0.729   6.539  0.7304 -0.3991 -0.8664
12935SOL     OW40245   1.759   2.581  10.021  0.4050  0.3906 -0.0724
12935SOL    HW140246   1.805   2.663  10.041 -1.2994  0.9531  1.8713
12935SOL    HW240247   1.693   2.606   9.957 -0.3892  0.6582  0.8319
12936SOL     OW40248   7.614   4.776   5.721 -0.1761 -0.0152 -0.1664
12936SOL    HW140249   7.588   4.685   5.705 -1.1706  0.5689 -2.2063
12936SOL    HW240250   7.674   4.796   5.649  0.1446  0.9215  0.3502
12937SOL     OW40251   3.964   0.878   4.232 -0.1943 -0.2996 -0.2045
12937SOL    HW140252   4.016   0.854   4.156 -0.4001  0.0564 -0.4619
12937SOL    HW240253   3.983   0.810   4.297  2.0623  0.8079  0.4126
12938SOL     OW40254   0.028   1.223  11.675 -0.3421 -0.2611 -0.5323
12938SOL    HW140255  -0.010   1.136  11.685  0.3562 -0.7200 -1.7733
12938SOL    HW240256   0.013   1.247  11.584  1.1048  0.1292 -0.6943
12939SOL     OW40257   5.819   2.705   8.040  0.0830 -0.0020  0.3109
12939SOL    HW140258   5.873   2.775   8.003 -0.3044  0.1026 -0.0744
12939SOL    HW240259   5.849   2.695   8.130 -0.6195  1.4467  0.7329
12940SOL     OW40260   3.093   4.892   8.090 -0.1561  0.6205  0.3848
12940SOL    HW140261   3.187   4.897   8.103  0.3393 -0.4361 -2.2470
12940SOL    HW240262   3.065   4.984   8.084  1.0290  0.9255 -0.7415
12941SOL     OW40263   7.432   2.840   8.895  0.5160  0.2243  0.0939
12941SOL    HW140264   7.517   2.871   8.926  1.0871 -0.5368 -0.6446
12941SOL    HW240265   7.369   2.875   8.957  1.4579  0.1291  1.1329
12942SOL     OW40266   0.883   4.918   8.683  0.2265  0.0949  0.4836
12942SOL    HW140267   0.884   4.850   8.751  0.5107 -0.3355  0.0580
12942SOL    HW240268   0.806   4.970   8.702  0.3688  0.0546  1.2127
12943SOL     OW40269   7.360   1.731  10.629 -0.1068  0.5931  0.3697
12943SOL    HW140270   7.351   1.731  10.534 -1.4219 -1.0441  0.4408
12943SOL    HW240271   7.275   1.761  10.662  0.9320  3.0257  1.0774
12944SOL     OW40272   6.610   4.253   7.450 -0.0727  0.3177  0.2647
12944SOL    HW140273   6.700   4.284   7.442  0.0560 -0.3216 -1.1142
12944SOL    HW240274   6.557   4.331   7.440  0.3105  0.5418 -0.0461
12945SOL     OW40275   4.660   3.144   1.903  0.3042  0.1349 -0.1926
12945SOL    HW140276   4.618   3.198   1.970 -1.1047  1.1535 -1.8161
12945SOL    HW240277   4.593   3.080   1.878  0.2632  0.7230 -1.6602
12946SOL     OW40278   3.694   7.892   9.247  0.3183 -0.1767  0.3858
12946SOL    HW140279   3.749   7.878   9.325 -0.3766 -1.5236  0.6496
12946SOL    HW240280   3.749   7.863   9.174  1.2888  1.8621  0.2416
12947SOL     OW40281   5.077   6.600   5.250  0.0928 -0.1485 -0.4935
12947SOL    HW140282   5.010   6.650   5.204 -0.3552  0.8967  1.2045
12947SOL    HW240283   5.101   6.654   5.326 -1.2749 -2.9221  2.1552
12948SOL     OW40284   7.204   2.376  10.582 -0.2605 -0.0599 -0.5411
12948SOL    HW140285   7.260   2.454  10.573 -1.3580  0.8551  0.1772
12948SOL    HW240286   7.263   2.308  10.613  0.6017  0.6883 -0.4785
12949SOL     OW40287   1.206   1.144  12.379  0.3095 -0.2897  0.4169
12949SOL    HW140288   1.122   1.190  12.383 -0.1506 -1.1394  4.1748
12949SOL    HW240289   1.271   1.212  12.397  0.0824 -0.2309  1.0452
12950SOL     OW40290   5.307   5.154   4.508  0.6327 -0.0147 -0.0195
12950SOL    HW140291   5.333   5.220   4.572 -0.2864 -0.3643  0.7341
12950SOL    HW240292   5.212   5.147   4.517  0.8856 -3.0934  1.5964
12951SOL     OW40293   6.956   0.138   3.814  0.7984  0.2249  0.0969
12951SOL    HW140294   6.936   0.221   3.858  1.4047  0.1185  0.5881
12951SOL    HW240295   7.046   0.118   3.841 -0.0199 -1.6359  1.6405
12952SOL     OW40296   0.064   7.293  10.013  0.0966  0.0811 -0.4380
12952SOL    HW140297  -0.024   7.280   9.979 -0.3833 -1.9493  1.3487
12952SOL    HW240298   0.066   7.384  10.040 -2.5764 -0.4763  2.1805
12953SOL     OW40299   6.806   7.611  10.347  0.1827 -0.4517 -0.2280
12953SOL    HW140300   6.747   7.583  10.277  0.9922 -1.5849 -0.4815
12953SOL    HW240301   6.748   7.643  10.416 -0.6239  0.6485 -1.3830
12954SOL     OW40302   1.328   0.056   8.397  0.0371 -0.1876  0.6144
12954SOL    HW140303   1.326   0.136   8.450  0.9489 -0.2113  0.6953
12954SOL    HW240304   1.372   0.082   8.316 -0.8767 -0.2845  0.0809
12955SOL     OW40305   0.108   4.553   4.583 -0.5460  0.4249 -0.2183
12955SOL    HW140306   0.062   4.628   4.621 -0.9645 -1.0303  2.4456
12955SOL    HW240307   0.147   4.509   4.659 -1.3435 -2.7180 -1.4671
12956SOL     OW40308   0.152   7.668   7.905 -0.4531 -0.3512  0.0020
12956SOL    HW140309   0.205   7.687   7.828  0.0779 -1.5431  0.0470
12956SOL    HW240310   0.062   7.670   7.874 -0.2778 -0.2131 -0.5051
12957SOL     OW40311   6.214   5.889   5.201 -0.0233  0.0082  0.3839
12957SOL    HW140312   6.280   5.898   5.271 -0.2572  0.7958  0.5054
12957SOL    HW240313   6.260   5.841   5.132  0.4670 -0.0633  0.7483
12958SOL     OW40314   2.821   1.462   3.025 -0.4038 -0.2698  0.3149
12958SOL    HW140315   2.770   1.526   2.975 -0.4746 -0.4149  0.2000
12958SOL    HW240316   2.801   1.481   3.117 -1.8909 -1.3303  0.2363
12959SOL     OW40317   6.212   3.392   5.457  0.0269 -0.8158  0.7713
12959SOL    HW140318   6.246   3.372   5.370 -2.9629 -1.9564 -0.2672
12959SOL    HW240319   6.216   3.488   5.462  1.6715 -0.8049  0.0659
12960SOL     OW40320   4.456   7.845   9.907  0.0874 -0.1275  0.1198
12960SOL    HW140321   4.382   7.844   9.968 -0.6561 -1.1657 -0.7523
12960SOL    HW240322   4.494   7.932   9.916 -0.5222  0.0217  1.4387
12961SOL     OW40323   6.038   4.119   5.989 -0.0981  0.3322  0.1963
12961SOL    HW140324   6.080   4.111   6.074 -1.1502  0.8393  0.7895
12961SOL    HW240325   6.097   4.075   5.928  0.0558 -1.1552  1.3834
12962SOL     OW40326   7.814   3.531   1.210  0.0344  0.7509  0.2633
12962SOL    HW140327   7.778   3.444   1.229  0.2804  0.8108  1.0644
12962SOL    HW240328   7.905   3.514   1.185 -0.2021  0.7000 -0.6010
12963SOL     OW40329   0.131   1.895   4.991  0.0112 -0.1446  0.1918
12963SOL    HW140330   0.055   1.945   4.964 -0.1219 -0.3419  0.2019
12963SOL    HW240331   0.187   1.959   5.036 -1.0424 -0.4060  1.9501
12964SOL     OW40332   5.862   5.939  11.990 -0.0283  0.0032 -0.1374
12964SOL    HW140333   5.888   5.869  12.050 -0.2717  0.5030  0.5644
12964SOL    HW240334   5.863   6.018  12.044 -2.2991  0.1685 -0.2584
12965SOL     OW40335   4.679   6.980   9.440  0.2224 -0.2525  0.3313
12965SOL    HW140336   4.770   7.010   9.447  0.1661 -0.0758  0.3320
12965SOL    HW240337   4.671   6.945   9.352 -0.0016  0.7452 -0.0638
12966SOL     OW40338   1.434   4.167  11.874 -0.1407  0.3400 -0.5703
12966SOL    HW140339   1.357   4.123  11.909  0.4375  0.1731  0.5457
12966SOL    HW240340   1.499   4.161  11.944  1.1473 -0.1940 -1.7676
12967SOL     OW40341   0.871   7.862   2.368 -0.2460  0.0889  0.1137
12967SOL    HW140342   0.780   7.875   2.343  0.3787  1.2528 -1.7698
12967SOL    HW240343   0.869   7.793   2.434 -2.5123  0.4240  0.4521
12968SOL     OW40344   5.655   6.931   3.830  0.2816 -0.2721  0.7285
12968SOL    HW140345   5.585   6.964   3.887  0.3835 -1.1351  1.3811
12968SOL    HW240346   5.716   6.888   3.891  1.9520  1.3972  0.3107
12969SOL     OW40347   1.046   0.768   0.003  0.3967  0.1487  0.4399
12969SOL    HW140348   0.994   0.735   0.076  0.3616 -0.0058  0.3461
12969SOL    HW240349   0.988   0.827  -0.044  0.3368  0.0526  0.3916
12970SOL     OW40350   2.285   0.796   5.247 -0.3753 -0.1499  0.1992
12970SOL    HW140351   2.286   0.873   5.304  0.0764 -0.9392  1.2753
12970SOL    HW240352   2.192   0.784   5.226 -0.4581  0.6648  0.0289
12971SOL     OW40353   2.294   7.101  12.013  0.0278  0.5946  0.6762
12971SOL    HW140354   2.295   7.007  11.993 -1.1727  0.5413  0.7938
12971SOL    HW240355   2.351   7.140  11.947 -1.4501  0.0599 -1.0000
12972SOL     OW40356   2.561   1.146   8.623  0.0461 -0.1982  0.0785
12972SOL    HW140357   2.546   1.175   8.533 -0.9831 -0.6677  0.0882
12972SOL    HW240358   2.473   1.132   8.659  0.3842  1.1354  1.5372
12973SOL     OW40359   6.416   0.660   7.226 -0.1719 -0.1653  0.2594
12973SOL    HW140360   6.402   0.568   7.203  1.2935 -0.5173  0.6981
12973SOL    HW240361   6.343   0.706   7.184 -0.1972 -1.3592 -1.0768
12974SOL     OW40362   2.766   6.397  11.626  0.3402  0.2820 -0.3078
12974SOL    HW140363   2.820   6.401  11.547 -2.0794 -0.7185 -2.1416
12974SOL    HW240364   2.714   6.478  11.624  1.6693  1.2581  1.4544
12975SOL     OW40365   3.818   1.712   6.484 -0.2608 -0.1703  0.0845
12975SOL    HW140366   3.854   1.794   6.450  0.9846 -0.7465 -0.0317
12975SOL    HW240367   3.892   1.668   6.525 -0.5686 -1.8984 -1.0996
12976SOL     OW40368   6.759   0.498   3.889  0.7409 -0.5807 -0.2408
12976SOL    HW140369   6.783   0.486   3.797  0.0620 -1.3403 -0.3337
12976SOL    HW240370   6.664   0.504   3.889  0.7820  0.3311  0.3279
12977SOL     OW40371   4.858   7.785  10.867 -0.1831  0.4951 -0.3603
12977SOL    HW140372   4.866   7.859  10.806 -2.7290  0.8434 -0.3610
12977SOL    HW240373   4.886   7.821  10.951  0.8148  0.7639 -0.7878
12978SOL     OW40374   2.420   3.156  11.788  0.2611  0.1222  0.7491
12978SOL    HW140375   2.490   3.105  11.746  0.8563  2.0793 -0.7975
12978SOL    HW240376   2.464   3.233  11.822 -1.0024  0.9791  0.5000
12979SOL     OW40377   1.561   0.819  11.719 -0.0366 -0.5032  0.2553
12979SOL    HW140378   1.614   0.767  11.779  1.1686  1.1640  0.7370
12979SOL    HW240379   1.536   0.759  11.649  0.9773 -1.7893  0.9714
12980SOL     OW40380   6.590   6.856   5.038  0.0180 -0.2106 -0.4255
12980SOL    HW140381   6.587   6.827   4.946  0.6560 -1.9111  0.0493
12980SOL    HW240382   6.544   6.788   5.086  1.6656 -0.5507  0.7751
12981SOL     OW40383   7.590   1.512  10.726 -0.2779 -0.1032  0.6032
12981SOL    HW140384   7.533   1.589  10.719  0.5608  0.6101  1.4127
12981SOL    HW240385   7.530   1.438  10.725 -1.2187  0.6213  1.3138
12982SOL     OW40386   6.419   6.396   5.338 -0.1561  0.0621 -0.1705
12982SOL    HW140387   6.370   6.456   5.281  0.1045 -0.3864 -0.8799
12982SOL    HW240388   6.393   6.309   5.308 -1.6418 -0.2222  1.7936
12983SOL     OW40389   7.237   3.155   4.811 -0.2180 -0.1674  0.5800
12983SOL    HW140390   7.165   3.204   4.771 -0.0494 -0.7589 -0.4784
12983SOL    HW240391   7.195   3.103   4.879 -0.6122  0.3385  0.7346
12984SOL     OW40392   1.616   4.725   0.803 -0.0892  0.2806 -0.0824
12984SOL    HW140393   1.552   4.767   0.861  0.4782 -0.8081  1.3931
12984SOL    HW240394   1.685   4.695   0.862 -0.4584 -2.7337 -1.0127
12985SOL     OW40395   6.949   7.455   9.736  0.8870  0.0505  0.3641
12985SOL    HW140396   6.956   7.504   9.818  1.9584  1.0465 -0.2960
12985SOL    HW240397   6.857   7.460   9.712  1.0140  1.9854  0.1881
12986SOL     OW40398   1.757   3.938   5.737  0.1097 -0.0097 -0.1607
12986SOL    HW140399   1.673   3.982   5.732  0.6346  1.0779  0.1645
12986SOL    HW240400   1.803   3.981   5.809  0.0893 -2.1163  1.2120
12987SOL     OW40401   7.661   2.606   9.716 -0.1756  0.2900  0.4743
12987SOL    HW140402   7.595   2.651   9.663 -0.8917  0.4843  1.5025
12987SOL    HW240403   7.611   2.561   9.783  0.7398  0.5599  1.3651
12988SOL     OW40404   4.336   4.022   2.852 -0.3570  0.4920 -0.0221
12988SOL    HW140405   4.428   3.996   2.853 -0.5311 -0.1179  0.2995
12988SOL    HW240406   4.287   3.940   2.841 -0.8591  0.8245 -0.3297
12989SOL     OW40407   4.789   3.530   7.321 -0.7595  0.3252  0.1099
12989SOL    HW140408   4.866   3.510   7.267 -0.9289 -0.0535  0.0019
12989SOL    HW240409   4.767   3.620   7.299 -1.8633 -0.3534 -1.7623
12990SOL     OW40410   1.169   6.324  10.327 -0.0174  0.1263  0.1842
12990SOL    HW140411   1.159   6.294  10.417  1.6858  0.5399  0.5428
12990SOL    HW240412   1.212   6.252  10.282  0.9789  0.6872  0.2151
12991SOL     OW40413   7.914   1.408  11.870 -0.4359 -0.3710  0.0524
12991SOL    HW140414   7.981   1.474  11.851  1.0814 -2.0662 -0.7293
12991SOL    HW240415   7.926   1.341  11.803 -1.9350 -1.4556  0.8147
12992SOL     OW40416   3.988   2.298   5.505  0.3404  0.1438  0.0233
12992SOL    HW140417   4.006   2.307   5.411  2.1599 -0.3917  0.2970
12992SOL    HW240418   4.044   2.227   5.534  0.4861  0.8964  1.7031
12993SOL     OW40419   2.213   6.409   5.953 -0.3071  0.0152 -0.0986
12993SOL    HW140420   2.250   6.412   5.865  0.3371  0.5557  0.1810
12993SOL    HW240421   2.119   6.424   5.940 -0.0208  1.5608 -0.5870
12994SOL     OW40422   6.536   3.985   0.593 -0.7269  0.1651  0.1317
12994SOL    HW140423   6.551   3.934   0.673  1.1865  0.8973  0.2752
12994SOL    HW240424   6.588   4.064   0.604 -1.0146  0.6290 -1.5284
12995SOL     OW40425   1.514   5.189   6.738  0.1395 -0.4284  0.6289
12995SOL    HW140426   1.557   5.148   6.663 -0.5533 -1.2310  0.6565
12995SOL    HW240427   1.576   5.256   6.767  0.4379 -0.1421 -0.6199
12996SOL     OW40428   1.144   1.407   1.898 -0.3433  0.2811  0.0601
12996SOL    HW140429   1.049   1.408   1.884 -0.2008 -0.4119 -1.0255
12996SOL    HW240430   1.159   1.335   1.960 -0.4235 -0.3156 -0.6080
12997SOL     OW40431   4.455   2.753   2.251  0.0717 -0.1331  0.1073
12997SOL    HW140432   4.422   2.664   2.255  0.3462 -0.2042  0.8813
12997SOL    HW240433   4.455   2.783   2.342  1.2978  0.1747  0.0169
12998SOL     OW40434   7.467   6.840  11.085  0.3577  0.3489  0.2731
12998SOL    HW140435   7.464   6.879  10.997  1.1227  2.6363  1.1996
12998SOL    HW240436   7.447   6.912  11.144 -0.2178 -1.1593  2.0184
12999SOL     OW40437   0.268   2.852   3.639 -0.2189  0.5365  0.2848
12999SOL    HW140438   0.336   2.824   3.700 -0.3569 -0.7687 -0.1200
12999SOL    HW240439   0.289   2.806   3.557 -1.5365  0.1518  0.1369
13000SOL     OW40440   7.552   1.872   0.047  0.4121 -0.5162 -0.1551
13000SOL    HW140441   7.646   1.854   0.047  0.7052  0.8593  0.8405
13000SOL    HW240442   7.544   1.960   0.012 -0.4693 -0.4244  0.2510
13001SOL     OW40443   4.391   6.172   1.251  0.3513  0.2455  0.2175
13001SOL    HW140444   4.486   6.163   1.257  0.3750  1.1487  1.9618
13001SOL    HW240445   4.359   6.081   1.251  1.1983 -0.0631  0.2144
13002SOL     OW40446   7.277   5.267  11.562 -0.4383 -0.3653  0.8100
13002SOL    HW140447   7.342   5.202  11.535 -0.1469 -0.4685  1.7405
13002SOL    HW240448   7.242   5.301  11.479  0.4392 -0.6630  0.3002
13003SOL     OW40449   0.895   0.397   4.498  0.2606 -0.0180  0.2909
13003SOL    HW140450   0.817   0.452   4.507 -1.3880 -1.9625 -1.1751
13003SOL    HW240451   0.955   0.431   4.564 -0.2945  3.9923 -0.9731
13004SOL     OW40452   6.045   3.835   4.989 -0.0164  0.0367  0.3549
13004SOL    HW140453   6.112   3.904   4.986 -0.5553  0.8730  3.5751
13004SOL    HW240454   6.089   3.760   5.028 -0.1433 -0.5771 -0.6404
13005SOL     OW40455   4.976   5.679  10.943  0.4597  0.1028 -0.3750
13005SOL    HW140456   4.935   5.665  10.857  1.5129 -0.2601 -0.8302
13005SOL    HW240457   4.932   5.617  11.001 -1.6062  1.6359 -0.1614
13006SOL     OW40458   0.516   0.153   6.717 -0.5409 -0.0690  0.4764
13006SOL    HW140459   0.494   0.189   6.631 -2.6744  0.0355  1.0234
13006SOL    HW240460   0.533   0.060   6.699  1.5346  0.4159 -0.3930
13007SOL     OW40461   6.121   0.748   2.074 -0.0150 -0.1473 -0.0394
13007SOL    HW140462   6.185   0.679   2.054 -0.0771 -0.2126 -0.0119
13007SOL    HW240463   6.164   0.803   2.140 -0.8629 -1.5152  1.7397
13008SOL     OW40464   3.435   6.792   2.371  0.7457 -0.1227  0.3366
13008SOL    HW140465   3.456   6.720   2.430 -1.9307 -0.5587  0.8921
13008SOL    HW240466   3.509   6.852   2.378  2.8695 -2.5447  0.1894
13009SOL     OW40467   1.321   1.682  11.691 -0.2022 -0.6978  0.4540
13009SOL    HW140468   1.347   1.691  11.783 -0.2189 -2.1557  0.6369
13009SOL    HW240469   1.268   1.602  11.690 -1.2690 -0.0024 -0.6158
13010SOL     OW40470   2.903   3.366   8.273  0.3239 -0.2515  0.1290
13010SOL    HW140471   2.843   3.307   8.227  1.5264 -2.6294  1.4108
13010SOL    HW240472   2.990   3.329   8.257  0.9735  0.0954  2.4364
13011SOL     OW40473   4.041   1.288   6.330  0.4838  0.0110  0.4900
13011SOL    HW140474   3.949   1.309   6.316  0.9556  1.1934 -1.0689
13011SOL    HW240475   4.040   1.213   6.390 -1.4194  1.4423  2.4067
13012SOL     OW40476   4.959   6.455   2.319 -0.4678 -0.0989 -0.0081
13012SOL    HW140477   5.008   6.519   2.268  1.0434 -3.0186 -2.5763
13012SOL    HW240478   4.872   6.454   2.280 -0.9634  1.2919  0.9872
13013SOL     OW40479   1.606   7.239   3.410  0.0487  0.4039  0.2994
13013SOL    HW140480   1.545   7.166   3.422  0.0704  0.6083  1.7846
13013SOL    HW240481   1.663   7.211   3.338 -0.2682 -0.8193  0.5028
13014SOL     OW40482   5.312   0.949   7.319 -0.1086  0.0949 -0.0691
13014SOL    HW140483   5.381   0.968   7.255  2.1388 -0.8232  1.8846
13014SOL    HW240484   5.262   1.029   7.325  3.3254  2.3918  1.2558
13015SOL     OW40485   2.086   7.902   6.246  0.4093 -0.9218  0.3381
13015SOL    HW140486   2.116   7.985   6.282  0.9841 -0.3225 -1.4176
13015SOL    HW240487   1.998   7.890   6.282  0.2358  0.5468  0.4741
13016SOL     OW40488   4.419   4.372   2.285  0.4519  0.4087 -0.2432
13016SOL    HW140489   4.458   4.343   2.367 -0.8835 -0.9402 -0.0387
13016SOL    HW240490   4.325   4.355   2.295  0.3514 -0.6520 -2.3675
13017SOL     OW40491   2.306   5.915   7.964  0.8038  0.1285 -0.5289
13017SOL    HW140492   2.393   5.925   8.004  0.7407  0.0921 -0.3822
13017SOL    HW240493   2.321   5.926   7.870  1.1946 -1.3230 -0.6568
13018SOL     OW40494   3.028   2.739  10.304 -0.0804  0.0203  0.1191
13018SOL    HW140495   2.950   2.780  10.267 -1.1213 -0.8142  1.2825
13018SOL    HW240496   3.046   2.665  10.247  0.6836  0.9622 -0.9092
13019SOL     OW40497   0.274   4.299   4.491  0.3211  0.1406 -0.1312
13019SOL    HW140498   0.213   4.284   4.419 -0.3144 -0.0354  0.4261
13019SOL    HW240499   0.220   4.339   4.560  0.3796 -1.6888  1.0580
13020SOL     OW40500   6.891   2.972   4.663 -0.0948 -0.3034 -0.0819
13020SOL    HW140501   6.877   3.054   4.710  0.3254 -0.6872  0.7426
13020SOL    HW240502   6.919   2.998   4.576 -1.6802  0.4361 -0.4085
13021SOL     OW40503   4.014   2.050   7.054  0.2732 -0.2812 -0.6313
13021SOL    HW140504   4.046   2.066   7.143  0.7568 -0.7736 -0.7170
13021SOL    HW240505   4.093   2.049   7.000  0.0955 -1.2445 -0.8794
13022SOL     OW40506   0.730   2.646   1.240 -0.5492 -0.0147 -0.5051
13022SOL    HW140507   0.750   2.733   1.206 -1.5339  1.2622  1.9462
13022SOL    HW240508   0.812   2.614   1.276 -0.0464 -0.3941 -1.9315
13023SOL     OW40509   1.871   2.378   4.457  0.0960  0.3551 -0.4136
13023SOL    HW140510   1.824   2.298   4.479 -0.0334  0.1632 -1.3630
13023SOL    HW240511   1.846   2.397   4.367  0.6543  1.0910 -0.4227
13024SOL     OW40512   0.819   0.633   4.256  0.2475 -0.3303 -0.6530
13024SOL    HW140513   0.913   0.621   4.240  0.2264  1.0637 -2.1236
13024SOL    HW240514   0.804   0.594   4.342  2.2576 -0.2210 -0.1998
13025SOL     OW40515   0.005   1.195   1.863 -0.4313  0.1336  0.5452
13025SOL    HW140516  -0.023   1.150   1.783  1.1345 -0.0653  0.0731
13025SOL    HW240517   0.073   1.139   1.900 -1.0946  0.2478  2.0148
13026SOL     OW40518   7.331   3.070   0.084 -0.2149 -0.0932 -0.3561
13026SOL    HW140519   7.402   3.100   0.028  0.9212  1.0589  1.6084
13026SOL    HW240520   7.358   3.093   0.172 -2.4763 -0.7620  0.5885
13027SOL     OW40521   0.154   6.965   2.676  0.2997 -0.0913  0.2728
13027SOL    HW140522   0.207   6.899   2.722  2.1174  1.4679  0.5367
13027SOL    HW240523   0.178   7.048   2.717 -2.5212  0.7304  0.5103
13028SOL     OW40524   7.291   6.437   4.813  0.3335 -0.1134 -0.1868
13028SOL    HW140525   7.199   6.451   4.793  0.2679  0.1188  0.2740
13028SOL    HW240526   7.301   6.342   4.817 -0.4740 -0.1596  2.4066
13029SOL     OW40527   1.120   6.336   7.222 -0.4796  0.2589  0.2708
13029SOL    HW140528   1.138   6.409   7.281 -3.5877  0.2973  1.3418
13029SOL    HW240529   1.150   6.367   7.136  1.8282  1.1799  1.3274
13030SOL     OW40530   0.581   6.634   2.066 -0.4628 -0.0783  0.5858
13030SOL    HW140531   0.614   6.714   2.106 -0.6930  0.6616 -0.6682
13030SOL    HW240532   0.633   6.622   1.987 -0.9471 -0.7380  0.3511
13031SOL     OW40533   6.851   1.851   6.301  0.3481  0.4858 -0.0027
13031SOL    HW140534   6.826   1.911   6.371 -3.3281 -0.8887  0.0636
13031SOL    HW240535   6.888   1.775   6.346  1.2275  0.9913  0.1585
13032SOL     OW40536   7.097   0.046   4.256  0.0886  0.0273 -0.0181
13032SOL    HW140537   7.095   0.034   4.162 -0.8024  0.7506 -0.1094
13032SOL    HW240538   7.006   0.032   4.284  0.5098 -1.1250  0.8702
13033SOL     OW40539   5.221   1.675  12.058 -0.2566 -0.5433 -0.6249
13033SOL    HW140540   5.265   1.610  12.114  1.5347 -0.2650 -1.6517
13033SOL    HW240541   5.245   1.650  11.969 -0.0196  1.1667 -1.0788
13034SOL     OW40542   2.506   2.227  11.083  0.2510  0.0382  0.4594
13034SOL    HW140543   2.417   2.191  11.082  0.6443 -0.9726  1.1968
13034SOL    HW240544   2.517   2.264  10.995 -0.5708 -0.6167  0.0657
13035SOL     OW40545   3.273   2.672   2.991  0.6258  0.2213  1.1829
13035SOL    HW140546   3.285   2.714   3.076  1.3173  0.6620  0.8769
13035SOL    HW240547   3.351   2.618   2.979 -0.2792 -1.2354  1.5988
13036SOL     OW40548   0.454   0.444  11.015  0.2877  0.5350  0.2176
13036SOL    HW140549   0.506   0.486  10.946  1.1218 -1.6616 -0.5807
13036SOL    HW240550   0.516   0.432  11.087  0.3323 -0.1396  0.0762
13037SOL     OW40551   6.808   1.551   0.631 -0.4856  0.3584 -0.2163
13037SOL    HW140552   6.754   1.617   0.675 -0.2046 -0.0538  0.7852
13037SOL    HW240553   6.894   1.592   0.623 -0.1565 -0.0651  0.9197
13038SOL     OW40554   1.018   2.079   9.314 -0.4898  0.3194 -0.3350
13038SOL    HW140555   1.006   2.157   9.370 -0.8939 -0.3593  0.5566
13038SOL    HW240556   0.943   2.024   9.335  0.7161 -1.1100  0.4019
13039SOL     OW40557   2.531   1.144   3.239 -0.3205 -0.2851 -0.2943
13039SOL    HW140558   2.512   1.066   3.186  1.0473 -0.4037 -0.6345
13039SOL    HW240559   2.463   1.143   3.307 -0.6314 -1.4856 -0.5918
13040SOL     OW40560   3.930   7.495   0.590 -0.1742 -0.1169  0.1271
13040SOL    HW140561   3.924   7.405   0.559  0.3173 -0.6271  1.4701
13040SOL    HW240562   3.882   7.546   0.524 -0.2686 -1.3152 -0.7663
13041SOL     OW40563   0.713   0.413  10.666  0.2987 -0.0471 -0.2188
13041SOL    HW140564   0.758   0.339  10.707 -1.6040  0.5970  3.4545
13041SOL    HW240565   0.638   0.374  10.621  0.3693 -0.5029  0.0577
13042SOL     OW40566   4.947   7.871   9.632  0.3415  0.1517  0.3433
13042SOL    HW140567   4.977   7.962   9.632 -0.3523  0.4734  3.0268
13042SOL    HW240568   4.982   7.834   9.714  0.3287 -1.9258 -0.5110
13043SOL     OW40569   7.517   1.107   0.942  0.3371  0.1307 -0.1353
13043SOL    HW140570   7.596   1.067   0.906  0.2300  0.9282 -1.3284
13043SOL    HW240571   7.458   1.035   0.959  0.1515 -0.2376 -2.2077
13044SOL     OW40572   3.025   7.400  10.280 -0.3312 -0.3170 -0.6050
13044SOL    HW140573   2.976   7.426  10.202 -0.2373 -1.5567 -1.1089
13044SOL    HW240574   3.094   7.343  10.246 -0.6720 -1.3912  0.4394
13045SOL     OW40575   6.077   1.701   3.646 -0.3404  0.0020  0.1820
13045SOL    HW140576   6.164   1.670   3.623 -1.3333 -1.3619 -2.1605
13045SOL    HW240577   6.074   1.697   3.741  0.9530 -3.5305  0.2190
13046SOL     OW40578   6.993   2.412   8.597 -0.2462  0.1357  0.2541
13046SOL    HW140579   7.042   2.374   8.525  1.5274 -0.7434  1.8396
13046SOL    HW240580   6.923   2.349   8.614  0.0553 -0.2480  0.0765
13047SOL     OW40581   7.670   2.919  11.705  0.4491 -0.0470 -0.0581
13047SOL    HW140582   7.694   2.957  11.620  0.1994  1.2194  0.4077
13047SOL    HW240583   7.744   2.864  11.729  1.1727  0.7428 -0.4312
13048SOL     OW40584   4.961   6.323   3.826  0.3141 -0.0508 -0.5344
13048SOL    HW140585   4.982   6.337   3.918  0.4663 -1.1487 -0.3913
13048SOL    HW240586   5.025   6.260   3.795 -0.2704 -0.3578 -1.1652
13049SOL     OW40587   2.808   0.149   9.060 -0.4144 -0.2271 -0.8418
13049SOL    HW140588   2.835   0.149   8.968  0.0229 -0.7366 -0.7234
13049SOL    HW240589   2.737   0.213   9.065 -0.8896 -0.6697 -1.6707
13050SOL     OW40590   6.701   6.329   3.250  0.0636  0.5198 -0.2535
13050SOL    HW140591   6.736   6.267   3.313 -0.9035  0.7062  0.4788
13050SOL    HW240592   6.621   6.289   3.217  1.0901 -0.0615 -2.1797
13051SOL     OW40593   7.694   3.962   2.610  0.2102  0.2128 -0.2438
13051SOL    HW140594   7.709   3.930   2.521 -0.2492  1.3145 -0.7426
13051SOL    HW240595   7.667   4.053   2.598  2.1266  1.0158  1.1506
13052SOL     OW40596   5.192   0.282   7.825  0.2113  0.1512  0.1208
13052SOL    HW140597   5.283   0.274   7.856  0.0042 -1.6010  0.4103
13052SOL    HW240598   5.191   0.232   7.743 -0.0566  1.8453 -0.9439
13053SOL     OW40599   4.053   0.385   4.040 -0.2387 -0.1693 -0.2285
13053SOL    HW140600   4.095   0.303   4.016  0.8028 -0.1350  1.3464
13053SOL    HW240601   4.075   0.445   3.969  1.7799 -0.3691  0.1758
13054SOL     OW40602   2.233   0.880   1.414 -0.0019 -0.2679  0.2162
13054SOL    HW140603   2.221   0.928   1.332  0.8516  0.3471  0.4298
13054SOL    HW240604   2.318   0.837   1.404  0.2853  0.1148  0.9021
13055SOL     OW40605   3.924   3.925   4.357  0.3387  0.2953 -0.1225
13055SOL    HW140606   4.004   3.912   4.305  1.9568  0.4522  2.1957
13055SOL    HW240607   3.885   3.838   4.363  0.7427  0.0714 -0.6449
13056SOL     OW40608   7.739   4.063  10.151  0.4548  0.1640 -0.4153
13056SOL    HW140609   7.795   3.994  10.114 -0.4049 -0.7450 -0.0784
13056SOL    HW240610   7.727   4.037  10.242  0.0575  0.7283 -0.3063
13057SOL     OW40611   0.417   6.561   6.804  0.6086  0.0794 -0.5460
13057SOL    HW140612   0.378   6.648   6.818  0.3139 -0.1276 -0.0529
13057SOL    HW240613   0.510   6.578   6.793  0.8292  0.3005  1.3653
13058SOL     OW40614   6.375   2.698  11.712  0.4870  0.0914  0.3239
13058SOL    HW140615   6.327   2.616  11.703 -0.7122  0.8132 -0.1248
13058SOL    HW240616   6.433   2.700  11.636 -0.3354  0.1991 -0.3153
13059SOL     OW40617   1.634   3.582   5.858  0.1161  0.0919  0.4955
13059SOL    HW140618   1.597   3.607   5.774  1.3418 -0.5379 -0.2690
13059SOL    HW240619   1.596   3.643   5.921  0.3065  1.5301 -0.7390
13060SOL     OW40620   2.106   2.150   4.038  0.1716 -0.5624 -0.9911
13060SOL    HW140621   2.197   2.132   4.059 -0.3642 -0.6160  1.6487
13060SOL    HW240622   2.056   2.083   4.085 -1.2508 -0.6040 -2.4588
13061SOL     OW40623   1.761   0.686   7.211 -0.3264  0.3264  0.5421
13061SOL    HW140624   1.749   0.640   7.128  0.3971  0.2148  0.4916
13061SOL    HW240625   1.674   0.689   7.249 -0.5955  0.0002 -0.0260
13062SOL     OW40626   1.453   2.713  12.010  0.3512 -0.0444 -0.8769
13062SOL    HW140627   1.489   2.694  12.097 -1.6715  0.7826  0.2045
13062SOL    HW240628   1.511   2.780  11.974 -0.2525  1.5815  0.9879
13063SOL     OW40629   6.200   7.275   1.016  0.3289  0.0537  0.6217
13063SOL    HW140630   6.151   7.350   1.049 -0.5309  0.3430 -1.2027
13063SOL    HW240631   6.148   7.243   0.942  1.4628 -1.4026  0.4079
13064SOL     OW40632   6.499   2.837  11.410  0.1773 -0.2850 -0.1482
13064SOL    HW140633   6.445   2.799  11.341  0.1837 -0.1655 -0.2200
13064SOL    HW240634   6.585   2.797  11.399 -0.0084 -0.8018  0.2355
13065SOL     OW40635   7.285   2.396   2.691  0.1649 -0.6399  0.0261
13065SOL    HW140636   7.287   2.348   2.609  2.1331 -1.1977  0.3518
13065SOL    HW240637   7.204   2.367   2.734 -0.8844 -0.3541 -1.6578
13066SOL     OW40638   6.014   0.367  10.751  0.1528 -0.0899 -0.1083
13066SOL    HW140639   6.090   0.318  10.782  0.1200 -0.6593 -0.9174
13066SOL    HW240640   6.045   0.458  10.746  0.1393  0.0559  1.6366
13067SOL     OW40641   2.872   5.377  10.435 -0.5461  0.0364 -0.2303
13067SOL    HW140642   2.890   5.460  10.392  1.6368  0.0408  0.5750
13067SOL    HW240643   2.935   5.316  10.398 -1.5693 -1.0857 -0.2123
13068SOL     OW40644   7.363   5.480   2.278  0.0087  0.1602  0.1798
13068SOL    HW140645   7.268   5.490   2.286  0.0492  0.4962  0.2625
13068SOL    HW240646   7.399   5.535   2.348  0.2565 -0.1937  0.3317
13069SOL     OW40647   5.752   0.791   5.169  0.4180  0.7519 -0.5784
13069SOL    HW140648   5.771   0.818   5.259 -1.5540 -0.0267  0.1352
13069SOL    HW240649   5.732   0.697   5.176  2.4527  0.1392 -2.2261
13070SOL     OW40650   0.671   6.585   6.751  0.6312 -0.7554 -0.2498
13070SOL    HW140651   0.674   6.532   6.672  1.6823  0.3313 -0.9748
13070SOL    HW240652   0.740   6.550   6.807  0.0547 -1.3600  0.1024
13071SOL     OW40653   6.962   6.381   9.124 -0.2024  0.0792  0.4035
13071SOL    HW140654   6.967   6.455   9.184  0.5249 -0.0713  0.5418
13071SOL    HW240655   7.050   6.375   9.087 -0.9333  0.9833 -1.6699
13072SOL     OW40656   2.641   3.742   3.456 -0.1396  0.3412 -0.0663
13072SOL    HW140657   2.562   3.784   3.421 -0.8878  0.1678  1.3393
13072SOL    HW240658   2.706   3.813   3.461 -0.0949  0.4235 -1.5045
13073SOL     OW40659   2.279   3.738   8.543 -0.1498  0.2741 -0.2921
13073SOL    HW140660   2.247   3.657   8.503 -0.0382  0.0849 -0.0028
13073SOL    HW240661   2.360   3.757   8.497  0.0448 -0.0115 -0.0716
13074SOL     OW40662   2.371   2.429   1.445  0.2899 -0.0797  0.6759
13074SOL    HW140663   2.301   2.488   1.470  1.6393  1.2937  1.3867
13074SOL    HW240664   2.444   2.452   1.502  1.0635 -2.0724  0.5939
13075SOL     OW40665   7.874   1.430   5.037  0.1150 -0.0790 -0.1974
13075SOL    HW140666   7.838   1.388   4.959 -1.4103 -1.1569  1.0300
13075SOL    HW240667   7.849   1.522   5.030  0.0490 -0.1572 -0.9963
13076SOL     OW40668   3.649   5.251  12.375  0.4830 -0.0707 -0.0659
13076SOL    HW140669   3.721   5.258  12.313 -0.7184  0.4649 -1.4670
13076SOL    HW240670   3.625   5.158  12.373  1.8563 -0.4896  1.3108
13077SOL     OW40671   4.663   3.115   2.433 -0.2720  0.4836 -0.2265
13077SOL    HW140672   4.742   3.090   2.385 -0.4832 -2.4795  0.7751
13077SOL    HW240673   4.669   3.067   2.516 -2.1109  1.8862  0.7907
13078SOL     OW40674   6.299   5.883   5.504  0.0325 -0.0930 -0.3886
13078SOL    HW140675   6.219   5.932   5.527 -0.0236  0.1874 -1.1520
13078SOL    HW240676   6.276   5.792   5.522 -0.5354 -0.0370 -0.7875
13079SOL     OW40677   7.492   5.087   4.945  0.0061  0.5324 -0.3801
13079SOL    HW140678   7.494   4.991   4.941  0.0769  0.5424 -0.6227
13079SOL    HW240679   7.475   5.114   4.855 -2.1391  0.6891  0.0114
13080SOL     OW40680   5.963   2.022   7.001  0.5691 -0.0210 -0.3233
13080SOL    HW140681   6.008   2.060   7.076 -0.9892  0.0896  0.5935
13080SOL    HW240682   5.908   2.093   6.968 -0.0458 -0.5748 -0.5025
13081SOL     OW40683   4.348   6.043   6.056  0.2787  0.5494  0.6380
13081SOL    HW140684   4.320   5.975   5.994  2.3531 -1.0387  1.3273
13081SOL    HW240685   4.403   6.101   6.004 -0.9767  1.4082  0.2011
13082SOL     OW40686   3.211   6.473   5.451  0.3233  0.0353 -0.8757
13082SOL    HW140687   3.162   6.404   5.406  1.0636 -2.5772  1.9487
13082SOL    HW240688   3.197   6.455   5.544  2.1991  2.5467  0.0115
13083SOL     OW40689   3.230   5.393   7.738  0.2947 -0.1660  0.0684
13083SOL    HW140690   3.175   5.450   7.792  1.2095 -0.0262  0.8664
13083SOL    HW240691   3.209   5.304   7.768 -3.0021 -0.6366 -2.8244
13084SOL     OW40692   3.431   3.382   6.253  0.3561  0.0347  0.6678
13084SOL    HW140693   3.474   3.336   6.325  0.8111 -3.0001 -1.3734
13084SOL    HW240694   3.362   3.322   6.225  2.2334 -0.5406 -3.4383
13085SOL     OW40695   1.959   3.785   3.457  0.3466 -0.1887 -0.5147
13085SOL    HW140696   1.874   3.745   3.434  0.5431  0.6922 -3.1870
13085SOL    HW240697   2.019   3.711   3.464 -0.1355 -0.6562 -1.1817
13086SOL     OW40698   1.587   6.199   0.627  0.0653 -0.6989 -0.0392
13086SOL    HW140699   1.657   6.224   0.566  0.3470  1.2420  0.9941
13086SOL    HW240700   1.510   6.187   0.572  0.6247 -0.3391 -0.9160
13087SOL     OW40701   2.657   2.295   6.575 -0.5073 -0.3043 -0.2059
13087SOL    HW140702   2.699   2.217   6.539 -1.5636 -0.4348 -1.2144
13087SOL    HW240703   2.577   2.305   6.523 -0.0357  1.8722 -0.5951
13088SOL     OW40704   7.102   3.399  11.425 -0.5027  0.0950 -0.0042
13088SOL    HW140705   7.162   3.325  11.423  0.6319  1.0119 -0.9450
13088SOL    HW240706   7.153   3.470  11.462 -1.7566  0.2905  1.4388
13089SOL     OW40707   5.090   1.381   7.648  0.5392 -0.1305 -0.2163
13089SOL    HW140708   5.021   1.383   7.582  1.6380  1.1870 -1.3889
13089SOL    HW240709   5.051   1.421   7.726  0.3437  1.8286 -1.2765
13090SOL     OW40710   7.081   6.871   2.917 -0.2592 -0.0816  0.2089
13090SOL    HW140711   7.124   6.951   2.886  1.3556 -0.5587  1.1014
13090SOL    HW240712   7.030   6.841   2.841  1.3583  0.2725 -1.0921
13091SOL     OW40713   0.815   3.743   7.229  0.0184 -0.2371 -0.3579
13091SOL    HW140714   0.770   3.714   7.150 -3.4780 -0.3173  1.4603
13091SOL    HW240715   0.758   3.715   7.301  2.2041  1.2047  2.1275
13092SOL     OW40716   2.093   7.117   3.980  0.4935 -0.4722  0.0772
13092SOL    HW140717   2.067   7.057   3.910  2.1283  0.0138 -1.0030
13092SOL    HW240718   2.129   7.193   3.934 -2.1388  1.7207  1.3779
13093SOL     OW40719   7.131   4.654   2.506 -0.2616 -0.2008 -0.2015
13093SOL    HW140720   7.142   4.598   2.430 -0.0092  0.1124 -0.3992
13093SOL    HW240721   7.173   4.605   2.578  0.3092 -0.0948 -0.4546
13094SOL     OW40722   0.096   1.561   3.166  0.0936 -0.4708 -0.5623
13094SOL    HW140723   0.155   1.631   3.137  1.2112 -1.0536  0.1896
13094SOL    HW240724   0.092   1.501   3.091 -0.2502  0.0180 -0.9345
13095SOL     OW40725   1.177   0.183   7.013  0.0067  0.0671  0.2388
13095SOL    HW140726   1.221   0.125   6.951  2.0732  2.8291 -1.1285
13095SOL    HW240727   1.242   0.199   7.082 -0.0932  1.4611  0.0495
13096SOL     OW40728   5.560   5.283   5.263 -0.2223 -0.3531  0.2185
13096SOL    HW140729   5.621   5.304   5.334  0.6239 -0.8612 -0.3302
13096SOL    HW240730   5.484   5.246   5.307 -0.0135  0.0063  0.9059
13097SOL     OW40731   6.980   0.183   0.627 -0.5377  0.4743 -0.0705
13097SOL    HW140732   7.015   0.094   0.628 -1.7165  0.0048  0.3043
13097SOL    HW240733   7.028   0.228   0.696  0.7959  0.4429 -0.9321
13098SOL     OW40734   3.111   5.656   7.517  0.1007 -0.0909  0.1044
13098SOL    HW140735   3.096   5.730   7.458 -1.7019 -0.7176 -0.2848
13098SOL    HW240736   3.030   5.649   7.568 -0.0027 -2.1071 -0.2471
13099SOL     OW40737   4.464   2.745  10.775 -0.5460 -0.3767  0.1799
13099SOL    HW140738   4.541   2.802  10.762 -1.4927  0.5818 -1.7246
13099SOL    HW240739   4.416   2.787  10.846 -0.4525  0.3524 -0.1699
13100SOL     OW40740   5.027   4.623  11.498  0.3635 -1.0358  0.3323
13100SOL    HW140741   5.010   4.606  11.406  2.1239  0.4589 -0.3580
13100SOL    HW240742   4.944   4.654  11.533 -0.1637 -0.9411 -0.9473
13101SOL     OW40743   2.249   7.468   1.035 -0.2553 -0.2773  0.4419
13101SOL    HW140744   2.165   7.499   1.002 -1.3154 -0.1968  3.0207
13101SOL    HW240745   2.241   7.373   1.036 -0.2559 -0.2762  0.5401
13102SOL     OW40746   2.658   6.009   3.350 -0.0490 -0.4320  0.6709
13102SOL    HW140747   2.687   6.051   3.269  2.1649 -0.2060  1.5279
13102SOL    HW240748   2.567   5.985   3.333 -0.5223  2.1038 -0.8818
13103SOL     OW40749   3.440   0.737   7.217 -0.0807  0.4573 -0.3474
13103SOL    HW140750   3.434   0.741   7.122 -0.2270  0.8054 -0.3273
13103SOL    HW240751   3.349   0.725   7.246  0.0244 -0.1955 -0.2723
13104SOL     OW40752   6.698   3.130  11.153  0.2692  0.3106  0.3804
13104SOL    HW140753   6.724   3.218  11.179  0.4455  0.2166  0.5276
13104SOL    HW240754   6.652   3.094  11.229  0.1931  0.2765  0.3188
13105SOL     OW40755   6.274   7.621   7.244 -0.2176 -0.6788  0.2691
13105SOL    HW140756   6.299   7.540   7.200  1.1644  0.0951 -0.4484
13105SOL    HW240757   6.260   7.595   7.335 -0.8444 -1.8967 -0.1586
13106SOL     OW40758   3.360   5.258   6.588 -0.3900 -0.1220 -0.3604
13106SOL    HW140759   3.451   5.274   6.613 -0.3922  1.7707 -1.3796
13106SOL    HW240760   3.320   5.345   6.585 -1.3148 -0.5376 -3.2154
13107SOL     OW40761   0.094   0.550   2.962  0.3313  0.2150 -0.6530
13107SOL    HW140762   0.188   0.566   2.956  0.5530 -0.6852  0.2432
13107SOL    HW240763   0.054   0.631   2.929  1.4195  1.6292  1.2890
13108SOL     OW40764   5.160   1.572   6.047  0.0833 -0.0159  0.4589
13108SOL    HW140765   5.249   1.605   6.031 -0.2595  0.0955 -1.4536
13108SOL    HW240766   5.106   1.651   6.049 -0.3514 -0.2166 -1.3709
13109SOL     OW40767   2.159   5.494   8.853  0.4361 -0.0540  0.3772
13109SOL    HW140768   2.117   5.448   8.925  2.6240 -1.7499  0.6919
13109SOL    HW240769   2.194   5.574   8.892  0.5468 -0.3614  0.9126
13110SOL     OW40770   1.370   2.941   6.939 -0.0707 -0.6301  0.5259
13110SOL    HW140771   1.405   2.910   6.855  0.4392  1.1181  0.0377
13110SOL    HW240772   1.276   2.952   6.922  0.3757  2.2180 -0.7562
13111SOL     OW40773   2.424   4.263   4.709 -0.2041  0.1062 -0.8543
13111SOL    HW140774   2.493   4.239   4.770  0.1947  0.4715 -1.1607
13111SOL    HW240775   2.381   4.179   4.687 -0.7179  0.0425  0.3498
13112SOL     OW40776   1.486   5.650   9.410 -0.6385  0.1811 -0.1171
13112SOL    HW140777   1.417   5.704   9.371 -0.1803  1.0082  0.1938
13112SOL    HW240778   1.449   5.621   9.493 -0.6652  0.5279 -0.0038
13113SOL     OW40779   6.213   4.578   9.954 -0.3051  0.3495 -0.3591
13113SOL    HW140780   6.248   4.616  10.034  2.4541 -0.9615 -0.8221
13113SOL    HW240781   6.219   4.484   9.967 -0.4467  0.1115 -1.8053
13114SOL     OW40782   4.191   5.216   3.917  0.3711 -0.2654  0.4272
13114SOL    HW140783   4.105   5.180   3.893  0.7798 -0.9079 -0.0807
13114SOL    HW240784   4.172   5.306   3.945 -0.2759  0.1266 -1.1896
13115SOL     OW40785   1.357   1.723   2.563  0.0641  0.3881 -0.1261
13115SOL    HW140786   1.376   1.803   2.515  0.5607  0.5052  0.2576
13115SOL    HW240787   1.286   1.682   2.514  0.0605  0.8737 -0.5360
13116SOL     OW40788   7.604   7.674   5.603  0.3243  0.7077  0.0871
13116SOL    HW140789   7.590   7.582   5.623  1.0432  0.7632  0.8899
13116SOL    HW240790   7.544   7.692   5.530  0.4494 -0.4810 -0.3362
13117SOL     OW40791   2.384   1.357   1.718 -0.0525 -0.1474 -0.2577
13117SOL    HW140792   2.461   1.304   1.739 -0.9799 -1.3316  0.2625
13117SOL    HW240793   2.327   1.347   1.794 -0.6708  0.8293 -0.5790
13118SOL     OW40794   5.882   2.531  11.656  0.2563 -0.7814 -0.6357
13118SOL    HW140795   5.944   2.572  11.717 -1.4723  1.8111 -0.4349
13118SOL    HW240796   5.839   2.463  11.707  0.5148 -0.2580  0.3121
13119SOL     OW40797   1.434   1.195   0.673  0.1910 -0.3213  0.2637
13119SOL    HW140798   1.502   1.256   0.641 -0.0548  0.4389  1.1633
13119SOL    HW240799   1.481   1.136   0.731  0.1004  0.1702  0.8424
13120SOL     OW40800   2.860   5.191   6.571  0.0397  0.0459 -0.1213
13120SOL    HW140801   2.953   5.203   6.590  0.4637  0.2164 -2.0306
13120SOL    HW240802   2.836   5.269   6.521 -0.9875 -0.2642 -0.1352
13121SOL     OW40803   1.249   7.427  12.247 -0.0288  0.1937  0.1016
13121SOL    HW140804   1.224   7.335  12.258  0.0619  0.2273  0.6001
13121SOL    HW240805   1.203   7.473  12.316  2.1447  0.1281  1.7099
13122SOL     OW40806   2.608   0.004   1.288  0.1028  0.4626 -0.5525
13122SOL    HW140807   2.609  -0.011   1.383  0.6100  0.3882 -0.5677
13122SOL    HW240808   2.695   0.040   1.269 -0.3579  1.4927 -0.8253
13123SOL     OW40809   2.919   4.576   0.189  0.2948 -0.5378 -0.2626
13123SOL    HW140810   2.944   4.504   0.131  0.5364 -0.9478  0.3426
13123SOL    HW240811   2.882   4.642   0.130  0.5036 -0.9586 -0.8783
13124SOL     OW40812   2.942   4.300   6.954  0.1135 -0.6989 -0.2607
13124SOL    HW140813   3.015   4.309   6.892  2.6192  1.7038  2.6817
13124SOL    HW240814   2.964   4.222   7.005  1.7152  0.9132  1.6903
13125SOL     OW40815   5.950   7.208   9.535 -0.4061 -0.0904 -0.3335
13125SOL    HW140816   5.891   7.269   9.579  0.1615 -0.2813  0.7232
13125SOL    HW240817   5.897   7.130   9.521 -0.4311 -0.2499  0.5762
13126SOL     OW40818   0.842   3.232   2.435  0.6823  0.4958  0.3275
13126SOL    HW140819   0.822   3.140   2.454  0.5297 -0.2671 -2.9760
13126SOL    HW240820   0.792   3.281   2.500 -0.4279 -1.7097  1.2469
13127SOL     OW40821   7.652   0.015   0.427  0.2297 -0.0312 -0.4695
13127SOL    HW140822   7.654   0.105   0.396 -0.7419  0.0381 -0.3516
13127SOL    HW240823   7.686  -0.036   0.353 -0.9680  0.2493 -1.2362
13128SOL     OW40824   6.276   6.295   0.091  0.0642 -0.6004  0.0449
13128SOL    HW140825   6.320   6.340   0.163  0.3115  1.4601 -1.3223
13128SOL    HW240826   6.338   6.228   0.063  0.7168 -0.2435  0.6064
13129SOL     OW40827   5.966   5.877   9.446  0.0072 -0.4404  0.3010
13129SOL    HW140828   5.881   5.836   9.437  0.4156 -1.3445  0.4794
13129SOL    HW240829   5.987   5.870   9.539 -1.1062  2.6383  0.9039
13130SOL     OW40830   6.468   5.901   6.581  0.1121  0.0983  0.4695
13130SOL    HW140831   6.544   5.843   6.587 -0.7956 -1.2627 -0.5156
13130SOL    HW240832   6.394   5.845   6.606 -0.5507  1.4750  1.6867
13131SOL     OW40833   0.077   2.969   4.252 -0.4274 -0.2302  0.2470
13131SOL    HW140834   0.131   2.967   4.173 -2.2890 -0.2684 -1.0918
13131SOL    HW240835   0.005   3.027   4.230 -1.1682 -0.5054  1.8182
13132SOL     OW40836   0.515   2.427  10.798  0.2163 -0.2653  0.1698
13132SOL    HW140837   0.611   2.426  10.804  0.2699 -0.9630 -0.6070
13132SOL    HW240838   0.486   2.412  10.888  0.7998  1.7842  0.7379
13133SOL     OW40839   7.381   6.897   1.835 -0.2338  0.3896 -0.3278
13133SOL    HW140840   7.439   6.895   1.911 -1.5858 -1.3854  0.7359
13133SOL    HW240841   7.315   6.831   1.854 -0.6821 -0.0283 -3.0213
13134SOL     OW40842   5.145   1.927   6.778 -0.1406  0.4953 -0.3393
13134SOL    HW140843   5.092   1.875   6.718 -0.4670  0.7101 -0.2409
13134SOL    HW240844   5.229   1.938   6.733 -0.0381 -0.1819 -0.3256
13135SOL     OW40845   1.053   4.807   3.320 -0.4767  0.7167 -0.2885
13135SOL    HW140846   1.074   4.731   3.266  0.4183  0.1026  0.8649
13135SOL    HW240847   1.111   4.798   3.397 -1.7861  1.4800  0.8312
13136SOL     OW40848   2.752   6.371   1.354 -0.2944  0.0237 -0.2250
13136SOL    HW140849   2.781   6.294   1.305  0.7849  0.4966 -0.3655
13136SOL    HW240850   2.778   6.445   1.299 -0.5890  0.5124  0.2856
13137SOL     OW40851   2.409   7.094  10.647 -0.1721 -0.0038  0.6042
13137SOL    HW140852   2.418   7.028  10.579  1.1328  0.8643 -0.1290
13137SOL    HW240853   2.383   7.173  10.599 -0.6111  0.2794  1.3061
13138SOL     OW40854   2.255   2.167   3.359 -0.0377  0.1465 -0.2524
13138SOL    HW140855   2.324   2.100   3.357  0.8572  1.0610 -0.8280
13138SOL    HW240856   2.273   2.218   3.438 -0.2555  0.1922 -0.2306
13139SOL     OW40857   5.145   5.343   9.454 -0.4171  0.1333 -0.2589
13139SOL    HW140858   5.098   5.316   9.533 -2.6940  2.4778 -0.6546
13139SOL    HW240859   5.218   5.396   9.486 -0.5011 -0.0848  0.3058
13140SOL     OW40860   0.081   4.130   1.685  0.0175 -0.8165  0.1940
13140SOL    HW140861   0.025   4.159   1.757 -1.1605  0.1148 -1.0375
13140SOL    HW240862   0.147   4.199   1.677  0.0205 -0.8115  0.2649
13141SOL     OW40863   3.204   5.957   7.782  0.0309 -0.0847 -0.1109
13141SOL    HW140864   3.136   6.001   7.731  1.1570  0.4670 -1.1942
13141SOL    HW240865   3.228   5.881   7.729 -1.3244 -1.6239  1.3648
13142SOL     OW40866   0.487   5.315   0.135 -0.1297 -0.1635 -0.7980
13142SOL    HW140867   0.552   5.300   0.204 -0.7790 -0.7044 -0.3021
13142SOL    HW240868   0.415   5.256   0.155 -0.4211 -0.1846 -1.8297
13143SOL     OW40869   4.356   1.375   1.163 -0.2098 -0.2607  0.0242
13143SOL    HW140870   4.391   1.288   1.182  1.2574  0.0879 -0.8655
13143SOL    HW240871   4.353   1.419   1.247 -0.1320 -0.8882  0.3613
13144SOL     OW40872   2.840   5.354   7.794  0.0229  0.1143 -0.1315
13144SOL    HW140873   2.784   5.409   7.849  0.0699 -0.1258  0.1592
13144SOL    HW240874   2.838   5.396   7.708 -1.3330 -0.3763 -0.3759
13145SOL     OW40875   1.857   0.801   2.050  0.4651 -0.4459  0.3865
13145SOL    HW140876   1.837   0.764   1.964  0.0391  0.2945  0.1579
13145SOL    HW240877   1.949   0.825   2.045  0.4960 -0.5942  0.2123
13146SOL     OW40878   6.344   2.140   0.690  0.6119 -0.2922  0.1105
13146SOL    HW140879   6.415   2.144   0.754  0.8801  1.6223 -0.2453
13146SOL    HW240880   6.358   2.056   0.645  1.4138 -0.8878  1.3980
13147SOL     OW40881   4.061   2.127   0.335  0.2442 -0.0121 -0.3233
13147SOL    HW140882   4.016   2.207   0.361  1.3615  0.8365 -0.9158
13147SOL    HW240883   4.135   2.120   0.396 -1.4271 -2.2034  1.6387
13148SOL     OW40884   5.167   0.057   8.552 -0.3313 -0.1997  0.0182
13148SOL    HW140885   5.238   0.067   8.487 -0.4605 -0.1661 -0.1183
13148SOL    HW240886   5.196   0.109   8.627 -0.0731 -0.4227  0.0773
13149SOL     OW40887   3.563   4.329   2.765  0.6325  0.0225 -0.0152
13149SOL    HW140888   3.585   4.392   2.834  1.3531  0.3259 -0.5031
13149SOL    HW240889   3.643   4.324   2.711  0.0298 -0.0707 -0.9265
13150SOL     OW40890   3.207   5.170   9.011 -0.1651 -0.4093  0.0865
13150SOL    HW140891   3.130   5.145   9.062  0.4567  0.9779  1.7838
13150SOL    HW240892   3.221   5.262   9.031  1.1157 -0.2626 -1.3100
13151SOL     OW40893   2.086   6.615  11.184  0.4419  0.3872 -0.2038
13151SOL    HW140894   2.175   6.597  11.153  0.0601  0.0062 -1.0987
13151SOL    HW240895   2.097   6.637  11.276  1.4002 -0.2402 -0.1563
13152SOL     OW40896   5.272   2.507   1.464 -0.2151  0.3829  0.9339
13152SOL    HW140897   5.343   2.443   1.473 -0.7370 -0.4283 -0.3683
13152SOL    HW240898   5.309   2.576   1.409  0.1123  0.8570  1.7299
13153SOL     OW40899   3.992   6.819  10.386 -0.7995  0.1232 -1.0234
13153SOL    HW140900   3.943   6.844  10.307  0.7576 -1.2473 -2.4917
13153SOL    HW240901   4.082   6.809  10.356 -0.1856 -0.5698  0.9263
13154SOL     OW40902   1.318   4.686   0.880 -0.1654  0.2505 -0.0479
13154SOL    HW140903   1.365   4.622   0.827  0.0811  0.4783 -0.1062
13154SOL    HW240904   1.356   4.678   0.967 -0.3332  0.1165  0.0136
13155SOL     OW40905   3.497   1.875  10.277 -0.3842  0.1930 -0.3322
13155SOL    HW140906   3.460   1.787  10.271 -0.5833  0.3332 -1.4198
13155SOL    HW240907   3.560   1.880  10.206 -0.6874  1.0699 -0.5550
13156SOL     OW40908   1.931   5.238   9.592 -0.3457  0.3667 -0.2133
13156SOL    HW140909   1.904   5.330   9.596  0.2115  0.5444 -0.3942
13156SOL    HW240910   1.919   5.206   9.681  3.0456  1.6838  0.9104
13157SOL     OW40911   5.854   3.938   7.651 -0.2108  0.1684 -0.4886
13157SOL    HW140912   5.936   3.935   7.601 -0.5037 -1.2440 -0.9513
13157SOL    HW240913   5.881   3.930   7.742  0.1669 -0.8472 -0.6696
13158SOL     OW40914   3.993   5.449   2.359 -0.3065 -0.2225 -0.0888
13158SOL    HW140915   3.941   5.405   2.292 -1.1760 -2.6107  2.0107
13158SOL    HW240916   3.931   5.471   2.428  0.9898 -0.4827  1.2137
13159SOL     OW40917   3.590   6.036   9.600  0.2030 -0.2546  0.2307
13159SOL    HW140918   3.612   6.122   9.635  2.9033  0.0366 -1.7655
13159SOL    HW240919   3.589   6.049   9.505  1.8472 -2.5631 -0.2022
13160SOL     OW40920   5.152   5.977  11.112 -0.5409 -0.3624  0.4294
13160SOL    HW140921   5.095   5.973  11.035 -0.8195  0.8394  0.5555
13160SOL    HW240922   5.137   6.064  11.149  1.3397 -0.0127  0.4940
13161SOL     OW40923   0.623   2.631   8.666 -0.0119 -0.7382  0.4224
13161SOL    HW140924   0.712   2.661   8.646 -0.0162 -0.7014  0.4574
13161SOL    HW240925   0.636   2.557   8.725  0.1070 -2.7157 -1.9391
13162SOL     OW40926   1.618   2.019   0.551  0.4877 -0.6591  0.1719
13162SOL    HW140927   1.530   2.003   0.585 -0.3888  1.1493 -1.1032
13162SOL    HW240928   1.630   1.953   0.484 -0.1389 -0.5573 -0.0471
13163SOL     OW40929   0.008   5.283  11.935  0.5519  0.0697 -0.1042
13163SOL    HW140930  -0.054   5.337  11.984  0.9891 -0.7663  1.4723
13163SOL    HW240931  -0.043   5.250  11.861 -0.2356  1.1637 -0.0798
13164SOL     OW40932   2.511   2.929   5.956  0.2450  1.0423 -0.0623
13164SOL    HW140933   2.572   2.985   5.907 -0.6046  1.9279 -0.1395
13164SOL    HW240934   2.542   2.933   6.046  0.3477  1.4323 -0.1122
13165SOL     OW40935   0.002   6.767   2.913 -0.2607  0.3468 -0.1452
13165SOL    HW140936  -0.086   6.749   2.880  0.3496 -0.5178 -1.4201
13165SOL    HW240937   0.056   6.698   2.874  1.0558  1.1136  0.2542
13166SOL     OW40938   1.197   4.001   9.786  0.1038  0.0672 -0.4049
13166SOL    HW140939   1.131   3.931   9.791 -0.3292  0.4197 -1.0552
13166SOL    HW240940   1.252   3.987   9.863 -0.6864 -0.2877  0.1136
13167SOL     OW40941   4.627   3.175   2.718 -0.1330 -0.0120 -0.2062
13167SOL    HW140942   4.601   3.267   2.710 -0.4025  0.1028  1.5774
13167SOL    HW240943   4.544   3.128   2.731  0.2021  0.1629  3.9296
13168SOL     OW40944   7.125   2.288   6.649 -0.5473 -0.2805 -0.2937
13168SOL    HW140945   7.113   2.236   6.570  2.1803 -0.6111 -0.5791
13168SOL    HW240946   7.206   2.336   6.634 -1.2025  1.4733  1.3669
13169SOL     OW40947   3.998   3.140  12.323 -0.2427 -0.0694  0.2711
13169SOL    HW140948   4.092   3.132  12.334 -0.2766  0.6725  1.1565
13169SOL    HW240949   3.979   3.232  12.341 -1.1464 -0.2313  0.1902
13170SOL     OW40950   1.035   0.229  11.173 -0.2067  0.7314  0.2160
13170SOL    HW140951   1.073   0.294  11.232 -1.3809  0.2610  1.5413
13170SOL    HW240952   0.975   0.178  11.228 -2.2357  1.0129 -1.6089
13171SOL     OW40953   1.922   3.162  11.535 -0.0428 -0.7093  0.6747
13171SOL    HW140954   1.916   3.170  11.440 -0.1988 -1.7431  0.5844
13171SOL    HW240955   1.952   3.072  11.549  1.1642 -0.1948  1.5679
13172SOL     OW40956   3.250   5.423   1.415 -0.0147 -0.5429 -0.4330
13172SOL    HW140957   3.288   5.360   1.355  0.4409  0.9963 -1.8437
13172SOL    HW240958   3.185   5.470   1.363 -1.5632 -0.9281  1.0350
13173SOL     OW40959   7.656   5.112   2.437  0.2442  0.0274 -0.2083
13173SOL    HW140960   7.732   5.152   2.478  0.4431  0.0400 -0.5845
13173SOL    HW240961   7.617   5.182   2.384  1.5730 -0.6685 -2.2415
13174SOL     OW40962   7.860   4.269   9.728 -0.5904  0.1487  0.1435
13174SOL    HW140963   7.884   4.259   9.636  0.6367  0.2325  0.4384
13174SOL    HW240964   7.791   4.205   9.742 -0.0013 -0.6618 -0.5616
13175SOL     OW40965   2.360   1.993   9.495  0.3140 -0.7051 -0.1169
13175SOL    HW140966   2.369   1.959   9.584  2.4468  0.1173  0.0352
13175SOL    HW240967   2.273   2.034   9.494  0.3339 -0.5270  1.6668
13176SOL     OW40968   3.082   4.111   7.420 -0.2559 -0.4561 -0.2525
13176SOL    HW140969   3.080   4.175   7.349 -0.9375  1.1080  1.1102
13176SOL    HW240970   2.991   4.082   7.428 -0.5073  0.6294  1.0401
13177SOL     OW40971   3.245   6.260   1.237 -0.2623  0.6106  0.6284
13177SOL    HW140972   3.283   6.219   1.159 -1.0940 -0.3361  0.6977
13177SOL    HW240973   3.203   6.188   1.284 -0.1160  1.2342  1.7550
13178SOL     OW40974   4.694   4.197  10.488 -0.3099 -0.1231  0.2535
13178SOL    HW140975   4.753   4.137  10.441  2.1819  1.7793  0.7030
13178SOL    HW240976   4.632   4.140  10.532  0.7536 -2.2664 -0.8454
13179SOL     OW40977   1.125   7.244  10.028  0.2731  0.1011  0.0287
13179SOL    HW140978   1.121   7.153  10.056 -1.1022 -0.3512 -1.5150
13179SOL    HW240979   1.036   7.277  10.041  0.6131  1.0553  0.0063
13180SOL     OW40980   7.593   7.537   1.130  0.1602  0.1886 -0.2045
13180SOL    HW140981   7.664   7.593   1.160 -0.1697  1.4717 -1.6542
13180SOL    HW240982   7.527   7.598   1.097 -1.3249 -0.9950  0.4617
13181SOL     OW40983   7.715   4.982   0.633 -0.2582  0.2128 -0.5759
13181SOL    HW140984   7.665   5.063   0.622 -2.3306 -0.7269  1.2522
13181SOL    HW240985   7.649   4.913   0.635  1.4315 -1.5758 -1.9448
13182SOL     OW40986   4.460   1.848   2.249  0.6497  0.4270  0.2372
13182SOL    HW140987   4.534   1.819   2.196 -0.4667 -1.9971 -0.1297
13182SOL    HW240988   4.484   1.826   2.339  0.9974  1.0928  0.3135
13183SOL     OW40989   0.376   5.679   5.720 -0.2988 -0.2779 -0.3148
13183SOL    HW140990   0.412   5.644   5.638  2.0983 -2.2203  1.4211
13183SOL    HW240991   0.443   5.739   5.751 -1.2300  0.5080  0.2275
13184SOL     OW40992   4.326   0.240   0.369 -0.1571 -0.7395  0.1504
13184SOL    HW140993   4.370   0.313   0.327 -1.1847 -0.9941 -1.4820
13184SOL    HW240994   4.295   0.274   0.453  2.1152 -0.2595  0.8528
13185SOL     OW40995   5.995   1.242   4.606  0.8964  0.3735  0.1590
13185SOL    HW140996   6.056   1.261   4.677  0.1515  1.3771  0.5531
13185SOL    HW240997   5.950   1.325   4.590  0.1940 -0.1460 -0.6608
13186SOL     OW40998   6.078   6.526   4.679 -0.3274  0.1506  0.1047
13186SOL    HW140999   6.017   6.493   4.745 -0.3601  1.3435  0.6925
13186SOL    HW241000   6.149   6.566   4.729 -0.3421  1.0589 -0.5667
13187SOL     OW41001   1.439   7.018   3.456 -0.1549  0.4097 -0.1755
13187SOL    HW141002   1.418   6.959   3.383  0.6447 -0.9680  0.6640
13187SOL    HW241003   1.365   7.011   3.515  0.7436 -1.2820  0.8282
13188SOL     OW41004   0.330   3.412   6.068 -0.2400 -0.2681 -0.5583
13188SOL    HW141005   0.406   3.386   6.120  0.1408 -0.4871 -1.2161
13188SOL    HW241006   0.255   3.377   6.117  0.1593 -1.1107 -0.5333
13189SOL     OW41007   5.438   1.706   8.800 -0.1653 -0.3090 -0.0401
13189SOL    HW141008   5.452   1.776   8.736 -1.8988  0.9830  0.9170
13189SOL    HW241009   5.491   1.730   8.875  0.9398 -1.2158 -0.4853
13190SOL     OW41010   2.740   1.825   2.485  0.4398 -0.2025  0.0252
13190SOL    HW141011   2.645   1.814   2.497  0.5826 -0.0467  1.6034
13190SOL    HW241012   2.757   1.914   2.517  0.8543  0.5444 -2.1523
13191SOL     OW41013   6.520   7.447   6.105 -0.3672 -0.4230 -0.1247
13191SOL    HW141014   6.495   7.354   6.109  0.6723 -0.8430 -2.0824
13191SOL    HW241015   6.607   7.446   6.065 -0.9837  1.4615 -1.6420
13192SOL     OW41016   6.679   2.869   3.788 -0.0505  0.4664 -0.3624
13192SOL    HW141017   6.590   2.849   3.761  0.0097 -1.3133  0.6017
13192SOL    HW241018   6.726   2.787   3.778  0.5146  0.2893  2.8555
13193SOL     OW41019   6.930   1.822   3.827  0.2654 -0.3759 -0.2554
13193SOL    HW141020   6.987   1.876   3.881  0.3988 -1.8411  1.1256
13193SOL    HW241021   6.984   1.796   3.753  0.7928 -0.2027  0.0676
13194SOL     OW41022   6.212   4.889   4.941  0.4870  0.1058 -0.1956
13194SOL    HW141023   6.158   4.910   5.017  0.3145 -0.1194 -0.2562
13194SOL    HW241024   6.161   4.922   4.866 -0.2470 -1.3774 -0.3831
13195SOL     OW41025   4.093   3.481   3.181  0.2051  0.5135 -0.5151
13195SOL    HW141026   4.184   3.458   3.160  0.3390 -1.8950  2.1454
13195SOL    HW241027   4.044   3.400   3.168 -1.7144  1.8684 -2.2708
13196SOL     OW41028   5.730   7.109   5.500  0.0209  0.6156  0.1559
13196SOL    HW141029   5.729   7.080   5.408 -1.8879  1.1929 -0.0665
13196SOL    HW241030   5.814   7.080   5.534  1.2193  1.2888 -2.0671
13197SOL     OW41031   1.799   7.865   6.062  0.2328  0.1683 -0.6756
13197SOL    HW141032   1.804   7.792   6.124 -0.2337  0.0757 -0.7433
13197SOL    HW241033   1.805   7.944   6.116 -0.0447  0.0856 -0.5243
13198SOL     OW41034   5.859   6.191  12.062 -0.0956  0.2018 -0.0811
13198SOL    HW141035   5.936   6.232  12.024  0.9959  0.5664  2.3496
13198SOL    HW241036   5.786   6.246  12.034  0.9336  1.8280  0.3038
13199SOL     OW41037   7.338   2.415   1.507 -0.9437  0.3142 -0.5165
13199SOL    HW141038   7.398   2.365   1.560  1.5948  1.4421 -2.1297
13199SOL    HW241039   7.255   2.367   1.511 -0.9184  0.2141  4.1072
13200SOL     OW41040   7.215   5.361  12.385 -0.4875  0.0231 -0.0762
13200SOL    HW141041   7.133   5.379  12.432  0.0991  1.2919  0.5253
13200SOL    HW241042   7.227   5.437  12.329  0.9096  0.4835  0.7882
13201SOL     OW41043   1.202   1.968   7.958  0.1711  0.3428 -0.0873
13201SOL    HW141044   1.178   1.878   7.977 -1.3351  0.4253 -1.3768
13201SOL    HW241045   1.296   1.965   7.942 -0.1810 -1.4852 -2.4033
13202SOL     OW41046   0.248   0.558  10.614 -0.6182 -0.2919  0.1417
13202SOL    HW141047   0.286   0.471  10.610 -0.0186 -0.0524  0.4823
13202SOL    HW241048   0.314   0.611  10.659 -0.5731  0.5382 -0.8425
13203SOL     OW41049   1.665   4.650   2.924 -0.3255  0.3370  0.1631
13203SOL    HW141050   1.576   4.619   2.942 -0.1157 -0.4538 -0.1568
13203SOL    HW241051   1.654   4.742   2.899 -1.3471 -0.4212 -2.4721
13204SOL     OW41052   1.203   6.165   9.663 -0.3683  0.4511 -0.1095
13204SOL    HW141053   1.279   6.116   9.630 -0.3682  1.7561 -2.2113
13204SOL    HW241054   1.128   6.124   9.621 -0.6304  0.5360  0.2697
13205SOL     OW41055   6.947   4.444   9.878 -0.1617 -0.4444  0.3411
13205SOL    HW141056   6.897   4.466   9.957 -0.1326  0.2620  0.1651
13205SOL    HW241057   6.898   4.372   9.838 -0.2250 -0.7548  0.9512
13206SOL     OW41058   6.141   7.311   6.558 -0.1193 -0.5709 -0.0208
13206SOL    HW141059   6.049   7.286   6.554 -0.4329  0.4698  0.4265
13206SOL    HW241060   6.179   7.252   6.624 -0.6630 -0.4305  0.4278
13207SOL     OW41061   4.249   4.251   6.009  0.0618 -0.3666  0.0741
13207SOL    HW141062   4.296   4.297   5.940 -1.8507 -0.0748 -1.1045
13207SOL    HW241063   4.315   4.195   6.050  1.4886  0.2586 -1.2835
13208SOL     OW41064   5.673   5.837   7.016  0.2839 -0.4693 -0.2662
13208SOL    HW141065   5.744   5.841   6.951  1.2656 -0.5774  0.7765
13208SOL    HW241066   5.595   5.860   6.966  0.9637 -0.8198 -1.5609
13209SOL     OW41067   7.368   2.077   6.151  0.5272 -0.0220 -0.1351
13209SOL    HW141068   7.412   2.070   6.066  0.5126  0.1760 -0.1606
13209SOL    HW241069   7.410   2.012   6.206  0.9276  0.2380 -0.1299
13210SOL     OW41070   0.956   7.061   9.165  0.1283 -0.6439  0.0479
13210SOL    HW141071   0.919   7.089   9.248  0.9239  0.2563  0.1258
13210SOL    HW241072   1.029   7.004   9.189  1.4270  0.9461  0.0652
13211SOL     OW41073   1.075   0.014  10.916 -0.3320 -0.2145  0.0929
13211SOL    HW141074   1.028   0.019  11.000  0.1514  0.0396  0.3539
13211SOL    HW241075   1.122  -0.070  10.921  0.5808  0.2993  0.5654
13212SOL     OW41076   6.488   1.671   2.360  0.1438 -0.7683  0.1863
13212SOL    HW141077   6.495   1.693   2.267 -0.6951 -0.1906  0.2500
13212SOL    HW241078   6.549   1.598   2.372  0.6082 -0.5425 -0.7144
13213SOL     OW41079   1.193   4.865   9.143  0.9019 -0.4406 -0.0316
13213SOL    HW141080   1.113   4.812   9.142  0.7718 -0.3030 -1.9806
13213SOL    HW241081   1.256   4.813   9.092  1.8458 -0.2349  0.8966
13214SOL     OW41082   3.478   3.043   0.041 -0.3827 -0.0139 -0.1895
13214SOL    HW141083   3.527   2.990  -0.022 -0.9863  0.8138 -1.4224
13214SOL    HW241084   3.508   3.133   0.024  0.0116  0.1511  1.2750
13215SOL     OW41085   0.174   3.374   2.801  0.0913 -0.7839 -0.5657
13215SOL    HW141086   0.158   3.444   2.739 -2.0722 -2.9446 -2.6460
13215SOL    HW241087   0.089   3.355   2.840  0.9591 -1.1094  1.3292
13216SOL     OW41088   3.494   2.619   5.216  0.0732  0.6915 -0.2979
13216SOL    HW141089   3.532   2.558   5.279  0.5518  0.4639 -0.8005
13216SOL    HW241090   3.564   2.683   5.201  0.5140 -0.1034 -1.7385
13217SOL     OW41091   0.372   6.062  11.309 -0.1393  0.0677  0.4320
13217SOL    HW141092   0.382   6.145  11.263  1.5725  1.1326  2.5774
13217SOL    HW241093   0.418   5.998  11.254  0.5799  1.0045 -0.0706
13218SOL     OW41094   0.818   0.874   0.946 -0.4789 -0.0382 -0.2720
13218SOL    HW141095   0.822   0.968   0.964 -0.5339 -0.0767 -0.0508
13218SOL    HW241096   0.763   0.839   1.017 -0.9225 -0.1596 -0.6718
13219SOL     OW41097   1.397   1.933   0.672  0.5057 -0.0984  0.0419
13219SOL    HW141098   1.368   1.976   0.752  0.1573 -1.4529  0.6678
13219SOL    HW241099   1.336   1.860   0.660  0.7417 -0.1044 -1.2886
13220SOL     OW41100   0.420   3.871   4.602 -0.0632 -0.1459 -0.1622
13220SOL    HW141101   0.433   3.802   4.667 -1.3313 -0.0249  0.2562
13220SOL    HW241102   0.487   3.936   4.622 -0.2314 -0.2649  0.8352
13221SOL     OW41103   6.315   5.955   8.787  0.1984  1.1981  0.8444
13221SOL    HW141104   6.376   6.011   8.739  0.9347 -0.1163  0.1829
13221SOL    HW241105   6.369   5.880   8.815 -0.9955  0.2834  0.7487
13222SOL     OW41106   3.302   5.231   5.522 -0.2798  0.1649 -0.1633
13222SOL    HW141107   3.350   5.149   5.511 -0.2462  0.3805 -1.9503
13222SOL    HW241108   3.342   5.291   5.459 -1.9938  0.7581 -0.7592
13223SOL     OW41109   5.726   6.520   9.517  0.4959 -0.0294  0.3788
13223SOL    HW141110   5.640   6.528   9.477 -0.1976  1.1159  1.9935
13223SOL    HW241111   5.727   6.432   9.556  0.6722 -0.6286 -0.9161
13224SOL     OW41112   7.451   2.669   1.062  0.2962 -0.6978 -0.3009
13224SOL    HW141113   7.493   2.674   0.977  1.1819  0.7856  0.1793
13224SOL    HW241114   7.399   2.750   1.068 -0.2215 -1.0647  0.3275
13225SOL     OW41115   5.542   6.008   5.799  0.5503 -0.1279 -0.1804
13225SOL    HW141116   5.530   6.080   5.738 -0.3888 -1.6562 -1.8853
13225SOL    HW241117   5.630   5.976   5.782  0.2991 -0.5351 -0.7428
13226SOL     OW41118   0.369   2.843  11.613 -0.5256  0.3914 -0.0242
13226SOL    HW141119   0.340   2.899  11.542  1.0094  1.1077 -0.1398
13226SOL    HW241120   0.452   2.806  11.582 -0.2409  0.0663  1.0634
13227SOL     OW41121   7.793   0.036  11.332 -0.0334 -0.1531 -0.3250
13227SOL    HW141122   7.823   0.093  11.403  1.5508 -0.9997 -0.2822
13227SOL    HW241123   7.700   0.020  11.352 -0.2551  1.5810  0.1993
13228SOL     OW41124   7.868   2.661   2.642 -0.6258  0.3072 -0.6695
13228SOL    HW141125   7.934   2.728   2.659 -0.6514  0.0927  0.3457
13228SOL    HW241126   7.786   2.698   2.675 -0.6825 -0.1173 -0.3196
13229SOL     OW41127   5.605   1.972   8.831 -0.2098 -0.4711 -0.1179
13229SOL    HW141128   5.514   1.959   8.807 -0.8927  1.0071  1.4305
13229SOL    HW241129   5.625   2.061   8.804  0.3432 -0.3101  0.7616
13230SOL     OW41130   1.456   0.109   0.822  0.1132  0.4134  0.2236
13230SOL    HW141131   1.449   0.159   0.903  0.0974 -0.8263  1.0214
13230SOL    HW241132   1.432   0.020   0.847  0.2658 -0.0254 -1.1179
13231SOL     OW41133   4.536   5.726   4.980 -0.6637  0.1189  0.3905
13231SOL    HW141134   4.456   5.726   4.927 -1.2503  2.5947  1.1216
13231SOL    HW241135   4.584   5.803   4.950 -0.4818  0.9636  2.6580
13232SOL     OW41136   7.265   5.524   8.846  0.2827 -0.5853 -0.4323
13232SOL    HW141137   7.326   5.561   8.782  0.6676 -0.3050  0.0940
13232SOL    HW241138   7.241   5.598   8.902 -1.5176 -0.4002 -1.3801
13233SOL     OW41139   7.159   1.442   6.320  0.1545  0.1756 -0.0649
13233SOL    HW141140   7.238   1.442   6.267 -0.1920 -1.1701 -0.6307
13233SOL    HW241141   7.190   1.454   6.410  1.0252 -0.4976 -0.2656
13234SOL     OW41142   6.951   4.566   2.817  0.1469  0.0293 -0.6655
13234SOL    HW141143   6.946   4.532   2.906  0.9878  0.2124 -0.5403
13234SOL    HW241144   6.906   4.650   2.821 -0.4126 -0.2714 -0.5754
13235SOL     OW41145   5.298   3.324   3.768  0.0355  0.5781 -0.1550
13235SOL    HW141146   5.243   3.315   3.845  1.5822 -0.3174  0.9025
13235SOL    HW241147   5.354   3.400   3.786 -0.2531  0.9685 -0.8433
13236SOL     OW41148   7.432   6.486   6.834 -0.0138  0.2456 -0.1536
13236SOL    HW141149   7.397   6.469   6.922  2.1894  0.5832  0.8405
13236SOL    HW241150   7.423   6.402   6.789 -0.1140 -0.2608  0.7804
13237SOL     OW41151   1.392   6.600   8.983 -0.5015 -0.5889 -0.1373
13237SOL    HW141152   1.379   6.537   8.911 -0.1257 -0.3384 -0.4297
13237SOL    HW241153   1.314   6.654   8.982  0.8087  1.4418 -2.4146
13238SOL     OW41154   5.311   0.920   6.137  0.3517  0.6141 -0.0323
13238SOL    HW141155   5.285   0.925   6.045  2.4154 -1.1231 -0.7694
13238SOL    HW241156   5.285   0.833   6.165  1.3487  0.4714  0.4914
13239SOL     OW41157   7.598   1.641   7.054  0.4570  0.0311 -0.1054
13239SOL    HW141158   7.669   1.614   7.112  0.6917  0.7671 -0.0402
13239SOL    HW241159   7.589   1.569   6.991  0.7990 -0.3684  0.3021
13240SOL     OW41160   6.007   7.434   3.176 -0.0413 -0.0155  0.2762
13240SOL    HW141161   5.976   7.392   3.095  0.3519  0.2424 -0.0108
13240SOL    HW241162   6.097   7.461   3.156 -1.3371  4.2435 -0.8622
13241SOL     OW41163   4.665   6.707   6.247  0.0119  0.2121 -0.0059
13241SOL    HW141164   4.604   6.637   6.224  0.5080  0.5171 -2.4630
13241SOL    HW241165   4.655   6.773   6.178  2.3669  0.7474  0.0621
13242SOL     OW41166   3.311   6.815   6.268  0.2998  0.2305  0.4091
13242SOL    HW141167   3.280   6.777   6.185  0.0850 -0.7373  0.9209
13242SOL    HW241168   3.336   6.905   6.245  1.0182 -0.2714 -0.8808
13243SOL     OW41169   4.816   6.123   9.973  0.1154  0.1757  0.3136
13243SOL    HW141170   4.796   6.216   9.982 -1.9647 -0.2457  0.7032
13243SOL    HW241171   4.905   6.120   9.939  0.1928  2.3033  0.2173
13244SOL     OW41172   0.568   3.237   7.827 -0.4301  0.0507  0.1241
13244SOL    HW141173   0.590   3.232   7.920 -0.3102  0.7431  0.1320
13244SOL    HW241174   0.618   3.311   7.794  0.9016 -1.2425 -0.8791
13245SOL     OW41175   1.873   2.078   0.450  0.0872 -0.3208  0.0406
13245SOL    HW141176   1.885   2.115   0.362  1.2073 -0.1650  0.2415
13245SOL    HW241177   1.780   2.089   0.468 -0.1514 -0.3006 -1.1029
13246SOL     OW41178   7.583   2.068   9.221 -0.0199  0.7761  0.1085
13246SOL    HW141179   7.565   2.048   9.313  1.8143 -0.3682  0.2812
13246SOL    HW241180   7.600   2.162   9.219 -2.3201  1.2621  0.4869
13247SOL     OW41181   3.516   1.978  12.182  0.0786  0.1939 -0.3811
13247SOL    HW141182   3.527   1.888  12.154  0.2783  0.4811 -1.2437
13247SOL    HW241183   3.576   1.988  12.256  2.0220  0.3412 -1.8978
13248SOL     OW41184   7.741   5.132  11.409  0.0383  0.0680  0.1329
13248SOL    HW141185   7.772   5.047  11.378 -0.6356  0.0969 -0.6446
13248SOL    HW241186   7.799   5.195  11.367  1.0072 -0.0098  1.2757
13249SOL     OW41187   4.408   4.771   7.556 -0.2625  0.6153 -0.2865
13249SOL    HW141188   4.501   4.750   7.558 -0.3548 -0.0087 -1.5571
13249SOL    HW241189   4.364   4.686   7.547 -0.8334  1.0362 -1.7572
13250SOL     OW41190   0.639   6.604   1.568  0.4843  0.1613 -1.0490
13250SOL    HW141191   0.686   6.522   1.584  0.4705 -0.1472 -2.4686
13250SOL    HW241192   0.677   6.638   1.487 -1.7035 -0.1288 -2.3096
13251SOL     OW41193   3.820   1.298   7.644  0.0782 -0.1831 -0.0621
13251SOL    HW141194   3.877   1.375   7.635  0.0663 -0.1214  0.3479
13251SOL    HW241195   3.738   1.325   7.603  1.2376 -1.3068 -3.3779
13252SOL     OW41196   1.515   7.847   5.747  0.6134  0.2382 -0.1467
13252SOL    HW141197   1.484   7.934   5.774 -0.0397  0.1259 -0.5271
13252SOL    HW241198   1.541   7.858   5.655  0.3969 -0.0042 -0.2377
13253SOL     OW41199   2.917   1.906   4.565 -0.3926  0.1005 -0.2441
13253SOL    HW141200   2.855   1.837   4.591 -0.6129  0.4344  0.1185
13253SOL    HW241201   2.999   1.859   4.549 -1.5693 -0.9782 -4.4854
13254SOL     OW41202   2.692   0.124   3.126 -0.2689 -0.7637  0.0134
13254SOL    HW141203   2.654   0.105   3.212 -0.4005  0.1005  0.1541
13254SOL    HW241204   2.670   0.047   3.073 -0.5511 -1.1203  0.6338
13255SOL     OW41205   4.245   1.748   6.097 -0.2721 -0.0123 -0.3505
13255SOL    HW141206   4.276   1.660   6.117  1.5035  0.7934  0.5959
13255SOL    HW241207   4.152   1.746   6.123  0.1417 -1.1282  1.2125
13256SOL     OW41208   1.808   1.635   9.031  0.8988 -0.1554  0.2513
13256SOL    HW141209   1.833   1.681   9.111  0.7069  0.4760 -0.0442
13256SOL    HW241210   1.760   1.700   8.980  0.0631 -0.8666  0.0955
13257SOL     OW41211   7.107   4.061   9.319  0.3820  0.0991 -0.3824
13257SOL    HW141212   7.148   4.091   9.401 -0.0607  0.3669 -0.2591
13257SOL    HW241213   7.046   4.131   9.296 -0.3806 -0.5270 -0.2976
13258SOL     OW41214   4.918   7.100   9.450 -0.3866  0.3034 -0.4224
13258SOL    HW141215   4.947   7.142   9.369  1.1497 -0.1760 -0.1486
13258SOL    HW241216   4.863   7.166   9.492 -1.4856  0.4358 -1.9858
13259SOL     OW41217   3.570   2.116   8.539  0.2350  0.2826 -0.0424
13259SOL    HW141218   3.553   2.022   8.544 -0.4816  0.3378 -1.2455
13259SOL    HW241219   3.655   2.126   8.583 -0.1212 -0.7774  0.9630
13260SOL     OW41220   1.662   7.105  11.104 -0.0620  0.0154 -0.0632
13260SOL    HW141221   1.612   7.040  11.055 -0.2912 -0.4916  0.8406
13260SOL    HW241222   1.740   7.059  11.134  0.6600  0.6314 -0.8989
13261SOL     OW41223   2.901   2.490   7.447 -0.5338  0.1884  0.2418
13261SOL    HW141224   2.914   2.462   7.538 -0.2143 -0.6792 -0.0619
13261SOL    HW241225   2.848   2.421   7.408 -0.1108  0.2248 -0.4073
13262SOL     OW41226   1.132   1.099   5.964 -0.3202 -0.0697  0.0576
13262SOL    HW141227   1.046   1.058   5.972  0.0772 -0.9650 -0.1432
13262SOL    HW241228   1.192   1.026   5.950  0.7385  0.3689  2.0490
13263SOL     OW41229   7.119   7.289  11.362 -0.6166  0.0605  0.0561
13263SOL    HW141230   7.141   7.349  11.290 -0.3565 -0.4842 -0.3217
13263SOL    HW241231   7.186   7.222  11.358  0.6621  1.1343  2.1378
13264SOL     OW41232   6.752   2.680   3.462 -0.1283  0.8874  0.2180
13264SOL    HW141233   6.835   2.650   3.425  0.1106  1.2929  0.4218
13264SOL    HW241234   6.751   2.644   3.550 -0.6426  0.0230 -0.1261
13265SOL     OW41235   0.611   6.661  10.578  0.0770  0.3195 -0.0814
13265SOL    HW141236   0.521   6.681  10.553  0.6648  0.3436 -2.4360
13265SOL    HW241237   0.627   6.573  10.544  0.5997 -0.1620  1.3505
13266SOL     OW41238   5.252   4.598   0.594  0.2922 -0.7568 -0.0990
13266SOL    HW141239   5.327   4.625   0.540  0.7104 -1.2717  0.2103
13266SOL    HW241240   5.177   4.602   0.535  0.7763 -1.5326 -0.7944
13267SOL     OW41241   1.384   3.351   1.911 -0.7949 -0.1144 -0.5657
13267SOL    HW141242   1.337   3.351   1.994 -0.2241 -1.6946 -0.2085
13267SOL    HW241243   1.472   3.382   1.934 -1.2835  1.7439 -1.0339
13268SOL     OW41244   7.641   7.602   2.000 -0.2350 -0.2716  0.1132
13268SOL    HW141245   7.668   7.690   1.975 -3.8175  1.2057  0.8930
13268SOL    HW241246   7.634   7.606   2.095  1.2375 -2.0249  0.3522
13269SOL     OW41247   6.493   1.194  12.312 -0.3535 -0.3046 -0.3585
13269SOL    HW141248   6.557   1.219  12.377  1.1022 -0.1996 -1.7638
13269SOL    HW241249   6.545   1.163  12.237 -1.8887  0.5788 -1.8693
13270SOL     OW41250   0.724   5.746  11.653  0.4555 -0.9924  0.0253
13270SOL    HW141251   0.782   5.792  11.592 -0.7405 -2.2224 -2.1627
13270SOL    HW241252   0.686   5.816  11.707 -0.0604  0.4506 -2.0944
13271SOL     OW41253   7.517   1.776   3.172  0.5271 -0.4805  0.3013
13271SOL    HW141254   7.587   1.763   3.108  0.3363 -0.6396  0.1241
13271SOL    HW241255   7.452   1.710   3.150  0.3913 -0.4343  0.5648
13272SOL     OW41256   7.291   2.172   1.194  0.2229  0.5795 -0.4726
13272SOL    HW141257   7.355   2.164   1.265 -1.1825  1.5296  0.9596
13272SOL    HW241258   7.306   2.259   1.158 -0.1166  0.7128 -0.2893
13273SOL     OW41259   6.242   7.685   8.525  0.1188 -0.2624  0.0752
13273SOL    HW141260   6.240   7.654   8.615  2.0267  0.3180  0.3464
13273SOL    HW241261   6.198   7.770   8.527  0.5334 -0.0629  0.5243
13274SOL     OW41262   1.859   0.267   1.250  0.1868  0.3831 -0.4547
13274SOL    HW141263   1.888   0.311   1.170  2.3983 -0.2347 -0.0569
13274SOL    HW241264   1.912   0.188   1.255 -1.5740 -0.8047  0.4262
13275SOL     OW41265   6.850   2.029   5.277  0.4970 -0.1320 -0.6441
13275SOL    HW141266   6.884   1.985   5.355  1.3335  1.0596 -0.3001
13275SOL    HW241267   6.853   1.963   5.208  0.5338 -0.9629  0.1399
13276SOL     OW41268   6.241   0.868   4.432  0.5229  0.1292 -0.5911
13276SOL    HW141269   6.161   0.864   4.484 -0.0665 -1.5006 -1.5479
13276SOL    HW241270   6.243   0.785   4.385  2.1145  0.6881 -1.5847
13277SOL     OW41271   0.703   7.254   5.621 -0.1815  0.1805 -0.6397
13277SOL    HW141272   0.701   7.320   5.690  0.9029  1.3212 -1.6489
13277SOL    HW241273   0.773   7.283   5.562 -1.9157  0.0074 -2.9342
13278SOL     OW41274   5.984   2.426   3.937  0.1272 -0.1607 -0.6656
13278SOL    HW141275   5.954   2.474   4.014  1.5788  0.2584 -0.3330
13278SOL    HW241276   5.904   2.405   3.889 -0.7795 -0.1537  0.7820
13279SOL     OW41277   5.932   3.966  10.639 -0.0429 -0.4489  0.4674
13279SOL    HW141278   5.966   4.051  10.666 -1.1994  0.4243 -0.7199
13279SOL    HW241279   5.843   3.963  10.674  0.3812 -1.7148  1.5285
13280SOL     OW41280   4.133   3.580  10.795  1.2224 -0.4121  0.1801
13280SOL    HW141281   4.057   3.526  10.817  0.7428  0.8412  1.8430
13280SOL    HW241282   4.122   3.602  10.703  0.2608 -1.2786  0.0698
13281SOL     OW41283   3.171   0.312   3.451  0.5404 -0.0267  0.3845
13281SOL    HW141284   3.163   0.328   3.357  1.8708 -2.3198 -0.2031
13281SOL    HW241285   3.114   0.378   3.491 -1.1904  0.1390 -2.0684
13282SOL     OW41286   5.892   7.154  10.970 -0.5573  0.1040  0.1976
13282SOL    HW141287   5.973   7.204  10.981 -1.1557  1.2052 -0.1974
13282SOL    HW241288   5.843   7.204  10.905 -0.7232 -1.6174 -1.0451
13283SOL     OW41289   4.970   2.000  10.386 -0.2875  0.4174  0.3875
13283SOL    HW141290   5.031   1.982  10.315  0.0676  0.0610  0.7744
13283SOL    HW241291   4.995   2.086  10.418 -0.5700  0.6616 -0.0350
13284SOL     OW41292   7.576   5.923   6.542  0.1739 -0.9858 -0.4738
13284SOL    HW141293   7.669   5.910   6.560  0.1399 -0.1833  0.3745
13284SOL    HW241294   7.564   6.018   6.548 -0.2747 -0.8346 -2.7815
13285SOL     OW41295   6.399   7.515   4.747 -0.6081 -0.4536 -0.4674
13285SOL    HW141296   6.383   7.464   4.826 -2.5584 -0.0939 -0.5799
13285SOL    HW241297   6.423   7.450   4.680 -1.0737 -1.0089 -0.1039
13286SOL     OW41298   2.861   5.068  11.816  0.2346 -0.8679  0.3444
13286SOL    HW141299   2.851   5.032  11.728  0.7252 -1.0692  0.3705
13286SOL    HW241300   2.954   5.061  11.835  0.8766  2.7927 -0.6688
13287SOL     OW41301   1.307   5.626   7.325 -0.1333  0.2399 -0.2313
13287SOL    HW141302   1.357   5.658   7.250 -1.5691  0.7938 -0.9828
13287SOL    HW241303   1.369   5.632   7.398  0.5572  2.0511 -0.8918
13288SOL     OW41304   6.980   5.654   0.683  0.2708 -0.6102  0.1523
13288SOL    HW141305   6.973   5.559   0.686 -1.5865 -0.4814  2.1759
13288SOL    HW241306   7.011   5.679   0.770 -0.4624  0.6827  0.0738
13289SOL     OW41307   3.333   7.238   8.876 -0.2156 -0.2193 -0.2947
13289SOL    HW141308   3.366   7.168   8.821  0.4588  0.2225 -0.4562
13289SOL    HW241309   3.336   7.202   8.965  0.6507 -0.1986 -0.3154
13290SOL     OW41310   4.400   4.209  11.364 -0.0495 -0.4068 -0.2753
13290SOL    HW141311   4.423   4.241  11.451 -0.3804 -0.2602 -0.2410
13290SOL    HW241312   4.443   4.124  11.358 -0.2947 -0.5621  0.1547
13291SOL     OW41313   5.485   1.422  11.660 -0.6558 -0.4337 -0.4227
13291SOL    HW141314   5.393   1.419  11.632 -0.5677 -1.0349 -0.6814
13291SOL    HW241315   5.534   1.397  11.581 -0.1403  1.6078 -0.7985
13292SOL     OW41316   6.914   4.304  11.392  0.6922 -0.0153 -0.3340
13292SOL    HW141317   6.859   4.336  11.320  1.0571  0.5427 -0.3726
13292SOL    HW241318   7.001   4.339  11.372  0.7978  0.1239  0.3624
13293SOL     OW41319   5.716   1.141   2.616 -0.2843 -0.4049  0.0391
13293SOL    HW141320   5.782   1.210   2.607  0.3203 -0.9984 -0.1327
13293SOL    HW241321   5.675   1.135   2.530 -1.1396  0.5232  0.3630
13294SOL     OW41322   4.490   0.588   7.059 -0.1725  0.4069 -0.4485
13294SOL    HW141323   4.518   0.510   7.107  0.7083  0.7687 -0.3564
13294SOL    HW241324   4.409   0.562   7.016 -0.7264 -0.0903  0.8284
13295SOL     OW41325   6.602   6.988   6.077 -0.1052  0.6490  0.2549
13295SOL    HW141326   6.681   7.018   6.123  1.7722 -0.8420 -1.7697
13295SOL    HW241327   6.544   6.957   6.146  1.7120  0.4030  1.7419
13296SOL     OW41328   6.838   1.470   1.445  0.4364  0.4111 -0.6460
13296SOL    HW141329   6.926   1.484   1.412  0.8306  1.2040  0.6576
13296SOL    HW241330   6.782   1.469   1.367  1.6030 -0.3265 -1.5020
13297SOL     OW41331   6.764   1.191  12.173  0.1200 -0.5237 -0.4270
13297SOL    HW141332   6.795   1.174  12.262 -0.2814 -3.1042 -0.7021
13297SOL    HW241333   6.845   1.197  12.121  0.3200 -0.4746 -0.1134
13298SOL     OW41334   7.252   0.866   4.362 -0.5238 -0.0310  0.0001
13298SOL    HW141335   7.284   0.921   4.433  0.8455  0.2623 -0.8120
13298SOL    HW241336   7.258   0.777   4.395 -0.1678  0.1260  0.3554
13299SOL     OW41337   2.179   6.947   8.605 -0.3255  0.2036  0.1760
13299SOL    HW141338   2.206   7.032   8.641 -1.9127  0.1540  1.6112
13299SOL    HW241339   2.084   6.947   8.614 -0.4335 -1.3494 -0.7135
13300SOL     OW41340   1.774   0.982   1.745 -0.2367 -0.3407 -0.0107
13300SOL    HW141341   1.789   1.032   1.825 -0.4626  1.1297 -0.8646
13300SOL    HW241342   1.685   1.004   1.719 -0.7936 -2.1255  0.2094
13301SOL     OW41343   5.108   2.472   6.224 -0.0069 -0.2092 -0.1593
13301SOL    HW141344   5.110   2.566   6.210  1.1725 -0.0923  0.6165
13301SOL    HW241345   5.096   2.462   6.319  0.5740 -0.8047 -0.1383
13302SOL     OW41346   0.888   7.900   8.202 -0.0870  0.3940  0.5934
13302SOL    HW141347   0.797   7.870   8.200 -0.4935  1.6254  0.0539
13302SOL    HW241348   0.932   7.849   8.134 -0.8380  1.2131 -0.5299
13303SOL     OW41349   4.628   1.759   7.350 -0.1219 -0.3417  0.2495
13303SOL    HW141350   4.599   1.723   7.434 -0.7223  2.6637  1.4640
13303SOL    HW241351   4.724   1.757   7.355 -0.0840  1.9011  2.1363
13304SOL     OW41352   4.378   1.652   0.254  0.0014  0.2781  0.6730
13304SOL    HW141353   4.283   1.668   0.255 -0.3205 -1.4636  0.7056
13304SOL    HW241354   4.394   1.608   0.170  0.4054 -1.3324  1.5478
13305SOL     OW41355   1.344   4.153   7.523 -0.8066 -0.0880 -0.0914
13305SOL    HW141356   1.381   4.082   7.576 -0.7388  0.0140 -0.0004
13305SOL    HW241357   1.414   4.219   7.521 -0.7752 -0.1301 -0.3839
13306SOL     OW41358   2.962   1.193   2.842  0.2152 -0.2595  0.3944
13306SOL    HW141359   3.019   1.266   2.867 -0.1165  0.3165 -0.4824
13306SOL    HW241360   3.021   1.118   2.834  1.0066  0.5057 -1.3061
13307SOL     OW41361   4.450   4.576   1.393  0.2672  0.4858 -0.3884
13307SOL    HW141362   4.363   4.551   1.423  0.7181  1.2698  1.7418
13307SOL    HW241363   4.510   4.517   1.439  0.9507  0.9244 -0.6950
13308SOL     OW41364   5.726   5.576   7.016  0.3815 -0.1442  0.0716
13308SOL    HW141365   5.698   5.499   7.066  0.5163  0.8648  1.7467
13308SOL    HW241366   5.707   5.650   7.073 -0.8945  1.2192 -1.9883
13309SOL     OW41367   0.844   4.591   8.415 -0.7115  0.5664 -0.1075
13309SOL    HW141368   0.797   4.674   8.426 -0.7458  0.5922 -0.4504
13309SOL    HW241369   0.915   4.595   8.479  0.5379  1.7560 -1.4792
13310SOL     OW41370   1.640   7.649   2.044 -0.9134 -0.1389  0.5333
13310SOL    HW141371   1.638   7.594   2.122  1.6088 -0.9857  0.0628
13310SOL    HW241372   1.678   7.594   1.976 -0.6156  1.4119 -0.6135
13311SOL     OW41373   7.604   2.915   3.830 -0.3644  0.6405 -0.3794
13311SOL    HW141374   7.543   2.842   3.823 -0.6152  1.0165 -3.0948
13311SOL    HW241375   7.690   2.875   3.835 -0.3162  0.0144 -3.8518
13312SOL     OW41376   1.841   3.641  10.775 -0.0636  0.0548 -0.9080
13312SOL    HW141377   1.881   3.717  10.734 -0.9210  1.1227  0.1571
13312SOL    HW241378   1.897   3.567  10.750  0.1233  0.8284 -2.9417
13313SOL     OW41379   2.571   1.092   4.696  0.9407  0.6999  0.2459
13313SOL    HW141380   2.642   1.055   4.750  0.5715 -0.6022 -0.1328
13313SOL    HW241381   2.492   1.049   4.728  0.6969 -0.0135 -1.2466
13314SOL     OW41382   2.459   7.500   5.293 -0.2121 -0.6169  0.6227
13314SOL    HW141383   2.510   7.460   5.364  0.8485  0.0805  0.2926
13314SOL    HW241384   2.518   7.497   5.217 -0.6682  0.1923  0.2194
13315SOL     OW41385   4.046   4.049   2.241  0.8853  0.1244 -0.0682
13315SOL    HW141386   4.013   3.978   2.185 -0.1864 -0.4651  1.2673
13315SOL    HW241387   4.057   4.010   2.327  2.8823  0.9324  0.1099
13316SOL     OW41388   2.911   3.709   1.447 -0.1217 -0.3457  0.1112
13316SOL    HW141389   2.955   3.794   1.448 -1.5395  0.4241 -0.5728
13316SOL    HW241390   2.981   3.646   1.464  1.2623  0.8300 -0.9801
13317SOL     OW41391   1.394   4.053   1.862 -0.2970  0.1029 -0.3976
13317SOL    HW141392   1.343   3.981   1.826 -0.2972 -0.7593  1.2264
13317SOL    HW241393   1.459   4.011   1.918 -0.6578  1.3612  1.0307
13318SOL     OW41394   2.030   3.938   9.118  0.0016 -0.0039 -0.7493
13318SOL    HW141395   2.003   4.014   9.067 -0.2257  0.6596  0.3211
13318SOL    HW241396   2.118   3.917   9.085  0.2401  0.9885 -0.7748
13319SOL     OW41397   5.032   5.406  12.031  0.1007 -0.0800 -0.2077
13319SOL    HW141398   4.942   5.392  12.002 -0.3800 -0.0553  1.1906
13319SOL    HW241399   5.084   5.404  11.951 -0.8872 -2.1194 -0.8529
13320SOL     OW41400   3.562   1.815   1.260 -0.1030 -0.1162  0.3523
13320SOL    HW141401   3.572   1.877   1.332  0.0380 -0.2038  0.4078
13320SOL    HW241402   3.482   1.767   1.282 -0.2124  0.0454  0.3084
13321SOL     OW41403   5.859   0.891   5.998  0.0230  0.1461 -0.1545
13321SOL    HW141404   5.878   0.864   5.908 -1.0684 -1.3860  0.0132
13321SOL    HW241405   5.801   0.966   5.989 -0.3655 -0.2156 -0.7607
13322SOL     OW41406   7.246   6.633  11.082 -0.1466  0.4653 -0.0282
13322SOL    HW141407   7.278   6.721  11.062  0.3358  0.0939 -0.9333
13322SOL    HW241408   7.322   6.587  11.116 -0.7744  0.8633  2.1352
13323SOL     OW41409   4.027   6.469  11.246 -0.0554 -0.2417 -0.0049
13323SOL    HW141410   3.990   6.476  11.334 -0.5469 -1.1332 -0.1252
13323SOL    HW241411   4.119   6.446  11.261  0.1648  0.7694  0.2785
13324SOL     OW41412   2.323   3.319   4.034  0.4283 -0.5171 -0.2122
13324SOL    HW141413   2.377   3.393   4.060  0.1271 -0.3850  0.0425
13324SOL    HW241414   2.246   3.323   4.092  0.1738 -0.7353 -0.5282
13325SOL     OW41415   3.335   3.638   0.079  0.4295 -0.2087  0.0680
13325SOL    HW141416   3.348   3.550   0.043  1.4488  0.4991 -1.3607
13325SOL    HW241417   3.308   3.622   0.169  2.6732 -1.9699  0.5251
13326SOL     OW41418   3.650   2.281  12.202  0.2766 -0.2671  0.0332
13326SOL    HW141419   3.657   2.291  12.107  0.3912 -1.7587 -0.1299
13326SOL    HW241420   3.720   2.337  12.237  0.2473  0.2743 -0.7502
13327SOL     OW41421   0.641   6.606  12.161 -0.2190  0.4866 -0.3016
13327SOL    HW141422   0.668   6.682  12.212 -0.3679  0.9950 -0.9828
13327SOL    HW241423   0.697   6.535  12.194 -0.4855  0.7448  0.7470
13328SOL     OW41424   2.335   3.339   1.583 -0.8466  0.1328  0.3903
13328SOL    HW141425   2.269   3.298   1.528 -0.0375 -0.0146 -0.4997
13328SOL    HW241426   2.398   3.269   1.601 -0.3031  0.5666  0.2063
13329SOL     OW41427   7.203   2.590  11.935 -0.2897  0.3142 -0.1755
13329SOL    HW141428   7.175   2.681  11.945  0.0900  0.3040  1.1658
13329SOL    HW241429   7.298   2.593  11.944 -0.2324 -0.1799 -0.5299
13330SOL     OW41430   7.397   7.138   1.431  0.8065  0.2388 -0.1874
13330SOL    HW141431   7.437   7.215   1.470  0.5373 -0.1373  0.8695
13330SOL    HW241432   7.316   7.170   1.392  0.3830  0.4023  0.7975
13331SOL     OW41433   3.975   5.167   8.475  0.2583  0.0173  0.2747
13331SOL    HW141434   3.893   5.179   8.524  0.7997 -0.3139  1.2898
13331SOL    HW241435   3.947   5.141   8.387 -0.7275  0.0592  0.5672
13332SOL     OW41436   7.610   4.732  11.701  0.3847  0.1300  0.1061
13332SOL    HW141437   7.664   4.734  11.780  1.2247 -1.1571 -0.4092
13332SOL    HW241438   7.556   4.653  11.712 -0.0022  0.3406 -0.2834
13333SOL     OW41439   7.000   3.227   0.137  0.1110  0.2370 -0.2022
13333SOL    HW141440   6.966   3.160   0.195 -1.3706  1.0564 -0.0975
13333SOL    HW241441   7.010   3.183   0.053  0.6989 -0.5208  0.2557
13334SOL     OW41442   0.503   6.197   5.969 -0.0746 -0.1135 -0.2442
13334SOL    HW141443   0.574   6.210   5.906  0.2049 -0.5344 -0.0193
13334SOL    HW241444   0.445   6.271   5.955  0.5991  0.4358 -0.1717
13335SOL     OW41445   7.068   2.873   7.905 -0.1815  0.3936  1.0081
13335SOL    HW141446   6.984   2.880   7.951 -0.5961 -0.0482  0.3305
13335SOL    HW241447   7.095   2.783   7.920 -0.2970  0.2610  0.4238
13336SOL     OW41448   3.223   6.028   1.396  0.6587 -0.0922  0.1565
13336SOL    HW141449   3.215   5.957   1.459  0.2231 -1.3715 -1.2722
13336SOL    HW241450   3.287   5.997   1.332 -0.4689  0.2322 -1.1794
13337SOL     OW41451   7.864   6.675   8.660 -0.0215 -0.2328  0.7728
13337SOL    HW141452   7.954   6.671   8.628 -0.2268  0.1170  0.1353
13337SOL    HW241453   7.872   6.686   8.754  0.6093  0.4961  0.6396
13338SOL     OW41454   5.939   6.118   3.127 -0.0500  0.0686  0.4997
13338SOL    HW141455   6.016   6.174   3.128 -0.5515  0.9730 -2.2098
13338SOL    HW241456   5.972   6.032   3.099  0.2077  0.0154  0.9731
13339SOL     OW41457   0.851   2.531  11.477  0.0446 -0.0018 -0.6733
13339SOL    HW141458   0.914   2.497  11.540  0.9683  1.1804 -0.9176
13339SOL    HW241459   0.902   2.590  11.421 -1.3353  1.2632 -0.6668
13340SOL     OW41460   4.617   1.774   4.246 -0.0446 -0.1881  0.2845
13340SOL    HW141461   4.699   1.789   4.200  0.0715 -0.1204  0.5093
13340SOL    HW241462   4.624   1.684   4.280 -0.2674 -0.3543 -0.1078
13341SOL     OW41463   2.170   7.906   4.739  0.5445  0.3961 -0.4687
13341SOL    HW141464   2.153   7.829   4.794  3.0568 -0.8030 -1.1907
13341SOL    HW241465   2.159   7.980   4.798  0.4012 -0.6660  0.9077
13342SOL     OW41466   0.651   3.858   6.554 -0.1753 -0.3927  0.2275
13342SOL    HW141467   0.668   3.892   6.466 -1.9600 -2.0736 -0.8404
13342SOL    HW241468   0.687   3.770   6.553 -0.7357 -0.6398  0.9763
13343SOL     OW41469   3.577   4.870   1.479  0.5773  0.5899  0.2171
13343SOL    HW141470   3.660   4.919   1.484  0.5322  0.6823  0.0630
13343SOL    HW241471   3.509   4.937   1.486  0.5127  0.5005  0.4801
13344SOL     OW41472   2.620   6.509   1.063 -0.1060  0.1245 -0.7178
13344SOL    HW141473   2.546   6.499   1.122  0.8131 -0.3715  0.3875
13344SOL    HW241474   2.621   6.429   1.011 -1.7782  1.1731 -2.4666
13345SOL     OW41475   7.187   0.518   2.454 -0.0940 -0.1995  0.2950
13345SOL    HW141476   7.144   0.495   2.371  1.2789 -1.6873 -0.0476
13345SOL    HW241477   7.146   0.461   2.519 -0.1756 -0.0411  0.3838
13346SOL     OW41478   1.326   3.804   8.958 -0.0622  0.0959 -0.0428
13346SOL    HW141479   1.286   3.723   8.929 -0.2011  0.4690 -0.9159
13346SOL    HW241480   1.407   3.811   8.908  0.7480 -0.2816  1.1779
13347SOL     OW41481   4.028   3.118   9.747 -0.4037  0.7267 -0.4639
13347SOL    HW141482   3.980   3.059   9.806  0.8667 -0.4920 -0.6068
13347SOL    HW241483   3.996   3.206   9.770 -1.0728  0.1449  0.9542
13348SOL     OW41484   5.014   5.975  12.141 -0.7091 -0.2775 -0.1054
13348SOL    HW141485   5.105   6.001  12.158 -0.7603 -0.2291  0.0974
13348SOL    HW241486   4.977   5.957  12.228 -1.0096  0.0932 -0.1524
13349SOL     OW41487   2.125   0.899  11.357  0.0783 -0.6475 -0.2697
13349SOL    HW141488   2.202   0.935  11.401  0.4938  0.0681 -1.5198
13349SOL    HW241489   2.135   0.804  11.365  1.7567 -0.6270 -1.4201
13350SOL     OW41490   1.089   5.806   7.200 -0.2902 -0.2820  0.0003
13350SOL    HW141491   1.073   5.899   7.185  1.5883  0.3435  1.3649
13350SOL    HW241492   1.136   5.776   7.122 -0.7484 -0.0343 -0.3669
13351SOL     OW41493   7.684   4.752   1.548 -0.3030 -0.2888 -0.7370
13351SOL    HW141494   7.613   4.727   1.488  0.7453 -1.5244 -1.5103
13351SOL    HW241495   7.746   4.679   1.544  0.7350  0.4963  0.3756
13352SOL     OW41496   5.144   3.675   5.728 -0.6987 -0.2113 -0.1658
13352SOL    HW141497   5.118   3.611   5.663 -0.2632 -2.0224  1.3609
13352SOL    HW241498   5.068   3.683   5.786  0.0028 -1.0984  0.9321
13353SOL     OW41499   4.838   6.829   9.854 -0.4264 -0.2211  0.0114
13353SOL    HW141500   4.808   6.815   9.764 -0.3830  1.7607 -0.3610
13353SOL    HW241501   4.927   6.792   9.855  0.4546  1.6413 -1.4663
13354SOL     OW41502   2.584   5.535   8.860 -0.4536  0.5714 -0.0589
13354SOL    HW141503   2.524   5.517   8.788 -0.5831  1.3758 -0.1567
13354SOL    HW241504   2.570   5.627   8.881 -1.1835  0.0863  1.7141
13355SOL     OW41505   1.089   3.814   1.980  0.4303  0.4928 -0.1713
13355SOL    HW141506   1.151   3.841   1.912  1.0589 -0.0149  0.1878
13355SOL    HW241507   1.081   3.890   2.037  0.4710  0.6662 -0.3930
13356SOL     OW41508   5.664   1.847   9.867  0.0930  0.9473  0.4827
13356SOL    HW141509   5.665   1.932   9.823  0.3157  0.7646  0.1288
13356SOL    HW241510   5.755   1.834   9.894  1.1225 -1.1465 -3.3053
13357SOL     OW41511   4.647   2.585   4.460 -0.5038 -0.0104 -0.0012
13357SOL    HW141512   4.648   2.681   4.456 -1.9000  0.0311  0.2202
13357SOL    HW241513   4.558   2.563   4.487 -0.2179 -1.3841 -0.1099
13358SOL     OW41514   7.740   6.044   3.286  0.0945  0.2671  0.1206
13358SOL    HW141515   7.735   5.953   3.317  0.1053  0.2173 -0.0221
13358SOL    HW241516   7.678   6.092   3.342 -0.0017  0.1494  0.1154
13359SOL     OW41517   6.939   7.890   6.005  0.2051 -0.5987  1.0406
13359SOL    HW141518   6.843   7.885   6.008  0.2699 -3.3436  1.2772
13359SOL    HW241519   6.960   7.883   5.912  0.1682 -0.8346  1.0473
13360SOL     OW41520   7.395   5.031  10.278 -0.3133  0.5079 -0.0036
13360SOL    HW141521   7.305   5.059  10.296 -0.3295  0.8982 -0.6463
13360SOL    HW241522   7.388   4.978  10.199  0.0273  0.6003 -0.0967
13361SOL     OW41523   2.945   1.261   4.592 -0.1013 -0.3833 -0.1371
13361SOL    HW141524   3.023   1.251   4.537  0.8400 -1.9275  1.3931
13361SOL    HW241525   2.891   1.185   4.570 -0.9884  0.4425 -0.8626
13362SOL     OW41526   2.810   2.725   7.332  0.2454 -0.3672 -0.2702
13362SOL    HW141527   2.829   2.635   7.356 -0.1656 -0.4140 -0.1070
13362SOL    HW241528   2.833   2.730   7.239 -0.3666 -0.8314 -0.4561
13363SOL     OW41529   6.847   0.644  11.966 -0.1476 -0.2861  0.5880
13363SOL    HW141530   6.848   0.702  12.042  1.8449  1.6833 -0.7987
13363SOL    HW241531   6.903   0.570  11.991  0.2850  0.2127  1.1192
13364SOL     OW41532   5.080   0.531   0.078 -0.0392  0.2517  0.3240
13364SOL    HW141533   5.141   0.603   0.090  0.9266 -0.6086  0.7734
13364SOL    HW241534   5.065   0.528  -0.017  0.2941  0.7274  0.2545
13365SOL     OW41535   5.314   5.324   6.382  0.0723 -0.2943 -0.2863
13365SOL    HW141536   5.335   5.389   6.450  0.9893  0.5192 -1.3122
13365SOL    HW241537   5.247   5.365   6.329  0.0048 -0.5616 -0.4097
13366SOL     OW41538   7.521   3.784   2.021  0.3031  0.0596  0.1319
13366SOL    HW141539   7.469   3.830   2.087  1.6217  0.0329  1.2352
13366SOL    HW241540   7.575   3.853   1.982  0.6233 -0.1691  0.1673
13367SOL     OW41541   2.467   7.247   6.498  0.2091  0.0870  0.0677
13367SOL    HW141542   2.558   7.232   6.524  0.2252  0.3073  0.1437
13367SOL    HW241543   2.444   7.171   6.444  0.3650 -0.0803  0.2378
13368SOL     OW41544   5.854   3.327   7.434 -0.1230 -0.3244 -0.8414
13368SOL    HW141545   5.887   3.309   7.522  0.5951  0.2636 -0.9767
13368SOL    HW241546   5.788   3.259   7.418  1.1657 -1.6824 -0.6301
13369SOL     OW41547   2.188   0.624   2.497  0.1845 -0.2437 -0.2567
13369SOL    HW141548   2.264   0.679   2.478 -0.0397 -0.0210 -0.4988
13369SOL    HW241549   2.155   0.656   2.581  0.8062 -0.8315  0.2305
13370SOL     OW41550   7.495   4.319   9.662 -0.3436 -0.0267 -0.0842
13370SOL    HW141551   7.552   4.352   9.593 -0.7846  0.2960 -0.2946
13370SOL    HW241552   7.515   4.374   9.738  2.2667 -2.1905  0.9685
13371SOL     OW41553   0.462   7.778   0.150 -0.2175 -0.0339 -0.1618
13371SOL    HW141554   0.495   7.773   0.240  1.1459  4.9730 -0.0724
13371SOL    HW241555   0.537   7.810   0.099 -1.0198 -2.4809 -3.1678
13372SOL     OW41556   0.056   2.731   8.317 -0.0361  0.1565  0.9230
13372SOL    HW141557   0.113   2.791   8.366  1.4150 -0.4029 -0.0049
13372SOL    HW241558   0.117   2.672   8.272 -1.3463 -0.2556 -0.3814
13373SOL     OW41559   4.809   6.746   8.263  0.3560  0.2825  0.0092
13373SOL    HW141560   4.721   6.764   8.227  0.3053  1.4376  0.6670
13373SOL    HW241561   4.854   6.830   8.259  1.7245 -0.4510 -1.0093
13374SOL     OW41562   1.360   0.087  10.378  0.0933  0.3962 -0.0618
13374SOL    HW141563   1.363   0.001  10.335 -0.5913  1.5605 -2.6347
13374SOL    HW241564   1.266   0.104  10.390  0.1187  1.5606 -1.3297
13375SOL     OW41565   1.362   4.229   5.292 -0.2816 -0.0466 -0.0527
13375SOL    HW141566   1.410   4.275   5.223 -0.3789 -0.3898 -0.3553
13375SOL    HW241567   1.281   4.279   5.302  0.1265  0.5176  0.4413
13376SOL     OW41568   1.026   1.952   4.674 -0.1928 -0.2175  0.1269
13376SOL    HW141569   1.003   2.034   4.717 -1.5125 -0.8014  0.5813
13376SOL    HW241570   0.994   1.962   4.584  0.0442 -0.0798  0.0550
13377SOL     OW41571   2.543   6.594   8.702  0.0520 -0.1745 -0.5806
13377SOL    HW141572   2.483   6.521   8.718  2.2614 -1.5643  2.3561
13377SOL    HW241573   2.488   6.672   8.705 -1.8252 -1.4694  0.4300
13378SOL     OW41574   7.398   4.204   0.557  0.5465  0.0672 -0.4234
13378SOL    HW141575   7.415   4.152   0.635  0.8772 -1.3975 -1.4380
13378SOL    HW241576   7.386   4.293   0.590 -0.4161 -0.6834  1.4075
13379SOL     OW41577   7.284   0.204   2.312  0.4829  0.0621  0.1353
13379SOL    HW141578   7.271   0.165   2.398  0.6564 -1.7303 -0.5914
13379SOL    HW241579   7.366   0.253   2.320  1.4366 -1.5107  0.5813
13380SOL     OW41580   6.077   0.667   7.314 -0.1154 -0.2824 -0.1696
13380SOL    HW141581   6.151   0.706   7.268 -0.6352  0.4545 -0.4028
13380SOL    HW241582   6.001   0.687   7.258 -0.5822 -0.4312  0.3989
13381SOL     OW41583   5.358   6.614   3.987  0.3309 -0.0896  0.0006
13381SOL    HW141584   5.439   6.660   4.009 -0.0955  1.1186 -0.8854
13381SOL    HW241585   5.381   6.521   3.993  1.1786  0.1892  1.9106
13382SOL     OW41586   6.103   0.234  10.024  0.3770 -0.5550 -0.1849
13382SOL    HW141587   6.009   0.249  10.010  0.8193  0.5193 -2.5532
13382SOL    HW241588   6.130   0.304  10.083  0.2239  1.1119 -1.9943
13383SOL     OW41589   0.873   5.857  11.902  0.5563 -0.0349  0.4667
13383SOL    HW141590   0.777   5.852  11.897  0.5607  0.5077 -0.4420
13383SOL    HW241591   0.891   5.897  11.987  0.0139 -0.8797  0.9928
13384SOL     OW41592   4.821   0.727   4.680 -0.7511  0.1558 -0.2412
13384SOL    HW141593   4.729   0.706   4.666 -1.0427 -0.8341  2.5222
13384SOL    HW241594   4.868   0.646   4.660 -0.5900  0.3438 -0.6326
13385SOL     OW41595   4.864   5.233   7.103  0.1964 -0.1254 -0.7369
13385SOL    HW141596   4.867   5.224   7.008 -0.5509 -0.1276 -0.7613
13385SOL    HW241597   4.954   5.255   7.127  0.0790  1.4580 -1.6054
13386SOL     OW41598   6.299   0.906   6.061 -0.3744 -0.8992  0.1489
13386SOL    HW141599   6.249   0.917   6.142  0.2249  0.0846  0.3952
13386SOL    HW241600   6.348   0.987   6.052  1.7281 -2.0892  0.2892
13387SOL     OW41601   2.562   2.128   8.778  0.2007  0.0115 -0.1981
13387SOL    HW141602   2.613   2.111   8.857 -0.7656 -1.4838  0.1519
13387SOL    HW241603   2.606   2.077   8.710  1.2516  1.5882 -0.7615
13388SOL     OW41604   5.530   0.397   2.991 -0.2456  0.0133 -0.5100
13388SOL    HW141605   5.540   0.306   2.961 -3.6367  0.3507 -3.3162
13388SOL    HW241606   5.605   0.443   2.955  1.2173 -1.4888  0.4565
13389SOL     OW41607   1.765   5.110   4.572 -0.3656 -0.1511 -0.0264
13389SOL    HW141608   1.709   5.053   4.625 -0.5854  0.6567  0.6138
13389SOL    HW241609   1.718   5.193   4.568  0.9251  0.6526  0.8025
13390SOL     OW41610   6.436   0.554   8.122  0.3020 -0.0710 -0.0808
13390SOL    HW141611   6.426   0.618   8.051 -1.6415  1.1311  1.1715
13390SOL    HW241612   6.440   0.470   8.077  0.0839  0.7081 -1.6644
13391SOL     OW41613   0.588   7.905   7.973  0.0815 -0.1962  0.2314
13391SOL    HW141614   0.652   7.976   7.980  0.2414 -0.2661 -0.5321
13391SOL    HW241615   0.581   7.871   8.063 -0.6486  1.3437  0.7850
13392SOL     OW41616   7.186   1.274   5.358  0.5196  0.0599 -0.7477
13392SOL    HW141617   7.280   1.262   5.357  0.6001  0.2062  1.3032
13392SOL    HW241618   7.152   1.197   5.404 -0.2433  0.5668 -0.4397
13393SOL     OW41619   3.962   2.488   3.867  0.7016 -0.1026 -0.2843
13393SOL    HW141620   4.038   2.521   3.820  1.4355 -0.0393  0.9012
13393SOL    HW241621   3.888   2.504   3.808  1.5892 -0.0749 -1.4069
13394SOL     OW41622   3.163   2.491  10.814  0.0742  0.2515 -0.1393
13394SOL    HW141623   3.239   2.434  10.803  0.4921  0.2818  2.1057
13394SOL    HW241624   3.182   2.567  10.759  1.6766  0.2403  0.3376
13395SOL     OW41625   7.510   6.936   5.512  0.4385  0.7959  0.5981
13395SOL    HW141626   7.449   6.967   5.445  0.0661 -3.6061 -1.4546
13395SOL    HW241627   7.596   6.967   5.482  0.1579 -0.2906 -1.5770
13396SOL     OW41628   6.139   3.505  11.147 -0.4104  0.1583  0.2804
13396SOL    HW141629   6.232   3.523  11.162  0.1867 -1.4194 -1.2798
13396SOL    HW241630   6.133   3.410  11.147 -1.5987  0.1955 -1.9082
13397SOL     OW41631   1.584   6.518   4.631 -0.3137 -0.2827  0.3498
13397SOL    HW141632   1.595   6.481   4.544  1.8681 -0.5678  0.6708
13397SOL    HW241633   1.506   6.475   4.666 -0.3734 -1.2504 -0.9135
13398SOL     OW41634   7.003   3.659   6.534 -0.1890  0.3797  0.0584
13398SOL    HW141635   7.074   3.722   6.523  0.2321 -0.2763 -1.0992
13398SOL    HW241636   6.925   3.713   6.544  0.3737  1.1034  0.7229
13399SOL     OW41637   0.272   7.318  11.233 -0.4751 -0.1001 -0.5341
13399SOL    HW141638   0.238   7.229  11.234 -0.1684 -0.3058 -2.9379
13399SOL    HW241639   0.221   7.363  11.301 -0.9297 -1.9660  0.4351
13400SOL     OW41640   2.795   0.787   2.074 -0.2247 -0.5901 -0.6513
13400SOL    HW141641   2.705   0.818   2.083 -0.4239 -1.0463 -1.0574
13400SOL    HW241642   2.824   0.823   1.990  0.4795  0.7881  0.1357
13401SOL     OW41643   0.919   2.218   2.906 -0.3088  0.1908  0.0891
13401SOL    HW141644   0.893   2.309   2.921  2.7229  0.9193  1.9197
13401SOL    HW241645   0.940   2.214   2.812  1.1707  1.9651  0.2813
13402SOL     OW41646   5.448   7.832   8.359  1.0016 -0.4541 -0.0723
13402SOL    HW141647   5.390   7.856   8.287  2.0146  0.4780 -0.6065
13402SOL    HW241648   5.408   7.753   8.396 -0.1127 -0.3497 -0.9715
13403SOL     OW41649   3.896   6.882   6.631 -0.1365 -0.0048 -0.0094
13403SOL    HW141650   3.814   6.852   6.670 -0.1247 -1.5123 -1.1075
13403SOL    HW241651   3.914   6.965   6.676 -1.6247 -0.2411  1.0966
13404SOL     OW41652   5.507   4.353   6.092 -0.9292 -0.0469 -0.1378
13404SOL    HW141653   5.465   4.398   6.018 -1.2488  0.4488  0.3355
13404SOL    HW241654   5.572   4.415   6.124 -1.3747  0.0871  0.5230
13405SOL     OW41655   0.876   3.106   6.698 -0.0693 -0.5254 -0.0342
13405SOL    HW141656   0.954   3.054   6.720 -0.9623 -2.4078 -1.0734
13405SOL    HW241657   0.881   3.118   6.603  0.0197  1.2102  0.1606
13406SOL     OW41658   3.786   1.247   9.136 -0.3474  0.0098  0.2636
13406SOL    HW141659   3.785   1.162   9.092  0.2916  0.5924 -0.9134
13406SOL    HW241660   3.799   1.225   9.229  2.7968 -1.1290 -0.3085
13407SOL     OW41661   3.592   5.115   8.324  0.3471 -0.9094  0.0187
13407SOL    HW141662   3.547   5.044   8.369 -1.3567 -0.7113 -1.2776
13407SOL    HW241663   3.631   5.167   8.395  0.5413 -2.3965  1.0493
13408SOL     OW41664   4.350   0.503  10.900  0.4022 -0.1577  0.9827
13408SOL    HW141665   4.259   0.528  10.912  0.2654 -0.5892  0.8410
13408SOL    HW241666   4.377   0.466  10.984 -0.0724 -1.6474  0.5050
13409SOL     OW41667   1.771   5.014   8.569  0.3771 -0.1302 -0.3864
13409SOL    HW141668   1.790   5.015   8.475 -0.3415  0.8584 -0.5371
13409SOL    HW241669   1.817   5.090   8.604  0.0849 -0.0977 -0.0628
13410SOL     OW41670   5.239   0.111   3.106  0.1301 -0.1604 -0.0751
13410SOL    HW141671   5.260   0.181   3.044  1.9146 -0.0834  0.5397
13410SOL    HW241672   5.211   0.038   3.050  0.9005  0.1703 -0.9270
13411SOL     OW41673   2.687   1.128   2.386  0.6690  0.3025  0.1684
13411SOL    HW141674   2.600   1.146   2.348  1.1298  1.8329 -0.2445
13411SOL    HW241675   2.745   1.124   2.310  1.3043  1.5620  0.5546
13412SOL     OW41676   6.932   5.746   3.502  0.6515 -0.1711  0.0814
13412SOL    HW141677   6.976   5.774   3.421  0.1420 -0.2864 -0.2390
13412SOL    HW241678   6.995   5.767   3.571  0.7777  0.6575 -0.2651
13413SOL     OW41679   3.425   1.540   5.861 -0.2110 -0.1146  0.5016
13413SOL    HW141680   3.441   1.546   5.955  0.2958  2.6363  0.3109
13413SOL    HW241681   3.330   1.538   5.853 -0.3235 -3.2286  1.0868
13414SOL     OW41682   3.808   4.758   8.439 -0.9537 -0.2315 -0.3142
13414SOL    HW141683   3.886   4.770   8.492 -1.0918  0.5769 -0.2782
13414SOL    HW241684   3.763   4.684   8.478 -0.6335 -0.1656  0.1851
13415SOL     OW41685   1.685   3.954   5.390  0.3428  0.2650  0.1899
13415SOL    HW141686   1.726   3.887   5.444  2.5347  0.3580 -1.2285
13415SOL    HW241687   1.657   3.907   5.311  1.1638  0.8379 -0.4618
13416SOL     OW41688   5.901   5.163   6.114 -0.2772  0.2622  0.3013
13416SOL    HW141689   5.810   5.194   6.115 -0.0954  0.8042  0.2206
13416SOL    HW241690   5.895   5.072   6.087 -0.9078 -0.0758  1.5058
13417SOL     OW41691   0.677   3.729  10.162 -0.5916  0.1073  0.1017
13417SOL    HW141692   0.662   3.819  10.190 -0.5373  0.9305 -2.2524
13417SOL    HW241693   0.590   3.689  10.164 -0.6749  0.3031  0.7997
13418SOL     OW41694   5.876   2.431   1.486 -0.1843 -0.7219  0.0057
13418SOL    HW141695   5.941   2.425   1.556  0.3499 -0.5960 -0.4759
13418SOL    HW241696   5.804   2.375   1.516  0.0604 -0.7186  0.6273
13419SOL     OW41697   2.434   3.995   0.010 -0.1421  0.0614 -0.1594
13419SOL    HW141698   2.463   3.971  -0.079 -1.0623 -0.5900 -0.2936
13419SOL    HW241699   2.341   3.973   0.012  0.2135 -1.5459  1.4971
13420SOL     OW41700   3.803   3.314  11.664 -0.3820 -0.5736 -0.0934
13420SOL    HW141701   3.761   3.256  11.601  0.3259 -0.1557 -0.9647
13420SOL    HW241702   3.856   3.256  11.719 -0.3142 -0.8476 -0.4434
13421SOL     OW41703   2.851   3.291   2.158  0.1482  0.7441 -0.4878
13421SOL    HW141704   2.825   3.234   2.230  1.7108  2.4751  1.5583
13421SOL    HW241705   2.784   3.275   2.091 -0.8209 -1.6628  0.8861
13422SOL     OW41706   3.255   5.597  11.897  0.5380 -0.0054  0.2873
13422SOL    HW141707   3.296   5.534  11.836  0.3423 -3.9015  3.7250
13422SOL    HW241708   3.173   5.622  11.853  1.9132  0.1434 -2.4310
13423SOL     OW41709   4.953   7.340   3.139  0.3092  0.0683  0.1754
13423SOL    HW141710   4.917   7.411   3.086 -0.2013 -0.9518 -0.8879
13423SOL    HW241711   4.993   7.384   3.214 -1.4286  1.3724  0.3961
13424SOL     OW41712   0.128   5.070   9.669  0.0947  0.0336 -0.1335
13424SOL    HW141713   0.149   5.144   9.726 -0.3570 -0.2360  0.3979
13424SOL    HW241714   0.211   5.048   9.626  0.4911  0.1031  0.5818
13425SOL     OW41715   6.837   6.204   2.693  0.1023 -0.0937  0.1610
13425SOL    HW141716   6.885   6.258   2.631  1.7962 -0.7196  0.8662
13425SOL    HW241717   6.840   6.253   2.775  0.3468 -0.5756  0.4400
13426SOL     OW41718   7.037   4.246   4.988 -0.7921 -0.2915  0.2397
13426SOL    HW141719   7.058   4.263   4.896 -3.7970 -1.9890 -0.8996
13426SOL    HW241720   6.992   4.325   5.017 -2.9552 -1.0075 -0.9301
13427SOL     OW41721   1.863   6.471  10.337 -0.0142  0.0363 -0.1168
13427SOL    HW141722   1.853   6.388  10.382  0.0838 -1.2155 -2.2671
13427SOL    HW241723   1.951   6.468  10.299 -0.1502  0.9441 -0.5353
13428SOL     OW41724   7.919   7.459   5.908  0.0785  0.2321  0.3654
13428SOL    HW141725   7.982   7.473   5.979  2.1023  0.0534 -1.2694
13428SOL    HW241726   7.939   7.371   5.876  0.2227  0.8478 -1.3304
13429SOL     OW41727   4.508   4.697   8.445  0.4731 -0.1835  0.4417
13429SOL    HW141728   4.428   4.709   8.496  0.6935 -0.7159  0.9286
13429SOL    HW241729   4.533   4.785   8.417 -0.7379 -0.0938 -0.4343
13430SOL     OW41730   7.432   6.700   0.303  0.0995  0.2262  0.4793
13430SOL    HW141731   7.400   6.789   0.290 -0.5217 -0.0861 -0.1987
13430SOL    HW241732   7.524   6.704   0.278 -0.4633  0.1906 -1.8463
13431SOL     OW41733   4.169   7.910   5.401  0.7082 -0.3112 -0.7208
13431SOL    HW141734   4.249   7.857   5.403  0.1326 -1.2055 -0.9510
13431SOL    HW241735   4.194   7.988   5.352  1.4604 -0.5588 -0.7464
13432SOL     OW41736   7.542   5.506   7.500 -0.3293  0.7006  1.0249
13432SOL    HW141737   7.627   5.487   7.538 -0.3913 -1.7760  0.0896
13432SOL    HW241738   7.561   5.562   7.425  0.5850 -0.3393  0.4488
13433SOL     OW41739   5.930   4.839   0.141 -0.2550  0.0461 -0.3753
13433SOL    HW141740   5.935   4.906   0.073  0.2887  1.4554  1.0025
13433SOL    HW241741   5.989   4.870   0.210 -2.1834 -0.3440  1.5551
13434SOL     OW41742   6.123   2.010  11.086  0.0361  0.3822  0.5484
13434SOL    HW141743   6.208   1.982  11.122 -0.8032 -0.5373  1.9460
13434SOL    HW241744   6.078   2.051  11.161 -1.0974  0.0194  0.0875
13435SOL     OW41745   7.928   7.728   2.921  0.8038  0.2339 -0.1669
13435SOL    HW141746   8.017   7.696   2.936  1.1099  0.9623 -0.3559
13435SOL    HW241747   7.939   7.800   2.858  0.0226 -0.0061 -0.5877
13436SOL     OW41748   5.123   1.021   8.499  0.6249  0.3828  0.0588
13436SOL    HW141749   5.050   0.959   8.506  1.0714 -0.2813 -0.9553
13436SOL    HW241750   5.187   0.989   8.563  0.9960 -0.4296 -0.6947
13437SOL     OW41751   4.170   6.927   3.148  0.4121 -0.5124 -0.1404
13437SOL    HW141752   4.077   6.912   3.164  0.4068 -1.9720 -1.2584
13437SOL    HW241753   4.210   6.925   3.234 -0.2336 -2.8512  0.1833
13438SOL     OW41754   0.660   3.239   5.986 -0.3286  0.6102 -0.1149
13438SOL    HW141755   0.594   3.213   6.049  0.8213  0.7838  1.2133
13438SOL    HW241756   0.742   3.206   6.022  0.2752 -0.0983 -1.9931
13439SOL     OW41757   3.528   6.320   5.502 -0.0600 -0.8301  0.0988
13439SOL    HW141758   3.483   6.392   5.546  1.1336  1.3459 -1.9986
13439SOL    HW241759   3.614   6.316   5.544 -0.2614 -1.3030  0.4704
13440SOL     OW41760   4.953   2.372  11.997 -0.4829 -0.0465 -0.1102
13440SOL    HW141761   4.987   2.458  11.974  2.0996 -1.0187 -0.2403
13440SOL    HW241762   4.913   2.384  12.083 -0.3141  1.2846 -0.1989
13441SOL     OW41763   4.606   6.656   8.897 -0.3760 -0.0425 -0.2269
13441SOL    HW141764   4.627   6.714   8.970 -2.6690 -0.6648  0.9972
13441SOL    HW241765   4.644   6.572   8.922 -0.4659 -0.0553 -0.1325
13442SOL     OW41766   3.626   4.454   1.160  0.1783 -0.2633 -0.0764
13442SOL    HW141767   3.690   4.516   1.196 -1.3253  0.9469  0.6216
13442SOL    HW241768   3.544   4.503   1.155 -1.2932 -2.3776  1.2618
13443SOL     OW41769   1.275   5.882  11.084  0.0127 -0.1665  0.2642
13443SOL    HW141770   1.203   5.892  11.021  0.8305 -1.1424 -0.8767
13443SOL    HW241771   1.333   5.817  11.043  0.2648 -1.3112  2.3220
13444SOL     OW41772   1.296   4.199   8.219 -0.2798 -0.0973 -0.3830
13444SOL    HW141773   1.316   4.291   8.201 -0.5505 -0.0781 -0.6006
13444SOL    HW241774   1.380   4.159   8.237  0.0758 -0.2416 -2.2646
13445SOL     OW41775   2.278   6.957   5.240 -0.3694  0.7269 -0.3066
13445SOL    HW141776   2.254   7.045   5.270  0.8094  0.9577  0.0123
13445SOL    HW241777   2.354   6.971   5.183  1.0653 -0.2335  1.2899
13446SOL     OW41778   7.566   2.887  10.907  0.2844 -0.4114  0.1638
13446SOL    HW141779   7.479   2.920  10.886  0.4469 -0.2938 -0.3392
13446SOL    HW241780   7.612   2.963  10.943 -0.5703 -1.0286  2.8195
13447SOL     OW41781   2.397   1.388  10.581 -0.2417  0.1378 -0.4200
13447SOL    HW141782   2.362   1.316  10.634 -0.7194 -1.0909 -2.2839
13447SOL    HW241783   2.394   1.464  10.638  1.5005 -1.5303  2.0994
13448SOL     OW41784   6.459   0.160   6.031  0.1943 -0.6302 -0.1912
13448SOL    HW141785   6.407   0.093   5.986 -1.6555 -0.2931  1.2886
13448SOL    HW241786   6.403   0.238   6.031  0.6872 -0.2320  1.4464
13449SOL     OW41787   1.588   0.180   4.752 -0.2775 -0.7091 -0.0287
13449SOL    HW141788   1.563   0.210   4.664 -2.6908 -0.7251  0.5847
13449SOL    HW241789   1.672   0.221   4.768 -0.2856  0.1640 -1.9323
13450SOL     OW41790   3.034   3.040  10.368 -0.7809  0.4119  0.3635
13450SOL    HW141791   3.093   3.048  10.443 -1.6101  1.5072  0.9146
13450SOL    HW241792   3.005   2.948  10.370  1.0836 -0.2321 -0.0905
13451SOL     OW41793   0.675   2.782   0.845  0.4757  0.3391  0.2316
13451SOL    HW141794   0.738   2.835   0.894 -0.1984  1.8890 -0.5000
13451SOL    HW241795   0.591   2.799   0.888  0.4386 -1.2547  0.8442
13452SOL     OW41796   6.466   5.673   9.645 -0.6497  0.4805  0.4389
13452SOL    HW141797   6.544   5.714   9.683  0.9076  1.0860 -3.0473
13452SOL    HW241798   6.432   5.617   9.715  3.2601 -0.2559  2.0044
13453SOL     OW41799   0.582   5.866   0.681 -0.1725  0.2866  0.6389
13453SOL    HW141800   0.655   5.928   0.688 -1.4702  1.7662  1.9564
13453SOL    HW241801   0.504   5.920   0.694 -1.6475 -0.9880 -2.0240
13454SOL     OW41802   3.113   7.216   9.255 -0.2408 -0.1630 -0.6651
13454SOL    HW141803   3.024   7.249   9.241 -0.4564 -0.7244 -0.6583
13454SOL    HW241804   3.117   7.136   9.203 -0.3537 -1.1471  0.7873
13455SOL     OW41805   1.855   0.353   7.026 -0.4643  0.2658  0.1355
13455SOL    HW141806   1.857   0.337   6.932 -1.4190  0.8914  0.0003
13455SOL    HW241807   1.930   0.411   7.042  1.1787 -1.7404  0.1688
13456SOL     OW41808   6.921   7.342   8.911  0.2255  0.0969 -0.3308
13456SOL    HW141809   6.967   7.406   8.966  0.0792  0.6578 -0.8544
13456SOL    HW241810   6.835   7.333   8.951  0.6796 -0.7707  0.5091
13457SOL     OW41811   5.517   5.281   1.591 -0.3878 -0.2160 -0.5204
13457SOL    HW141812   5.520   5.299   1.497  0.4429  2.2666 -0.0814
13457SOL    HW241813   5.424   5.290   1.614 -0.2968  1.5671 -0.7317
13458SOL     OW41814   5.647   1.244  10.705 -0.0803 -0.3124 -0.1273
13458SOL    HW141815   5.701   1.288  10.771 -0.1720  2.4967 -1.7656
13458SOL    HW241816   5.701   1.243  10.626 -0.4952 -2.3354 -0.4327
13459SOL     OW41817   5.740   1.922   4.332  0.3166 -0.0601  0.0233
13459SOL    HW141818   5.775   1.839   4.298  2.9935  0.7344  0.5827
13459SOL    HW241819   5.786   1.989   4.282 -0.1279  1.0914  1.1095
13460SOL     OW41820   5.958   1.015  10.050  0.1061  0.0895 -0.0886
13460SOL    HW141821   5.951   0.981   9.960  0.3497  0.8290 -0.3989
13460SOL    HW241822   6.052   1.018  10.067  0.1823  2.0114 -0.6424
13461SOL     OW41823   2.347   2.765  11.961  0.0982  0.5952 -0.1758
13461SOL    HW141824   2.408   2.755  11.888 -1.7279 -0.8419 -1.6117
13461SOL    HW241825   2.337   2.677  11.997 -1.2780  0.7198 -0.1700
13462SOL     OW41826   3.715   0.409  12.039 -0.2731  0.1971  0.4320
13462SOL    HW141827   3.743   0.499  12.022 -0.7458  0.3154  0.2668
13462SOL    HW241828   3.731   0.363  11.956  1.0529 -0.1599  0.8554
13463SOL     OW41829   6.004   6.196   6.353  0.2698  0.5416  0.7303
13463SOL    HW141830   5.978   6.193   6.261  0.0144 -0.3769  0.8236
13463SOL    HW241831   6.047   6.112   6.368  0.6099  0.8250  1.3680
13464SOL     OW41832   4.256   0.941   6.069 -0.2328  0.2327  0.3016
13464SOL    HW141833   4.285   0.982   5.987 -0.0306 -1.5417 -0.5753
13464SOL    HW241834   4.162   0.932   6.059 -0.1585 -0.3441  0.0683
13465SOL     OW41835   1.634   3.201   4.258  0.3502  0.0873  0.0011
13465SOL    HW141836   1.553   3.247   4.282 -0.0420 -1.1794  1.1897
13465SOL    HW241837   1.703   3.246   4.307  0.3549  0.9703 -0.7764
13466SOL     OW41838   0.524   4.167  10.094  0.7317  0.3451 -0.2471
13466SOL    HW141839   0.496   4.177  10.003  1.2951  0.6529 -0.3959
13466SOL    HW241840   0.444   4.178  10.146  0.2649 -0.6227 -0.7376
13467SOL     OW41841   1.519   3.305   6.092 -0.0449  0.1814  0.1301
13467SOL    HW141842   1.481   3.384   6.132  1.9198  0.7823  0.9558
13467SOL    HW241843   1.610   3.329   6.075 -0.1725 -0.9180 -2.5113
13468SOL     OW41844   6.682   1.760   0.799 -0.6117 -0.6511  0.1562
13468SOL    HW141845   6.690   1.768   0.894  0.3475 -1.3257  0.1536
13468SOL    HW241846   6.626   1.684   0.786 -1.3222 -0.1389  0.1735
13469SOL     OW41847   4.292   1.532   8.981  0.2557  0.2327  0.0047
13469SOL    HW141848   4.221   1.577   9.026 -0.6258 -1.6058  0.5693
13469SOL    HW241849   4.264   1.529   8.889  0.9303  1.8910 -0.2873
13470SOL     OW41850   7.501   5.889   1.525  0.2181  0.2729 -0.0867
13470SOL    HW141851   7.486   5.971   1.572  2.8320  0.6925  0.1762
13470SOL    HW241852   7.435   5.888   1.456 -0.8398  1.8335  0.8504
13471SOL     OW41853   1.202   4.541   0.351  0.4107  0.2093 -0.2225
13471SOL    HW141854   1.127   4.572   0.299 -0.0308  1.9977  1.3814
13471SOL    HW241855   1.266   4.512   0.285 -0.4484  1.5723 -1.7425
13472SOL     OW41856   7.673   3.190   4.398  0.0152 -0.2649 -0.1578
13472SOL    HW141857   7.598   3.214   4.453  0.9045  0.3156  0.8387
13472SOL    HW241858   7.719   3.272   4.383  1.6268 -0.8893  1.0414
13473SOL     OW41859   6.961   6.362   3.706 -0.3049 -0.3351 -0.0702
13473SOL    HW141860   6.920   6.321   3.630 -0.1675  0.1504 -0.4094
13473SOL    HW241861   6.936   6.454   3.701 -0.7540 -0.4011  0.7814
13474SOL     OW41862   5.925   0.944   7.471  0.2618  0.3685 -0.1257
13474SOL    HW141863   5.919   1.028   7.425 -0.7687 -0.4143 -1.5106
13474SOL    HW241864   5.838   0.930   7.507  0.6669  0.2795  0.8381
13475SOL     OW41865   2.269   3.347   0.049  0.5421 -0.3976 -0.0024
13475SOL    HW141866   2.249   3.436   0.079  1.4399  0.0900 -0.8120
13475SOL    HW241867   2.344   3.320   0.102  0.7362 -0.3866 -0.2698
13476SOL     OW41868   7.706   1.534   9.257  0.0099  0.0597 -0.1526
13476SOL    HW141869   7.624   1.500   9.292 -0.9440 -2.1508 -4.0125
13476SOL    HW241870   7.683   1.618   9.217 -0.2407 -0.2155 -0.5943
13477SOL     OW41871   7.672   3.409   8.644 -0.2854 -0.3617 -0.1934
13477SOL    HW141872   7.706   3.420   8.554  0.1121  0.2858  0.0244
13477SOL    HW241873   7.751   3.399   8.697 -0.4255  0.9871  0.3000
13478SOL     OW41874   2.157   1.357  10.381  0.1775 -0.5377 -0.2434
13478SOL    HW141875   2.118   1.287  10.433 -0.8173  0.5163  0.4508
13478SOL    HW241876   2.242   1.373  10.422  0.8849 -2.0105 -1.0361
13479SOL     OW41877   3.404   2.267  10.778 -0.2866 -0.0155 -0.0519
13479SOL    HW141878   3.496   2.281  10.758  0.2185 -1.4874  1.0900
13479SOL    HW241879   3.366   2.237  10.695  0.1027  1.1640 -0.6819
13480SOL     OW41880   1.659   7.092  10.431 -0.1014  0.0390  0.1422
13480SOL    HW141881   1.706   7.127  10.506 -0.9400 -0.0465  0.7128
13480SOL    HW241882   1.723   7.096  10.359  0.2062  1.5857  0.4757
13481SOL     OW41883   5.236   7.690   3.644 -0.1300  0.1587 -0.2798
13481SOL    HW141884   5.154   7.648   3.621 -0.6694  0.0742  1.5958
13481SOL    HW241885   5.226   7.780   3.613  0.0559 -0.4260 -2.1443
13482SOL     OW41886   0.205   0.200   6.597 -0.5936 -0.0760 -0.4200
13482SOL    HW141887   0.117   0.240   6.592 -0.6901 -0.3776 -1.3970
13482SOL    HW241888   0.263   0.274   6.614 -0.8486  0.4037 -1.5227
13483SOL     OW41889   3.410   5.421   4.333 -0.4924 -0.1128  0.2688
13483SOL    HW141890   3.373   5.333   4.339 -0.1445 -0.3408 -0.6389
13483SOL    HW241891   3.470   5.416   4.258 -1.0280  1.0858 -0.2684
13484SOL     OW41892   6.118   3.907  12.322 -0.2032  0.0523 -0.4454
13484SOL    HW141893   6.046   3.914  12.259  0.1627 -0.2160 -0.9100
13484SOL    HW241894   6.085   3.948  12.402 -1.5881 -1.7853 -0.0068
13485SOL     OW41895   0.629   2.564   5.495  0.5689  0.0675 -0.4365
13485SOL    HW141896   0.635   2.502   5.421  0.5623  0.9070 -1.1618
13485SOL    HW241897   0.712   2.611   5.493  0.6326 -0.0165  0.2048
13486SOL     OW41898   6.621   7.137   7.092 -0.5962  0.2156  0.1910
13486SOL    HW141899   6.600   7.144   7.185 -1.6883 -2.4781  0.2202
13486SOL    HW241900   6.537   7.144   7.048  0.0052  2.4243 -0.7466
13487SOL     OW41901   2.973   1.365   6.174  0.1075  0.1218  0.5628
13487SOL    HW141902   3.043   1.314   6.214 -1.1458 -0.4694  2.0846
13487SOL    HW241903   2.893   1.319   6.198 -0.8130  0.4944 -1.5593
13488SOL     OW41904   4.894   1.466   7.841 -0.5092 -0.4914 -0.6308
13488SOL    HW141905   4.921   1.550   7.876 -0.1401 -0.7326 -0.3234
13488SOL    HW241906   4.802   1.477   7.818 -1.2059 -0.7385  1.7599
13489SOL     OW41907   2.104   0.417   7.055  0.1024 -0.5829  0.2390
13489SOL    HW141908   2.149   0.342   7.017  0.8852 -0.0411  0.0840
13489SOL    HW241909   2.172   0.483   7.065 -0.0244 -0.7283  2.6928
13490SOL     OW41910   1.335   1.003   1.446 -0.3125  0.5492 -0.2407
13490SOL    HW141911   1.418   0.956   1.444 -0.7100 -0.1343 -1.0389
13490SOL    HW241912   1.291   0.979   1.365 -0.4613  2.4483 -0.7775
13491SOL     OW41913   3.203   4.365  10.573  0.2862 -0.5788  0.1030
13491SOL    HW141914   3.206   4.336  10.664 -0.6522  0.0876  0.3644
13491SOL    HW241915   3.154   4.297  10.527  1.5338 -1.3617 -0.0965
13492SOL     OW41916   7.552   2.360   1.683 -0.3991  0.5613  0.0407
13492SOL    HW141917   7.609   2.383   1.609  0.6841  0.3829  0.7841
13492SOL    HW241918   7.569   2.428   1.748 -0.2489 -0.0626  0.6702
13493SOL     OW41919   3.860   6.832  12.307  0.0383 -0.5860  0.0165
13493SOL    HW141920   3.770   6.856  12.331 -0.0561 -0.8074 -0.1119
13493SOL    HW241921   3.899   6.914  12.276  0.0999 -0.3381  0.7296
13494SOL     OW41922   3.342   5.829  10.687  0.0634  0.1623  0.3033
13494SOL    HW141923   3.371   5.898  10.627  1.2418  0.4381  1.1376
13494SOL    HW241924   3.277   5.871  10.743  1.5269  0.9806  1.5007
13495SOL     OW41925   3.396   7.218   3.881  0.0817  0.3391  0.6811
13495SOL    HW141926   3.313   7.205   3.834 -0.3299  2.1756  0.8223
13495SOL    HW241927   3.376   7.284   3.947  0.9945 -1.2289  2.6446
13496SOL     OW41928   4.744   3.050   6.163  0.1896 -0.2686  0.2442
13496SOL    HW141929   4.744   2.954   6.157 -1.8323 -0.2962 -0.3020
13496SOL    HW241930   4.686   3.069   6.237  0.7184  0.5432  0.4615
13497SOL     OW41931   4.927   7.821   5.760  0.2823 -0.2750  0.4471
13497SOL    HW141932   4.881   7.839   5.678 -0.4298 -1.7113  0.4843
13497SOL    HW241933   4.882   7.874   5.825 -0.8102 -1.0128  0.3265
13498SOL     OW41934   3.129   5.097   7.582  0.0733  0.0433  0.1688
13498SOL    HW141935   3.177   5.036   7.638  0.3020 -0.1936 -0.2863
13498SOL    HW241936   3.190   5.170   7.569 -0.8782  1.3424  2.3270
13499SOL     OW41937   4.399   4.902   3.823 -0.3974  0.3661 -0.1719
13499SOL    HW141938   4.411   4.994   3.847 -0.7093  0.1833  0.7477
13499SOL    HW241939   4.404   4.901   3.728  0.9643  1.1495 -0.1463
13500SOL     OW41940   4.552   0.756   4.658  0.1995 -0.1426  0.2356
13500SOL    HW141941   4.547   0.762   4.753 -1.0878  0.3218  0.1591
13500SOL    HW241942   4.513   0.838   4.627  0.8936 -0.1431 -0.6945
13501SOL     OW41943   1.374   7.654   0.078  0.0663 -0.1333  0.3855
13501SOL    HW141944   1.347   7.717   0.011 -0.4841  0.4622  1.1431
13501SOL    HW241945   1.358   7.569   0.039 -0.6878  0.2131 -0.0748
13502SOL     OW41946   4.553   7.166   8.723  0.0522 -0.2583 -0.1815
13502SOL    HW141947   4.509   7.207   8.797  0.5871  1.2629 -0.6752
13502SOL    HW241948   4.646   7.185   8.736 -0.0372  2.9046 -2.8165
13503SOL     OW41949   0.673   7.672   0.577 -0.5400 -0.4007  0.0709
13503SOL    HW141950   0.629   7.751   0.547 -3.3303 -2.2777 -1.2990
13503SOL    HW241951   0.639   7.658   0.665 -0.1237 -0.1031  0.2756
13504SOL     OW41952   2.079   4.658   3.482  0.0066  0.1323 -0.3915
13504SOL    HW141953   2.148   4.621   3.426  1.2670 -0.4065  1.4379
13504SOL    HW241954   2.122   4.726   3.533 -1.3159  1.2027 -0.6441
13505SOL     OW41955   7.453   5.060   8.426  0.3808 -0.0866  0.2689
13505SOL    HW141956   7.450   5.143   8.474  3.0266  0.1939  0.0961
13505SOL    HW241957   7.489   5.082   8.341  0.0225 -1.2653 -0.2147
13506SOL     OW41958   2.646   3.839  11.691 -0.7677 -0.0060 -0.0669
13506SOL    HW141959   2.688   3.759  11.725  1.0309  1.1554  0.6425
13506SOL    HW241960   2.573   3.808  11.638  1.3961 -2.2732 -1.9975
13507SOL     OW41961   7.139   6.238   8.129 -0.2001  0.1591 -0.2435
13507SOL    HW141962   7.092   6.253   8.047 -0.3061 -0.6052 -0.3242
13507SOL    HW241963   7.135   6.323   8.174  0.3621  0.7496 -1.2725
13508SOL     OW41964   3.367   7.856  10.185  0.3571 -0.1779 -0.2963
13508SOL    HW141965   3.316   7.869  10.264  0.2964 -0.4792 -0.2835
13508SOL    HW241966   3.450   7.819  10.215  1.4439  2.1914 -0.0976
13509SOL     OW41967   2.644   0.866   5.777  0.0482  0.1392 -0.4569
13509SOL    HW141968   2.562   0.876   5.730  0.3658  0.7114 -0.8966
13509SOL    HW241969   2.674   0.955   5.794 -1.3428  0.0738  3.1352
13510SOL     OW41970   0.542   4.347   6.695  0.0665  0.0993 -0.1541
13510SOL    HW141971   0.502   4.431   6.718  0.0174 -0.0955  0.4817
13510SOL    HW241972   0.636   4.364   6.696  0.0425  0.2543 -0.4543
13511SOL     OW41973   7.674   3.093   6.143 -0.0584  0.0697  0.1700
13511SOL    HW141974   7.651   3.003   6.166 -1.6072  0.2002 -0.6601
13511SOL    HW241975   7.676   3.140   6.226 -2.0082 -0.1791  0.4014
13512SOL     OW41976   2.076   6.824   9.812  0.6647 -0.2249  0.5302
13512SOL    HW141977   2.006   6.764   9.836 -1.2820  1.9030  0.4828
13512SOL    HW241978   2.127   6.835   9.893  0.4935 -1.1809  0.7817
13513SOL     OW41979   5.083   6.905   2.568 -0.1740  0.8092 -0.0207
13513SOL    HW141980   5.116   6.976   2.622 -1.4039  0.7122  0.8890
13513SOL    HW241981   5.105   6.931   2.478 -1.7667  2.9960  0.1635
13514SOL     OW41982   4.546   0.686   7.650 -0.7754  0.7166  0.4592
13514SOL    HW141983   4.461   0.681   7.694 -0.5547  0.2910  0.8484
13514SOL    HW241984   4.531   0.644   7.565 -0.9701  0.7010  0.5008
13515SOL     OW41985   3.161   6.782   3.067 -0.3404 -0.1053 -0.0264
13515SOL    HW141986   3.074   6.758   3.035 -1.4105  1.0716  1.8340
13515SOL    HW241987   3.185   6.859   3.016 -0.7997  0.1238  0.1041
13516SOL     OW41988   5.986   5.688   8.177 -0.1704  0.3569  0.4478
13516SOL    HW141989   6.001   5.761   8.117  0.1982  0.2878  0.4512
13516SOL    HW241990   5.904   5.710   8.223  0.6138  1.4262  1.4051
13517SOL     OW41991   5.942   5.127   8.909 -0.1435 -0.4874  0.0383
13517SOL    HW141992   5.922   5.048   8.958  1.1718 -0.6052  0.4290
13517SOL    HW241993   6.018   5.164   8.954  0.8894 -0.4031 -1.6876
13518SOL     OW41994   2.868   1.613   8.348  0.0945  0.3742 -0.1083
13518SOL    HW141995   2.774   1.600   8.352  0.0050  0.9539 -0.2598
13518SOL    HW241996   2.886   1.682   8.413  0.5809 -0.5865  0.8168
13519SOL     OW41997   2.981   5.580  12.142 -0.0667 -0.3811 -0.1146
13519SOL    HW141998   2.900   5.575  12.192  1.3930 -2.9857  2.2527
13519SOL    HW241999   2.961   5.536  12.059 -0.9339 -1.5686  0.6941
13520SOL     OW42000   5.934   0.499   6.000  0.0420 -0.4889  0.0449
13520SOL    HW142001   5.917   0.515   5.908 -0.3965 -0.6592  0.0947
13520SOL    HW242002   5.870   0.554   6.046  0.3825 -0.2587  0.2498
13521SOL     OW42003   1.460   5.779   1.526 -0.1799  0.0613 -0.0643
13521SOL    HW142004   1.455   5.686   1.504 -2.1771 -0.3696  1.8497
13521SOL    HW242005   1.554   5.797   1.533  0.3554 -1.1283 -2.8831
13522SOL     OW42006   3.727   2.229   5.414  0.0305 -0.2661  0.5939
13522SOL    HW142007   3.681   2.312   5.401  2.4888  0.9600 -1.1975
13522SOL    HW242008   3.813   2.255   5.449  0.4917 -2.1493  0.9692
13523SOL     OW42009   1.219   6.884  10.325 -0.0588  0.5670  0.2419
13523SOL    HW142010   1.292   6.945  10.335 -0.4828  1.4170 -1.4787
13523SOL    HW242011   1.257   6.810  10.276 -0.2333  0.7995 -0.2489
13524SOL     OW42012   0.233   2.528   2.413 -0.5567  0.4936 -0.2084
13524SOL    HW142013   0.203   2.438   2.427  0.4931  0.2746  0.7666
13524SOL    HW242014   0.154   2.581   2.423 -0.8625 -0.1627  1.2157
13525SOL     OW42015   3.377   5.106  10.959 -0.1490 -0.4430 -0.0353
13525SOL    HW142016   3.454   5.162  10.951 -0.6501  0.1199 -1.0539
13525SOL    HW242017   3.408   5.030  11.007  0.7153  0.3892  0.7780
13526SOL     OW42018   7.198   0.464   0.066  0.1374  0.0528 -0.2743
13526SOL    HW142019   7.162   0.519  -0.004 -1.6217  1.5843  1.6989
13526SOL    HW242020   7.199   0.521   0.143  1.0026 -1.8720  1.2249
13527SOL     OW42021   6.165   5.648  12.115 -0.1960  0.3685 -0.6224
13527SOL    HW142022   6.234   5.630  12.179 -0.9052 -0.4830 -0.0771
13527SOL    HW242023   6.119   5.564  12.105 -2.2781  1.3058  0.3798
13528SOL     OW42024   4.713   5.677   1.634  0.3391 -0.6391 -0.2538
13528SOL    HW142025   4.735   5.770   1.634  0.1489 -0.5918 -0.7809
13528SOL    HW242026   4.617   5.675   1.637  0.3449 -0.8413  2.7002
13529SOL     OW42027   0.939   6.550   8.117 -0.0807 -0.2298  0.0984
13529SOL    HW142028   1.028   6.523   8.094  0.0776  0.9659 -0.7921
13529SOL    HW242029   0.886   6.471   8.108  0.2911 -0.2433 -2.7111
13530SOL     OW42030   1.051   7.612  11.530 -0.4284 -0.1916  0.4523
13530SOL    HW142031   1.136   7.656  11.531 -1.0010  1.0003 -0.6102
13530SOL    HW242032   1.022   7.614  11.621  0.6515 -0.6126  0.8313
13531SOL     OW42033   5.179   7.850  10.710 -0.0132 -0.0157  0.0511
13531SOL    HW142034   5.162   7.938  10.676 -0.3444 -0.0064  0.2391
13531SOL    HW242035   5.094   7.806  10.705  0.0917 -0.2369  0.2184
13532SOL     OW42036   6.982   3.949   6.379  0.0158  0.6779  0.0564
13532SOL    HW142037   7.001   3.955   6.286  1.1257  0.6087  0.2731
13532SOL    HW242038   6.886   3.946   6.383 -0.0177 -0.5027 -1.1378
13533SOL     OW42039   2.185   6.078   0.149 -0.0071 -0.2447  0.3440
13533SOL    HW142040   2.121   6.023   0.104 -0.2510  0.1920  0.1451
13533SOL    HW242041   2.266   6.027   0.149 -0.0057 -0.2586 -0.5928
13534SOL     OW42042   1.873   5.854  11.400 -0.6177 -0.6368 -0.0626
13534SOL    HW142043   1.896   5.923  11.462 -0.2648 -1.0915  0.3227
13534SOL    HW242044   1.779   5.865  11.386 -0.4970  0.1695 -0.3199
13535SOL     OW42045   2.965   0.184   3.183 -0.3645 -0.0196  0.2876
13535SOL    HW142046   3.029   0.134   3.133 -0.2343  0.2165  0.2136
13535SOL    HW242047   2.881   0.167   3.140 -0.2364  0.2711 -0.0824
13536SOL     OW42048   0.436   1.907   1.718  0.1718 -0.6512 -0.3290
13536SOL    HW142049   0.342   1.921   1.715  0.5234  1.9955 -1.8685
13536SOL    HW242050   0.451   1.831   1.662 -1.0570 -1.4525  0.3753
13537SOL     OW42051   7.528   5.445   3.128 -0.0804  0.6458  0.1920
13537SOL    HW142052   7.473   5.480   3.058  0.9765  0.1442 -0.9233
13537SOL    HW242053   7.578   5.520   3.159 -0.5383  0.8659  0.4123
13538SOL     OW42054   7.086   1.631  10.196 -0.4858  0.8928  0.3984
13538SOL    HW142055   6.995   1.659  10.181 -0.6372  1.2891  1.9320
13538SOL    HW242056   7.079   1.537  10.213 -0.3535  0.5117 -1.4240
13539SOL     OW42057   3.918   3.831   5.051  0.2207  0.0956  0.4570
13539SOL    HW142058   3.874   3.763   5.000  1.6519 -1.4121  1.1185
13539SOL    HW242059   3.907   3.911   5.000 -0.2550 -0.9177 -1.1008
13540SOL     OW42060   1.299   4.919   7.947 -0.2515  0.6803 -0.4834
13540SOL    HW142061   1.224   4.967   7.913 -1.6814  0.5228  2.1917
13540SOL    HW242062   1.269   4.828   7.953  0.3914  0.4870 -0.0387
13541SOL     OW42063   3.980   7.043  10.557  0.2836  0.0689  0.0389
13541SOL    HW142064   4.046   7.055  10.624 -0.1148  1.1225  0.2677
13541SOL    HW242065   3.993   6.954  10.525  0.9824 -0.1673  0.9583
13542SOL     OW42066   0.358   5.917   9.849  0.1463  0.2462 -0.2008
13542SOL    HW142067   0.337   6.010   9.860 -0.5455 -0.0253  1.0390
13542SOL    HW242068   0.289   5.884   9.791 -0.0248  0.3639 -0.0669
13543SOL     OW42069   5.810   4.415  11.774  0.0763  0.5174 -0.3359
13543SOL    HW142070   5.894   4.418  11.820  0.6467  1.2421 -1.3658
13543SOL    HW242071   5.798   4.323  11.751  0.3886  0.3494  0.1511
13544SOL     OW42072   5.853   5.049   2.433 -0.2781 -0.2476  0.1492
13544SOL    HW142073   5.882   5.096   2.511  0.0007 -3.1434  1.9272
13544SOL    HW242074   5.934   5.023   2.389 -0.4028 -0.2241 -0.0941
13545SOL     OW42075   6.354   1.488   7.723  0.2314 -0.3070 -0.4484
13545SOL    HW142076   6.258   1.487   7.730  0.3633 -0.2093  2.8710
13545SOL    HW242077   6.373   1.429   7.651 -2.3066 -1.2291 -0.4782
13546SOL     OW42078   3.226   4.584   4.179 -0.5305 -0.3573 -0.3926
13546SOL    HW142079   3.322   4.581   4.177 -0.5189 -1.0711  0.6228
13546SOL    HW242080   3.199   4.522   4.112 -0.2726 -0.7987 -0.0968
13547SOL     OW42081   2.025   6.664   3.734  0.6930 -0.2580  0.5773
13547SOL    HW142082   1.996   6.662   3.643  0.0022  0.4576  0.7626
13547SOL    HW242083   1.970   6.732   3.774 -1.2883 -2.6762  2.3066
13548SOL     OW42084   6.465   4.364   1.988  0.4665  0.5122  0.5999
13548SOL    HW142085   6.395   4.377   2.052 -0.3867 -0.3465 -0.1307
13548SOL    HW242086   6.432   4.296   1.930  1.2089  1.2866 -0.7734
13549SOL     OW42087   5.577   2.663   9.437  0.2920  0.1543 -0.3407
13549SOL    HW142088   5.580   2.668   9.532  1.4710 -0.0984 -0.3480
13549SOL    HW242089   5.587   2.569   9.417  0.4278  0.2439 -0.7129
13550SOL     OW42090   5.567   4.500   7.804  0.0910  0.3484 -0.2630
13550SOL    HW142091   5.601   4.584   7.776  2.1056 -0.5346 -0.6310
13550SOL    HW242092   5.620   4.435   7.758 -0.8389 -1.1374  0.6332
13551SOL     OW42093   1.325   0.845   3.903  0.3070 -0.1795  0.3485
13551SOL    HW142094   1.358   0.777   3.963 -0.6874  0.3700  1.5764
13551SOL    HW242095   1.234   0.820   3.887  0.2167  0.3489  0.0317
13552SOL     OW42096   7.049   0.163   1.246  0.2822 -0.1871 -0.3610
13552SOL    HW142097   7.038   0.145   1.152 -1.4930  1.3967 -0.5228
13552SOL    HW242098   7.018   0.084   1.290 -1.0935 -0.0735 -1.0898
13553SOL     OW42099   1.298   3.737   3.153 -0.1013 -0.3551 -0.3780
13553SOL    HW142100   1.305   3.682   3.075 -2.2017  0.6637 -1.3607
13553SOL    HW242101   1.205   3.736   3.176  0.3157  0.1548  1.5487
13554SOL     OW42102   4.707   5.753   9.107 -0.1986 -0.3466  0.5820
13554SOL    HW142103   4.663   5.669   9.093  0.2408 -0.4728 -0.0600
13554SOL    HW242104   4.800   5.730   9.114 -0.0903  0.0723  0.5105
13555SOL     OW42105   6.994   4.359   3.480  0.1232 -0.0747  0.4862
13555SOL    HW142106   6.906   4.380   3.512  0.0837  0.6306 -0.0492
13555SOL    HW242107   6.989   4.267   3.455  0.2343 -0.7340  2.7031
13556SOL     OW42108   3.820   7.331   3.109 -0.4518  0.2211 -0.1819
13556SOL    HW142109   3.809   7.425   3.098  2.6010  0.5044 -1.9730
13556SOL    HW242110   3.778   7.292   3.032  1.0787  0.4521 -1.1881
13557SOL     OW42111   0.008   6.375   7.857 -0.2084 -0.4370  0.1443
13557SOL    HW142112  -0.082   6.343   7.846 -0.6558  0.9292 -0.3280
13557SOL    HW242113  -0.001   6.458   7.904  0.8506 -0.4933  0.4731
13558SOL     OW42114   0.602   7.287  10.963 -0.4936  0.0886 -0.1486
13558SOL    HW142115   0.551   7.257  11.038  0.2932  0.6804  0.6370
13558SOL    HW242116   0.587   7.221  10.896 -2.4916  0.3568 -0.0369
13559SOL     OW42117   7.297   0.615   7.830 -0.3010  0.5818 -1.2150
13559SOL    HW142118   7.303   0.685   7.895  0.6562 -0.3208 -0.3169
13559SOL    HW242119   7.285   0.662   7.747  0.1252  1.8116 -0.6125
13560SOL     OW42120   7.322   3.855   8.852  0.1485 -0.1446 -0.2467
13560SOL    HW142121   7.289   3.871   8.940  0.3920  1.6869 -0.4582
13560SOL    HW242122   7.320   3.940   8.809  0.5510 -0.8955 -1.8510
13561SOL     OW42123   6.235   0.185   3.070  0.1035 -0.0964 -0.1743
13561SOL    HW142124   6.160   0.238   3.097 -0.1353 -0.6355  0.2551
13561SOL    HW242125   6.239   0.195   2.975 -0.2043  0.3312 -0.1467
13562SOL     OW42126   4.873   7.850   2.660  0.1725  0.2911  0.2542
13562SOL    HW142127   4.883   7.755   2.666 -0.5761  0.2825  2.5766
13562SOL    HW242128   4.908   7.873   2.574  0.9760 -1.9954 -0.0973
13563SOL     OW42129   6.506   5.814  12.294  0.3689 -0.9431  0.2202
13563SOL    HW142130   6.586   5.780  12.254  0.7553 -1.3267  1.2745
13563SOL    HW242131   6.493   5.899  12.253  1.8068 -0.4889  0.6364
13564SOL     OW42132   1.907   3.486   4.261  0.2744  0.4004 -0.1370
13564SOL    HW142133   1.881   3.399   4.290 -0.8684  0.9068  0.4439
13564SOL    HW242134   1.995   3.498   4.298  0.2751 -0.3415  0.1286
13565SOL     OW42135   0.201   4.655   2.710 -0.0456 -1.1855 -0.0792
13565SOL    HW142136   0.200   4.722   2.779 -0.7477 -0.6545 -0.5946
13565SOL    HW242137   0.132   4.594   2.735 -1.1333 -0.3342 -0.9356
13566SOL     OW42138   0.736   6.861  10.441  0.0838 -0.1695  0.1639
13566SOL    HW142139   0.690   6.795  10.492  0.3165 -0.7736 -0.3838
13566SOL    HW242140   0.678   6.936  10.441 -1.0510 -1.0069 -0.7419
13567SOL     OW42141   4.569   0.015   6.943 -0.1854 -0.6850  0.5045
13567SOL    HW142142   4.654  -0.006   6.983  0.4167 -0.9511 -0.8817
13567SOL    HW242143   4.586   0.020   6.850 -1.7249 -0.8280  0.1811
13568SOL     OW42144   0.828   7.053   2.026 -0.5071 -0.2824  0.1913
13568SOL    HW142145   0.886   7.118   2.066 -0.8070  0.3225 -0.3572
13568SOL    HW242146   0.888   6.994   1.979 -0.4107  1.3176 -1.8102
13569SOL     OW42147   7.225   7.482   9.763  0.1190  0.7206 -0.0125
13569SOL    HW142148   7.228   7.542   9.838 -1.2059  0.3866  0.3314
13569SOL    HW242149   7.132   7.470   9.746  0.3851 -0.3860 -0.7754
13570SOL     OW42150   6.558   7.780   1.647 -0.5460 -0.0814  0.1242
13570SOL    HW142151   6.637   7.785   1.701  0.2439  1.3097 -1.1052
13570SOL    HW242152   6.511   7.862   1.665 -1.1978 -0.4327  0.0622
13571SOL     OW42153   1.326   0.659  12.362  0.0645  0.2916  0.6126
13571SOL    HW142154   1.397   0.663  12.297  0.0856 -1.1965  0.5105
13571SOL    HW242155   1.371   0.668  12.446  0.1184  1.5074  0.4682
13572SOL     OW42156   6.749   5.428   9.711  0.3758 -0.2145 -0.5261
13572SOL    HW142157   6.837   5.390   9.702  0.0937 -0.6917 -1.4434
13572SOL    HW242158   6.692   5.353   9.724  0.0919  0.0922  0.0192
13573SOL     OW42159   6.750   1.408   8.724 -0.1969 -0.7353  0.2967
13573SOL    HW142160   6.688   1.474   8.757 -0.6410 -0.6986 -0.5898
13573SOL    HW242161   6.712   1.325   8.752 -1.1613 -0.7700 -1.0322
13574SOL     OW42162   7.797   1.621   4.421 -0.1009 -0.6741  0.0592
13574SOL    HW142163   7.811   1.531   4.391 -0.2397 -0.3151 -1.1033
13574SOL    HW242164   7.821   1.675   4.347  0.1576  0.2736  0.8170
13575SOL     OW42165   0.816   7.114   2.668  0.1027 -0.0692 -0.1492
13575SOL    HW142166   0.765   7.048   2.622  2.1096 -2.4965  0.8464
13575SOL    HW242167   0.882   7.143   2.604  1.0343 -1.2348  0.2585
13576SOL     OW42168   0.706   2.873   7.009 -0.2461  1.1695  0.0318
13576SOL    HW142169   0.680   2.880   6.917 -1.2540  3.0340  0.4152
13576SOL    HW242170   0.624   2.856   7.056  0.3172 -0.1917  0.5812
13577SOL     OW42171   6.642   4.918   1.502 -0.3324  0.3046  0.3449
13577SOL    HW142172   6.561   4.953   1.539 -0.0651  1.9079 -0.5097
13577SOL    HW242173   6.683   4.993   1.458  0.6898 -0.9060 -0.8493
13578SOL     OW42174   4.801   7.088   4.119  0.2236  0.2726  0.0585
13578SOL    HW142175   4.800   7.074   4.214  1.4010 -1.3610 -0.1270
13578SOL    HW242176   4.886   7.130   4.103  1.0717 -1.5363 -0.4710
13579SOL     OW42177   4.704   2.869   5.873  0.2728 -0.6473  0.1312
13579SOL    HW142178   4.689   2.810   5.799 -2.1970 -1.0813  0.8784
13579SOL    HW242179   4.676   2.955   5.842 -0.0939 -0.6966  0.3101
13580SOL     OW42180   1.774   7.800   0.277  0.6899 -0.6106  0.2409
13580SOL    HW142181   1.686   7.783   0.312 -0.2031  1.7710 -0.6662
13580SOL    HW242182   1.783   7.737   0.205 -1.1649  0.4409 -0.9982
13581SOL     OW42183   4.996   0.307   8.664 -0.4891 -0.9117 -0.2880
13581SOL    HW142184   4.966   0.370   8.729 -0.2428  0.4524 -1.4332
13581SOL    HW242185   5.086   0.287   8.690 -0.0238  0.4488 -0.7758
13582SOL     OW42186   1.482   0.337   7.942 -0.1358 -0.1858 -0.9532
13582SOL    HW142187   1.481   0.415   7.997  0.6272 -0.7140 -0.1560
13582SOL    HW242188   1.545   0.278   7.985 -1.9409 -1.9391 -0.5369
13583SOL     OW42189   7.912   1.844   4.546  0.2763 -0.3727  0.1485
13583SOL    HW142190   7.873   1.760   4.522  0.7114 -0.9300  1.2936
13583SOL    HW242191   8.005   1.824   4.558  0.0059 -0.3232  2.8831
13584SOL     OW42192   4.141   0.979   3.348  0.0652  0.7073 -0.0693
13584SOL    HW142193   4.105   1.059   3.387 -1.2890  0.2272 -0.2949
13584SOL    HW242194   4.090   0.965   3.269  0.8223  0.0417 -0.4596
13585SOL     OW42195   1.860   5.763  10.939  0.9092  0.0410  0.4988
13585SOL    HW142196   1.915   5.832  10.976 -0.2110  1.9018 -1.1422
13585SOL    HW242197   1.789   5.752  11.003 -0.1627  2.1141 -0.2627
13586SOL     OW42198   7.263   4.828   8.781  0.4628  0.1363  0.3121
13586SOL    HW142199   7.291   4.918   8.800  1.0074  0.0581 -0.0802
13586SOL    HW242200   7.320   4.774   8.835  0.7154 -0.0040 -0.0899
13587SOL     OW42201   3.279   7.336   2.794 -0.0061 -0.0671  0.4685
13587SOL    HW142202   3.203   7.383   2.761  0.5584  1.2775  1.0198
13587SOL    HW242203   3.352   7.397   2.784  0.9705 -1.2396  0.1704
13588SOL     OW42204   6.437   5.218   8.347 -0.1115  0.6011  0.7344
13588SOL    HW142205   6.510   5.274   8.318 -0.7620  0.9205 -0.3413
13588SOL    HW242206   6.365   5.279   8.363 -0.3749  0.2094  1.0424
13589SOL     OW42207   3.340   6.807   5.422  0.7494  0.2840 -0.2356
13589SOL    HW142208   3.435   6.797   5.420  0.8897  1.5185 -0.4012
13589SOL    HW242209   3.320   6.860   5.346 -0.0089  0.5481  0.1414
13590SOL     OW42210   5.614   7.070   2.911 -0.3475 -0.1243 -0.3308
13590SOL    HW142211   5.658   6.986   2.928 -1.8946 -1.1746 -1.2098
13590SOL    HW242212   5.656   7.103   2.831  0.2172 -0.0852 -0.0233
13591SOL     OW42213   1.812   4.554   9.188 -1.1079 -0.0350 -0.2933
13591SOL    HW142214   1.775   4.478   9.144 -1.1912 -1.5216  2.1911
13591SOL    HW242215   1.737   4.602   9.222 -0.9659 -0.5041  0.7163
13592SOL     OW42216   7.356   6.507   7.432 -0.4749 -0.8769  0.0600
13592SOL    HW142217   7.321   6.591   7.462  2.8846  0.7869 -0.3008
13592SOL    HW242218   7.333   6.446   7.501 -0.4253  0.9950  1.8138
13593SOL     OW42219   3.453   5.240   5.799  0.0517 -0.1371  0.5282
13593SOL    HW142220   3.402   5.318   5.823  0.9848  0.3732  0.9205
13593SOL    HW242221   3.470   5.250   5.705  0.0302  0.0620  0.5450
13594SOL     OW42222   6.094   2.132   9.993  0.0770 -0.3846 -0.0138
13594SOL    HW142223   5.999   2.136   9.979  0.2393 -0.7227 -1.3087
13594SOL    HW242224   6.105   2.066  10.062 -0.6206 -0.4708  0.0204
13595SOL     OW42225   7.664   3.000   9.689 -0.5731 -0.5682  0.0036
13595SOL    HW142226   7.724   2.938   9.648  0.2309 -0.5698  1.1111
13595SOL    HW242227   7.577   2.961   9.679 -0.7676  0.4359 -3.5191
13596SOL     OW42228   0.954   3.922   5.186 -0.1934 -0.4770 -0.4016
13596SOL    HW142229   0.996   3.861   5.247 -0.7930  0.4071  0.9292
13596SOL    HW242230   0.939   4.002   5.237  1.2251  1.1009 -2.2596
13597SOL     OW42231   5.600   3.224  12.086  0.3700  0.5467 -0.4024
13597SOL    HW142232   5.559   3.276  12.017  1.9056  3.2206  0.5476
13597SOL    HW242233   5.529   3.201  12.145 -0.2750  2.4032 -0.3867
13598SOL     OW42234   3.574   5.419  11.274  0.3937  0.1188  0.3046
13598SOL    HW142235   3.648   5.435  11.332  1.6137 -1.6837 -0.6614
13598SOL    HW242236   3.613   5.382  11.195 -1.4710 -0.0493 -0.6008
13599SOL     OW42237   1.180   0.756   1.911  0.1517 -0.4696 -0.1559
13599SOL    HW142238   1.173   0.760   1.816 -0.5052 -0.0119 -0.1006
13599SOL    HW242239   1.273   0.765   1.929  0.1913  0.3435 -0.7232
13600SOL     OW42240   6.142   3.543  10.879  0.0638 -0.1750  0.2011
13600SOL    HW142241   6.105   3.554  10.966  1.2522  1.3135  0.5587
13600SOL    HW242242   6.231   3.579  10.885  0.6990 -1.3759 -1.2544
13601SOL     OW42243   3.298   2.064   9.808 -0.4444  0.3815  0.2492
13601SOL    HW142244   3.207   2.043   9.829 -0.4240 -0.8669 -0.7662
13601SOL    HW242245   3.337   2.086   9.892 -1.4657  0.0573  0.8365
13602SOL     OW42246   0.609   6.046   6.955 -0.5825  0.2020 -0.0564
13602SOL    HW142247   0.640   6.015   7.040 -0.5043 -0.3863 -0.2920
13602SOL    HW242248   0.688   6.078   6.911 -0.1940 -1.7197 -0.8356
13603SOL     OW42249   4.363   1.098  11.090  0.5052  0.4725 -0.4002
13603SOL    HW142250   4.334   1.082  11.000  1.4196  1.7953 -0.9728
13603SOL    HW242251   4.310   1.173  11.119 -1.1556 -1.1386  0.8979
13604SOL     OW42252   7.385   2.303  10.032  0.0958  0.0857 -0.1980
13604SOL    HW142253   7.376   2.211  10.055 -0.1039  0.1668  0.0608
13604SOL    HW242254   7.467   2.309   9.983  0.2034 -0.1977 -0.0507
13605SOL     OW42255   6.492   4.968   6.317 -0.4384  0.3280 -0.2079
13605SOL    HW142256   6.422   4.903   6.318  1.0812 -1.3758  0.3900
13605SOL    HW242257   6.489   5.005   6.229 -0.6059 -1.4138 -0.9711
13606SOL     OW42258   3.018   5.889   3.869  0.1357 -0.0618  0.1343
13606SOL    HW142259   3.078   5.923   3.935 -1.8210  2.4254  0.8097
13606SOL    HW242260   2.935   5.878   3.915 -0.9405  0.3734 -1.5799
13607SOL     OW42261   6.166   5.587   5.131  0.4735  0.5149  0.0282
13607SOL    HW142262   6.163   5.612   5.223  2.3377 -3.8505  1.5234
13607SOL    HW242263   6.250   5.620   5.100 -0.4794  2.6683 -0.5142
13608SOL     OW42264   5.219   6.300   2.814 -0.3403 -0.0649  0.3724
13608SOL    HW142265   5.188   6.380   2.856  0.5091  0.0996  0.7198
13608SOL    HW242266   5.233   6.238   2.885  1.4468  0.3325  0.4271
13609SOL     OW42267   1.212   4.567   2.654  0.3388  0.5174 -0.2170
13609SOL    HW142268   1.152   4.636   2.625 -0.5902 -0.4034 -0.5377
13609SOL    HW242269   1.281   4.565   2.587 -0.2866  0.3107 -0.8650
13610SOL     OW42270   6.273   2.648  12.328  0.1830 -0.2477  0.6832
13610SOL    HW142271   6.306   2.689  12.409 -0.0508 -0.2624  0.7866
13610SOL    HW242272   6.312   2.699  12.258  0.8416 -0.5816  0.7979
13611SOL     OW42273   6.285   6.034   2.196  0.2862 -0.3993  0.2177
13611SOL    HW142274   6.367   6.028   2.147  1.6652 -1.2327  2.4892
13611SOL    HW242275   6.219   5.995   2.138  1.9554 -1.9861 -0.7026
13612SOL     OW42276   5.263   3.951   6.780  0.0375  0.0205 -0.3331
13612SOL    HW142277   5.174   3.967   6.749 -0.1372  0.5967  0.4220
13612SOL    HW242278   5.313   4.028   6.754 -0.3702  1.0569  1.6827
13613SOL     OW42279   6.314   7.407   1.281 -0.2713  0.1267  0.9358
13613SOL    HW142280   6.275   7.393   1.194  0.7030  0.8275  0.3629
13613SOL    HW242281   6.261   7.477   1.319 -0.1675  0.4248  0.5431
13614SOL     OW42282   5.086   1.006   0.426 -0.2026  0.0003 -0.4658
13614SOL    HW142283   5.050   0.993   0.514 -0.1136  0.3462 -0.3776
13614SOL    HW242284   5.180   0.997   0.437  0.0804  2.6701 -0.0098
13615SOL     OW42285   4.673   4.712   4.477 -0.1831 -0.2818 -0.1148
13615SOL    HW142286   4.593   4.753   4.445  0.2037 -0.3231 -1.1915
13615SOL    HW242287   4.688   4.638   4.418  0.8663 -0.0324 -0.1949
13616SOL     OW42288   3.462   3.380   7.313  0.4879 -0.0416 -0.2924
13616SOL    HW142289   3.509   3.399   7.394  2.4806  1.7443 -1.7676
13616SOL    HW242290   3.519   3.319   7.266 -0.4147 -0.6830 -0.5860
13617SOL     OW42291   2.629   6.622  11.631  0.3094  0.1133 -0.2231
13617SOL    HW142292   2.701   6.682  11.611 -0.6600  1.1238 -0.7904
13617SOL    HW242293   2.610   6.638  11.723  0.5638  0.1231 -0.1715
13618SOL     OW42294   3.874   6.237  11.549  0.2453  0.1714 -0.1862
13618SOL    HW142295   3.865   6.319  11.500 -0.2150 -0.1879 -0.7233
13618SOL    HW242296   3.788   6.223  11.589 -0.2432 -0.9159 -1.5223
13619SOL     OW42297   3.716   5.449   7.352  0.2107  0.4338  0.3175
13619SOL    HW142298   3.711   5.542   7.377  2.0509  0.2571  1.4796
13619SOL    HW242299   3.640   5.436   7.295 -0.1651  2.6215  0.2249
13620SOL     OW42300   0.955   3.528   3.489  0.4443 -0.1220 -0.1978
13620SOL    HW142301   0.963   3.434   3.505 -0.5588 -0.4254 -1.3326
13620SOL    HW242302   0.861   3.545   3.495  0.5879  0.7560 -0.3131
13621SOL     OW42303   0.035   4.841   1.030  0.0453 -0.2909  0.4811
13621SOL    HW142304  -0.049   4.810   0.998 -0.6588  0.2155  1.7520
13621SOL    HW242305   0.080   4.875   0.953 -1.6910  1.1519  0.0429
13622SOL     OW42306   7.473   4.025   5.422 -0.1829  0.3640  0.0367
13622SOL    HW142307   7.498   3.933   5.432 -0.5058  0.4885  3.0305
13622SOL    HW242308   7.425   4.029   5.339 -0.2593 -2.1713 -0.1072
13623SOL     OW42309   5.676   2.791   7.356 -0.4263  0.3752 -0.7790
13623SOL    HW142310   5.711   2.750   7.435 -0.3759  2.4789  0.3594
13623SOL    HW242311   5.612   2.728   7.322  0.4098 -1.0798  0.2565
13624SOL     OW42312   7.009   2.200   6.871 -0.4043  0.6492 -0.5380
13624SOL    HW142313   7.039   2.244   6.792  0.9573  0.4274 -0.1732
13624SOL    HW242314   7.026   2.107   6.855 -1.7375  0.4066 -0.6564
13625SOL     OW42315   2.862   4.592   1.457 -0.7286 -0.2411  0.4834
13625SOL    HW142316   2.767   4.590   1.440 -0.5993  0.2598 -0.4061
13625SOL    HW242317   2.901   4.566   1.374 -0.0153  3.9031 -0.7010
13626SOL     OW42318   6.887   3.345   9.601 -0.4339 -0.3268 -0.8209
13626SOL    HW142319   6.791   3.342   9.605 -0.4575  0.9081  0.3938
13626SOL    HW242320   6.915   3.314   9.688  0.3224 -1.6579 -1.5099
13627SOL     OW42321   2.576   5.206   2.550 -0.1402 -0.0917  0.5756
13627SOL    HW142322   2.536   5.262   2.483 -0.5887  0.1887  1.0774
13627SOL    HW242323   2.635   5.264   2.597 -0.3863 -0.1137  0.9094
13628SOL     OW42324   7.679   0.436   8.027 -0.2195 -0.0451 -0.2401
13628SOL    HW142325   7.748   0.374   8.004  1.5818  1.7603 -0.0189
13628SOL    HW242326   7.640   0.460   7.943  0.2532 -0.1710 -0.4993
13629SOL     OW42327   2.557   3.161   8.334  0.0479  0.0148  0.3015
13629SOL    HW142328   2.554   3.134   8.242  0.2011 -0.0290  0.3101
13629SOL    HW242329   2.589   3.085   8.381  2.7417  0.8862  0.0474
13630SOL     OW42330   0.915   0.758   1.238  0.4022 -0.0925  0.4400
13630SOL    HW142331   0.912   0.726   1.329  0.5132  0.1232  0.5194
13630SOL    HW242332   0.824   0.780   1.218  0.4536  0.3337  0.6694
13631SOL     OW42333   6.355   0.867   2.470 -0.2675  0.0715 -0.1977
13631SOL    HW142334   6.338   0.849   2.377 -1.4617 -1.2392  0.2378
13631SOL    HW242335   6.439   0.913   2.470  0.6166 -1.3890 -1.8200
13632SOL     OW42336   0.124   1.865   8.235 -0.4992 -0.1805  0.0703
13632SOL    HW142337   0.175   1.911   8.303 -0.5584 -0.0067 -0.0010
13632SOL    HW242338   0.144   1.912   8.154 -1.4396  0.4418  0.1840
13633SOL     OW42339   3.043   0.762   1.313 -0.0900  0.5671 -0.1568
13633SOL    HW142340   2.961   0.743   1.359  0.3622 -0.1175  0.3890
13633SOL    HW242341   3.015   0.799   1.229 -0.9436  1.0442  0.3212
13634SOL     OW42342   4.325   2.560   3.177  0.2025  0.1894  0.4163
13634SOL    HW142343   4.332   2.566   3.273  0.5408  1.2882  0.3334
13634SOL    HW242344   4.306   2.467   3.161  0.6748 -0.1233  1.5116
13635SOL     OW42345   7.720   4.760   8.520  0.0638  0.3676  0.3179
13635SOL    HW142346   7.643   4.717   8.557  0.8379  0.7063  2.4276
13635SOL    HW242347   7.740   4.709   8.441 -0.8578 -1.2192  1.0608
13636SOL     OW42348   2.131   3.778   4.149  0.9450 -0.3508  0.0027
13636SOL    HW142349   2.168   3.744   4.230  0.9396 -0.1620  0.0832
13636SOL    HW242350   2.095   3.701   4.105  1.0280 -0.4654  0.1368
13637SOL     OW42351   5.308   6.711   9.275  0.1136 -0.4858  0.1831
13637SOL    HW142352   5.370   6.657   9.324  0.3066 -2.1122 -1.7193
13637SOL    HW242353   5.344   6.716   9.187 -1.5288  0.0584 -0.5081
13638SOL     OW42354   0.780   4.903   0.137  0.5981 -0.1476 -0.5547
13638SOL    HW142355   0.700   4.947   0.107 -0.4917 -1.3127  0.5285
13638SOL    HW242356   0.811   4.956   0.210  1.2418  0.6873 -1.3982
13639SOL     OW42357   0.780   5.103  11.881 -0.3362 -0.3673  0.8951
13639SOL    HW142358   0.692   5.071  11.902 -0.9255 -0.0744 -0.9763
13639SOL    HW242359   0.825   5.027  11.843  0.1145 -0.4169  1.5047
13640SOL     OW42360   1.061   6.576  11.140 -0.2933 -0.3545 -0.0598
13640SOL    HW142361   1.006   6.592  11.216 -0.0660  0.9714 -0.1470
13640SOL    HW242362   1.001   6.585  11.065 -0.0583  0.8242 -0.1398
13641SOL     OW42363   2.249   3.708   7.303  0.2259 -0.2241  0.0194
13641SOL    HW142364   2.314   3.773   7.278 -0.0897 -0.6498 -2.0213
13641SOL    HW242365   2.194   3.753   7.368  2.5623  0.0920  1.9131
13642SOL     OW42366   3.086   6.119   0.996 -0.2697  0.0910 -0.0208
13642SOL    HW142367   3.013   6.116   0.933  0.4270  0.5207 -0.8639
13642SOL    HW242368   3.164   6.122   0.942  0.4120 -0.7778  0.8750
13643SOL     OW42369   4.379   1.463   1.920 -0.1486  0.3775 -0.7979
13643SOL    HW142370   4.469   1.490   1.939 -0.3831  1.1937 -0.8098
13643SOL    HW242371   4.363   1.492   1.830 -0.9958  1.8527 -0.2114
13644SOL     OW42372   1.910   6.342   9.504  0.9016  0.7439  0.1764
13644SOL    HW142373   2.003   6.332   9.482  0.1827 -0.2247 -2.9539
13644SOL    HW242374   1.870   6.374   9.423 -1.9434 -2.0056  0.2983
13645SOL     OW42375   1.054   3.747   7.926 -0.2936  0.1303  0.7302
13645SOL    HW142376   1.090   3.708   8.006 -1.6780  0.2992  1.4509
13645SOL    HW242377   1.100   3.830   7.917 -0.5696  0.3972  1.7001
13646SOL     OW42378   1.102   7.132   0.160 -0.5545 -0.6398 -0.5225
13646SOL    HW142379   1.073   7.042   0.174  1.6562 -1.2717  0.3437
13646SOL    HW242380   1.145   7.132   0.075 -2.4489  0.1614 -1.5405
13647SOL     OW42381   5.874   6.107   9.332 -0.4148  0.3910  0.0357
13647SOL    HW142382   5.782   6.120   9.356 -0.0005  1.0981  1.3095
13647SOL    HW242383   5.897   6.023   9.372  0.3713  1.7244  2.6084
13648SOL     OW42384   5.811   0.180   3.110 -0.4474 -0.4419 -0.1884
13648SOL    HW142385   5.768   0.098   3.137 -0.0687 -0.1766  1.3665
13648SOL    HW242386   5.846   0.161   3.023 -3.2359 -0.8233 -1.3463
13649SOL     OW42387   1.246   6.392   6.973 -0.0863 -0.2901  0.0274
13649SOL    HW142388   1.276   6.460   6.912 -0.1294 -0.6241 -0.3666
13649SOL    HW242389   1.243   6.312   6.921 -1.6248 -0.2813  0.0457
13650SOL     OW42390   6.974   6.594   9.295 -0.1984  0.0353 -0.1957
13650SOL    HW142391   6.896   6.551   9.331 -0.5303 -0.5549 -1.5663
13650SOL    HW242392   6.940   6.664   9.240  0.2876  0.5796  0.1874
13651SOL     OW42393   3.561   7.196   5.368  0.1809 -0.3917  0.4500
13651SOL    HW142394   3.503   7.149   5.308 -0.6779 -2.3927  2.6964
13651SOL    HW242395   3.639   7.141   5.375  2.0422  1.7560 -1.7209
13652SOL     OW42396   4.593   3.042   6.756  0.0699 -0.1664 -0.0294
13652SOL    HW142397   4.539   3.028   6.679 -1.1133 -0.9048  0.8973
13652SOL    HW242398   4.638   3.125   6.739  1.0328 -1.0388 -2.1468
13653SOL     OW42399   5.347   0.200  10.419 -0.1219 -0.3829  0.3830
13653SOL    HW142400   5.352   0.131  10.353 -0.8503 -1.7524  1.6856
13653SOL    HW242401   5.261   0.241  10.405  0.6142  0.8173 -0.8681
13654SOL     OW42402   4.347   0.172   3.394 -0.1160 -0.0405  0.3271
13654SOL    HW142403   4.263   0.203   3.361 -0.7973 -0.8136  1.2709
13654SOL    HW242404   4.412   0.224   3.347 -1.1647  2.4855  1.5144
13655SOL     OW42405   5.494   4.145  10.242 -0.0915  0.5256  0.1519
13655SOL    HW142406   5.568   4.198  10.270  0.3379  0.1363 -0.2242
13655SOL    HW242407   5.440   4.134  10.320  1.2973 -0.9065  0.9661
13656SOL     OW42408   6.403   6.492   6.832 -0.2696 -0.2165 -0.3512
13656SOL    HW142409   6.384   6.414   6.781 -1.0642  0.5996 -1.3621
13656SOL    HW242410   6.327   6.502   6.890  0.0034 -0.3945  0.0397
13657SOL     OW42411   4.619   6.623   4.688 -0.2934 -0.6444 -0.0033
13657SOL    HW142412   4.551   6.559   4.709 -1.6476  1.2958  2.0379
13657SOL    HW242413   4.572   6.706   4.681  1.9026  0.9661  2.4873
13658SOL     OW42414   2.889   0.177   4.537  0.3682 -0.2331  0.3529
13658SOL    HW142415   2.922   0.262   4.566 -1.0463  0.0548  1.2297
13658SOL    HW242416   2.910   0.173   4.444 -0.5694  1.6214  0.0023
13659SOL     OW42417   0.602   3.801   9.737  0.1042  0.4517  0.4226
13659SOL    HW142418   0.632   3.882   9.696 -1.0921  1.5418  1.5890
13659SOL    HW242419   0.575   3.827   9.825  1.0572 -1.5084  1.3569
13660SOL     OW42420   6.243   1.745   3.083  0.9454  0.0850  0.4179
13660SOL    HW142421   6.239   1.756   3.178  2.3502 -1.5238  0.7085
13660SOL    HW242422   6.168   1.689   3.063  0.0082  1.3080  0.3941
13661SOL     OW42423   3.548   1.207   6.082  0.3472 -0.3329  0.4429
13661SOL    HW142424   3.629   1.169   6.115 -0.2941 -1.8762  0.3001
13661SOL    HW242425   3.481   1.143   6.103 -1.1010  1.5197  1.7921
13662SOL     OW42426   5.968   0.376   2.618 -0.3554 -0.7461  0.1559
13662SOL    HW142427   5.886   0.425   2.627 -1.4635 -2.6001  0.6268
13662SOL    HW242428   6.019   0.426   2.554 -2.6033 -0.4892 -1.5577
13663SOL     OW42429   5.152   4.629   5.695  0.6217 -0.1608  0.0924
13663SOL    HW142430   5.164   4.540   5.728  0.4516 -0.0157  0.5620
13663SOL    HW242431   5.212   4.682   5.747  0.7173 -0.0034 -0.1801
13664SOL     OW42432   6.122   2.032   3.454  0.0337 -0.3210  0.1660
13664SOL    HW142433   6.201   2.064   3.500  1.1738 -2.1205 -0.4275
13664SOL    HW242434   6.106   2.098   3.387  1.5292 -0.2897 -0.2097
13665SOL     OW42435   3.498   0.704   1.624  0.3098  0.7380  0.0632
13665SOL    HW142436   3.489   0.787   1.577 -0.4507  0.4771 -0.2729
13665SOL    HW242437   3.416   0.696   1.673 -0.0821 -0.3155 -0.7308
13666SOL     OW42438   2.259   3.684   0.391 -0.0847  0.2024 -0.2276
13666SOL    HW142439   2.347   3.654   0.413 -0.3751  0.1493  0.9009
13666SOL    HW242440   2.200   3.627   0.440 -0.7099  1.1054  0.1023
13667SOL     OW42441   4.308   6.232   4.566  0.5680  0.1539  0.3029
13667SOL    HW142442   4.269   6.318   4.548  0.7797  0.0589 -0.6883
13667SOL    HW242443   4.386   6.230   4.511 -0.4058 -1.3817 -1.1103
13668SOL     OW42444   3.173   5.728   9.938  0.3122 -0.9382  0.1043
13668SOL    HW142445   3.218   5.661   9.888  0.4819  0.0584 -1.1438
13668SOL    HW242446   3.225   5.807   9.924  0.7938 -0.7386  2.4824
13669SOL     OW42447   7.429   3.163   0.321  0.3435 -0.1173 -0.2078
13669SOL    HW142448   7.357   3.142   0.381  2.1433 -2.0977  1.3842
13669SOL    HW242449   7.478   3.232   0.365  2.1315 -2.1261  1.1317
13670SOL     OW42450   1.888   5.895   6.858 -0.0219 -0.1992  0.5473
13670SOL    HW142451   1.816   5.876   6.917 -0.0918  0.6081  0.7442
13670SOL    HW242452   1.853   5.963   6.800 -0.0011 -1.0743 -0.5139
13671SOL     OW42453   0.277   3.019   7.198 -0.5614  0.7348  0.0791
13671SOL    HW142454   0.237   3.050   7.117  0.6735  0.2409 -0.7405
13671SOL    HW242455   0.331   2.945   7.172 -0.2923  0.4483  1.3884
13672SOL     OW42456   7.573   0.557   1.015 -0.7869 -0.2978  0.2422
13672SOL    HW142457   7.512   0.504   1.067  0.7925  0.3002  2.9139
13672SOL    HW242458   7.594   0.502   0.940 -2.5105 -1.6229  0.6478
13673SOL     OW42459   6.538   7.900   0.851  0.0544  0.4323  0.3172
13673SOL    HW142460   6.488   7.981   0.847 -1.7737 -0.6589 -3.6186
13673SOL    HW242461   6.627   7.925   0.827 -0.3973  1.3603 -0.4343
13674SOL     OW42462   5.784   4.534   2.446 -0.0882  0.3948  0.0393
13674SOL    HW142463   5.734   4.491   2.376 -1.5698  1.0899  0.6138
13674SOL    HW242464   5.820   4.612   2.406  1.2487 -0.5111 -0.5873
13675SOL     OW42465   0.320   4.724   9.832  0.2611  0.2000 -0.3266
13675SOL    HW142466   0.271   4.645   9.810  0.3339 -0.3238  1.2185
13675SOL    HW242467   0.261   4.796   9.809 -0.4650 -0.3680 -0.2677
13676SOL     OW42468   6.538   4.978  10.585  0.2054 -1.0241 -0.0606
13676SOL    HW142469   6.518   4.948  10.673  1.0352 -0.0084  0.4997
13676SOL    HW242470   6.482   5.055  10.572  1.0337 -0.3623  0.1278
13677SOL     OW42471   4.949   5.703   5.866 -0.1790  0.5262  0.5240
13677SOL    HW142472   5.026   5.756   5.843  0.3359 -0.7942 -0.9671
13677SOL    HW242473   4.874   5.757   5.840  0.3356  0.4834 -1.1713
13678SOL     OW42474   1.100   4.159   1.221  0.6661  0.1051 -0.5202
13678SOL    HW142475   1.176   4.217   1.220  0.9113 -0.1901  0.0804
13678SOL    HW242476   1.076   4.154   1.314  0.4403 -0.4865 -0.6110
13679SOL     OW42477   4.079   4.034   8.729 -0.5518 -0.1484  0.8608
13679SOL    HW142478   4.171   4.035   8.755 -0.7356 -0.1528  1.5395
13679SOL    HW242479   4.046   4.121   8.751 -0.4951  0.1586 -0.2169
13680SOL     OW42480   5.721   7.022   5.237  0.1315 -0.2893 -0.1621
13680SOL    HW142481   5.808   6.986   5.221  0.4237 -0.1061  0.9683
13680SOL    HW242482   5.706   7.081   5.163  0.7875 -0.6358 -0.5805
13681SOL     OW42483   1.893   7.145  10.246  0.5063 -0.6300 -0.0391
13681SOL    HW142484   1.894   7.099  10.162 -0.9495 -0.9747  0.1049
13681SOL    HW242485   1.899   7.238  10.223  0.3995 -0.7377 -0.4990
13682SOL     OW42486   5.715   0.367   6.184  0.1062 -0.5767 -0.0724
13682SOL    HW142487   5.628   0.406   6.175 -0.5355 -1.3478  2.2856
13682SOL    HW242488   5.773   0.431   6.143 -1.3490  0.8695  0.0096
13683SOL     OW42489   2.402   3.354   6.679  0.2762  0.0900 -0.1583
13683SOL    HW142490   2.419   3.261   6.696 -1.1087 -0.2347 -0.3862
13683SOL    HW242491   2.381   3.357   6.585 -0.4789  0.4928  0.0194
13684SOL     OW42492   7.263   6.436   0.880  0.3320 -0.1312 -0.1022
13684SOL    HW142493   7.318   6.441   0.801 -1.0899  1.8138 -1.0785
13684SOL    HW242494   7.197   6.371   0.858  1.0272 -0.9681  0.2530
13685SOL     OW42495   3.448   0.599  12.181 -0.1314 -0.2268 -0.2068
13685SOL    HW142496   3.485   0.686  12.172 -1.2067  0.0391 -2.9131
13685SOL    HW242497   3.468   0.555  12.099 -0.2464 -2.3076  0.8064
13686SOL     OW42498   3.828   1.750   5.335  0.4314 -0.5163 -0.0848
13686SOL    HW142499   3.877   1.749   5.254  0.0367  2.2282 -0.4829
13686SOL    HW242500   3.893   1.765   5.403  0.4675  0.3212 -0.2914
13687SOL     OW42501   4.068   1.711   4.406 -0.0846  0.1157  0.0555
13687SOL    HW142502   3.982   1.693   4.370  0.6272 -0.8520 -1.2346
13687SOL    HW242503   4.074   1.807   4.407 -0.9721  0.1841 -0.3213
13688SOL     OW42504   2.046   4.655   2.818 -0.0159 -0.4437  0.2745
13688SOL    HW142505   2.083   4.580   2.864  0.2726 -0.1099  0.5987
13688SOL    HW242506   2.054   4.727   2.881  0.1646 -0.0367 -0.2116
13689SOL     OW42507   6.805   0.366   6.755 -0.1008 -0.2488  0.5449
13689SOL    HW142508   6.744   0.410   6.697  1.3884  0.4038 -0.6156
13689SOL    HW242509   6.814   0.278   6.718 -0.7222 -0.5263  1.0349
13690SOL     OW42510   5.241   7.045   5.721 -0.1793  0.3319  0.0387
13690SOL    HW142511   5.245   6.951   5.738 -1.8591  0.0630 -0.8442
13690SOL    HW242512   5.332   7.072   5.711  0.5999 -0.5835  3.3226
13691SOL     OW42513   0.261   2.202  10.079  0.2213 -0.6552  0.2979
13691SOL    HW142514   0.342   2.166  10.044  0.3913 -0.5887  0.6278
13691SOL    HW242515   0.288   2.262  10.148 -0.0169  0.7273 -0.7680
13692SOL     OW42516   4.415   5.560   7.960 -0.2180  0.2777 -0.1491
13692SOL    HW142517   4.452   5.646   7.982  0.8391 -0.5118  1.2744
13692SOL    HW242518   4.490   5.511   7.926 -0.7752 -0.1632 -0.7522
13693SOL     OW42519   1.096   7.032  11.530  0.4298 -0.2071 -0.0399
13693SOL    HW142520   1.187   7.007  11.549  0.8385  1.3915  0.2164
13693SOL    HW242521   1.096   7.051  11.436 -0.0386 -1.6713 -0.3770
13694SOL     OW42522   1.568   0.576   8.412 -0.2223 -0.7156  0.6100
13694SOL    HW142523   1.611   0.661   8.422  0.6630 -1.0084 -0.6213
13694SOL    HW242524   1.613   0.519   8.474  0.3712 -0.7260  0.1725
13695SOL     OW42525   0.780   2.011   0.896  0.1335  0.2342  0.0111
13695SOL    HW142526   0.839   1.987   0.968 -0.1895  2.6608  1.2245
13695SOL    HW242527   0.693   1.986   0.928  0.1170  0.2443 -0.0266
13696SOL     OW42528   6.672   0.395   9.330  0.2136  0.3491  0.1254
13696SOL    HW142529   6.718   0.388   9.413  1.7454 -1.1387 -0.7714
13696SOL    HW242530   6.688   0.484   9.300  1.7029  0.1603  0.3124
13697SOL     OW42531   3.210   7.244   1.076 -0.3087 -0.1714  0.5915
13697SOL    HW142532   3.287   7.188   1.088  0.7313  0.5283 -2.1554
13697SOL    HW242533   3.246   7.333   1.068 -1.4691  0.2692  0.0276
13698SOL     OW42534   1.628   5.935   6.060 -0.3716 -0.2126  0.1947
13698SOL    HW142535   1.598   6.001   6.123 -0.4890 -1.2038  1.2212
13698SOL    HW242536   1.663   5.865   6.115 -0.6621 -1.1993 -0.8488
13699SOL     OW42537   6.632   4.958   9.706 -0.5033 -0.0952 -0.1247
13699SOL    HW142538   6.571   4.889   9.733  0.7633  0.0871  3.9084
13699SOL    HW242539   6.716   4.933   9.746  0.4433  2.8583  0.0067
13700SOL     OW42540   1.381   4.773  11.943 -0.1595  0.5480  0.5260
13700SOL    HW142541   1.427   4.772  11.860  0.4116  0.8248  0.8342
13700SOL    HW242542   1.288   4.768  11.919  0.0232  0.0853 -0.1007
13701SOL     OW42543   4.655   3.072   3.760 -0.2175 -0.8087 -0.5856
13701SOL    HW142544   4.577   3.082   3.815  0.7117 -0.9134  0.7831
13701SOL    HW242545   4.624   3.092   3.672 -1.3906  1.0266  0.1829
13702SOL     OW42546   7.862   2.075  12.329  0.2446 -0.3292 -0.6171
13702SOL    HW142547   7.831   2.091  12.418  1.9113  1.9325 -0.3373
13702SOL    HW242548   7.888   2.162  12.297 -0.0814 -1.1072 -3.2421
13703SOL     OW42549   4.521   7.287   6.865  0.1459 -0.1369 -0.1168
13703SOL    HW142550   4.595   7.286   6.804 -0.1901 -0.8309 -0.5230
13703SOL    HW242551   4.479   7.201   6.854  0.9970 -0.9433  2.2091
13704SOL     OW42552   3.299   1.286  11.199  0.4606 -0.4573  0.3722
13704SOL    HW142553   3.275   1.357  11.258  0.7411  0.7723 -0.9448
13704SOL    HW242554   3.321   1.213  11.257  1.3424  0.8938  1.8157
13705SOL     OW42555   6.127   5.059   3.123  0.3192  0.7106  0.1326
13705SOL    HW142556   6.177   5.125   3.074  0.5489  0.0387 -0.5629
13705SOL    HW242557   6.178   5.043   3.202  1.5608 -0.4335 -0.8655
13706SOL     OW42558   1.100   5.507   0.939  0.5453  0.3685  0.1509
13706SOL    HW142559   1.079   5.448   0.867  1.4411  0.8140 -0.4911
13706SOL    HW242560   1.080   5.457   1.018 -0.5074 -0.0991 -0.3965
13707SOL     OW42561   7.320   0.357   8.635 -0.2348 -0.0162  0.1222
13707SOL    HW142562   7.393   0.382   8.577 -0.4822  0.3316 -0.0392
13707SOL    HW242563   7.277   0.285   8.589  0.4831 -0.7670  0.5917
13708SOL     OW42564   4.133   7.063  10.814 -0.5317 -0.1487  0.1101
13708SOL    HW142565   4.216   7.019  10.829 -0.9721 -1.4842 -1.1460
13708SOL    HW242566   4.143   7.149  10.856  1.4974 -0.2483 -0.0893
13709SOL     OW42567   2.245   7.438   1.806  0.2801  0.0332 -0.2024
13709SOL    HW142568   2.195   7.517   1.829  0.9950 -0.5077  3.9830
13709SOL    HW242569   2.321   7.440   1.864  0.5423 -3.5500 -0.2196
13710SOL     OW42570   4.290   5.352   3.338  0.6129  0.4590  0.0626
13710SOL    HW142571   4.244   5.279   3.378  1.3956  1.2699  2.5965
13710SOL    HW242572   4.222   5.400   3.290 -0.3058 -0.7160  0.1584
13711SOL     OW42573   5.935   5.257   1.965  0.6000  0.2977  0.7323
13711SOL    HW142574   5.991   5.181   1.952  0.6035  0.5752 -1.1312
13711SOL    HW242575   5.865   5.247   1.900 -0.3475  1.0380  1.5905
13712SOL     OW42576   4.889   0.622   0.697 -0.5977 -0.5567 -0.3619
13712SOL    HW142577   4.920   0.552   0.755 -1.6322 -0.4553  0.3483
13712SOL    HW242578   4.845   0.577   0.625 -2.7539 -0.6907  0.9349
13713SOL     OW42579   4.109   2.499  10.066  0.0183 -0.2318 -0.5258
13713SOL    HW142580   4.189   2.472  10.111 -1.6393 -3.5628  0.7282
13713SOL    HW242581   4.050   2.526  10.136 -0.5590  0.5451 -1.2842
13714SOL     OW42582   7.530   3.074   4.102 -0.1337  0.3323  0.2031
13714SOL    HW142583   7.553   3.144   4.041 -0.6955 -0.0670 -0.4921
13714SOL    HW242584   7.475   3.116   4.168 -0.7519  0.4932 -0.4005
13715SOL     OW42585   4.910   5.540   2.442 -0.7575 -0.0998 -0.4373
13715SOL    HW142586   4.984   5.522   2.500 -1.0025 -0.9542 -0.3725
13715SOL    HW242587   4.916   5.474   2.374 -2.3500 -1.2182  0.4293
13716SOL     OW42588   6.722   7.906   5.305 -0.5370  0.4660 -0.2517
13716SOL    HW142589   6.639   7.858   5.297 -0.1873  0.0134 -1.2613
13716SOL    HW242590   6.785   7.841   5.335 -0.1808  0.3992 -1.1093
13717SOL     OW42591   0.439   6.175   4.327  0.4175  0.3023 -0.0970
13717SOL    HW142592   0.515   6.164   4.270  1.1109  0.2427  0.8164
13717SOL    HW242593   0.461   6.125   4.405 -0.3041  0.7876  0.4204
13718SOL     OW42594   2.645   4.816   5.205 -0.3176  0.8039 -0.1040
13718SOL    HW142595   2.550   4.809   5.191 -0.2216  1.9948 -1.5973
13718SOL    HW242596   2.653   4.861   5.289 -1.0757  0.6504  0.0606
13719SOL     OW42597   7.730   4.991   1.651  0.0430 -0.2252  0.3974
13719SOL    HW142598   7.701   5.022   1.566  2.2959 -2.3035 -1.2498
13719SOL    HW242599   7.737   4.896   1.641  2.1645 -0.3512  2.2733
13720SOL     OW42600   1.805   1.889   4.542 -0.4904  0.4834  0.2566
13720SOL    HW142601   1.853   1.827   4.486 -1.5586 -0.3262  0.1922
13720SOL    HW242602   1.831   1.866   4.631 -0.7734  0.0389  0.2246
13721SOL     OW42603   6.128   1.058   0.152 -0.5749 -0.0188  0.2076
13721SOL    HW142604   6.214   1.023   0.132 -1.4413 -2.4541  0.3629
13721SOL    HW242605   6.126   1.144   0.111  1.7174 -0.1204 -0.2273
13722SOL     OW42606   3.616   1.163   7.226  0.1063 -0.3003  0.2942
13722SOL    HW142607   3.545   1.182   7.288  0.3162 -2.7967  1.4363
13722SOL    HW242608   3.696   1.173   7.278  0.4332 -0.0994 -0.2455
13723SOL     OW42609   0.681   6.070   4.532 -0.0533 -0.7316 -0.5136
13723SOL    HW142610   0.646   6.023   4.608 -3.7569 -1.3476 -2.3670
13723SOL    HW242611   0.757   6.019   4.505 -1.4684 -3.2987  0.0299
13724SOL     OW42612   0.554   7.240   7.608  0.1565 -0.9941  0.1148
13724SOL    HW142613   0.540   7.318   7.554  0.6035 -0.1842  1.1151
13724SOL    HW242614   0.529   7.167   7.552  2.0200 -0.3326 -1.7344
13725SOL     OW42615   4.663   5.533   0.192  0.0959 -0.1990 -0.5784
13725SOL    HW142616   4.600   5.474   0.234 -1.1133  1.3352 -0.1233
13725SOL    HW242617   4.643   5.525   0.099 -1.4115  0.8947 -0.3877
13726SOL     OW42618   2.142   5.231   5.515  0.9145 -0.3614  0.2905
13726SOL    HW142619   2.052   5.220   5.546  1.1423 -0.3193  0.9856
13726SOL    HW242620   2.139   5.304   5.454 -0.0244 -2.0252 -1.8075
13727SOL     OW42621   1.268   6.392  11.047  0.2710  0.2248  0.6250
13727SOL    HW142622   1.200   6.451  11.079  0.2870 -0.3902  1.8491
13727SOL    HW242623   1.349   6.443  11.052  0.2213  0.2412  1.2491
13728SOL     OW42624   5.011   5.304   9.715  0.2991  0.9126  0.0031
13728SOL    HW142625   5.055   5.260   9.788  0.3188 -0.4334 -0.7927
13728SOL    HW242626   4.927   5.330   9.751 -0.2383 -0.9168  0.1911
13729SOL     OW42627   6.392   4.807  11.536 -0.1016 -0.2136  0.5309
13729SOL    HW142628   6.330   4.792  11.465 -0.5935 -1.2514  1.1559
13729SOL    HW242629   6.477   4.782  11.500 -0.1338  0.5868 -0.1185
13730SOL     OW42630   7.782   6.035   1.477 -0.4884  0.0150  0.4854
13730SOL    HW142631   7.702   6.021   1.427 -1.5263  1.1194  1.7615
13730SOL    HW242632   7.753   6.039   1.568  1.0036  0.5057  0.9650
13731SOL     OW42633   0.549   2.498  11.711 -0.2413 -0.1069 -0.0243
13731SOL    HW142634   0.527   2.591  11.715 -0.4958 -0.1040 -1.2678
13731SOL    HW242635   0.625   2.490  11.769  0.5873  1.1301 -0.8750
13732SOL     OW42636   7.107   0.354   7.275 -0.1896  0.3191  0.0742
13732SOL    HW142637   7.170   0.321   7.211  0.2623  2.4941 -0.6939
13732SOL    HW242638   7.160   0.380   7.350 -0.3256  0.8896 -0.0250
13733SOL     OW42639   1.489   4.908  12.168 -0.4127 -0.0707 -0.0425
13733SOL    HW142640   1.462   4.872  12.084 -3.1616 -0.5828  0.9336
13733SOL    HW242641   1.560   4.851  12.198 -0.1620 -0.5493 -1.4951
13734SOL     OW42642   5.181   2.272   5.587 -0.1695 -0.9337 -0.2585
13734SOL    HW142643   5.100   2.240   5.548  0.9794 -2.2546 -1.6382
13734SOL    HW242644   5.204   2.205   5.652  0.3733 -1.0941 -0.6180
13735SOL     OW42645   7.159   3.106   8.829 -0.5027  0.6933  0.0730
13735SOL    HW142646   7.143   3.200   8.823  0.3022  0.8995  0.9642
13735SOL    HW242647   7.250   3.098   8.858 -0.6293 -0.3559  0.2365
13736SOL     OW42648   3.363   0.196   2.399  0.1712 -0.1230  0.3709
13736SOL    HW142649   3.329   0.268   2.453  0.6061  1.8360 -1.7984
13736SOL    HW242650   3.287   0.169   2.346  0.5870  0.4283 -0.5255
13737SOL     OW42651   3.993   6.516   8.609  0.2251 -0.1170  0.3570
13737SOL    HW142652   4.008   6.610   8.612  1.6713 -0.3261  0.2958
13737SOL    HW242653   4.080   6.477   8.615 -0.3005 -1.4410 -0.1524
13738SOL     OW42654   7.818   3.380   0.050  0.1124 -0.3435  0.3048
13738SOL    HW142655   7.800   3.426  -0.032  2.8363  0.0335 -0.1986
13738SOL    HW242656   7.872   3.305   0.024  0.0085 -0.9124  1.6407
13739SOL     OW42657   2.473   3.221   7.321 -0.4930  0.9385  0.4764
13739SOL    HW142658   2.394   3.211   7.268 -0.0465  0.1989 -0.0600
13739SOL    HW242659   2.467   3.151   7.386 -0.0806  0.6235  0.1790
13740SOL     OW42660   5.779   4.477   5.516  0.0979 -0.9636  0.0253
13740SOL    HW142661   5.799   4.436   5.432  2.0879  1.3410 -0.7379
13740SOL    HW242662   5.864   4.510   5.547 -1.1319  1.3176  1.2049
13741SOL     OW42663   4.052   4.864   8.153  1.1450  0.1270 -0.1129
13741SOL    HW142664   4.023   4.950   8.182  0.9104 -0.3871  1.2177
13741SOL    HW242665   4.109   4.882   8.077 -0.4406  1.3149 -1.0821
13742SOL     OW42666   7.430   3.439   9.311 -0.0788  0.0205 -0.4785
13742SOL    HW142667   7.438   3.379   9.237 -0.8576  0.8455 -1.2499
13742SOL    HW242668   7.343   3.420   9.347 -0.7788  1.3836 -1.3757
13743SOL     OW42669   2.507   6.962   3.172 -0.0882 -0.3812  0.2860
13743SOL    HW142670   2.463   7.046   3.164 -0.7115 -0.6655  0.6991
13743SOL    HW242671   2.557   6.954   3.091 -1.2927 -0.3326 -0.4881
13744SOL     OW42672   6.145   3.090   0.048  0.1457 -0.3217 -0.6336
13744SOL    HW142673   6.212   3.027   0.023  0.6174  0.0368 -0.3006
13744SOL    HW242674   6.085   3.093  -0.026  1.7999  1.1209 -1.9942
13745SOL     OW42675   3.079   6.518   6.579  0.3720  0.1739  0.4817
13745SOL    HW142676   3.168   6.541   6.553  0.1893 -1.2080 -1.6194
13745SOL    HW242677   3.041   6.601   6.610  0.7322  2.1498 -3.6622
13746SOL     OW42678   1.097   3.779   0.265 -0.0613  0.5080  0.3507
13746SOL    HW142679   1.008   3.746   0.252 -0.0521  0.4829  0.3491
13746SOL    HW242680   1.152   3.700   0.261 -0.1525  0.3578  1.5593
13747SOL     OW42681   1.496   7.458   4.468  0.1947 -0.1429 -0.1222
13747SOL    HW142682   1.490   7.373   4.512 -0.2714 -0.5464 -0.9458
13747SOL    HW242683   1.524   7.437   4.379  2.6439  0.7757  0.3355
13748SOL     OW42684   7.671   5.835   8.409  0.1292  0.0776 -0.4382
13748SOL    HW142685   7.700   5.904   8.349  0.0835  1.8760  1.5033
13748SOL    HW242686   7.650   5.881   8.490  1.9233 -2.4178  1.6059
13749SOL     OW42687   4.437   1.573   3.155  0.0131  0.5704  0.6657
13749SOL    HW142688   4.460   1.657   3.193  0.9302  0.3909  0.5563
13749SOL    HW242689   4.402   1.594   3.069  0.9816  0.8165  0.3149
13750SOL     OW42690   4.085   1.059   4.418  0.1118  0.3493  0.2728
13750SOL    HW142691   4.047   0.993   4.359  0.4529  1.7053 -1.5599
13750SOL    HW242692   4.177   1.065   4.391  0.4912  0.4227  1.5313
13751SOL     OW42693   1.423   2.299   2.374  1.2810 -0.3020  0.1664
13751SOL    HW142694   1.449   2.239   2.444  1.1520 -0.9100 -0.2983
13751SOL    HW242695   1.398   2.380   2.420  2.8998 -0.0649  0.7017
13752SOL     OW42696   3.539   5.699  12.221  0.4805  0.1343  0.2241
13752SOL    HW142697   3.487   5.655  12.288 -0.7343  1.3353  0.1206
13752SOL    HW242698   3.551   5.633  12.153  0.2316 -0.5664  0.8405
13753SOL     OW42699   7.298   4.610   5.833  0.0138  0.4267  0.6107
13753SOL    HW142700   7.325   4.611   5.741  0.2897  2.0384  0.6702
13753SOL    HW242701   7.316   4.521   5.863 -0.4967 -0.2601 -1.0090
13754SOL     OW42702   0.086   7.183   9.738  0.7471  0.0204  0.6278
13754SOL    HW142703  -0.006   7.156   9.737  0.2670  1.5513  0.6750
13754SOL    HW242704   0.115   7.173   9.647 -0.4726  2.6338 -0.1468
13755SOL     OW42705   7.905   0.533   7.838  0.1337  0.2032  0.3631
13755SOL    HW142706   7.896   0.455   7.893  0.3690  0.4018  0.6945
13755SOL    HW242707   7.851   0.516   7.762  0.6373 -0.5302  0.1570
13756SOL     OW42708   3.279   0.468   8.146  0.1988 -0.5404  0.0913
13756SOL    HW142709   3.356   0.488   8.200  0.6964 -3.0533  0.4197
13756SOL    HW242710   3.267   0.546   8.091  1.4311  0.9209  1.7717
13757SOL     OW42711   6.691   1.412   8.348 -0.5842 -0.3344 -0.3391
13757SOL    HW142712   6.664   1.503   8.330 -1.3586 -0.5644 -0.3818
13757SOL    HW242713   6.710   1.376   8.261 -0.5402 -0.2915 -0.3472
13758SOL     OW42714   5.336   2.267   4.378  0.2806 -0.2098 -0.1327
13758SOL    HW142715   5.399   2.196   4.378  0.0432 -0.4293 -1.1565
13758SOL    HW242716   5.277   2.248   4.305  1.7459  2.3900 -2.1634
13759SOL     OW42717   1.388   7.726   7.730  0.7001 -0.3101 -0.0556
13759SOL    HW142718   1.331   7.651   7.750  0.0007 -0.0083 -0.8726
13759SOL    HW242719   1.365   7.750   7.641  0.8325  0.9617  0.2437
13760SOL     OW42720   3.389   2.997   3.858 -0.7214  0.2740 -0.5805
13760SOL    HW142721   3.452   3.018   3.788  0.0250  1.1368  0.3110
13760SOL    HW242722   3.335   2.927   3.822  1.5250 -1.3829 -0.9714
13761SOL     OW42723   3.467   4.814   7.718 -0.3330 -0.0834  0.5074
13761SOL    HW142724   3.559   4.835   7.735  0.1194  0.0136 -1.7308
13761SOL    HW242725   3.446   4.746   7.781  0.9483  0.6163  1.7603
13762SOL     OW42726   1.726   1.213   0.006 -0.1368  0.2963 -0.8490
13762SOL    HW142727   1.683   1.205  -0.079  0.3057  0.8707 -1.1318
13762SOL    HW242728   1.657   1.241   0.065 -0.1662  1.2058 -1.2971
13763SOL     OW42729   0.662   0.163   1.463 -0.4682 -0.4925 -0.7092
13763SOL    HW142730   0.732   0.149   1.527  2.3397 -1.4901 -3.6670
13763SOL    HW242731   0.614   0.080   1.461 -1.6355  0.0868  1.1163
13764SOL     OW42732   5.475   3.440   4.138  0.2147  0.1912  0.4991
13764SOL    HW142733   5.463   3.530   4.169 -1.2160  0.0543  0.4310
13764SOL    HW242734   5.388   3.414   4.107  0.4666 -1.4076  1.0454
13765SOL     OW42735   5.602   0.446  11.560  0.0304  0.1682  0.2031
13765SOL    HW142736   5.538   0.506  11.596  0.7455  0.6069  0.7753
13765SOL    HW242737   5.558   0.406  11.485 -1.0233  0.1836  0.7978
13766SOL     OW42738   6.695   4.295   8.729 -0.0105  0.2260  0.1368
13766SOL    HW142739   6.744   4.376   8.738  0.3623 -0.0325  0.4592
13766SOL    HW242740   6.711   4.267   8.639 -1.4405  1.3350 -0.5014
13767SOL     OW42741   5.266   4.266   2.211 -0.6189  0.0017 -0.1444
13767SOL    HW142742   5.215   4.212   2.273 -0.2389 -0.8279 -0.5382
13767SOL    HW242743   5.350   4.220   2.204  0.4916  1.7371  1.0510
13768SOL     OW42744   4.131   6.577   3.958  0.1114  0.5257  0.5832
13768SOL    HW142745   4.157   6.509   4.020 -0.2816 -0.3271 -0.1619
13768SOL    HW242746   4.164   6.547   3.874 -1.8018  0.2303 -0.1106
13769SOL     OW42747   0.985   1.147   0.899  0.1204 -0.4583  0.2019
13769SOL    HW142748   1.035   1.184   0.972 -0.4599  0.1468  0.2963
13769SOL    HW242749   1.051   1.134   0.831  0.4585  0.1098  0.4043
13770SOL     OW42750   7.420   5.702   8.416  0.3439  0.1732 -0.0381
13770SOL    HW142751   7.419   5.607   8.400  1.1772  0.2916 -0.8648
13770SOL    HW242752   7.491   5.735   8.362  1.2866  1.0347  1.6550
13771SOL     OW42753   6.874   1.081   0.040  0.6075  0.1144 -0.4220
13771SOL    HW142754   6.860   0.989   0.022  2.1049 -0.2682  0.2332
13771SOL    HW242755   6.949   1.083   0.100 -0.3230  1.6670  0.7765
13772SOL     OW42756   3.525   6.814   0.466 -0.0260  0.2449 -0.4496
13772SOL    HW142757   3.587   6.789   0.534  0.7353  0.4656 -1.0495
13772SOL    HW242758   3.579   6.850   0.396 -0.8930  1.1228 -0.6883
13773SOL     OW42759   6.072   2.064   9.259  0.0873 -0.6172 -0.1284
13773SOL    HW142760   6.016   2.037   9.186  2.6644 -0.2713 -2.3769
13773SOL    HW242761   6.125   1.987   9.279  0.4902 -0.2353  0.3127
13774SOL     OW42762   0.625   2.268   6.585  0.2984 -0.1242 -0.2749
13774SOL    HW142763   0.629   2.360   6.560 -0.7100 -0.4456 -1.7605
13774SOL    HW242764   0.610   2.222   6.502  1.0723 -1.6581  0.4032
13775SOL     OW42765   5.291   1.164   9.355 -0.9324 -0.7992  0.7198
13775SOL    HW142766   5.262   1.179   9.446  1.3811  0.8790  1.2777
13775SOL    HW242767   5.240   1.228   9.304 -0.6163 -0.1616  1.1856
13776SOL     OW42768   1.521   5.977  10.328  0.4211 -0.3783  0.0215
13776SOL    HW142769   1.570   5.985  10.410 -1.0449 -1.7641  1.0979
13776SOL    HW242770   1.429   5.976  10.354 -0.0785 -1.0803 -1.6050
13777SOL     OW42771   0.717   2.368   7.121 -0.1772 -0.3128 -0.5625
13777SOL    HW142772   0.650   2.413   7.174 -0.2975 -1.2860  0.1462
13777SOL    HW242773   0.694   2.389   7.030 -0.9016  0.1132 -0.2898
13778SOL     OW42774   4.581   4.380   4.275  0.3966  0.5640  0.7108
13778SOL    HW142775   4.641   4.325   4.226 -0.5045  0.1532  0.0305
13778SOL    HW242776   4.549   4.443   4.211 -1.6916 -0.7050  0.4091
13779SOL     OW42777   6.315   1.001   8.703  0.1130  0.0203  0.4820
13779SOL    HW142778   6.233   0.956   8.683 -0.0088  0.5165 -0.1517
13779SOL    HW242779   6.349   0.955   8.780 -0.8191 -0.1192  0.8253
13780SOL     OW42780   2.201   3.214   0.616 -0.2816 -0.1414 -0.5692
13780SOL    HW142781   2.218   3.123   0.640  0.8107 -0.6081 -2.7973
13780SOL    HW242782   2.271   3.264   0.659  1.1732 -0.8436 -2.0069
13781SOL     OW42783   6.387   2.367   5.342  0.1612 -0.1379  0.0807
13781SOL    HW142784   6.366   2.353   5.434 -1.0570 -1.8626 -0.4061
13781SOL    HW242785   6.316   2.423   5.309  1.1695  1.3756  0.3975
13782SOL     OW42786   6.224   7.574   3.351  0.3333 -0.1682  0.3055
13782SOL    HW142787   6.153   7.509   3.352  0.5343 -0.4448 -1.4541
13782SOL    HW242788   6.298   7.529   3.391 -0.3639  0.0345  1.9158
13783SOL     OW42789   6.366   6.769   1.428  0.4726 -0.3347 -0.1548
13783SOL    HW142790   6.425   6.822   1.481  1.0065  0.6755 -1.7194
13783SOL    HW242791   6.423   6.718   1.372 -0.1097 -0.2949 -0.7954
13784SOL     OW42792   3.913   3.428   9.223 -0.2127 -0.1995 -0.1292
13784SOL    HW142793   3.901   3.461   9.312 -3.1219 -3.2617  0.8266
13784SOL    HW242794   3.855   3.482   9.169  0.1714  0.4693  0.1047
13785SOL     OW42795   7.025   2.244   0.001  0.0048  0.0285  0.1988
13785SOL    HW142796   7.035   2.186  -0.075 -1.3554  0.8621 -0.6673
13785SOL    HW242797   7.104   2.298   0.001 -0.0163  0.0661 -0.6693
13786SOL     OW42798   0.596   7.203   4.977  0.5101  0.3526  0.1664
13786SOL    HW142799   0.686   7.232   4.991  0.7157 -0.5354  0.8065
13786SOL    HW242800   0.543   7.280   4.995  1.0630  0.5058  1.2444
13787SOL     OW42801   4.921   6.300   5.425 -0.4817 -0.5227  0.0150
13787SOL    HW142802   4.990   6.248   5.384  0.3652 -0.2058  1.0197
13787SOL    HW242803   4.966   6.372   5.467 -1.4552 -0.1449  0.4420
13788SOL     OW42804   5.730   6.223  10.361 -0.7899 -0.0995 -0.5011
13788SOL    HW142805   5.741   6.148  10.303 -0.7808 -0.1857 -0.3864
13788SOL    HW242806   5.720   6.298  10.301 -0.7182 -0.1794 -0.6136
13789SOL     OW42807   7.189   4.769  11.102  0.6002  0.5070 -0.3665
13789SOL    HW142808   7.122   4.835  11.088 -1.6779 -1.5115  0.2751
13789SOL    HW242809   7.189   4.718  11.021 -0.4214 -0.9129  0.4696
13790SOL     OW42810   4.771   1.635   4.984 -0.2412  0.3234 -0.1037
13790SOL    HW142811   4.733   1.623   5.071 -3.3432  1.3352 -1.1592
13790SOL    HW242812   4.773   1.730   4.971  1.0070  0.2207 -0.8340
13791SOL     OW42813   7.556   7.235   7.474  0.5347 -0.0656  0.1270
13791SOL    HW142814   7.494   7.185   7.527 -0.2493  1.5954  0.8629
13791SOL    HW242815   7.515   7.321   7.464  1.5587  0.2751 -1.5767
13792SOL     OW42816   6.285   6.179  10.301  0.2017 -0.3520 -0.2153
13792SOL    HW142817   6.292   6.275  10.295 -0.8742  0.0919  3.1081
13792SOL    HW242818   6.191   6.161  10.291 -0.2438 -0.4699  2.9506
13793SOL     OW42819   0.479   2.223   4.734 -0.2089  0.0313  0.2352
13793SOL    HW142820   0.473   2.205   4.828 -0.0807  0.5078  0.3415
13793SOL    HW242821   0.547   2.164   4.702 -0.1164  0.0059  0.4809
13794SOL     OW42822   7.756   6.759  12.047  0.3467  0.1772 -0.7902
13794SOL    HW142823   7.725   6.832  12.101 -0.3341 -0.4055 -0.3728
13794SOL    HW242824   7.680   6.733  11.996  0.3314 -0.7827 -0.3083
13795SOL     OW42825   1.803   0.156   5.703  0.0986 -0.7548  0.3122
13795SOL    HW142826   1.796   0.061   5.712  2.5466 -0.9749  0.8134
13795SOL    HW242827   1.854   0.184   5.780 -0.5370  0.9658  0.1598
13796SOL     OW42828   1.920   1.161   4.349 -0.0207 -0.2293 -0.5902
13796SOL    HW142829   1.910   1.071   4.382 -2.4579  0.5845  1.2175
13796SOL    HW242830   1.995   1.195   4.396 -1.4434 -0.1702  1.8284
13797SOL     OW42831   0.899   2.458  12.347  0.3750  0.1780 -0.0881
13797SOL    HW142832   0.901   2.542  12.301 -0.5963 -0.0004 -0.4871
13797SOL    HW242833   0.824   2.464  12.406  0.0794 -0.5290 -0.3752
13798SOL     OW42834   3.544   6.318   7.915  0.3029 -0.3705  0.4789
13798SOL    HW142835   3.468   6.369   7.885  0.8416 -0.1363 -0.5162
13798SOL    HW242836   3.525   6.228   7.890 -0.6595 -0.7198  2.2566
13799SOL     OW42837   6.800   1.776   5.082 -0.1220  0.3277  0.4228
13799SOL    HW142838   6.758   1.753   4.999 -1.2091 -0.8670  1.2870
13799SOL    HW242839   6.881   1.820   5.055 -1.1868  1.3886 -1.2728
13800SOL     OW42840   4.019   1.910   2.825  0.4303 -0.1554  0.4632
13800SOL    HW142841   4.094   1.862   2.862 -0.7725 -1.8635  0.8082
13800SOL    HW242842   4.058   1.984   2.779  2.4470 -1.7102 -0.4843
13801SOL     OW42843   4.476   1.535   8.767  0.2785  0.2923  0.1651
13801SOL    HW142844   4.407   1.573   8.713 -1.6252 -0.4636  1.9195
13801SOL    HW242845   4.494   1.450   8.726 -0.3925  0.1599  0.1459
13802SOL     OW42846   2.263   6.294   2.820  0.1263 -0.0251  0.1376
13802SOL    HW142847   2.222   6.262   2.901 -0.8606 -3.2575 -1.4535
13802SOL    HW242848   2.350   6.322   2.847 -0.3394 -0.5136  2.4054
13803SOL     OW42849   4.710   0.950   8.705  0.8808 -0.0857 -0.3352
13803SOL    HW142850   4.713   0.855   8.716  0.0149  0.1456  3.1542
13803SOL    HW242851   4.775   0.983   8.768  1.2593  1.6777 -1.5735
13804SOL     OW42852   6.394   4.019  10.999  0.4004 -0.7042  0.5694
13804SOL    HW142853   6.477   4.000  10.955  0.4319  1.2118 -0.2840
13804SOL    HW242854   6.416   4.080  11.068 -0.3770  0.4792 -0.1888
13805SOL     OW42855   5.732   4.173   4.296 -0.5208  0.0696  0.2646
13805SOL    HW142856   5.670   4.237   4.333 -0.3773  0.3101  0.0973
13805SOL    HW242857   5.678   4.115   4.243 -0.9325 -1.1117  1.9043
13806SOL     OW42858   6.975   5.995   2.860 -0.2675 -0.5441 -0.6317
13806SOL    HW142859   6.957   5.937   2.787  0.4395 -0.4714 -0.8708
13806SOL    HW242860   6.915   6.069   2.847 -1.2248 -1.2481 -0.2785
13807SOL     OW42861   7.521   3.445   1.687 -0.0131 -0.1520  0.4717
13807SOL    HW142862   7.463   3.499   1.741 -0.3135 -0.8004  0.8158
13807SOL    HW242863   7.571   3.393   1.750 -0.2968 -0.8435  0.1362
13808SOL     OW42864   4.180   1.782   2.435 -0.4498  0.1785 -0.2128
13808SOL    HW142865   4.109   1.846   2.424  1.3438  2.0843 -1.4338
13808SOL    HW242866   4.242   1.825   2.493  1.4040  0.1677 -2.0676
13809SOL     OW42867   4.165   5.550   0.039 -0.5726  0.3546  0.4239
13809SOL    HW142868   4.220   5.624   0.065  1.8140 -0.7521 -1.1696
13809SOL    HW242869   4.225   5.487   0.000 -2.9733 -0.9172 -1.5608
13810SOL     OW42870   4.604   4.671  10.419  0.2546  0.1027 -0.0811
13810SOL    HW142871   4.617   4.752  10.467 -0.2299  0.0123  0.2161
13810SOL    HW242872   4.524   4.686  10.369 -1.4727 -1.1305  2.1025
13811SOL     OW42873   3.684   2.413   7.738  0.5697 -0.1800 -0.0855
13811SOL    HW142874   3.601   2.454   7.713  0.5500 -0.4351 -0.4487
13811SOL    HW242875   3.719   2.470   7.806 -0.3644 -0.5899  0.7503
13812SOL     OW42876   2.043   0.809  12.057  0.4482 -0.0700 -0.6409
13812SOL    HW142877   1.987   0.737  12.084  0.9999 -0.9326 -1.7338
13812SOL    HW242878   2.127   0.769  12.037  1.3274  1.1270  0.4539
13813SOL     OW42879   7.870   3.527   1.789 -0.0668  1.0253  0.1859
13813SOL    HW142880   7.894   3.565   1.874 -1.4654 -0.1961  1.1859
13813SOL    HW242881   7.779   3.498   1.801  0.1287 -0.3484 -1.3185
13814SOL     OW42882   0.609   3.976   7.448 -0.1115 -0.2129 -0.4031
13814SOL    HW142883   0.652   3.997   7.365  0.6911  0.7365  0.2186
13814SOL    HW242884   0.535   3.921   7.424  1.7489 -2.4053 -1.5086
13815SOL     OW42885   2.191   5.952   9.176  0.0485 -0.2428 -0.4508
13815SOL    HW142886   2.122   5.918   9.119 -0.1169 -2.4163  0.9329
13815SOL    HW242887   2.249   5.877   9.191  0.8933  0.6597  1.0433
13816SOL     OW42888   7.196   7.787  11.768  0.1892  0.1387 -0.8914
13816SOL    HW142889   7.172   7.821  11.682  0.1873  1.9409 -0.2179
13816SOL    HW242890   7.128   7.822  11.827  0.8814 -0.0415  0.0233
13817SOL     OW42891   5.822   7.451   6.361 -0.0994  0.0909  0.1734
13817SOL    HW142892   5.751   7.502   6.323 -1.1773  1.1587  3.2878
13817SOL    HW242893   5.780   7.369   6.387 -0.0736  0.4448  1.3864
13818SOL     OW42894   7.003   0.794   2.129  0.4800 -0.2576  0.9763
13818SOL    HW142895   7.091   0.821   2.105  0.0373  0.8134  0.5026
13818SOL    HW242896   6.985   0.839   2.211  0.2911 -0.2778  0.9472
13819SOL     OW42897   3.062   7.620   3.759 -0.1255 -0.3141  0.0443
13819SOL    HW142898   2.973   7.601   3.789 -0.4181  1.2809  0.2639
13819SOL    HW242899   3.087   7.542   3.708 -1.5972 -0.8289  0.0617
13820SOL     OW42900   5.775   5.915   6.651 -0.5125  0.5650 -0.2854
13820SOL    HW142901   5.746   5.828   6.681 -1.1947 -0.5318 -3.6621
13820SOL    HW242902   5.852   5.934   6.704  1.2548 -3.3405 -1.0886
13821SOL     OW42903   0.240   5.332  11.196 -0.0276 -0.0464 -0.0875
13821SOL    HW142904   0.302   5.397  11.230  0.0950 -0.0068 -0.3798
13821SOL    HW242905   0.272   5.248  11.229 -1.1265  0.1836  1.6811
13822SOL     OW42906   6.905   7.248   6.993  0.1776  0.4847 -0.3446
13822SOL    HW142907   6.810   7.247   6.998  0.1868  0.8656  0.0574
13822SOL    HW242908   6.929   7.336   7.024  0.5667  1.0980 -2.2837
13823SOL     OW42909   7.411   6.265   3.140  1.1640  0.4682  0.0831
13823SOL    HW142910   7.342   6.327   3.161  1.3885  0.3182  1.3221
13823SOL    HW242911   7.430   6.281   3.047 -0.5764  0.4463 -0.3077
13824SOL     OW42912   2.810   6.827  11.647 -0.1273 -0.2096  0.2722
13824SOL    HW142913   2.840   6.860  11.562 -1.5030 -0.3054 -0.2673
13824SOL    HW242914   2.811   6.904  11.704 -0.6902  0.1888 -0.2488
13825SOL     OW42915   0.819   0.177   5.434 -0.7373 -0.1606  0.5147
13825SOL    HW142916   0.877   0.251   5.418  0.9028 -1.6046 -0.5607
13825SOL    HW242917   0.792   0.187   5.525  1.0674  0.6836  1.0017
13826SOL     OW42918   1.259   4.240   5.695  0.1373  0.0853 -0.1313
13826SOL    HW142919   1.212   4.311   5.739 -2.6323 -1.4765 -0.3868
13826SOL    HW242920   1.240   4.252   5.602  0.4073 -0.4843 -0.2634
13827SOL     OW42921   6.100   5.363  11.480 -0.8192 -0.0237  0.2131
13827SOL    HW142922   6.065   5.414  11.554 -1.4507  0.7444 -0.5852
13827SOL    HW242923   6.098   5.424  11.406  1.6213 -0.1701 -0.0379
13828SOL     OW42924   2.644   7.058   7.493 -0.3286  0.2791 -0.1514
13828SOL    HW142925   2.636   7.069   7.398 -0.3832  2.1116  0.0266
13828SOL    HW242926   2.575   7.113   7.529 -0.2846 -0.3745  0.9625
13829SOL     OW42927   7.268   1.796   9.290  1.0518 -0.5050  0.4317
13829SOL    HW142928   7.334   1.840   9.343 -1.5938  1.6024  2.2130
13829SOL    HW242929   7.217   1.744   9.352 -0.6142  0.0796 -0.3821
13830SOL     OW42930   4.562   1.286   2.367  0.1175  0.1392 -0.1053
13830SOL    HW142931   4.652   1.268   2.339  0.1251 -1.7160  0.9426
13830SOL    HW242932   4.568   1.369   2.415  1.1723  0.3056 -0.4970
13831SOL     OW42933   5.160   7.805   4.574 -0.8144 -0.0100 -0.5632
13831SOL    HW142934   5.069   7.823   4.549 -1.9752 -1.0896  2.3664
13831SOL    HW242935   5.210   7.880   4.541 -2.8159  0.8207 -1.8976
13832SOL     OW42936   0.932   2.985   3.707  0.4005  0.2748 -0.0147
13832SOL    HW142937   0.940   2.902   3.754 -2.6573  1.0617  2.2306
13832SOL    HW242938   0.997   3.042   3.747  0.8256 -0.3290  0.1620
13833SOL     OW42939   6.348   6.490   2.148  0.1255 -0.2958 -1.0904
13833SOL    HW142940   6.275   6.436   2.118 -0.8250  1.2369 -1.6872
13833SOL    HW242941   6.390   6.520   2.068  0.8555 -0.4175 -0.7609
13834SOL     OW42942   0.198   3.252   3.193  0.4445  0.1700  0.0970
13834SOL    HW142943   0.292   3.232   3.192  0.5219  0.5405  0.0070
13834SOL    HW242944   0.158   3.176   3.235  0.6525 -0.5840 -1.0155
13835SOL     OW42945   6.051   3.265   5.069 -0.6524 -0.6118  0.3594
13835SOL    HW142946   5.957   3.247   5.072 -0.5869 -0.8874  0.8403
13835SOL    HW242947   6.079   3.265   5.161 -0.4231  0.7703  0.3096
13836SOL     OW42948   3.809   2.561   9.656  0.0046  0.0964  0.0643
13836SOL    HW142949   3.845   2.504   9.724 -0.0610  0.9520  0.8273
13836SOL    HW242950   3.721   2.526   9.639  1.0715 -1.9436 -1.7369
13837SOL     OW42951   4.692   7.550   8.890  0.0742  0.2958  0.3579
13837SOL    HW142952   4.765   7.546   8.951 -1.2782  0.0987  2.0316
13837SOL    HW242953   4.614   7.553   8.945 -1.2370 -0.1873 -1.3568
13838SOL     OW42954   7.695   4.072  11.973 -0.2134 -0.4225  0.5558
13838SOL    HW142955   7.685   4.048  12.065 -2.4062  0.3190  0.5753
13838SOL    HW242956   7.626   4.137  11.957  1.6175  1.3179 -1.0148
13839SOL     OW42957   3.342   5.685   1.311 -0.4816 -0.8227 -0.0527
13839SOL    HW142958   3.283   5.621   1.271 -0.2216 -0.9510 -0.2373
13839SOL    HW242959   3.382   5.638   1.384 -1.4716 -0.3749  0.8017
13840SOL     OW42960   2.601   1.070   1.464 -0.5570 -0.5620 -0.2848
13840SOL    HW142961   2.643   1.032   1.387 -0.4300 -0.8993 -0.0551
13840SOL    HW242962   2.674   1.105   1.516 -0.7674  1.1318 -1.0846
13841SOL     OW42963   5.900   1.502   6.473 -0.6072 -0.1214  0.2401
13841SOL    HW142964   5.894   1.427   6.532  1.0407 -0.5341 -0.0751
13841SOL    HW242965   5.888   1.465   6.385  2.3215 -0.4641 -0.1230
13842SOL     OW42966   6.419   3.688  11.349 -0.2471  0.2956  0.2712
13842SOL    HW142967   6.348   3.644  11.395  0.8077  0.2067  1.8660
13842SOL    HW242968   6.497   3.669  11.400  0.9302  0.5323 -1.3430
13843SOL     OW42969   6.320   5.362   6.572  0.2076  0.4476 -0.6727
13843SOL    HW142970   6.238   5.327   6.537  0.6387 -0.9179 -0.3930
13843SOL    HW242971   6.386   5.296   6.548  0.8781  0.5314  0.8498
13844SOL     OW42972   4.544   1.045   5.276  0.0723  0.8057 -0.2769
13844SOL    HW142973   4.463   1.071   5.231 -0.3407  0.6723  0.3772
13844SOL    HW242974   4.517   0.976   5.336  0.9272 -0.2594 -1.0738
13845SOL     OW42975   0.409   6.814   4.076  0.2368  0.1030 -0.0423
13845SOL    HW142976   0.409   6.836   3.982  0.9976  0.6591  0.0731
13845SOL    HW242977   0.325   6.772   4.091 -0.0191  0.2773 -0.9201
13846SOL     OW42978   7.862   0.145   8.967  0.1932  0.0623 -0.5453
13846SOL    HW142979   7.925   0.109   9.029 -0.3849  2.0921  1.3538
13846SOL    HW242980   7.842   0.073   8.907  0.8294 -1.9820  1.5802
13847SOL     OW42981   3.841   1.013   0.598  0.1701 -0.0532 -0.5040
13847SOL    HW142982   3.807   0.965   0.674  1.5909 -0.9236 -0.3851
13847SOL    HW242983   3.805   0.968   0.522  2.8739 -2.5496 -0.4582
13848SOL     OW42984   0.863   7.650   3.175  0.2456 -0.2708  0.3543
13848SOL    HW142985   0.888   7.668   3.266  2.5143 -3.8092  0.6405
13848SOL    HW242986   0.945   7.658   3.126 -0.9963  1.9385 -1.5757
13849SOL     OW42987   1.716   1.861   7.149  0.0080 -0.0472 -0.1139
13849SOL    HW142988   1.790   1.902   7.104 -0.5438 -0.3293 -1.3116
13849SOL    HW242989   1.639   1.897   7.106 -0.5947  0.6733  1.4882
13850SOL     OW42990   0.945   5.533   2.004 -0.2581 -0.1136  0.4918
13850SOL    HW142991   0.933   5.488   2.088  0.8564 -0.8857  0.2541
13850SOL    HW242992   0.860   5.525   1.961 -0.3431 -1.2519  0.8229
13851SOL     OW42993   6.788   0.255   3.405  0.0397  0.0066 -0.1322
13851SOL    HW142994   6.804   0.232   3.314 -0.5300 -1.5969  0.1379
13851SOL    HW242995   6.721   0.193   3.434 -0.2897  0.9431  1.1771
13852SOL     OW42996   2.715   1.629   9.796  0.2157  0.6495  0.1975
13852SOL    HW142997   2.703   1.718   9.761  0.6661  0.2407 -1.0589
13852SOL    HW242998   2.783   1.591   9.741  2.0819  0.4442  2.4831
13853SOL     OW42999   5.774   6.792   1.533 -0.2673  0.0810  0.2169
13853SOL    HW143000   5.723   6.834   1.602 -0.7822  0.5905 -0.4514
13853SOL    HW243001   5.823   6.724   1.577  0.2297  1.0874  1.2591
13854SOL     OW43002   2.394   2.062   1.862  0.0071 -0.7110  0.2523
13854SOL    HW143003   2.377   2.024   1.776 -1.1480  0.7342 -0.2051
13854SOL    HW243004   2.333   2.135   1.868 -1.7762 -2.2584  3.3394
13855SOL     OW43005   2.279   3.864  10.471  0.0216 -0.5637 -0.6196
13855SOL    HW143006   2.190   3.836  10.447  0.3659 -2.0104 -0.2921
13855SOL    HW243007   2.330   3.851  10.391 -0.6297  3.3337 -1.8637
13856SOL     OW43008   5.138   4.546   1.696  0.1556 -0.2301 -0.0348
13856SOL    HW143009   5.051   4.554   1.735  0.5513 -0.4451  0.9344
13856SOL    HW243010   5.125   4.491   1.619 -0.7139  0.5160 -0.4476
13857SOL     OW43011   2.807   4.046   7.429  0.3224 -0.2507  0.1924
13857SOL    HW143012   2.809   3.981   7.358 -1.9321 -0.7880  0.5442
13857SOL    HW243013   2.819   3.995   7.509  1.6777  0.2096  0.3131
13858SOL     OW43014   4.200   0.064   4.594 -0.6822 -0.3898  0.0315
13858SOL    HW143015   4.273   0.018   4.553  0.0407  1.7055 -1.1868
13858SOL    HW243016   4.238   0.104   4.672 -0.9769 -0.6895  0.3347
13859SOL     OW43017   1.418   6.941   0.366 -0.4054 -0.0935 -0.2155
13859SOL    HW143018   1.481   7.013   0.363  0.1451 -0.5891 -1.3001
13859SOL    HW243019   1.348   6.973   0.423 -0.8852  1.8986 -1.8035
13860SOL     OW43020   6.423   7.457   8.197 -0.1428  0.3401  0.4451
13860SOL    HW143021   6.511   7.469   8.162 -0.3993  0.1675 -0.2760
13860SOL    HW243022   6.368   7.445   8.120 -0.9609  1.4332  0.8246
13861SOL     OW43023   0.763   7.242   7.203  0.3427 -0.0169 -0.0191
13861SOL    HW143024   0.809   7.177   7.150 -0.0132  1.1420 -1.8255
13861SOL    HW243025   0.673   7.240   7.171  0.3775  1.5146 -0.3164
13862SOL     OW43026   4.323   4.168   3.589  0.4793  0.3099  0.0980
13862SOL    HW143027   4.244   4.220   3.572  0.6189  0.6988  0.6010
13862SOL    HW243028   4.308   4.086   3.543  0.1208  0.6808 -0.4516
13863SOL     OW43029   1.133   3.349   7.350  0.4356 -0.7153 -0.2445
13863SOL    HW143030   1.133   3.399   7.431 -1.6337  2.0910 -1.7943
13863SOL    HW243031   1.096   3.264   7.374  0.5206 -0.2157  1.8475
13864SOL     OW43032   7.140   0.238   6.152 -0.2962  0.1904  0.3377
13864SOL    HW143033   7.194   0.165   6.182 -0.4139 -0.3893 -0.8066
13864SOL    HW243034   7.200   0.294   6.103 -0.7940 -0.7662 -1.4583
13865SOL     OW43035   2.569   7.076  12.144 -0.0327 -0.0391  0.2323
13865SOL    HW143036   2.565   6.982  12.126 -0.9753 -0.1551  0.9521
13865SOL    HW243037   2.576   7.117  12.058  1.8226 -0.8051 -0.0376
13866SOL     OW43038   1.479   4.561   9.930  0.1880 -0.3849  0.2798
13866SOL    HW143039   1.430   4.507   9.992  0.6578  1.1703  2.1127
13866SOL    HW243040   1.417   4.578   9.859 -0.6989 -1.4289  0.7663
13867SOL     OW43041   4.807   1.171   2.706 -0.0589 -0.1550 -0.4611
13867SOL    HW143042   4.733   1.131   2.661  0.2119 -0.3749 -0.7155
13867SOL    HW243043   4.850   1.224   2.639 -0.4620  0.6353 -0.1066
13868SOL     OW43044   5.091   3.676   3.242 -0.1077  0.0680  0.4101
13868SOL    HW143045   5.117   3.763   3.214 -0.2982 -0.2026 -0.6704
13868SOL    HW243046   5.007   3.661   3.198 -0.5442 -0.2868  1.3514
13869SOL     OW43047   2.550   5.207   1.520 -0.5390  0.5411 -0.4010
13869SOL    HW143048   2.612   5.221   1.591 -0.5977  1.0539 -0.4466
13869SOL    HW243049   2.500   5.289   1.515 -2.0772 -0.2976  0.4623
13870SOL     OW43050   1.231   7.911   5.051 -0.5521  0.4347  0.3161
13870SOL    HW143051   1.235   7.973   4.978 -1.2735 -0.2452 -0.3122
13870SOL    HW243052   1.147   7.928   5.093 -1.9677 -1.7595 -1.3940
13871SOL     OW43053   2.012   3.201   0.132 -0.2890 -0.0824  0.3738
13871SOL    HW143054   1.926   3.213   0.094 -0.3883  2.6718  1.2224
13871SOL    HW243055   2.072   3.205   0.057 -0.7986 -0.7204 -0.0808
13872SOL     OW43056   4.555   0.723   6.128  0.2817  0.3173  0.0639
13872SOL    HW143057   4.646   0.726   6.098  0.0080  2.3788 -0.7985
13872SOL    HW243058   4.504   0.715   6.048 -0.3338 -3.0706  0.6560
13873SOL     OW43059   2.226   4.110   5.122  0.4105  0.0553  0.0746
13873SOL    HW143060   2.214   4.163   5.043  1.9810  1.2513  0.5815
13873SOL    HW243061   2.138   4.086   5.149 -0.2805  1.4626 -0.8241
13874SOL     OW43062   5.743   5.762   2.633  0.3354 -0.4398 -0.1021
13874SOL    HW143063   5.666   5.798   2.675  0.2491 -1.2523  0.4442
13874SOL    HW243064   5.766   5.826   2.565  0.6098  0.9885  1.3004
13875SOL     OW43065   5.949   1.670   2.546 -0.2241 -0.4576 -0.1642
13875SOL    HW143066   6.002   1.670   2.467 -0.3845 -1.7687 -0.2899
13875SOL    HW243067   6.012   1.654   2.617 -0.3067 -1.0608 -0.2188
13876SOL     OW43068   4.254   3.798   6.054  0.0158 -0.7897 -0.0752
13876SOL    HW143069   4.171   3.836   6.025 -1.0145 -2.7222  0.1540
13876SOL    HW243070   4.295   3.765   5.974  0.8815  0.6918 -0.2675
13877SOL     OW43071   5.814   2.185  10.005 -0.1076  0.3953  0.0572
13877SOL    HW143072   5.772   2.168   9.920 -1.4208 -1.7574  1.0377
13877SOL    HW243073   5.745   2.225  10.058  0.0641 -0.1040  0.6755
13878SOL     OW43074   6.662   5.226   8.726  0.3982  0.3418  0.0379
13878SOL    HW143075   6.613   5.288   8.673 -0.1376 -0.3431 -0.2863
13878SOL    HW243076   6.599   5.193   8.789  0.7432  0.3124  0.3680
13879SOL     OW43077   0.408   3.480   8.043 -0.1131  0.0577 -0.0404
13879SOL    HW143078   0.356   3.507   8.119 -0.0018 -1.3942  0.5745
13879SOL    HW243079   0.499   3.490   8.072 -0.0647  0.0375 -0.1862
13880SOL     OW43080   2.844   0.788   0.800 -0.1631 -0.1629 -0.6489
13880SOL    HW143081   2.766   0.754   0.845 -1.3161 -1.9947 -3.7419
13880SOL    HW243082   2.883   0.712   0.757  2.7358  0.9240 -0.1780
13881SOL     OW43083   4.969   0.167   7.937 -0.1189 -0.1602  0.3672
13881SOL    HW143084   5.042   0.224   7.913 -0.1507 -0.7947 -1.3581
13881SOL    HW243085   5.002   0.078   7.923 -1.2505 -0.4580 -0.6461
13882SOL     OW43086   3.799   7.764   4.841  0.1242 -0.4491 -0.3275
13882SOL    HW143087   3.861   7.759   4.768  1.8421 -0.5175  1.0515
13882SOL    HW243088   3.799   7.857   4.866  2.0243 -0.8413  1.4954
13883SOL     OW43089   2.739   0.067  10.538  0.7702  0.4050 -0.1964
13883SOL    HW143090   2.828   0.077  10.572  0.7607 -0.0073 -0.0388
13883SOL    HW243091   2.741   0.108  10.452  1.0061  0.7564 -0.0250
13884SOL     OW43092   1.966   3.825   2.575 -0.4274 -0.0229 -0.0682
13884SOL    HW143093   1.925   3.801   2.658  0.0096  1.5668  0.6523
13884SOL    HW243094   1.893   3.846   2.517 -0.7182  1.1425  0.6744
13885SOL     OW43095   7.856   2.929  10.662  0.0067 -0.0551 -0.3576
13885SOL    HW143096   7.809   2.969  10.589 -0.0487  0.2617 -0.1548
13885SOL    HW243097   7.788   2.888  10.715  0.0999 -0.6985 -0.7360
13886SOL     OW43098   1.044   0.039   2.934 -0.3006 -0.1231  0.3494
13886SOL    HW143099   1.118   0.084   2.975 -1.6006  1.1613  1.3899
13886SOL    HW243100   0.973   0.103   2.936 -1.1910 -0.9882 -1.4981
13887SOL     OW43101   0.363   4.401  12.383 -0.4937  0.0881  0.1624
13887SOL    HW143102   0.412   4.318  12.389  0.5841  0.7983  2.6489
13887SOL    HW243103   0.319   4.409  12.468 -2.2111  1.1423 -0.7728
13888SOL     OW43104   3.770   4.560   0.821 -0.7022  0.1254  0.0518
13888SOL    HW143105   3.851   4.574   0.870 -1.3570  0.1226  1.1597
13888SOL    HW243106   3.752   4.644   0.780  0.6708 -0.2831 -1.4958
13889SOL     OW43107   5.654   1.369   4.734  0.7507 -0.2259 -0.3666
13889SOL    HW143108   5.576   1.350   4.682  0.2954  1.8199 -0.5054
13889SOL    HW243109   5.677   1.285   4.774 -1.0552 -1.0446 -0.9451
13890SOL     OW43110   7.406   1.687   1.128 -0.7140  0.8194 -0.0042
13890SOL    HW143111   7.366   1.610   1.089  0.1163 -0.1436  0.9691
13890SOL    HW243112   7.390   1.678   1.222  0.1438  1.3677  0.2106
13891SOL     OW43113   1.760   7.635   0.073  0.2061  0.1475 -0.0190
13891SOL    HW143114   1.669   7.606   0.071  0.5940 -1.2084  0.7956
13891SOL    HW243115   1.760   7.716   0.022 -1.0806 -0.9144 -1.8260
13892SOL     OW43116   3.255   1.693   7.383 -0.0761 -0.0886 -0.3511
13892SOL    HW143117   3.174   1.692   7.331 -2.5889 -1.4808  3.1581
13892SOL    HW243118   3.300   1.612   7.360 -1.3145 -0.8502 -0.2012
13893SOL     OW43119   0.283   2.801   5.855  0.1083 -0.3075  0.5069
13893SOL    HW143120   0.374   2.771   5.861  0.6333  0.8322 -1.1869
13893SOL    HW243121   0.288   2.896   5.871 -0.9454 -0.3978  1.4894
13894SOL     OW43122   3.246   5.493   2.133 -0.3726  0.3907  0.1757
13894SOL    HW143123   3.262   5.569   2.077  0.3076 -0.4798 -0.8335
13894SOL    HW243124   3.317   5.496   2.197  0.1514  0.1310 -0.3862
13895SOL     OW43125   4.955   1.744   2.628  0.3058  0.3997 -0.3075
13895SOL    HW143126   4.953   1.797   2.708 -2.2941 -0.6293  0.4088
13895SOL    HW243127   4.887   1.782   2.572 -1.5524 -1.9455  0.1809
13896SOL     OW43128   0.329   5.789  10.379 -0.4093  0.4671 -0.4856
13896SOL    HW143129   0.319   5.865  10.436  0.5886  1.2370 -1.3093
13896SOL    HW243130   0.394   5.734  10.422 -0.7913  0.2896 -0.1254
13897SOL     OW43131   3.523   3.980   5.456 -0.3667  0.0743 -0.0664
13897SOL    HW143132   3.482   3.966   5.371 -0.9216  1.0284  0.0237
13897SOL    HW243133   3.455   4.019   5.509  0.3728  0.7789  0.3899
13898SOL     OW43134   6.333   0.491   4.574 -0.1752 -0.0218 -0.3055
13898SOL    HW143135   6.429   0.499   4.573 -0.0673 -0.4342  1.6364
13898SOL    HW243136   6.306   0.515   4.486  1.5378  2.5561 -0.2639
13899SOL     OW43137   0.842   1.082   1.206  0.4609 -0.0428  0.1150
13899SOL    HW143138   0.788   1.085   1.285 -1.5558  0.2367 -1.2015
13899SOL    HW243139   0.903   1.009   1.221 -1.2273 -1.3162  1.1042
13900SOL     OW43140   0.235   7.555   7.432  0.6009 -0.3705  0.0743
13900SOL    HW143141   0.162   7.569   7.372 -0.0441  3.5102  1.4505
13900SOL    HW243142   0.195   7.529   7.515  0.3880  3.0207  1.2169
13901SOL     OW43143   4.288   7.338   9.517  0.0348 -0.3411 -0.0643
13901SOL    HW143144   4.289   7.418   9.464 -0.7456 -1.2622 -1.5343
13901SOL    HW243145   4.362   7.287   9.486  0.5971 -0.1690  0.9497
13902SOL     OW43146   5.086   2.397   3.391  0.1243  0.2201 -0.0295
13902SOL    HW143147   5.108   2.487   3.412 -2.4878  1.0065 -0.2750
13902SOL    HW243148   5.130   2.345   3.458  1.7087  1.6463  0.0975
13903SOL     OW43149   0.450   7.769   3.511  0.0875  0.0913 -0.1169
13903SOL    HW143150   0.483   7.763   3.600  1.0530 -0.5550 -0.4950
13903SOL    HW243151   0.423   7.680   3.489  1.5372 -0.1503 -1.0589
13904SOL     OW43152   6.071   0.072   6.579 -0.0036 -0.1640  0.3399
13904SOL    HW143153   6.002   0.117   6.629 -2.2703 -1.9224 -0.9939
13904SOL    HW243154   6.069  -0.018   6.610 -0.2584 -0.8865 -1.6302
13905SOL     OW43155   3.505   0.735  11.427 -0.1995 -0.3866  0.3549
13905SOL    HW143156   3.422   0.688  11.426  0.2444 -1.2457  1.8652
13905SOL    HW243157   3.508   0.778  11.513  0.9384 -0.4162  0.3503
13906SOL     OW43158   1.751   2.939   4.371 -0.2854 -0.2186  0.1579
13906SOL    HW143159   1.776   2.987   4.291  2.0011 -1.0381  0.3172
13906SOL    HW243160   1.656   2.943   4.371 -0.2995  3.3334 -0.4391
13907SOL     OW43161   1.908   6.615   5.184  0.6823 -0.3758 -0.4769
13907SOL    HW143162   1.873   6.528   5.206  0.1271 -0.0759 -0.1415
13907SOL    HW243163   1.967   6.636   5.257  2.0956 -1.1509 -1.3479
13908SOL     OW43164   5.757   4.189   3.307  0.2975 -0.3279 -0.6688
13908SOL    HW143165   5.666   4.191   3.278  0.2963  0.6501 -0.6218
13908SOL    HW243166   5.797   4.120   3.253 -0.8089 -1.8910  0.4188
13909SOL     OW43167   7.110   6.904   5.425 -0.0763  0.2237  0.6037
13909SOL    HW143168   7.027   6.930   5.464 -0.1111  0.6116  0.2763
13909SOL    HW243169   7.136   6.978   5.371  1.2021  0.7069  1.8280
13910SOL     OW43170   4.109   3.413   4.214  0.3781  0.3754 -0.1725
13910SOL    HW143171   4.095   3.435   4.306  0.3309 -2.5267  0.5852
13910SOL    HW243172   4.022   3.417   4.175  0.4169  1.7489 -0.1937
13911SOL     OW43173   3.464   1.868   7.521  0.5837  0.0666  0.2656
13911SOL    HW143174   3.400   1.815   7.474  0.5032  0.8535 -0.5381
13911SOL    HW243175   3.514   1.804   7.572 -0.9646 -0.5473  1.0945
13912SOL     OW43176   2.230   0.321   9.540  0.5565  0.1921 -0.0188
13912SOL    HW143177   2.298   0.328   9.473  1.4579  0.7408  0.9167
13912SOL    HW243178   2.238   0.231   9.572 -1.7357 -1.0240 -2.4911
13913SOL     OW43179   1.033   7.028   7.364  0.0174 -0.2057 -0.1584
13913SOL    HW143180   1.033   6.996   7.274 -0.0576  1.1092 -0.6438
13913SOL    HW243181   1.058   6.952   7.416 -1.6735 -1.4713 -1.0966
13914SOL     OW43182   6.256   0.520   5.344  0.4047  0.1710  0.5937
13914SOL    HW143183   6.191   0.476   5.289  0.3917  0.1721  0.6087
13914SOL    HW243184   6.339   0.509   5.297  0.4111  0.0783  0.6274
13915SOL     OW43185   6.205   7.358   3.631  0.5254  0.8477  0.5291
13915SOL    HW143186   6.269   7.417   3.672  0.2661  2.0888 -0.7549
13915SOL    HW243187   6.254   7.317   3.559  0.3398  0.5122  0.5942
13916SOL     OW43188   4.176   1.770  10.205 -0.3640  0.0921 -0.8269
13916SOL    HW143189   4.200   1.730  10.289 -0.3689 -0.6004 -1.1475
13916SOL    HW243190   4.190   1.864  10.218  1.1701 -0.1508 -0.5430
13917SOL     OW43191   4.482   5.561   3.387  0.3613 -0.1566 -0.7379
13917SOL    HW143192   4.523   5.560   3.301  0.6992 -0.6969 -0.5776
13917SOL    HW243193   4.396   5.523   3.373  0.9731 -1.6902 -0.5866
13918SOL     OW43194   6.903   3.462   5.666 -0.5960 -0.0395  0.6111
13918SOL    HW143195   6.898   3.516   5.745 -0.4207  1.3101 -0.2577
13918SOL    HW243196   6.868   3.518   5.597 -0.7557 -1.1945 -0.2793
13919SOL     OW43197   2.090   0.586   3.705  0.3750 -0.5062  0.3704
13919SOL    HW143198   2.120   0.663   3.752 -0.2479  0.0662 -0.1322
13919SOL    HW243199   2.068   0.522   3.773 -0.5770  0.3270  0.8761
13920SOL     OW43200   7.639   2.095   5.401  0.2699 -0.0994  0.0538
13920SOL    HW143201   7.686   2.031   5.347 -1.0252 -0.7297 -0.3583
13920SOL    HW243202   7.699   2.113   5.473  0.2685 -2.6327  0.7915
13921SOL     OW43203   3.420   2.540   4.043 -0.1479  0.0994 -0.0571
13921SOL    HW143204   3.381   2.454   4.055  0.7545 -0.4372 -0.8626
13921SOL    HW243205   3.397   2.588   4.123 -1.0988 -0.7014  0.1732
13922SOL     OW43206   7.687   6.511   6.138 -0.0594  0.6255 -0.4421
13922SOL    HW143207   7.627   6.437   6.130 -0.9324  1.2698 -0.0309
13922SOL    HW243208   7.708   6.515   6.232 -0.3586  1.1533 -0.3933
13923SOL     OW43209   2.420   0.149  12.026  0.4657 -0.6271 -0.5173
13923SOL    HW143210   2.511   0.164  12.052 -0.1515  0.4946  1.1475
13923SOL    HW243211   2.393   0.072  12.076  0.2956 -0.5600 -0.5066
13924SOL     OW43212   0.417   5.209   8.044 -0.3434  0.0135  0.1297
13924SOL    HW143213   0.487   5.176   7.987  0.1035 -0.7189  1.0879
13924SOL    HW243214   0.337   5.169   8.011  0.0617 -1.2729  0.6790
13925SOL     OW43215   5.777   7.868   5.191  0.1873  0.0911  0.3690
13925SOL    HW143216   5.782   7.958   5.158  0.2728 -0.6595 -1.8513
13925SOL    HW243217   5.788   7.814   5.113 -0.1676 -1.8578  1.6100
13926SOL     OW43218   6.136   5.764   7.815  0.2469  0.0191 -0.3679
13926SOL    HW143219   6.082   5.831   7.856 -0.8952 -0.9704 -0.1917
13926SOL    HW243220   6.219   5.766   7.863 -1.2795 -1.6289  2.6396
13927SOL     OW43221   5.505   3.264   2.055 -0.4142 -0.1017  0.1228
13927SOL    HW143222   5.525   3.350   2.092  1.0533 -0.9799  1.4476
13927SOL    HW243223   5.499   3.280   1.960  3.0683  0.9507 -0.0337
13928SOL     OW43224   0.924   3.953   1.477 -0.1380 -0.0774  0.3636
13928SOL    HW143225   0.884   3.927   1.560 -0.0987  0.7350  0.6445
13928SOL    HW243226   0.864   4.019   1.441 -0.9880 -1.5220 -1.0220
13929SOL     OW43227   1.574   3.801   8.852 -0.0819 -0.0243 -0.1871
13929SOL    HW143228   1.589   3.872   8.789  0.6532  0.2050  0.2390
13929SOL    HW243229   1.652   3.801   8.908 -1.5421  1.1317  2.0263
13930SOL     OW43230   3.716   5.584   7.760  0.0722 -0.2225  0.4601
13930SOL    HW143231   3.745   5.636   7.685 -1.2570  0.6488  0.5228
13930SOL    HW243232   3.785   5.595   7.825  2.2751 -2.5901 -1.2482
13931SOL     OW43233   5.809   5.681   8.407  0.3744  0.1853  0.8534
13931SOL    HW143234   5.841   5.651   8.492  0.5254  1.7209  1.3660
13931SOL    HW243235   5.759   5.760   8.427  0.4635  0.6037 -0.5025
13932SOL     OW43236   0.358   1.633   6.065 -0.0544  0.2766  0.3850
13932SOL    HW143237   0.340   1.684   5.986 -1.6126  0.5027  0.8610
13932SOL    HW243238   0.422   1.685   6.114 -0.6186  1.1325  0.2252
13933SOL     OW43239   1.979   0.320   6.775 -0.3049  0.5027  0.2840
13933SOL    HW143240   2.013   0.409   6.776  1.4190 -0.0897 -0.0714
13933SOL    HW243241   2.055   0.267   6.750 -1.3202 -1.0445  0.3616
13934SOL     OW43242   5.380   0.058   4.818  0.3556 -0.4545 -0.4265
13934SOL    HW143243   5.390   0.039   4.911 -1.7373 -0.7597 -0.2031
13934SOL    HW243244   5.285   0.071   4.806  0.6760  0.5310 -2.3356
13935SOL     OW43245   6.394   6.785   2.488 -0.2125  0.1329  0.3233
13935SOL    HW143246   6.391   6.690   2.499  0.6138 -0.0110 -0.5834
13935SOL    HW243247   6.372   6.799   2.395  2.1333  0.6255 -0.2159
13936SOL     OW43248   0.072   0.936   7.682 -0.0793 -0.0734 -0.3486
13936SOL    HW143249   0.028   0.871   7.627 -0.9791 -0.7332  1.1014
13936SOL    HW243250   0.076   0.896   7.769 -0.9813  1.9400  0.6957
13937SOL     OW43251   6.261   0.982   4.806  0.5901 -0.4120  0.5413
13937SOL    HW143252   6.182   0.950   4.764  0.2460  0.4095  0.5423
13937SOL    HW243253   6.332   0.938   4.760  0.1376 -1.1405  0.5279
13938SOL     OW43254   1.507   1.568   0.048 -0.4565 -0.2643 -0.0096
13938SOL    HW143255   1.556   1.542   0.126 -0.3033 -0.2614 -0.1025
13938SOL    HW243256   1.415   1.551   0.070 -0.7167  2.1889  1.1392
13939SOL     OW43257   6.212   5.751   6.734 -0.1007 -0.0035 -0.1801
13939SOL    HW143258   6.129   5.704   6.747 -0.1299 -0.4987 -1.9070
13939SOL    HW243259   6.277   5.681   6.730  0.3012  0.3361  0.3685
13940SOL     OW43260   1.376   4.712  10.755 -0.0872 -0.3899 -0.4405
13940SOL    HW143261   1.328   4.775  10.702  0.9612 -0.3966 -1.4577
13940SOL    HW243262   1.468   4.735  10.741  0.2743 -1.5239 -0.0457
13941SOL     OW43263   6.445   5.489   2.139 -0.1782  0.3734  0.3311
13941SOL    HW143264   6.453   5.394   2.141 -2.7866  0.0792  2.4440
13941SOL    HW243265   6.395   5.507   2.059 -0.7371 -0.2020  0.5353
13942SOL     OW43266   4.706   7.746   6.749 -0.0077 -0.3246  0.1515
13942SOL    HW143267   4.688   7.788   6.664 -0.4431 -0.2593  0.2695
13942SOL    HW243268   4.739   7.660   6.727  2.0336  0.4818 -0.1229
13943SOL     OW43269   2.348   7.810   6.647  0.2740  0.4343  0.4868
13943SOL    HW143270   2.332   7.904   6.641  1.6106  0.6305 -0.4888
13943SOL    HW243271   2.395   7.798   6.729 -1.0783  0.4173  1.2782
13944SOL     OW43272   5.129   1.047   3.526 -0.2737  0.0919  0.5896
13944SOL    HW143273   5.214   1.091   3.520  0.2977 -1.0568 -0.2690
13944SOL    HW243274   5.129   0.987   3.452 -1.7137 -0.1579  0.7756
13945SOL     OW43275   2.935   4.637   6.733  0.8002  0.2231  0.0916
13945SOL    HW143276   3.024   4.603   6.727  0.2649 -0.9865 -2.7142
13945SOL    HW243277   2.894   4.611   6.650 -1.3760  3.0410  0.1370
13946SOL     OW43278   5.478   2.710   4.983  0.1515  0.0932  0.0467
13946SOL    HW143279   5.542   2.640   4.971 -0.0307 -0.4182  1.7769
13946SOL    HW243280   5.532   2.788   5.000  0.3387 -0.2109  0.8928
13947SOL     OW43281   0.965   3.651   9.359 -0.0588  0.0439 -0.2565
13947SOL    HW143282   0.871   3.641   9.346  0.0165  0.1457 -0.9422
13947SOL    HW243283   0.978   3.745   9.366  0.3493  0.3400 -3.4540
13948SOL     OW43284   5.518   3.966  10.637  0.4831 -0.1501  0.1794
13948SOL    HW143285   5.574   4.026  10.588 -0.5179 -0.0970 -0.9582
13948SOL    HW243286   5.549   3.879  10.612  0.5375 -0.1176  0.1333
13949SOL     OW43287   0.562   4.632   6.861  0.3069 -0.0631 -0.0339
13949SOL    HW143288   0.546   4.637   6.955  1.6614  1.6320  0.1370
13949SOL    HW243289   0.536   4.717   6.827 -0.5907 -0.8011 -1.3056
13950SOL     OW43290   0.737   1.306   9.674  0.3023 -0.3678  0.3612
13950SOL    HW143291   0.697   1.380   9.628  1.0917  0.0987  0.4088
13950SOL    HW243292   0.831   1.322   9.668  0.4395 -0.5204  1.7557
13951SOL     OW43293   6.580   0.221   3.146  0.2222 -0.3108 -0.1828
13951SOL    HW143294   6.673   0.203   3.152  0.3344  0.2101 -0.2988
13951SOL    HW243295   6.574   0.317   3.148 -0.2977 -0.3376 -0.3085
13952SOL     OW43296   2.717   6.368   0.616 -0.0912  0.1141 -0.1327
13952SOL    HW143297   2.802   6.404   0.642 -0.0585  0.1965 -0.3532
13952SOL    HW243298   2.738   6.286   0.572 -0.2251 -0.7233  1.2978
13953SOL     OW43299   0.780   2.530  11.897  0.1244 -0.2710 -0.2172
13953SOL    HW143300   0.860   2.502  11.853  0.7906  0.2678  0.6258
13953SOL    HW243301   0.799   2.619  11.929 -1.6928  0.9579 -2.2420
13954SOL     OW43302   6.413   7.510   3.666 -0.1382  0.6028  0.1160
13954SOL    HW143303   6.431   7.475   3.579  0.4889 -1.3593  0.9667
13954SOL    HW243304   6.498   7.539   3.699 -0.2131  0.4731  0.4291
13955SOL     OW43305   7.407   6.835  10.105  0.0403 -0.3497 -0.2338
13955SOL    HW143306   7.454   6.805  10.028 -0.3576 -0.5930 -0.3856
13955SOL    HW243307   7.349   6.904  10.073  0.7380  0.3925  0.0607
13956SOL     OW43308   7.157   2.837   4.848 -0.3162  0.4840 -0.1834
13956SOL    HW143309   7.114   2.905   4.900 -1.3723  0.6547 -1.2323
13956SOL    HW243310   7.112   2.840   4.764  1.0667 -0.0716 -0.9683
13957SOL     OW43311   3.073   6.745   2.523  0.4636 -0.2796  0.4577
13957SOL    HW143312   3.042   6.680   2.460  1.3163  0.2969 -0.5895
13957SOL    HW243313   3.047   6.710   2.608  1.3112 -2.2179 -0.0282
13958SOL     OW43314   2.910   4.920   6.846  0.0916  0.4609 -0.0298
13958SOL    HW143315   2.994   4.896   6.808  1.5735  0.4311  3.0092
13958SOL    HW243316   2.927   5.000   6.895 -1.2951 -0.2645  1.7449
13959SOL     OW43317   7.885   0.799   8.215  0.2284  0.1506 -0.1804
13959SOL    HW143318   7.835   0.813   8.295 -0.5054  0.2206 -0.6422
13959SOL    HW243319   7.977   0.801   8.243 -0.0000  0.7645  0.5651
13960SOL     OW43320   5.382   1.715   3.469 -0.1396 -0.4990  0.0784
13960SOL    HW143321   5.319   1.643   3.471 -1.3178  0.4435 -0.9535
13960SOL    HW243322   5.410   1.718   3.377 -0.7223  0.8360 -0.0729
13961SOL     OW43323   2.148   3.733   9.676 -0.4088  0.2571 -0.2933
13961SOL    HW143324   2.073   3.783   9.709  0.2526  2.2266 -1.6112
13961SOL    HW243325   2.220   3.795   9.676  0.9072 -1.2082 -0.4036
13962SOL     OW43326   2.813   3.751  10.854 -0.2693 -0.1414  0.6085
13962SOL    HW143327   2.736   3.719  10.901  0.3864 -2.3175  0.2895
13962SOL    HW243328   2.882   3.752  10.920  0.0301 -0.6747  0.3071
13963SOL     OW43329   2.551   6.467   1.560 -0.1264  0.3165  0.0747
13963SOL    HW143330   2.502   6.455   1.479  1.5273  0.3198 -0.9584
13963SOL    HW243331   2.641   6.481   1.532  0.4556  0.4797  1.9138
13964SOL     OW43332   2.154   2.407   5.727 -0.1560 -0.3564 -0.1265
13964SOL    HW143333   2.186   2.496   5.718  0.5448 -0.5976 -0.0768
13964SOL    HW243334   2.188   2.378   5.812 -1.6647 -0.1504  0.5846
13965SOL     OW43335   7.893   2.992   6.870  0.1149  0.1521  0.0176
13965SOL    HW143336   7.901   2.967   6.962  3.1788 -1.5504 -0.5757
13965SOL    HW243337   7.832   2.928   6.833 -0.7015  0.5070  0.7026
13966SOL     OW43338   2.178   5.118  11.225 -0.0433 -0.2939  0.2025
13966SOL    HW143339   2.093   5.134  11.185  0.2425 -1.6670 -1.0443
13966SOL    HW243340   2.159   5.091  11.314 -0.8905 -0.2208  0.0481
13967SOL     OW43341   2.538   6.734   7.194  0.0092 -0.0087  0.0502
13967SOL    HW143342   2.465   6.767   7.247  0.2195  0.3075  0.1496
13967SOL    HW243343   2.554   6.804   7.130  0.2860 -0.0337  0.0919
13968SOL     OW43344   3.303   2.989   7.401  0.3538 -0.1377  0.4270
13968SOL    HW143345   3.245   2.965   7.329  0.6234  0.9778 -0.1872
13968SOL    HW243346   3.285   3.082   7.417  2.2627  0.3802 -0.1002
13969SOL     OW43347   4.834   6.167   4.108 -0.5324 -0.4830 -0.2767
13969SOL    HW143348   4.790   6.119   4.179  1.3059 -0.8525  0.6704
13969SOL    HW243349   4.794   6.254   4.110 -0.9823 -0.6905  0.7863
13970SOL     OW43350   5.072   6.615  10.137 -0.3541  0.1324 -1.0534
13970SOL    HW143351   5.086   6.686  10.201 -0.7513 -1.0431  0.3906
13970SOL    HW243352   5.129   6.545  10.167 -0.8633 -0.5906 -1.7612
13971SOL     OW43353   7.275   4.031  12.371 -0.7661 -0.0977  0.3284
13971SOL    HW143354   7.239   3.965  12.312 -0.5115  2.3733 -2.8710
13971SOL    HW243355   7.370   4.021  12.363 -0.7262 -0.0699  0.7483
13972SOL     OW43356   5.910   6.233   0.848  0.3271  0.4895  0.3608
13972SOL    HW143357   5.893   6.271   0.762  1.3445  0.8248  0.2869
13972SOL    HW243358   5.829   6.187   0.871 -0.2799  1.1700 -0.3612
13973SOL     OW43359   1.128   4.349   5.456  0.1523 -0.1860  0.4452
13973SOL    HW143360   1.134   4.424   5.397 -0.0658  0.0395  0.7040
13973SOL    HW243361   1.034   4.336   5.469  0.1767  0.8528  2.0831
13974SOL     OW43362   4.242   7.444   1.854  0.6471  0.2873 -0.0508
13974SOL    HW143363   4.219   7.479   1.940  1.5815 -2.1616  1.3178
13974SOL    HW243364   4.208   7.355   1.855 -0.3220  0.5572 -2.7342
13975SOL     OW43365   1.772   7.802   5.800 -0.1638 -0.0199  0.0347
13975SOL    HW143366   1.794   7.821   5.892 -1.5678 -1.2187  0.6549
13975SOL    HW243367   1.679   7.825   5.793 -0.5026 -1.5008 -0.6289
13976SOL     OW43368   4.322   2.811   5.391  0.1291 -0.1167 -0.5864
13976SOL    HW143369   4.298   2.846   5.306  0.4294 -1.2151 -1.1465
13976SOL    HW243370   4.408   2.771   5.378  0.6611  0.6305  0.5035
13977SOL     OW43371   1.483   7.101  11.785 -0.2150  0.0958  0.5223
13977SOL    HW143372   1.545   7.117  11.857  2.7327  1.9568 -2.1709
13977SOL    HW243373   1.447   7.187  11.765 -1.1905 -0.4393 -0.0816
13978SOL     OW43374   2.339   1.860   2.164  0.7063 -0.0846  0.0826
13978SOL    HW143375   2.268   1.921   2.184  0.0229 -0.6578 -0.5178
13978SOL    HW243376   2.367   1.827   2.249 -1.3545 -1.6072  0.2636
13979SOL     OW43377   7.644   2.214   3.986  0.4197 -0.0324  0.1121
13979SOL    HW143378   7.681   2.280   4.045  2.4946  0.7341 -1.8555
13979SOL    HW243379   7.698   2.136   4.002 -0.0338 -0.3079  0.3045
13980SOL     OW43380   1.389   6.124  10.863  0.6901 -0.1581  0.1843
13980SOL    HW143381   1.358   6.171  10.786 -0.4512  0.3692  0.9429
13980SOL    HW243382   1.434   6.047  10.828 -1.1006 -0.7243 -0.9960
13981SOL     OW43383   6.560   7.035   3.557 -0.2041 -0.3920 -0.0738
13981SOL    HW143384   6.534   7.116   3.512  2.0250  0.4638  0.0013
13981SOL    HW243385   6.590   7.064   3.643  0.8106 -1.2517 -0.1113
13982SOL     OW43386   3.475   1.741   2.888  0.3600 -0.4954 -0.0189
13982SOL    HW143387   3.544   1.697   2.939 -0.3522 -0.5556  0.9248
13982SOL    HW243388   3.513   1.751   2.801  1.4869 -0.7143  0.4218
13983SOL     OW43389   7.818   1.007   6.810  0.3915 -0.1522  0.2489
13983SOL    HW143390   7.861   0.928   6.776  1.9318  0.0686  1.5559
13983SOL    HW243391   7.726   0.996   6.786  0.9802 -1.1204 -1.8134
13984SOL     OW43392   2.493   6.515   5.512  0.3337 -0.0369  0.2155
13984SOL    HW143393   2.588   6.526   5.515  0.1478  1.4366  1.8464
13984SOL    HW243394   2.458   6.603   5.501 -0.9036 -0.2734  1.8792
13985SOL     OW43395   0.064   0.560   9.346 -0.4332 -0.2006 -0.6927
13985SOL    HW143396   0.132   0.565   9.414 -0.7001 -1.3896 -0.3228
13985SOL    HW243397   0.103   0.605   9.271  0.9161 -1.1583 -0.6025
13986SOL     OW43398   2.496   4.966   7.346  0.2793 -0.0182 -0.1468
13986SOL    HW143399   2.559   4.963   7.274 -0.0284  0.8436 -0.4669
13986SOL    HW243400   2.447   4.884   7.338 -0.9165  0.8034 -2.0011
13987SOL     OW43401   0.396   7.466   6.296  0.0900  0.4194  0.3654
13987SOL    HW143402   0.302   7.475   6.280  0.0562  1.8431  1.1982
13987SOL    HW243403   0.433   7.444   6.210 -1.2246 -2.4267  0.4295
13988SOL     OW43404   1.396   6.873   0.068 -0.1401 -0.1635  0.2105
13988SOL    HW143405   1.345   6.935   0.121 -0.9728 -1.3164  0.7882
13988SOL    HW243406   1.434   6.812   0.131  0.2939 -0.5270 -0.3869
13989SOL     OW43407   6.060   1.436   0.755 -0.6600  0.3835  0.1770
13989SOL    HW143408   6.065   1.344   0.780  1.9362  0.4239  0.0959
13989SOL    HW243409   6.080   1.436   0.661  1.3357  1.1188  0.5484
13990SOL     OW43410   0.379   4.454   5.178 -0.0619  0.0446 -0.5471
13990SOL    HW143411   0.303   4.496   5.138  2.5399  3.3271 -2.5679
13990SOL    HW243412   0.444   4.448   5.107  2.3757 -0.4131  1.5645
13991SOL     OW43413   7.361   3.626  11.713 -0.4974 -0.2736 -0.0233
13991SOL    HW143414   7.421   3.646  11.641  0.6725  3.6477  1.7726
13991SOL    HW243415   7.416   3.630  11.791 -2.7859  2.6832  1.6373
13992SOL     OW43416   2.799   6.022   7.894 -0.0147  0.5399  0.4421
13992SOL    HW143417   2.828   6.003   7.804  2.6861 -2.0926  1.6904
13992SOL    HW243418   2.868   6.078   7.930  0.3385 -0.5702  1.5818
13993SOL     OW43419   6.638   6.279   7.949 -0.0982 -0.0794 -0.2220
13993SOL    HW143420   6.624   6.326   8.031  0.8016 -0.7242  0.3101
13993SOL    HW243421   6.618   6.188   7.970  1.0664 -0.3981 -0.4579
13994SOL     OW43422   7.358   2.933   7.721  0.1013 -0.0128  0.4377
13994SOL    HW143423   7.357   2.854   7.667  1.1858  0.6402 -0.5808
13994SOL    HW243424   7.313   2.907   7.801 -0.7164 -1.2838 -0.3863
13995SOL     OW43425   0.275   2.081   0.902  0.6083  0.8771  0.4986
13995SOL    HW143426   0.247   2.134   0.828 -0.2422 -0.0311  0.1477
13995SOL    HW243427   0.240   1.994   0.885  1.9699  0.1726  1.0572
13996SOL     OW43428   0.510   4.411   3.030  0.0969 -0.2516 -0.0066
13996SOL    HW143429   0.565   4.391   3.105 -0.6321  0.7471  0.8204
13996SOL    HW243430   0.538   4.350   2.962  2.7989  0.7779  0.0803
13997SOL     OW43431   6.543   2.697   2.863 -0.2618 -0.2928  0.5188
13997SOL    HW143432   6.516   2.787   2.881  1.1438  0.4616 -0.8820
13997SOL    HW243433   6.605   2.677   2.933  2.4870  1.3554 -1.2293
13998SOL     OW43434   6.060   3.532   3.257 -0.6779  0.3017 -0.1439
13998SOL    HW143435   6.132   3.485   3.214 -2.3362 -0.2754 -2.5122
13998SOL    HW243436   6.010   3.463   3.300  0.4539  0.7780  2.0906
13999SOL     OW43437   4.697   5.578   4.741  0.4409  0.5807 -0.0032
13999SOL    HW143438   4.679   5.650   4.680 -1.7467  0.5049  0.4719
13999SOL    HW243439   4.667   5.610   4.826 -3.7191 -1.9020 -0.2844
14000SOL     OW43440   4.864   4.692  10.103 -0.1706 -0.1502  0.1998
14000SOL    HW143441   4.803   4.679  10.031 -0.6246 -0.7474  0.6833
14000SOL    HW243442   4.821   4.757  10.159  0.5782  0.9808 -0.5013
14001SOL     OW43443   5.034   1.826   6.008 -0.2729 -0.0170  0.1041
14001SOL    HW143444   5.115   1.876   6.013 -0.3045  0.2742 -1.6775
14001SOL    HW243445   4.975   1.870   6.070  0.1790  1.2192 -0.3095
14002SOL     OW43446   3.681   1.671   6.724  0.1238 -0.2673 -0.3885
14002SOL    HW143447   3.717   1.683   6.636  0.5176  0.1735 -0.1672
14002SOL    HW243448   3.604   1.728   6.727  1.1022  1.0799  0.1313
14003SOL     OW43449   5.701   0.414   8.314 -0.8759  0.0561  0.8206
14003SOL    HW143450   5.619   0.364   8.310 -0.9033 -0.0118  1.9117
14003SOL    HW243451   5.746   0.380   8.392  0.0431  0.3195  0.4150
14004SOL     OW43452   2.535   4.075   5.141 -0.1234 -0.0835  0.7370
14004SOL    HW143453   2.455   4.122   5.164 -1.8407 -1.2967 -2.1619
14004SOL    HW243454   2.529   3.993   5.189  1.4195  1.2566  3.4891
14005SOL     OW43455   6.475   6.942   4.514  0.5056 -0.7597  0.0955
14005SOL    HW143456   6.502   6.962   4.604  0.2429 -1.4580  0.3309
14005SOL    HW243457   6.557   6.923   4.468  0.4807 -2.4580  0.7064
14006SOL     OW43458   3.530   5.784   7.028  0.7129 -0.1632 -0.1337
14006SOL    HW143459   3.519   5.755   7.118 -0.2796 -0.4983 -0.3471
14006SOL    HW243460   3.441   5.785   6.992  1.1293 -0.3617 -1.2074
14007SOL     OW43461   1.483   0.673   5.260 -0.0720  0.6146 -0.5555
14007SOL    HW143462   1.464   0.619   5.183 -0.7930 -1.5773  1.0405
14007SOL    HW243463   1.547   0.622   5.310 -0.3366  1.5157  0.7597
14008SOL     OW43464   1.843   1.077   6.785 -0.0673  0.2964 -0.1315
14008SOL    HW143465   1.868   1.091   6.876  0.4545  0.7378 -0.3346
14008SOL    HW243466   1.881   1.151   6.738 -1.0675  0.5271 -0.5888
14009SOL     OW43467   1.772   6.072   9.868 -0.4209 -0.0489 -0.8107
14009SOL    HW143468   1.685   6.036   9.885 -0.1293  0.1365  1.3024
14009SOL    HW243469   1.796   6.118   9.948  1.8207 -0.4689 -1.1516
14010SOL     OW43470   7.803   0.595   6.752 -0.2022 -0.0084  0.0107
14010SOL    HW143471   7.716   0.602   6.791  0.0863  0.3205  0.6094
14010SOL    HW243472   7.788   0.549   6.669 -1.0580  0.7764 -0.2867
14011SOL     OW43473   2.281   3.145   5.000  0.0987  0.2266  0.9128
14011SOL    HW143474   2.249   3.161   5.089  0.5605 -0.2739  1.1743
14011SOL    HW243475   2.329   3.063   5.006  2.7075  1.6270  0.8834
14012SOL     OW43476   4.555   2.509   0.180 -0.3840  0.0257  0.2854
14012SOL    HW143477   4.551   2.604   0.189 -1.2256  0.3173 -2.3489
14012SOL    HW243478   4.635   2.493   0.131  0.1541 -0.7296  1.3664
14013SOL     OW43479   3.846   7.526   2.714  0.0520 -0.0881  0.0678
14013SOL    HW143480   3.835   7.601   2.772  0.1732  0.0832 -0.1276
14013SOL    HW243481   3.785   7.541   2.642 -1.6143 -1.3212  1.1477
14014SOL     OW43482   6.670   2.940   1.309  0.7391  0.6845 -0.3725
14014SOL    HW143483   6.759   2.958   1.338  0.7470 -0.9122  0.7357
14014SOL    HW243484   6.619   2.935   1.391  0.1862 -1.0762 -0.7911
14015SOL     OW43485   7.557   3.434   8.058  0.2010  0.0882 -0.4780
14015SOL    HW143486   7.519   3.426   8.145 -1.1431 -0.2275 -1.0720
14015SOL    HW243487   7.580   3.344   8.033 -0.6893 -0.0132 -0.9822
14016SOL     OW43488   2.552   3.264   8.631  0.3663  0.2957  0.2583
14016SOL    HW143489   2.573   3.229   8.545 -0.5661  0.3829 -0.0128
14016SOL    HW243490   2.514   3.350   8.613  0.1298  0.2954  0.7536
14017SOL     OW43491   5.452   7.472   1.238  0.1568  0.5730 -0.1517
14017SOL    HW143492   5.402   7.390   1.249  0.7862  0.2280  0.2080
14017SOL    HW243493   5.544   7.445   1.243  0.3663  1.3807  0.5350
14018SOL     OW43494   7.658   3.007   7.685  0.1428 -0.2121 -0.3638
14018SOL    HW143495   7.676   2.931   7.629 -1.2155  0.8474 -2.3662
14018SOL    HW243496   7.566   2.997   7.709  0.5261 -0.2823  1.2026
14019SOL     OW43497   4.175   7.418   0.264  0.3122 -0.1463  0.6865
14019SOL    HW143498   4.171   7.430   0.169 -2.3481  1.9466  0.9290
14019SOL    HW243499   4.093   7.374   0.287 -1.2856  3.2536  2.2964
14020SOL     OW43500   2.966   6.595  11.918 -0.1574 -0.2540  0.0555
14020SOL    HW143501   3.001   6.507  11.900  0.9436  0.3229 -0.7854
14020SOL    HW243502   2.903   6.582  11.988  1.4160 -1.4577  1.3378
14021SOL     OW43503   4.171   2.465  12.341 -0.1607  0.2697 -0.4261
14021SOL    HW143504   4.169   2.394  12.277 -2.3265 -1.4582  1.4039
14021SOL    HW243505   4.239   2.440  12.403 -0.6642 -0.0324  0.0109
14022SOL     OW43506   0.240   6.651   9.047 -0.5638 -0.0374 -0.7747
14022SOL    HW143507   0.239   6.746   9.034  0.4705  0.0853 -0.0860
14022SOL    HW243508   0.240   6.639   9.142 -1.1763 -0.7448 -0.8522
14023SOL     OW43509   6.029   7.791   1.230 -0.0254  0.6821 -0.2665
14023SOL    HW143510   6.041   7.867   1.287  1.7837 -0.7508  1.4020
14023SOL    HW243511   6.074   7.720   1.275 -1.4691 -1.3699 -1.8524
14024SOL     OW43512   3.579   2.369   8.075  0.6102  0.0772 -0.4887
14024SOL    HW143513   3.657   2.333   8.118  0.9040  1.6873  0.4132
14024SOL    HW243514   3.540   2.426   8.142 -0.3210  0.6970 -1.5411
14025SOL     OW43515   2.336   0.323   4.684 -0.0328 -0.0547 -0.0892
14025SOL    HW143516   2.262   0.263   4.690  1.8726 -2.4737  0.5960
14025SOL    HW243517   2.299   0.409   4.705 -2.7509 -1.0230 -0.5132
14026SOL     OW43518   5.987   5.793   3.530  0.2045 -0.3736  0.4966
14026SOL    HW143519   6.053   5.818   3.465 -0.2205  0.5074  0.3893
14026SOL    HW243520   5.939   5.721   3.489 -0.6414  0.7549 -0.5592
14027SOL     OW43521   1.596   4.668   1.328  0.1844 -0.5446  0.5029
14027SOL    HW143522   1.569   4.618   1.251  0.2783 -3.2045  2.0641
14027SOL    HW243523   1.624   4.602   1.391  2.8201  1.6306  1.8612
14028SOL     OW43524   2.945   0.784  10.417  0.1523 -0.0126 -0.5757
14028SOL    HW143525   2.975   0.841  10.347 -0.9996 -0.0248 -1.1082
14028SOL    HW243526   2.869   0.738  10.380 -0.4053 -0.1118  0.6320
14029SOL     OW43527   4.656   7.503   1.584  0.2873 -0.0327  0.0077
14029SOL    HW143528   4.664   7.446   1.507  2.0081  1.3516 -0.9230
14029SOL    HW243529   4.733   7.483   1.637  1.0101  1.4276 -0.4117
14030SOL     OW43530   1.015   3.939   5.588 -0.3043 -0.9162 -0.5947
14030SOL    HW143531   0.965   3.935   5.669  1.3988  0.5713  0.6146
14030SOL    HW243532   0.973   4.008   5.536  2.4083  3.1162  2.0063
14031SOL     OW43533   6.183   3.862   8.058  0.4423  0.3155  0.2354
14031SOL    HW143534   6.238   3.832   8.130  0.9573 -0.4339 -0.4539
14031SOL    HW243535   6.096   3.872   8.097  0.0783 -2.6498  0.4047
14032SOL     OW43536   0.764   3.277   8.997 -0.2311 -0.4424  0.4554
14032SOL    HW143537   0.677   3.239   9.010 -0.3744 -0.6873 -1.0530
14032SOL    HW243538   0.770   3.291   8.902  0.6708  1.2548  0.7289
14033SOL     OW43539   7.884   3.528  10.267  0.8286 -0.3599 -0.4485
14033SOL    HW143540   7.912   3.442  10.238 -0.7542 -0.5575 -1.5393
14033SOL    HW243541   7.812   3.551  10.208 -1.1183  0.1961  1.9576
14034SOL     OW43542   1.901   2.729  12.190  0.2105  0.3239  0.2299
14034SOL    HW143543   1.960   2.656  12.210  1.0210  0.4846 -1.3650
14034SOL    HW243544   1.943   2.805  12.230  0.4236  0.2306  0.1854
14035SOL     OW43545   0.452   6.694   7.801 -0.4223 -0.0953  0.2205
14035SOL    HW143546   0.513   6.690   7.728 -0.1416  0.0971  0.4404
14035SOL    HW243547   0.391   6.623   7.785 -0.1256 -0.3057  0.0070
14036SOL     OW43548   0.902   7.550   2.314 -0.3175 -0.0092 -0.3664
14036SOL    HW143549   0.857   7.584   2.391 -0.2066  0.6314 -0.5769
14036SOL    HW243550   0.971   7.614   2.296 -0.1651 -0.2945 -0.8335
14037SOL     OW43551   5.527   5.632   8.754  0.5278  0.5304  0.4314
14037SOL    HW143552   5.577   5.681   8.688 -0.2730  0.4075 -0.2986
14037SOL    HW243553   5.549   5.674   8.837  2.9535 -0.4488  0.3651
14038SOL     OW43554   3.259   5.785  11.126 -0.2868  0.5882 -0.0291
14038SOL    HW143555   3.171   5.752  11.142 -0.2208 -0.7789 -2.1003
14038SOL    HW243556   3.308   5.762  11.205 -1.1257 -1.1339  0.0263
14039SOL     OW43557   3.049   3.030   7.606 -0.1936 -0.4546  0.0751
14039SOL    HW143558   3.098   2.956   7.570  0.4927  0.3738 -0.7769
14039SOL    HW243559   3.116   3.098   7.620 -0.9288  0.2964  0.0050
14040SOL     OW43560   0.116   1.409   8.661 -0.0104 -0.6068  0.0297
14040SOL    HW143561   0.034   1.399   8.613 -1.0155  0.2756  1.4829
14040SOL    HW243562   0.178   1.443   8.596 -1.5445  1.3731 -0.5045
14041SOL     OW43563   0.171   7.160   7.462  0.0848  0.1854 -0.3203
14041SOL    HW143564   0.112   7.084   7.456 -0.1209  0.3837 -0.8296
14041SOL    HW243565   0.251   7.125   7.500  0.6040 -0.6558 -2.0742
14042SOL     OW43566   7.157   0.301   0.801  0.1842 -0.4772 -0.4865
14042SOL    HW143567   7.193   0.233   0.857 -0.0787  0.0933  0.4025
14042SOL    HW243568   7.225   0.316   0.734  1.2735  0.0236  0.6853
14043SOL     OW43569   5.185   0.491   3.288 -0.2026  0.1936  0.3820
14043SOL    HW143570   5.156   0.523   3.203  0.5621  0.7333  0.3161
14043SOL    HW243571   5.136   0.409   3.300 -2.1927  1.3590  0.5707
14044SOL     OW43572   2.918   7.362   0.968 -0.3563  0.2176 -0.2759
14044SOL    HW143573   3.006   7.333   0.943 -0.6859  0.7502 -2.1677
14044SOL    HW243574   2.928   7.455   0.984 -0.6148  0.3247 -0.7280
14045SOL     OW43575   4.772   5.099   3.947  0.1719 -0.3541  0.2045
14045SOL    HW143576   4.766   5.073   3.855  0.9454 -0.1378  0.0841
14045SOL    HW243577   4.859   5.137   3.955 -0.5664  1.3435  0.6079
14046SOL     OW43578   3.045   7.571   7.417  0.2121 -0.8400 -0.2460
14046SOL    HW143579   2.976   7.634   7.437 -1.3579 -1.8842 -2.0458
14046SOL    HW243580   3.096   7.614   7.347  0.4210 -0.7146 -0.0168
14047SOL     OW43581   2.645   4.623   7.573  0.0330 -0.3496  0.3686
14047SOL    HW143582   2.582   4.669   7.628 -0.1429  0.7347 -0.6967
14047SOL    HW243583   2.681   4.554   7.630 -0.7320  0.2034  1.5618
14048SOL     OW43584   7.467   5.093   6.736 -0.0116  0.5085  0.4165
14048SOL    HW143585   7.440   5.021   6.794  1.1234  1.7650  2.6290
14048SOL    HW243586   7.409   5.084   6.660  0.4108 -3.0143  0.3208
14049SOL     OW43587   1.412   5.465   2.113  0.7337  0.2044 -0.8617
14049SOL    HW143588   1.414   5.558   2.137  0.0131 -0.0158  0.0877
14049SOL    HW243589   1.383   5.464   2.022 -0.4841  0.8488 -0.4948
14050SOL     OW43590   4.844   2.338   8.262 -0.0245  0.6493 -0.2527
14050SOL    HW143591   4.933   2.316   8.232 -0.6558 -0.7831 -1.1796
14050SOL    HW243592   4.811   2.398   8.195  0.2860  1.3093  0.1766
14051SOL     OW43593   6.680   5.430   6.485 -0.0277  0.5435  0.1318
14051SOL    HW143594   6.768   5.402   6.460  0.3936  0.6543  1.4205
14051SOL    HW243595   6.694   5.502   6.546 -0.9940  0.2060  0.7770
14052SOL     OW43596   7.765   3.389  10.487  0.0423  0.4217 -0.3503
14052SOL    HW143597   7.809   3.304  10.480  0.4384  0.6181 -0.2855
14052SOL    HW243598   7.797   3.439  10.411 -1.8377 -0.2137 -1.6240
14053SOL     OW43599   4.497   7.849   8.450 -0.2096  0.0697  0.4924
14053SOL    HW143600   4.585   7.854   8.412 -0.0080 -1.9506  0.5728
14053SOL    HW243601   4.438   7.864   8.377  0.1988 -1.0037 -0.0737
14054SOL     OW43602   4.519   1.776   7.689 -0.5540  0.2981 -0.1365
14054SOL    HW143603   4.452   1.709   7.674 -0.2319  0.1072 -0.7631
14054SOL    HW243604   4.480   1.835   7.755 -0.7415 -0.6364  0.6129
14055SOL     OW43605   3.693   1.340   9.961 -0.4511 -0.6016  0.0112
14055SOL    HW143606   3.757   1.355  10.030 -3.0185  0.6729  2.2927
14055SOL    HW243607   3.697   1.419   9.906 -0.2535 -0.3818  0.3402
14056SOL     OW43608   6.478   1.149  11.519  0.5538  0.2199 -0.3223
14056SOL    HW143609   6.555   1.204  11.503  0.8002 -0.2004 -0.6137
14056SOL    HW243610   6.507   1.061  11.496  0.3481 -0.1302  0.7138
14057SOL     OW43611   0.952   3.459  10.304  0.4031  0.5982  0.4346
14057SOL    HW143612   1.011   3.522  10.344  0.1074  1.5802 -0.6318
14057SOL    HW243613   0.923   3.501  10.223 -0.2165 -0.6879 -0.0371
14058SOL     OW43614   1.908   2.156  11.917 -0.2511  0.0505 -0.2669
14058SOL    HW143615   1.856   2.099  11.973 -0.6038 -0.6292 -1.2556
14058SOL    HW243616   1.954   2.214  11.978 -1.8762  0.4461  0.6598
14059SOL     OW43617   2.751   6.126   1.998  0.4535 -0.6617  0.3544
14059SOL    HW143618   2.815   6.064   2.035  0.5946  0.0200  1.3020
14059SOL    HW243619   2.763   6.205   2.050  2.6470  1.3864 -2.9162
14060SOL     OW43620   5.144   2.256   8.609  0.0112 -0.3405 -0.0956
14060SOL    HW143621   5.159   2.293   8.696 -1.3992  0.7331 -0.2859
14060SOL    HW243622   5.099   2.325   8.561  0.1577 -1.1784 -1.4694
14061SOL     OW43623   2.994   4.994  10.060  0.0167  0.4580 -0.4159
14061SOL    HW143624   3.083   4.970  10.087 -0.8447 -1.5113  0.9177
14061SOL    HW243625   3.004   5.078  10.016  2.6624 -0.1375 -1.1309
14062SOL     OW43626   7.294   7.366   9.378 -0.0519  0.0873  0.0442
14062SOL    HW143627   7.200   7.383   9.387 -0.2052 -0.2384 -0.8114
14062SOL    HW243628   7.327   7.363   9.468 -0.6937  1.1180  0.3218
14063SOL     OW43629   0.570   0.884   5.139 -0.1475 -0.8300 -0.1634
14063SOL    HW143630   0.586   0.978   5.133 -0.6775 -0.7265 -0.0301
14063SOL    HW243631   0.590   0.851   5.051  0.4439 -0.6600 -0.0957
14064SOL     OW43632   4.355   3.964  11.007  0.1654 -0.4501  0.3025
14064SOL    HW143633   4.396   3.991  11.090  1.7031  0.6901 -0.7807
14064SOL    HW243634   4.375   3.871  10.999  1.8495 -0.1162  0.2360
14065SOL     OW43635   1.993   4.455  11.075  0.3497 -0.4327  0.2495
14065SOL    HW143636   2.057   4.495  11.016 -0.3164  0.1952 -0.0545
14065SOL    HW243637   1.934   4.526  11.099  0.7029 -0.6235  1.8290
14066SOL     OW43638   0.744   5.821   2.036 -0.2555 -0.1565  0.1171
14066SOL    HW143639   0.704   5.775   1.962 -2.4854 -0.0833  1.1954
14066SOL    HW243640   0.747   5.756   2.106  1.7692 -0.2005  0.0697
14067SOL     OW43641   5.380   0.011   2.280 -0.2158 -0.5961  0.4420
14067SOL    HW143642   5.467   0.045   2.259  0.3550 -1.2296  1.6383
14067SOL    HW243643   5.337   0.082   2.328 -0.5042 -0.1555 -0.4476
14068SOL     OW43644   3.959   7.600   6.274  0.0105  0.2343 -0.5475
14068SOL    HW143645   3.942   7.510   6.303 -0.6153  0.7987  0.9256
14068SOL    HW243646   3.951   7.653   6.353 -0.2416  1.6788 -1.4994
14069SOL     OW43647   3.242   4.578   9.205  0.2680  0.0710  0.1778
14069SOL    HW143648   3.181   4.510   9.176  0.3427  0.0220  0.1335
14069SOL    HW243649   3.189   4.657   9.212  0.2698  0.1114 -0.2104
14070SOL     OW43650   1.263   0.119  11.855 -0.1699  0.3911  0.5135
14070SOL    HW143651   1.239   0.212  11.865 -1.5519  0.1779 -0.5212
14070SOL    HW243652   1.357   0.117  11.876 -0.3296  1.8319  1.5919
14071SOL     OW43653   4.091   2.980   3.572  0.6010 -0.2673  0.0614
14071SOL    HW143654   4.158   3.046   3.553  0.5858 -0.4659 -0.7283
14071SOL    HW243655   4.063   2.999   3.661  0.8239  0.5965 -0.0447
14072SOL     OW43656   7.256   6.569  11.623  0.2102 -0.1848  0.3127
14072SOL    HW143657   7.306   6.499  11.664  0.4605  0.8434  1.8799
14072SOL    HW243658   7.317   6.607  11.560  0.0170 -1.4445 -0.6618
14073SOL     OW43659   6.572   4.048   4.916 -0.0516  0.1893 -0.0052
14073SOL    HW143660   6.667   4.047   4.928 -0.2627 -1.4624  2.3138
14073SOL    HW243661   6.555   3.977   4.854  0.1833  0.0250  0.1177
14074SOL     OW43662   5.022   3.253   6.268  0.2951  0.2326 -0.2606
14074SOL    HW143663   4.977   3.190   6.212 -0.1317  1.5813 -1.5043
14074SOL    HW243664   4.980   3.337   6.248  0.7935  0.9053  1.3943
14075SOL     OW43665   7.345   4.449   4.904  0.3305 -0.0828  0.1584
14075SOL    HW143666   7.372   4.408   4.986  0.8563 -1.5894 -0.7439
14075SOL    HW243667   7.427   4.469   4.859  0.0315 -0.9179 -0.7836
14076SOL     OW43668   4.849   1.638   9.906  0.0035  0.5348 -0.3922
14076SOL    HW143669   4.870   1.598   9.822  1.1974 -0.1630  0.2079
14076SOL    HW243670   4.753   1.636   9.910 -0.0177 -1.2173 -0.8897
14077SOL     OW43671   2.937   6.922   8.051 -0.3108 -0.1931  0.3394
14077SOL    HW143672   2.956   6.920   7.957  0.6763  1.0119  0.4869
14077SOL    HW243673   2.986   6.847   8.086 -1.9091 -1.5888 -0.2672
14078SOL     OW43674   5.508   3.933   9.077 -0.4327  0.0204 -0.2725
14078SOL    HW143675   5.543   4.007   9.126 -1.2912  0.5639 -0.4773
14078SOL    HW243676   5.562   3.930   8.998 -1.1562  1.1778 -0.8321
14079SOL     OW43677   1.526   7.427  12.266  0.4591 -0.1753  0.0278
14079SOL    HW143678   1.432   7.412  12.263  0.4488 -0.6406  1.7126
14079SOL    HW243679   1.544   7.480  12.188 -1.2607  0.3177 -0.0818
14080SOL     OW43680   3.992   4.941   9.422  0.3762 -0.1440  0.1565
14080SOL    HW143681   3.993   4.914   9.514 -0.2224 -0.4853  0.0690
14080SOL    HW243682   3.979   4.860   9.373  0.9868 -0.0042 -0.2524
14081SOL     OW43683   6.315   5.490  11.754  0.1279 -0.4306  0.7915
14081SOL    HW143684   6.319   5.423  11.822 -0.6584  0.3568  1.6454
14081SOL    HW243685   6.248   5.459  11.693  1.3953 -1.5310 -0.0941
14082SOL     OW43686   1.842   4.457   2.459  0.1367 -0.5491 -0.3693
14082SOL    HW143687   1.883   4.512   2.526  0.6008  0.4082 -1.3960
14082SOL    HW243688   1.877   4.491   2.376 -3.5413  1.1484 -1.4527
14083SOL     OW43689   5.239   6.982   1.663 -0.1832  0.1023 -0.4998
14083SOL    HW143690   5.152   7.011   1.633 -0.2662  0.6272  0.2409
14083SOL    HW243691   5.299   7.017   1.598 -0.5593 -0.7149 -1.3190
14084SOL     OW43692   5.847   5.828  10.668  0.4230  0.3612  0.5628
14084SOL    HW143693   5.894   5.849  10.749 -0.5105 -1.6523  1.7075
14084SOL    HW243694   5.761   5.866  10.680  0.1221 -0.3657  0.7555
14085SOL     OW43695   0.478   1.310   9.145  0.1467  0.0354 -0.0533
14085SOL    HW143696   0.509   1.399   9.164 -0.6036  0.3466 -0.2498
14085SOL    HW243697   0.428   1.286   9.223 -1.6478  0.7217 -0.9192
14086SOL     OW43698   1.809   0.880  11.854 -0.6626  0.1701  0.1211
14086SOL    HW143699   1.858   0.862  11.934 -0.3238  0.2475 -0.0681
14086SOL    HW243700   1.815   0.975  11.844 -0.3195  0.1099 -0.2436
14087SOL     OW43701   4.463   0.607   3.690 -0.3164  0.6364  0.0767
14087SOL    HW143702   4.514   0.599   3.609  0.0439  2.5915  0.0584
14087SOL    HW243703   4.394   0.669   3.668  0.1356  1.6497  1.4172
14088SOL     OW43704   1.577   3.043   3.698  0.3263 -0.5535  0.5422
14088SOL    HW143705   1.671   3.059   3.692  0.6104 -2.4941 -2.2660
14088SOL    HW243706   1.537   3.117   3.652  0.6714 -0.9245 -0.3730
14089SOL     OW43707   4.815   6.911   7.763 -0.0586  0.5003  0.0206
14089SOL    HW143708   4.826   6.821   7.732 -0.1386  1.4352 -3.0521
14089SOL    HW243709   4.794   6.902   7.856  0.4063 -2.6064 -0.0688
14090SOL     OW43710   7.454   0.789   7.397 -0.2364  0.0281  0.2626
14090SOL    HW143711   7.364   0.784   7.367 -0.2241 -0.6702  0.3338
14090SOL    HW243712   7.462   0.877   7.434 -1.3470 -0.4300  1.7031
14091SOL     OW43713   2.721   4.603   7.994  0.4730 -0.1517  0.2276
14091SOL    HW143714   2.708   4.543   7.921  0.6958 -1.4082  1.1709
14091SOL    HW243715   2.758   4.548   8.064  0.3131  1.0039  1.2637
14092SOL     OW43716   4.299   3.926   3.459 -1.1315  0.1805  0.1336
14092SOL    HW143717   4.233   3.862   3.487 -0.2770 -0.5197  0.5962
14092SOL    HW243718   4.381   3.896   3.499 -0.4650  0.8746 -0.6623
14093SOL     OW43719   6.209   4.691   1.431 -0.0004 -0.2266  0.6241
14093SOL    HW143720   6.162   4.664   1.352 -0.0134 -2.0905  1.2385
14093SOL    HW243721   6.290   4.731   1.397 -1.2416  1.5691 -0.3758
14094SOL     OW43722   3.642   2.120   7.120  0.4744 -0.0715  0.1479
14094SOL    HW143723   3.640   2.208   7.082 -0.0968 -0.5577 -1.0271
14094SOL    HW243724   3.657   2.062   7.045 -0.9181 -1.0966  0.5983
14095SOL     OW43725   3.731   2.164   8.740 -0.3734  0.6039  0.8169
14095SOL    HW143726   3.686   2.247   8.759  0.4368  1.8741 -2.1854
14095SOL    HW243727   3.823   2.185   8.752 -0.2478 -0.3937  1.6617
14096SOL     OW43728   5.848   4.832   1.108 -0.2887 -0.1026 -0.2381
14096SOL    HW143729   5.865   4.927   1.108  1.5270 -0.3728 -1.5824
14096SOL    HW243730   5.753   4.826   1.110 -0.4379  1.7241  0.9385
14097SOL     OW43731   1.734   2.529  11.244  0.2279 -0.3892 -0.2004
14097SOL    HW143732   1.751   2.459  11.181  0.3201 -2.0440  1.5765
14097SOL    HW243733   1.734   2.485  11.329  2.5638  2.0974  1.2366
14098SOL     OW43734   7.113   6.984   0.567  0.1934  0.1997 -0.2335
14098SOL    HW143735   7.019   6.980   0.586  0.2283 -0.3102 -0.1440
14098SOL    HW243736   7.140   6.892   0.560  1.0448  0.2731  1.5741
14099SOL     OW43737   6.729   2.374   0.266 -0.5374  0.0208  0.6005
14099SOL    HW143738   6.687   2.310   0.324 -1.9859 -0.2156 -0.6692
14099SOL    HW243739   6.661   2.398   0.203  0.9616  0.3778 -0.9314
14100SOL     OW43740   5.894   3.587   5.565 -0.0846  0.1009 -0.4491
14100SOL    HW143741   5.928   3.670   5.534  1.3285 -0.1288  0.3791
14100SOL    HW243742   5.961   3.555   5.626 -0.8833 -1.3421 -0.2772
14101SOL     OW43743   0.524   4.149   8.410  0.0249 -0.0306 -0.0897
14101SOL    HW143744   0.581   4.092   8.461  1.5429  0.6586 -0.9430
14101SOL    HW243745   0.581   4.220   8.381 -1.0420  0.1799 -1.7989
14102SOL     OW43746   7.001   3.191   4.179 -0.0121 -0.4849 -0.3577
14102SOL    HW143747   7.013   3.112   4.127 -0.8017 -0.7751 -0.0967
14102SOL    HW243748   6.967   3.161   4.263  2.7362 -0.1901  0.9924
14103SOL     OW43749   3.868   0.546   7.723  0.1551  0.5973  0.2358
14103SOL    HW143750   3.943   0.607   7.719  0.7773 -0.1528  0.1688
14103SOL    HW243751   3.868   0.513   7.812  1.3210 -1.1027 -0.3350
14104SOL     OW43752   4.141   6.726   6.326  0.1663  0.6960  0.3052
14104SOL    HW143753   4.214   6.787   6.323  0.7344 -0.0101 -0.6665
14104SOL    HW243754   4.087   6.749   6.250 -0.0074  0.4850  0.3623
14105SOL     OW43755   5.109   3.864   3.802 -0.3249 -0.5044 -0.1091
14105SOL    HW143756   5.061   3.800   3.749 -0.5797 -0.8013  0.4689
14105SOL    HW243757   5.180   3.894   3.745 -2.0216  1.0108 -1.5037
14106SOL     OW43758   3.705   5.055   6.212 -0.0230 -0.4574  0.1868
14106SOL    HW143759   3.738   5.117   6.147  1.5206 -0.9388  0.4744
14106SOL    HW243760   3.750   4.973   6.193 -0.6914 -1.0215  0.9279
14107SOL     OW43761   4.433   4.667   5.187  0.0672 -0.2219 -0.7082
14107SOL    HW143762   4.461   4.758   5.184  0.0093 -0.1340  0.7326
14107SOL    HW243763   4.339   4.671   5.203  0.5714 -0.4216  3.4559
14108SOL     OW43764   4.917   2.548   0.890  0.3255 -0.5870 -0.2016
14108SOL    HW143765   4.941   2.467   0.934  0.7818  0.1164  0.8947
14108SOL    HW243766   4.963   2.616   0.939 -1.3255  0.5017 -0.0958
14109SOL     OW43767   7.813   7.595   5.296  0.3489  0.0043 -0.0172
14109SOL    HW143768   7.787   7.687   5.287  0.7190  0.0910 -0.1920
14109SOL    HW243769   7.761   7.550   5.230  0.5481  0.1623 -0.2838
14110SOL     OW43770   6.100   0.424   6.408 -0.5642  0.7018  0.1542
14110SOL    HW143771   6.108   0.498   6.469  0.1112  1.4576 -0.8267
14110SOL    HW243772   6.011   0.391   6.423 -0.7074  1.3994  0.9526
14111SOL     OW43773   2.019   6.081  11.510 -0.7063 -0.3071 -0.4399
14111SOL    HW143774   1.998   6.170  11.536  0.1272 -0.1254 -0.3457
14111SOL    HW243775   2.028   6.033  11.592 -1.5799 -0.5837 -0.5029
14112SOL     OW43776   6.193   4.673   0.368 -0.8611 -0.1435  0.3078
14112SOL    HW143777   6.279   4.658   0.330 -2.0932 -1.5183 -2.1383
14112SOL    HW243778   6.176   4.766   0.353 -0.4352 -0.2115 -0.6118
14113SOL     OW43779   4.032   6.871   5.537 -0.4772 -0.6942  0.0052
14113SOL    HW143780   3.982   6.842   5.614  1.7295  0.0129  1.8288
14113SOL    HW243781   4.111   6.911   5.574  0.0859  0.8393 -2.6385
14114SOL     OW43782   0.555   6.403   7.441  0.3438  0.2008 -0.0880
14114SOL    HW143783   0.555   6.382   7.347  0.6243  2.0411 -0.5473
14114SOL    HW243784   0.487   6.346   7.478  1.0748 -1.4647 -1.1577
14115SOL     OW43785   3.853   5.713   7.575 -0.0690 -0.4101  0.5747
14115SOL    HW143786   3.862   5.707   7.480 -0.3074 -3.3836  0.6327
14115SOL    HW243787   3.843   5.806   7.593 -0.0362  0.2300 -2.3058
14116SOL     OW43788   4.270   2.826   6.106 -0.0043  0.4911 -0.1684
14116SOL    HW143789   4.249   2.758   6.171  0.2348  1.0581  0.5212
14116SOL    HW243790   4.218   2.803   6.029 -1.1046  0.3764  0.5831
14117SOL     OW43791   1.189   3.654   4.714 -0.0975  0.3866  0.2509
14117SOL    HW143792   1.284   3.652   4.704 -0.2366  0.5478 -1.4552
14117SOL    HW243793   1.166   3.747   4.712 -0.4847  0.3358 -2.3996
14118SOL     OW43794   3.375   3.033   2.251 -0.1105  0.0253  0.9018
14118SOL    HW143795   3.365   2.950   2.204  0.0795 -0.3010  1.4235
14118SOL    HW243796   3.378   3.007   2.343  2.8388  0.3067  0.9869
14119SOL     OW43797   3.277   4.866   3.142  0.4314  0.3023  0.0353
14119SOL    HW143798   3.350   4.805   3.128 -0.4443 -0.7150 -0.2295
14119SOL    HW243799   3.238   4.877   3.056  0.0650  0.5621  0.2306
14120SOL     OW43800   5.561   3.806   5.507  0.0221  0.3545 -0.7049
14120SOL    HW143801   5.471   3.792   5.475 -0.1005  0.3818 -0.3779
14120SOL    HW243802   5.587   3.721   5.543  0.1227  0.3508 -0.7852
14121SOL     OW43803   2.909   6.184   3.338 -0.0725 -0.3808 -0.4566
14121SOL    HW143804   2.905   6.279   3.334 -2.4868 -0.4047 -0.0670
14121SOL    HW243805   2.997   6.165   3.370 -0.3069  1.8227  1.7951
14122SOL     OW43806   2.206   2.651   3.377  0.1367 -0.5520 -0.3990
14122SOL    HW143807   2.134   2.616   3.429 -0.3727 -0.5029 -1.0603
14122SOL    HW243808   2.200   2.605   3.294  2.0312 -1.9257  0.1636
14123SOL     OW43809   0.067   0.461   1.279  0.0613 -0.0708 -0.4554
14123SOL    HW143810   0.156   0.444   1.247 -0.1509  1.6807 -2.1515
14123SOL    HW243811   0.011   0.453   1.202 -1.0727  0.2127  0.3079
14124SOL     OW43812   6.553   4.985   8.445 -0.3236 -0.3235 -0.4957
14124SOL    HW143813   6.510   5.071   8.438  0.7971  0.2722 -0.2945
14124SOL    HW243814   6.545   4.962   8.538 -3.3276 -1.9298 -1.0100
14125SOL     OW43815   5.247   0.257   8.734  0.2333 -0.1066  0.2882
14125SOL    HW143816   5.257   0.208   8.816 -0.6202 -0.5347  0.1485
14125SOL    HW243817   5.319   0.320   8.735 -0.0817  0.2731  1.6385
14126SOL     OW43818   1.222   0.421   1.723  1.1548  0.2440 -0.1237
14126SOL    HW143819   1.200   0.363   1.651  2.0835 -0.1416 -0.1153
14126SOL    HW243820   1.291   0.477   1.689  2.9480 -1.1779  0.9762
14127SOL     OW43821   5.660   5.250  10.462  0.2158 -0.2203 -0.0491
14127SOL    HW143822   5.584   5.238  10.519  1.1767  0.3845  1.4252
14127SOL    HW243823   5.661   5.172  10.407 -1.6874 -0.0508 -0.3896
14128SOL     OW43824   0.252   1.614   8.242  0.7135  0.7385  0.1616
14128SOL    HW143825   0.283   1.622   8.152 -0.3952  0.6734 -0.2407
14128SOL    HW243826   0.195   1.690   8.255  1.0236  0.8559  0.8758
14129SOL     OW43827   1.396   5.458   2.679 -0.2148  0.2754  0.3147
14129SOL    HW143828   1.369   5.387   2.738 -0.2687  0.9898  1.1831
14129SOL    HW243829   1.328   5.524   2.688 -0.0176  0.5648 -0.2609
14130SOL     OW43830   6.449   5.218   5.465  0.3294 -0.1405 -0.2142
14130SOL    HW143831   6.364   5.260   5.477  0.1283  0.2996 -2.6809
14130SOL    HW243832   6.488   5.217   5.552 -1.3771  1.4290  0.6226
14131SOL     OW43833   5.617   7.349   5.257 -0.0550  0.2072 -0.7453
14131SOL    HW143834   5.698   7.332   5.208 -0.0439 -0.9319 -0.3676
14131SOL    HW243835   5.556   7.281   5.226 -0.1801 -0.2777  0.4926
14132SOL     OW43836   6.580   0.255   2.545  0.5113 -0.2049  0.1712
14132SOL    HW143837   6.594   0.350   2.551 -0.2170 -0.0840  0.0123
14132SOL    HW243838   6.610   0.222   2.629 -0.8148  0.3815  0.9177
14133SOL     OW43839   6.844   7.752   2.915  0.0378  0.0896  0.2528
14133SOL    HW143840   6.764   7.724   2.961 -1.0000  0.0553 -1.4708
14133SOL    HW243841   6.908   7.764   2.984 -1.3015 -0.4355  1.6567
14134SOL     OW43842   3.713   6.759   4.759  0.3049  0.0988 -0.4165
14134SOL    HW143843   3.808   6.763   4.767  0.2923  1.1748 -0.6635
14134SOL    HW243844   3.689   6.842   4.717 -0.6811 -0.4567 -0.9683
14135SOL     OW43845   3.044   6.256   7.096  0.0721 -0.0191 -0.1489
14135SOL    HW143846   2.976   6.204   7.139  2.5469 -3.9305 -0.4092
14135SOL    HW243847   3.074   6.200   7.023  3.2945  1.5695 -0.2211
14136SOL     OW43848   0.902   2.209   9.873  0.5851 -0.8409  0.6228
14136SOL    HW143849   0.885   2.251   9.957  1.5108  1.7051 -0.3793
14136SOL    HW243850   0.995   2.222   9.857  0.5085 -1.6002 -0.6428
14137SOL     OW43851   1.633   1.638   2.253  0.0878  0.2254 -0.2780
14137SOL    HW143852   1.616   1.553   2.294  1.8490 -0.3213 -0.5791
14137SOL    HW243853   1.698   1.679   2.310  0.0406  0.9136 -0.7148
14138SOL     OW43854   6.678   0.995   7.297  0.6958  0.3645  0.2185
14138SOL    HW143855   6.661   1.088   7.284  0.3629  0.1328 -1.2209
14138SOL    HW243856   6.655   0.955   7.213  1.2417 -0.9609  0.6773
14139SOL     OW43857   5.814   1.019   6.432 -0.0778  0.1985 -0.3194
14139SOL    HW143858   5.822   1.058   6.519 -0.3569 -1.3432  0.4341
14139SOL    HW243859   5.865   0.938   6.437 -0.9951 -0.4602 -1.2428
14140SOL     OW43860   6.537   6.969   2.948 -0.4720  0.1809  0.6843
14140SOL    HW143861   6.481   7.031   2.901 -1.5901 -1.1184  0.2480
14140SOL    HW243862   6.616   6.963   2.895 -0.7884  0.4293  0.1804
14141SOL     OW43863   2.820   4.621  10.671  0.2073  0.2860  0.5212
14141SOL    HW143864   2.805   4.699  10.724  2.4790  0.6988  0.6385
14141SOL    HW243865   2.915   4.616  10.661  0.0218 -1.5482 -0.8854
14142SOL     OW43866   2.693   6.752   1.906  0.9171  0.2477  0.2139
14142SOL    HW143867   2.768   6.747   1.847  1.3916  0.4223  0.7862
14142SOL    HW243868   2.664   6.843   1.901  0.1272 -0.0463 -0.7414
14143SOL     OW43869   2.839   2.174   4.536  0.4344  0.0513 -0.4150
14143SOL    HW143870   2.840   2.080   4.554 -0.5472  0.1038 -0.0261
14143SOL    HW243871   2.757   2.189   4.488  1.5341  0.4051 -2.2585
14144SOL     OW43872   6.158   4.416   1.862 -0.1078  0.1979 -0.2386
14144SOL    HW143873   6.077   4.366   1.851  0.0548  0.2531 -2.0111
14144SOL    HW243874   6.188   4.433   1.772 -0.4241  3.9222  0.1806
14145SOL     OW43875   6.551   1.597   5.567  0.3062  0.4677  0.3388
14145SOL    HW143876   6.536   1.672   5.509 -0.5762  1.7801  2.1474
14145SOL    HW243877   6.602   1.633   5.639 -0.3096 -0.6199  1.3496
14146SOL     OW43878   0.980   2.942  11.281 -0.4625 -1.0567  0.1467
14146SOL    HW143879   0.955   2.985  11.362 -1.0630 -0.0555 -0.5453
14146SOL    HW243880   1.040   2.873  11.308  0.7080  0.3403  1.2947
14147SOL     OW43881   7.716   2.657   5.012 -0.5660  0.0023  0.5151
14147SOL    HW143882   7.690   2.635   4.922 -1.0434 -2.2441  1.1515
14147SOL    HW243883   7.812   2.662   5.008 -0.5714 -0.2618 -0.0741
14148SOL     OW43884   3.715   4.467   6.235 -0.0323  0.3054  0.1971
14148SOL    HW143885   3.781   4.535   6.250 -0.9101  1.3868 -0.6934
14148SOL    HW243886   3.657   4.504   6.169 -0.1248 -1.6063 -0.8722
14149SOL     OW43887   1.111   4.437   2.174 -0.3685  0.4540  0.3377
14149SOL    HW143888   1.035   4.445   2.232  0.0034  0.1541  0.8730
14149SOL    HW243889   1.140   4.527   2.160  0.0780  0.4843  1.3477
14150SOL     OW43890   6.524   4.938   7.540  0.5327  0.2566 -0.2369
14150SOL    HW143891   6.468   4.886   7.483  0.1671  0.7640 -0.3551
14150SOL    HW243892   6.573   4.995   7.481  1.4769 -0.4616 -0.1601
14151SOL     OW43893   3.108   1.968   7.987  0.4645 -0.0155  0.1630
14151SOL    HW143894   3.082   1.951   7.896  0.6380 -0.3937  0.1844
14151SOL    HW243895   3.096   2.063   7.997  1.7660  0.2583 -0.6783
14152SOL     OW43896   2.876   3.951   0.922 -0.0969 -0.1890  0.5255
14152SOL    HW143897   2.965   3.918   0.907 -0.0868  0.3050 -0.5789
14152SOL    HW243898   2.823   3.912   0.853 -0.4978  0.4736  0.4498
14153SOL     OW43899   4.353   6.538  10.773  0.3765  0.1280 -0.3897
14153SOL    HW143900   4.368   6.628  10.800  0.2240  0.3979 -1.1947
14153SOL    HW243901   4.333   6.491  10.855  1.7872  0.5342  0.2058
14154SOL     OW43902   6.140   2.736   4.689  0.6287 -0.5030  0.7712
14154SOL    HW143903   6.165   2.652   4.652  1.6820  0.3728 -0.6179
14154SOL    HW243904   6.045   2.740   4.677  0.2923 -2.1881  2.4500
14155SOL     OW43905   6.057   4.838  12.131 -0.1342 -0.0926 -0.4151
14155SOL    HW143906   6.050   4.905  12.199  0.1304 -1.1591  0.6906
14155SOL    HW243907   5.972   4.795  12.131  0.5951 -1.6597  0.9512
14156SOL     OW43908   7.639   6.692   2.930  0.3493 -0.0073  0.6910
14156SOL    HW143909   7.644   6.679   2.835  0.8603 -1.3348  0.8866
14156SOL    HW243910   7.561   6.747   2.942 -0.1613 -0.4476 -0.4359
14157SOL     OW43911   2.946   6.937   0.021  0.1900 -0.0435 -0.3861
14157SOL    HW143912   2.893   6.977   0.090  0.2008  0.4192 -0.6451
14157SOL    HW243913   3.000   6.873   0.067 -1.5072 -1.4687 -0.2742
14158SOL     OW43914   2.667   4.163  11.105 -0.3895  0.0983  0.0146
14158SOL    HW143915   2.725   4.225  11.149  2.3870 -0.1850 -2.8998
14158SOL    HW243916   2.664   4.087  11.163 -0.6595  1.4393  1.8119
14159SOL     OW43917   0.734   4.132   1.319 -0.4974  0.4960 -0.6107
14159SOL    HW143918   0.741   4.065   1.251  1.1974 -0.5741  0.5336
14159SOL    HW243919   0.644   4.125   1.351 -0.5797 -0.6859 -1.0649
14160SOL     OW43920   2.697   7.452   9.450 -0.1028 -0.1941 -0.5784
14160SOL    HW143921   2.682   7.540   9.417 -1.4890 -0.5815 -1.0597
14160SOL    HW243922   2.609   7.416   9.464  0.3855 -1.9434 -1.6123
14161SOL     OW43923   6.788   7.331   4.384  0.1904 -0.5389  0.6122
14161SOL    HW143924   6.773   7.255   4.440  1.3977 -0.9052  0.4692
14161SOL    HW243925   6.883   7.345   4.387 -0.0626  1.2955  1.0530
14162SOL     OW43926   5.846   5.176   2.918  0.3864  0.1816 -0.2225
14162SOL    HW143927   5.819   5.167   3.010  1.2547 -0.3056 -0.0092
14162SOL    HW243928   5.796   5.251   2.886 -0.3451  0.0124  0.4888
14163SOL     OW43929   7.786   0.534   5.884  0.4305 -0.1221  0.1929
14163SOL    HW143930   7.872   0.495   5.865  0.2493 -1.6215  2.1597
14163SOL    HW243931   7.741   0.534   5.800  2.3969  0.9086 -0.9431
14164SOL     OW43932   1.367   7.159   9.708 -0.4328  0.0644 -0.3707
14164SOL    HW143933   1.280   7.122   9.693 -0.2231 -0.5613 -0.0870
14164SOL    HW243934   1.352   7.237   9.761 -0.6740 -1.2501  1.6062
14165SOL     OW43935   3.965   5.964   9.140 -0.0610  0.0570 -0.0787
14165SOL    HW143936   3.981   5.942   9.048 -0.3617 -0.8452  0.0828
14165SOL    HW243937   3.990   6.056   9.147  1.5430 -0.3113 -0.6857
14166SOL     OW43938   4.802   7.798   6.281  0.0265 -0.0797  0.0820
14166SOL    HW143939   4.756   7.715   6.290 -0.9771  0.6491  2.3556
14166SOL    HW243940   4.892   7.778   6.307 -0.1246 -0.5210  0.2746
14167SOL     OW43941   2.331   2.596   5.081  0.1791  0.1830  0.0295
14167SOL    HW143942   2.356   2.687   5.097  2.0573 -0.4549  1.1740
14167SOL    HW243943   2.241   2.600   5.051  0.6140  2.4955 -1.1455
14168SOL     OW43944   3.957   7.818   4.570  1.2754 -0.4055 -0.1625
14168SOL    HW143945   4.051   7.803   4.580  1.3605  1.0093  1.5952
14168SOL    HW243946   3.949   7.911   4.550  0.2336 -0.3979  0.2011
14169SOL     OW43947   5.007   6.190   6.219  0.0997 -0.4207  0.2695
14169SOL    HW143948   5.004   6.270   6.166  1.7893 -0.4850  0.0090
14169SOL    HW243949   5.033   6.221   6.306  1.9424 -0.7566 -0.1180
14170SOL     OW43950   0.317   4.991   1.685 -0.0912  0.5206 -0.0857
14170SOL    HW143951   0.395   5.001   1.631  1.1075 -2.5522  0.8779
14170SOL    HW243952   0.334   5.045   1.763  0.9674  0.1315 -0.0293
14171SOL     OW43953   6.613   1.455   5.216  0.2266 -0.0853  0.0523
14171SOL    HW143954   6.538   1.441   5.158  0.5687 -1.3717 -0.0999
14171SOL    HW243955   6.635   1.368   5.249  0.0561  0.6036  2.1234
14172SOL     OW43956   4.740   6.723   2.524 -0.2176  0.0655 -0.0124
14172SOL    HW143957   4.832   6.697   2.533 -0.1389 -0.0382 -1.0533
14172SOL    HW243958   4.728   6.789   2.592  0.4288 -0.4234  0.6073
14173SOL     OW43959   7.643   2.371   6.878  0.0136  0.2519  0.4216
14173SOL    HW143960   7.653   2.342   6.787  0.0978 -0.6165  0.6968
14173SOL    HW243961   7.719   2.336   6.923 -0.4680 -0.0661  1.0079
14174SOL     OW43962   0.752   0.492   2.362 -0.3808 -0.4330  0.1023
14174SOL    HW143963   0.791   0.525   2.281  1.0594 -0.7958  0.6134
14174SOL    HW243964   0.724   0.403   2.340  0.6981 -0.8117  0.1740
14175SOL     OW43965   7.514   5.810   6.290 -0.0593 -0.3843 -0.4995
14175SOL    HW143966   7.437   5.756   6.310 -0.2033 -0.1047 -0.2894
14175SOL    HW243967   7.534   5.855   6.371  0.0299 -0.0831 -0.6866
14176SOL     OW43968   7.767   2.178   0.618 -0.0629  0.5641 -0.4755
14176SOL    HW143969   7.831   2.138   0.559  0.0632 -0.0039  0.0415
14176SOL    HW243970   7.746   2.262   0.577  3.8038  2.5711  1.1022
14177SOL     OW43971   5.801   0.868  10.230 -0.0225  0.6635  0.6114
14177SOL    HW143972   5.864   0.910  10.171 -1.8182  2.5994 -0.0473
14177SOL    HW243973   5.716   0.905  10.205 -1.2146 -0.5378  2.6192
14178SOL     OW43974   1.905   3.125   7.546  0.3940  0.0300  0.3819
14178SOL    HW143975   1.859   3.207   7.528  1.0173  0.3958  0.4300
14178SOL    HW243976   1.893   3.073   7.466 -1.2184 -0.4179  0.8871
14179SOL     OW43977   7.303   0.007   7.080  0.0064  0.3853  0.0922
14179SOL    HW143978   7.333  -0.034   6.999  0.7712 -0.8086  0.9280
14179SOL    HW243979   7.270   0.092   7.054  1.9452  0.7955 -1.2474
14180SOL     OW43980   4.900   6.105   2.969 -0.0802  0.0508  0.1455
14180SOL    HW143981   4.818   6.095   3.017 -0.2571  1.5649  0.2248
14180SOL    HW243982   4.897   6.037   2.901 -1.9378  0.7635 -0.5670
14181SOL     OW43983   2.539   5.426   6.873  0.0222  0.2047  0.1911
14181SOL    HW143984   2.549   5.447   6.780 -0.6681 -0.9111 -0.1479
14181SOL    HW243985   2.448   5.449   6.893  0.1386  0.3403  0.5734
14182SOL     OW43986   1.255   1.243   8.670 -0.1247 -0.8305 -0.0630
14182SOL    HW143987   1.286   1.174   8.612  0.4058 -0.7828  0.1595
14182SOL    HW243988   1.165   1.217   8.692 -1.4859  0.6406 -3.2617
14183SOL     OW43989   3.643   1.672  11.726  0.2013 -0.0946  0.0028
14183SOL    HW143990   3.732   1.638  11.724  0.1201 -0.2751 -0.6133
14183SOL    HW243991   3.632   1.716  11.641 -0.3988 -0.3341 -0.0467
14184SOL     OW43992   6.013   7.606   5.755  0.2241  0.5844 -0.2470
14184SOL    HW143993   6.042   7.590   5.845 -0.1382 -0.3179 -0.2838
14184SOL    HW243994   6.069   7.678   5.725  1.6161 -0.3158  0.0907
14185SOL     OW43995   4.140   4.847   1.361 -0.3914 -0.3058 -0.3461
14185SOL    HW143996   4.104   4.763   1.388 -1.3478  0.1177 -0.2428
14185SOL    HW243997   4.121   4.906   1.434  0.4909 -0.0507 -0.3105
14186SOL     OW43998   1.072   2.219   4.584 -0.7578 -0.0724 -0.9372
14186SOL    HW143999   0.991   2.178   4.553 -1.9655  1.7764 -0.3491
14186SOL    HW244000   1.046   2.272   4.658  1.0582  0.3964 -0.5756
14187SOL     OW44001   3.999   5.874   3.606  0.5190 -0.4636  0.1108
14187SOL    HW144002   3.976   5.832   3.523  1.2121 -0.7550  0.0583
14187SOL    HW244003   4.094   5.867   3.611  0.7047  1.4753 -0.0867
14188SOL     OW44004   2.125   3.536  11.738 -0.1705  0.0008  0.1988
14188SOL    HW144005   2.068   3.590  11.793  0.8012  1.5218 -0.2465
14188SOL    HW244006   2.089   3.546  11.650  0.7990  1.0280 -0.0963
14189SOL     OW44007   2.112   7.069   8.868  0.0399 -0.0285  0.6186
14189SOL    HW144008   2.074   7.138   8.813 -0.5842 -0.5160  0.4232
14189SOL    HW244009   2.201   7.099   8.885 -0.1984  0.7946  0.4805
14190SOL     OW44010   4.251   7.481   5.528  0.1189  0.2387 -0.8185
14190SOL    HW144011   4.282   7.540   5.458  0.4250  0.7850 -0.2338
14190SOL    HW244012   4.164   7.514   5.550  0.0768  0.1493 -0.8525
14191SOL     OW44013   4.967   6.112   7.551  0.0083  0.2051  0.3439
14191SOL    HW144014   5.033   6.044   7.559 -1.3324 -1.4345 -1.5707
14191SOL    HW244015   4.951   6.141   7.641  0.2620 -2.3931  1.3138
14192SOL     OW44016   6.539   4.179  12.178 -0.1741 -0.4430 -0.0393
14192SOL    HW144017   6.590   4.152  12.101  0.3028  0.4597 -0.0624
14192SOL    HW244018   6.499   4.099  12.210 -0.2788 -0.8575 -1.1617
14193SOL     OW44019   1.990   7.224   2.572  0.2672 -0.3015  0.0762
14193SOL    HW144020   2.026   7.147   2.616 -1.1509 -0.5919  0.8058
14193SOL    HW244021   2.043   7.297   2.604  0.8159 -0.8182  0.3699
14194SOL     OW44022   1.018   1.453  12.166  0.1681 -0.1871  0.1930
14194SOL    HW144023   1.070   1.460  12.086 -0.7274 -0.5896 -0.4548
14194SOL    HW244024   0.953   1.523  12.158  0.2532 -0.0410  0.7214
14195SOL     OW44025   1.251   6.311   3.152 -0.3195 -0.0311 -0.1921
14195SOL    HW144026   1.303   6.258   3.213  0.0175  1.5132  0.9114
14195SOL    HW244027   1.176   6.256   3.131 -1.1525 -0.1722  2.6698
14196SOL     OW44028   4.748   6.601   5.905 -0.4376 -0.0716 -0.0555
14196SOL    HW144029   4.811   6.667   5.876 -0.2412 -0.4265 -0.4461
14196SOL    HW244030   4.676   6.651   5.943  0.5527  0.3154  1.3780
14197SOL     OW44031   5.985   6.641   8.202  0.4074 -0.1927  0.2356
14197SOL    HW144032   6.073   6.677   8.218  0.0522 -0.1986  2.7098
14197SOL    HW244033   5.926   6.715   8.218 -0.0882 -0.4371 -0.4371
14198SOL     OW44034   3.482   1.924   3.973 -0.2420  0.5905  0.6423
14198SOL    HW144035   3.461   2.002   3.922 -0.1047  2.0528  2.7321
14198SOL    HW244036   3.403   1.907   4.025  0.3614  0.4619  1.5452
14199SOL     OW44037   5.898   7.846  11.446 -0.1478 -0.5209 -0.1614
14199SOL    HW144038   5.981   7.835  11.494  0.4253 -0.8256 -1.2002
14199SOL    HW244039   5.832   7.806  11.503  0.6052 -1.4301  0.0977
14200SOL     OW44040   7.169   4.306   3.682 -0.2127 -0.6840  0.3943
14200SOL    HW144041   7.106   4.334   3.616 -0.0541  1.0126  0.9135
14200SOL    HW244042   7.124   4.317   3.765  0.8999  1.1066  0.8131
14201SOL     OW44043   4.252   4.615  11.620 -0.1540  0.2510  0.5465
14201SOL    HW144044   4.307   4.689  11.593  2.0536 -1.7744 -0.8180
14201SOL    HW244045   4.290   4.586  11.703 -0.3423 -0.0126  0.5396
14202SOL     OW44046   5.588   7.783   1.954  0.7956 -0.3881  0.0097
14202SOL    HW144047   5.546   7.778   2.039 -0.8332  1.0778 -0.6358
14202SOL    HW244048   5.656   7.849   1.965 -0.0124  0.4740 -0.0188
14203SOL     OW44049   3.509   0.554   2.684  1.0457  0.3830 -0.3312
14203SOL    HW144050   3.603   0.550   2.670  1.4148  0.2068  1.7848
14203SOL    HW244051   3.500   0.596   2.770 -0.8511  1.3659 -0.9581
14204SOL     OW44052   2.662   5.355   6.084  0.0216  0.0869  0.1203
14204SOL    HW144053   2.623   5.312   6.160  1.0852  1.1403  1.3171
14204SOL    HW244054   2.715   5.426   6.121  0.7656  0.4848 -1.5963
14205SOL     OW44055   5.443   3.062  10.666 -0.1307 -0.0145  0.2919
14205SOL    HW144056   5.522   3.030  10.708  0.8419  1.3552 -0.4065
14205SOL    HW244057   5.371   3.028  10.720  0.9788 -0.2567  1.6713
14206SOL     OW44058   2.182   4.368  10.494 -0.2299 -0.1412  0.3530
14206SOL    HW144059   2.167   4.439  10.556 -0.1334  0.5478 -0.3930
14206SOL    HW244060   2.099   4.360  10.446  0.2788  0.5987 -0.6865
14207SOL     OW44061   7.549   0.154   1.650 -0.3560  0.3980 -0.2639
14207SOL    HW144062   7.486   0.166   1.578 -2.3953  0.3827  1.4255
14207SOL    HW244063   7.500   0.176   1.729  1.9286  0.8163  1.1345
14208SOL     OW44064   5.650   6.398   3.316 -0.2305 -0.0734 -0.1402
14208SOL    HW144065   5.602   6.338   3.260  0.3432 -0.9962  0.3387
14208SOL    HW244066   5.630   6.369   3.405 -0.1519  0.6073  0.1047
14209SOL     OW44067   0.391   6.655   4.385 -0.1862 -0.0940 -0.2608
14209SOL    HW144068   0.484   6.675   4.393 -0.1139 -0.7944  0.7392
14209SOL    HW244069   0.352   6.688   4.466 -0.2262 -2.8876  0.9532
14210SOL     OW44070   0.244   6.382   4.342 -0.7541  0.1010 -0.5661
14210SOL    HW144071   0.312   6.315   4.343 -1.5156 -0.7265 -2.0109
14210SOL    HW244072   0.293   6.465   4.340  0.2325 -0.4761 -2.1125
14211SOL     OW44073   2.843   5.970   0.053 -0.2626 -0.0146  0.4543
14211SOL    HW144074   2.844   6.040   0.118  0.5717 -0.7368  1.2577
14211SOL    HW244075   2.896   6.003  -0.019 -0.9515  0.6818  0.2565
14212SOL     OW44076   1.991   6.330   5.047 -0.1410 -0.4891  0.0326
14212SOL    HW144077   1.934   6.345   5.123 -1.4967 -1.1773 -0.8071
14212SOL    HW244078   1.933   6.342   4.972  0.5077 -2.4906 -0.8299
14213SOL     OW44079   3.606   3.439   0.248 -0.0986 -0.4999 -0.5583
14213SOL    HW144080   3.529   3.466   0.299  0.8461 -1.0209  1.2409
14213SOL    HW244081   3.658   3.518   0.240  0.4598 -0.7227  0.6477
14214SOL     OW44082   7.468   3.909   3.038  0.5776  0.2605  0.0218
14214SOL    HW144083   7.422   3.831   3.069 -2.0791  1.7205  0.0415
14214SOL    HW244084   7.476   3.896   2.944 -1.7509  0.7779 -0.3100
14215SOL     OW44085   0.238   4.602   5.609  0.4006  0.0228 -0.2525
14215SOL    HW144086   0.307   4.652   5.564 -0.6907  0.8954 -1.0221
14215SOL    HW244087   0.274   4.586   5.696  1.2504  1.1901 -0.3562
14216SOL     OW44088   5.676   5.322   6.447  0.0214  0.0381 -0.3144
14216SOL    HW144089   5.672   5.413   6.475  0.0502 -0.0354 -0.0641
14216SOL    HW244090   5.707   5.275   6.525 -0.1636 -0.2075 -0.3882
14217SOL     OW44091   4.972   5.893   4.761 -0.0643  0.4540 -0.2335
14217SOL    HW144092   5.065   5.890   4.781 -0.2096 -0.0888  0.4052
14217SOL    HW244093   4.959   5.978   4.719  1.0448 -0.2176 -2.0341
14218SOL     OW44094   3.315   4.539   8.583  0.0032 -0.1004  0.4577
14218SOL    HW144095   3.300   4.558   8.676 -0.8459  0.2800  0.2559
14218SOL    HW244096   3.236   4.571   8.539  0.2726 -0.5308 -0.3660
14219SOL     OW44097   6.458   0.036   4.173 -0.2835  0.6290 -0.2503
14219SOL    HW144098   6.458   0.127   4.204  1.5604  0.7661 -0.5465
14219SOL    HW244099   6.433  -0.015   4.250 -1.0749  1.3445 -0.0075
14220SOL     OW44100   5.879   7.555   7.162 -0.0759 -0.0479 -0.2394
14220SOL    HW144101   5.931   7.634   7.177 -1.0983  0.4345  1.0659
14220SOL    HW244102   5.932   7.484   7.198  0.3081  0.2345 -0.2426
14221SOL     OW44103   4.965   4.096  10.903 -0.5888 -0.2965 -0.2486
14221SOL    HW144104   4.888   4.118  10.850 -0.7259 -0.5225 -0.1418
14221SOL    HW244105   5.006   4.181  10.920 -1.5443 -0.0181  0.8107
14222SOL     OW44106   2.499   1.991  10.362 -0.1427 -0.6394 -0.6449
14222SOL    HW144107   2.424   2.025  10.412 -0.8761 -2.0768 -0.7252
14222SOL    HW244108   2.499   2.044  10.282  0.3712  0.9379  0.3446
14223SOL     OW44109   4.844   2.241  11.792 -0.3632  0.3744  0.4827
14223SOL    HW144110   4.899   2.162  11.797  1.0404  1.1689 -1.3268
14223SOL    HW244111   4.865   2.289  11.872 -0.2883 -0.4852  1.0019
14224SOL     OW44112   0.603   6.459   2.277 -0.1327 -0.4299 -0.4071
14224SOL    HW144113   0.541   6.496   2.340  1.0291 -1.6681  1.5548
14224SOL    HW244114   0.606   6.524   2.206 -2.2743  0.5175  0.2751
14225SOL     OW44115   3.527   0.169  10.007 -0.1624 -0.6992 -0.3040
14225SOL    HW144116   3.537   0.224   9.929  0.3734  3.4952  2.3907
14225SOL    HW244117   3.617   0.148  10.033 -0.2506 -0.6149  0.0765
14226SOL     OW44118   2.080   3.209   7.970  0.0419  0.6689  0.0269
14226SOL    HW144119   2.128   3.128   7.989  0.5781  1.4968  2.6094
14226SOL    HW244120   1.988   3.183   7.968  0.1444  0.0721  1.6444
14227SOL     OW44121   2.922   0.540   0.715 -0.3872 -0.0807  0.0609
14227SOL    HW144122   2.983   0.501   0.777 -0.9749 -0.2439  0.5482
14227SOL    HW244123   2.871   0.465   0.682 -1.0640  0.1788  0.4922
14228SOL     OW44124   5.607   4.231   6.403 -1.4007  0.5246  0.3251
14228SOL    HW144125   5.647   4.167   6.345 -3.7418 -0.9097  0.1486
14228SOL    HW244126   5.665   4.235   6.479 -0.5875 -0.9133 -0.1986
14229SOL     OW44127   7.736   4.905   7.738  0.1373 -0.6112 -0.1674
14229SOL    HW144128   7.765   4.909   7.829 -0.5451 -1.0548  0.0789
14229SOL    HW244129   7.648   4.943   7.740  0.3484 -0.0675 -0.7511
14230SOL     OW44130   2.398   0.408   6.592 -0.5643 -0.1031  0.3174
14230SOL    HW144131   2.335   0.473   6.561 -0.9875 -0.5585  0.2184
14230SOL    HW244132   2.345   0.340   6.634 -0.0239  0.2539  1.5998
14231SOL     OW44133   1.631   6.162   6.831  0.1835  0.0356 -0.2117
14231SOL    HW144134   1.670   6.111   6.761  0.1046  0.3738 -0.5069
14231SOL    HW244135   1.694   6.158   6.903  0.5040  0.1226 -0.4886
14232SOL     OW44136   3.120   1.443   2.906 -0.6123 -0.5936  0.3345
14232SOL    HW144137   3.075   1.430   2.990  0.7659 -0.6775  1.0813
14232SOL    HW244138   3.204   1.483   2.929 -0.4338 -0.1027 -1.0596
14233SOL     OW44139   5.942   6.700   2.089 -0.2436  0.6716 -0.1042
14233SOL    HW144140   5.897   6.689   2.173  2.9114 -2.4794  1.4250
14233SOL    HW244141   5.991   6.781   2.099 -0.5202  0.7455  0.7556
14234SOL     OW44142   0.026   7.601   5.678  1.3878  0.4178  0.0382
14234SOL    HW144143   0.006   7.548   5.756  0.9970 -0.6131 -0.7318
14234SOL    HW244144  -0.037   7.673   5.682 -0.1137 -0.8064 -0.4212
14235SOL     OW44145   2.329   2.088   8.978 -0.4948 -1.0177 -0.1918
14235SOL    HW144146   2.375   2.009   9.005  0.3028  0.3109  2.7095
14235SOL    HW244147   2.372   2.114   8.896  0.1243 -2.8014 -0.4669
14236SOL     OW44148   3.645   1.688   3.499  0.2831  0.7945  0.0425
14236SOL    HW144149   3.730   1.721   3.529  0.3205  0.7428 -0.0066
14236SOL    HW244150   3.620   1.622   3.564  0.6085  0.3047 -0.3141
14237SOL     OW44151   3.230   3.263   3.147 -0.2440 -0.5443 -0.8278
14237SOL    HW144152   3.294   3.249   3.077  1.5913  0.2476  0.5901
14237SOL    HW244153   3.259   3.344   3.190 -1.6757 -0.6587  0.4554
14238SOL     OW44154   6.454   0.897  11.371 -0.2272 -0.6582 -0.2368
14238SOL    HW144155   6.490   0.836  11.307  0.0449 -1.6370  0.8036
14238SOL    HW244156   6.360   0.899  11.353  0.0780  0.6820 -1.9496
14239SOL     OW44157   6.068   2.879   7.645 -0.5937 -0.0371 -0.2054
14239SOL    HW144158   6.160   2.880   7.668 -1.3308 -0.9060  3.2548
14239SOL    HW244159   6.034   2.796   7.679 -2.8037  0.5515 -0.7599
14240SOL     OW44160   0.308   1.754   1.921 -0.4579  0.1704  0.1048
14240SOL    HW144161   0.338   1.692   1.988  0.6094  1.3601  0.7754
14240SOL    HW244162   0.354   1.835   1.942 -1.9281  1.2407 -0.6650
14241SOL     OW44163   1.550   5.634   1.832  0.1883  0.6233 -0.7962
14241SOL    HW144164   1.612   5.585   1.886 -0.5298  2.2845  1.7088
14241SOL    HW244165   1.472   5.578   1.828  0.5011  0.1783 -0.7020
14242SOL     OW44166   6.246   6.041   5.844 -0.3956  0.4340  0.0285
14242SOL    HW144167   6.188   6.104   5.801 -2.1599 -0.3682  1.1171
14242SOL    HW244168   6.232   6.056   5.937  0.1507 -0.6903  0.3055
14243SOL     OW44169   2.172   3.501   5.767 -0.4573  0.4528  0.7773
14243SOL    HW144170   2.230   3.575   5.785 -0.0041 -0.0571  1.4605
14243SOL    HW244171   2.189   3.479   5.675 -2.1296  2.4997 -0.1013
14244SOL     OW44172   7.542   6.679   5.331 -0.0914  0.1740  0.2069
14244SOL    HW144173   7.457   6.639   5.314 -0.3165  0.1805  1.2663
14244SOL    HW244174   7.521   6.757   5.382  0.4783  0.7516 -0.4221
14245SOL     OW44175   1.792   2.912   6.866 -0.1698  0.4098 -0.0148
14245SOL    HW144176   1.744   2.839   6.830 -0.5409  0.4600  0.3706
14245SOL    HW244177   1.753   2.990   6.826  0.5565  0.3771 -0.8083
14246SOL     OW44178   6.737   6.598   4.290  0.4079  0.3722  0.2749
14246SOL    HW144179   6.743   6.567   4.200  0.1538 -0.3367  0.4987
14246SOL    HW244180   6.782   6.531   4.342  0.8974  0.9645  0.6394
14247SOL     OW44181   7.645   7.764   3.908  0.2694 -0.3099 -0.2847
14247SOL    HW144182   7.721   7.708   3.894  1.3381  1.0854 -0.2888
14247SOL    HW244183   7.681   7.852   3.914 -0.9782  0.1046  3.1190
14248SOL     OW44184   0.497   7.026   7.451  0.3342  0.3331  0.5495
14248SOL    HW144185   0.547   6.945   7.439 -1.6415 -0.8339 -0.1765
14248SOL    HW244186   0.501   7.069   7.366 -2.8554 -1.5972 -0.7444
14249SOL     OW44187   0.200   6.005   3.936  0.2540 -0.4345  0.5933
14249SOL    HW144188   0.173   6.096   3.946  0.6272 -0.2909  0.3165
14249SOL    HW244189   0.171   5.962   4.016 -1.2678 -0.4015  0.0995
14250SOL     OW44190   5.074   3.980   4.311 -0.3939  0.0275  0.3454
14250SOL    HW144191   5.100   3.984   4.219 -0.8088 -0.8317  0.1828
14250SOL    HW244192   5.003   4.043   4.318  0.7993  1.4257  0.5003
14251SOL     OW44193   2.189   6.571   7.186 -0.2341 -0.4057  0.7674
14251SOL    HW144194   2.212   6.636   7.253  1.3492 -0.7049  0.5647
14251SOL    HW244195   2.136   6.619   7.122 -0.1929  0.3441  1.2926
14252SOL     OW44196   0.475   1.874  11.585  0.0430  0.1150  0.6045
14252SOL    HW144197   0.514   1.798  11.541 -0.5463 -0.3055  0.8028
14252SOL    HW244198   0.457   1.844  11.674  0.0244  0.5619  0.7561
14253SOL     OW44199   0.661   5.320   8.798  0.3151  0.3459 -0.2315
14253SOL    HW144200   0.664   5.225   8.797  0.8819  0.3286 -2.1960
14253SOL    HW244201   0.569   5.342   8.808  0.4313 -0.2928  3.3957
14254SOL     OW44202   6.423   0.527  12.099  0.7756  0.0970 -0.2369
14254SOL    HW144203   6.354   0.463  12.083 -0.4118  1.1261  0.5684
14254SOL    HW244204   6.450   0.512  12.189 -1.0147  2.0044  0.7216
14255SOL     OW44205   4.891   7.923   6.840 -0.3746 -0.3010  0.5184
14255SOL    HW144206   4.954   7.861   6.878 -0.1733 -0.0420  0.6107
14255SOL    HW244207   4.821   7.868   6.805 -0.1541 -0.5859  0.5221
14256SOL     OW44208   2.892   1.239   1.281 -0.0590 -0.2385  0.2437
14256SOL    HW144209   2.823   1.188   1.324 -0.2906 -0.6828 -0.6189
14256SOL    HW244210   2.970   1.222   1.334 -0.0120 -1.9432 -0.3131
14257SOL     OW44211   3.278   6.528   0.225 -0.2899  0.0249  0.5134
14257SOL    HW144212   3.260   6.528   0.319 -1.6904 -1.8323  0.3099
14257SOL    HW244213   3.217   6.463   0.189  0.4405  0.4509 -1.6365
14258SOL     OW44214   3.657   6.393  11.354  0.0201  0.3579  0.5242
14258SOL    HW144215   3.722   6.421  11.417  0.2978 -0.0253  0.4114
14258SOL    HW244216   3.629   6.474  11.311  0.5523  0.5039  0.4464
14259SOL     OW44217   7.839   2.991  10.265  0.7817  0.2047  0.3161
14259SOL    HW144218   7.754   2.953  10.289  1.3139 -0.0765  1.9348
14259SOL    HW244219   7.853   3.059  10.331  2.1474 -0.2903  0.5676
14260SOL     OW44220   7.745   7.595   4.638 -0.7899 -0.3024  0.7046
14260SOL    HW144221   7.773   7.555   4.720 -0.7908 -3.3306 -0.6454
14260SOL    HW244222   7.790   7.545   4.570 -1.5431  1.4638 -1.1996
14261SOL     OW44223   7.305   7.422   1.245 -0.4611 -0.1599  0.3366
14261SOL    HW144224   7.372   7.418   1.314 -0.8188 -1.3125  0.6534
14261SOL    HW244225   7.254   7.501   1.265  0.8092  0.7470  0.0652
14262SOL     OW44226   3.569   0.497  11.148  0.3391 -0.0355 -0.0935
14262SOL    HW144227   3.521   0.580  11.155 -0.8275 -0.7624  0.9397
14262SOL    HW244228   3.517   0.445  11.087  1.0995 -0.0118 -0.7822
14263SOL     OW44229   3.671   0.739   7.333  0.3439  0.0997 -0.4447
14263SOL    HW144230   3.580   0.736   7.301  0.0496 -0.2195  0.3891
14263SOL    HW244231   3.707   0.818   7.293  0.7046 -1.3917 -3.3560
14264SOL     OW44232   1.937   2.860   1.080 -0.1900 -0.7573  0.3051
14264SOL    HW144233   1.942   2.783   1.023 -1.2726 -1.5211  1.1765
14264SOL    HW244234   2.004   2.844   1.147  2.1927  0.8933 -1.5207
14265SOL     OW44235   2.571   0.607   5.405 -0.7633 -0.7619 -0.3717
14265SOL    HW144236   2.639   0.666   5.372  1.1119 -2.1367  0.8473
14265SOL    HW244237   2.507   0.665   5.445 -0.1948  0.5789 -1.3089
14266SOL     OW44238   6.043   2.104   0.078 -0.1550 -0.0562  0.2791
14266SOL    HW144239   6.013   2.076   0.165 -0.7602  1.3520  0.5402
14266SOL    HW244240   6.136   2.079   0.077 -0.2209 -0.3979  1.1937
14267SOL     OW44241   6.357   4.893   1.619  0.3047  0.1209 -0.0559
14267SOL    HW144242   6.315   4.813   1.587  0.9130 -0.2395  0.0294
14267SOL    HW244243   6.286   4.944   1.657 -0.1187 -0.3023 -0.2706
14268SOL     OW44244   6.391   7.665   6.428  0.4298 -0.1776  0.1723
14268SOL    HW144245   6.465   7.687   6.484  1.0640  0.7948 -0.9962
14268SOL    HW244246   6.318   7.716   6.462  0.6411 -0.0995  0.5040
14269SOL     OW44247   6.507   2.849   2.305  0.0721  0.3769 -0.7809
14269SOL    HW144248   6.498   2.827   2.398  0.9748 -0.5857 -0.9018
14269SOL    HW244249   6.514   2.764   2.261  0.8732  0.8531 -1.5980
14270SOL     OW44250   0.068   5.421   0.352 -0.2722  0.3094 -0.2452
14270SOL    HW144251   0.068   5.346   0.292  0.1695  2.3535 -3.0046
14270SOL    HW244252  -0.019   5.419   0.393 -0.5398 -1.2508 -0.8293
14271SOL     OW44253   7.225   3.842   5.978 -0.2551  0.4752  0.4684
14271SOL    HW144254   7.241   3.749   5.961 -2.2413  0.5373 -2.3292
14271SOL    HW244255   7.312   3.882   5.980  0.5529 -1.1874  0.0584
14272SOL     OW44256   0.770   5.098   8.170 -0.0975 -0.0083 -0.1674
14272SOL    HW144257   0.733   5.024   8.123 -1.0523 -0.7732  1.6813
14272SOL    HW244258   0.718   5.104   8.250  0.3782  2.2649  0.0353
14273SOL     OW44259   6.871   5.036   5.502 -0.5189  0.0091 -0.0538
14273SOL    HW144260   6.842   5.127   5.489 -0.0853 -0.0068 -1.2290
14273SOL    HW244261   6.908   5.011   5.418 -2.9144 -2.1273 -0.5927
14274SOL     OW44262   0.643   6.978   8.491  0.1890 -0.5990  0.0869
14274SOL    HW144263   0.616   6.913   8.427 -0.7305 -1.2813  1.1359
14274SOL    HW244264   0.699   6.931   8.552  0.6904 -0.0654  0.0472
14275SOL     OW44265   5.761   1.853   0.023  0.5050 -0.3710  0.2551
14275SOL    HW144266   5.773   1.775   0.077  3.5241 -0.2799 -0.1193
14275SOL    HW244267   5.717   1.821  -0.056 -0.0689 -1.2978  0.9318
14276SOL     OW44268   0.960   6.786  10.304  0.0817 -0.9136 -0.8375
14276SOL    HW144269   1.027   6.846  10.335 -1.0323  0.6070 -1.2790
14276SOL    HW244270   0.878   6.819  10.341 -0.6295 -1.8652 -1.5002
14277SOL     OW44271   5.024   5.858   7.695 -0.0245 -0.7327  0.1499
14277SOL    HW144272   5.043   5.815   7.611  0.2303 -0.4832  0.0797
14277SOL    HW244273   5.104   5.906   7.716 -1.0210  1.4949 -0.8605
14278SOL     OW44274   7.196   4.614   6.463  0.2575  0.1759 -0.3816
14278SOL    HW144275   7.206   4.709   6.475  2.2321 -0.1230  0.6403
14278SOL    HW244276   7.183   4.580   6.551 -2.6109 -0.3671 -0.9051
14279SOL     OW44277   3.235   4.417   3.658 -0.8442  0.6504  0.1053
14279SOL    HW144278   3.269   4.433   3.570  0.1855  1.5251  0.6388
14279SOL    HW244279   3.155   4.366   3.644  0.6615 -1.4767 -1.1773
14280SOL     OW44280   1.055   7.540   7.478 -0.0328 -0.0915  0.7094
14280SOL    HW144281   0.963   7.535   7.454  0.1369 -1.9670  0.3045
14280SOL    HW244282   1.071   7.462   7.532  1.9064 -1.4357 -1.5817
14281SOL     OW44283   3.356   5.004   4.989  0.1511  0.1192  0.6033
14281SOL    HW144284   3.374   5.012   4.895  0.4102  2.8046  0.7835
14281SOL    HW244285   3.305   5.083   5.009  2.3070  0.9734  3.1780
14282SOL     OW44286   6.696   3.042   7.274 -0.3415  0.0043 -0.2631
14282SOL    HW144287   6.749   3.088   7.210  0.9808  2.0244  2.1015
14282SOL    HW244288   6.608   3.075   7.261 -0.0897  0.3827 -1.0418
14283SOL     OW44289   1.650   0.128  11.499  0.0661  0.2901 -0.1536
14283SOL    HW144290   1.603   0.065  11.443 -0.8410  1.0040 -0.2057
14283SOL    HW244291   1.676   0.076  11.575  2.0685 -0.9300 -1.5640
14284SOL     OW44292   6.259   5.370   9.575 -0.5486 -0.4225  0.1321
14284SOL    HW144293   6.242   5.365   9.669 -0.2655  0.4751  0.2358
14284SOL    HW244294   6.201   5.438   9.543  0.5704  0.4785 -0.0410
14285SOL     OW44295   4.148   3.523   3.448  0.3163 -0.3469 -0.5020
14285SOL    HW144296   4.143   3.557   3.359  0.9202  0.2246 -0.3255
14285SOL    HW244297   4.211   3.580   3.492 -0.5942 -0.1008  0.5242
14286SOL     OW44298   6.502   4.707   9.366 -0.2420 -0.6056  0.6765
14286SOL    HW144299   6.594   4.686   9.354 -0.8111 -1.7046 -2.6473
14286SOL    HW244300   6.499   4.803   9.362  0.6208 -0.6124 -0.5290
14287SOL     OW44301   0.024   1.999   5.338  0.0227  0.1721 -0.7788
14287SOL    HW144302  -0.056   1.947   5.335 -0.1042  0.2438  0.6499
14287SOL    HW244303   0.095   1.935   5.328 -0.1710 -0.1095 -0.3687
14288SOL     OW44304   5.132   6.208  11.441 -0.0678 -0.3555  0.0794
14288SOL    HW144305   5.089   6.293  11.454  0.4267  0.0033 -0.5136
14288SOL    HW244306   5.073   6.160  11.383 -0.7258 -0.7214  1.0483
14289SOL     OW44307   4.462   4.420   4.768  0.0108 -0.2771 -0.4871
14289SOL    HW144308   4.420   4.488   4.821  1.7695  1.1121 -0.7865
14289SOL    HW244309   4.428   4.435   4.680  2.7719  2.4632 -1.2558
14290SOL     OW44310   2.074   0.794   1.143 -0.3950 -0.1116  0.4414
14290SOL    HW144311   2.055   0.749   1.225 -1.0247 -2.0116 -0.6736
14290SOL    HW244312   2.136   0.863   1.167 -0.2320 -0.8865  2.4304
14291SOL     OW44313   0.241   4.905  12.217  0.0737  0.0861  0.4000
14291SOL    HW144314   0.173   4.918  12.150 -1.9562 -0.9487  2.1096
14291SOL    HW244315   0.288   4.826  12.188  0.2827  0.5600 -0.5934
14292SOL     OW44316   5.530   0.316  10.621 -0.5903  0.3836 -0.2686
14292SOL    HW144317   5.523   0.276  10.534 -1.1283 -2.3362  0.8917
14292SOL    HW244318   5.440   0.339  10.644 -1.0417 -2.0722  0.8075
14293SOL     OW44319   7.423   0.569   9.234  0.2707  0.5521  0.2285
14293SOL    HW144320   7.343   0.540   9.277  0.6981  1.7067  1.9122
14293SOL    HW244321   7.393   0.613   9.154 -0.6063 -0.8510 -0.2374
14294SOL     OW44322   0.977   3.247   2.715  0.1875  0.0561 -0.3693
14294SOL    HW144323   0.899   3.294   2.685  1.1088  0.4068 -2.4335
14294SOL    HW244324   0.944   3.181   2.776 -1.4840  1.3786  0.2337
14295SOL     OW44325   4.838   2.544   9.619 -0.4285 -0.3037 -0.1647
14295SOL    HW144326   4.872   2.517   9.533  0.2965  0.5234 -0.1582
14295SOL    HW244327   4.855   2.469   9.676  0.4548 -0.3035 -0.4073
14296SOL     OW44328   7.295   3.449   9.867 -0.1152  0.4263 -0.1667
14296SOL    HW144329   7.308   3.373   9.810 -0.2040  1.3162 -1.4055
14296SOL    HW244330   7.265   3.412   9.950  0.2136 -0.9164 -0.6228
14297SOL     OW44331   0.434   5.123   5.432  0.3083  0.1944 -0.0255
14297SOL    HW144332   0.350   5.103   5.391  1.1041  0.0117 -1.6410
14297SOL    HW244333   0.417   5.201   5.485 -1.0042 -0.1812  0.1313
14298SOL     OW44334   1.667   0.616   1.797  0.3328 -0.2363  0.1049
14298SOL    HW144335   1.613   0.653   1.727  1.1086 -0.0561 -0.4107
14298SOL    HW244336   1.644   0.524   1.798 -0.0376 -0.1495 -0.0601
14299SOL     OW44337   0.869   6.614   6.074  0.3422  0.3611  0.6664
14299SOL    HW144338   0.883   6.578   6.162  0.5738  0.2591  0.5901
14299SOL    HW244339   0.942   6.674   6.061 -0.8339  2.0190  1.3767
14300SOL     OW44340   1.937   3.011   2.525  0.1557  0.4919  0.4800
14300SOL    HW144341   1.889   2.944   2.477  1.4163 -0.3696  0.3736
14300SOL    HW244342   1.880   3.088   2.523  0.2493  0.5767 -2.5869
14301SOL     OW44343   3.183   1.320   0.728  0.1527 -0.6621  0.4722
14301SOL    HW144344   3.244   1.301   0.800 -1.5004 -1.0133  1.8377
14301SOL    HW244345   3.237   1.312   0.649  1.7863 -1.3368  1.5885
14302SOL     OW44346   7.339   2.089   4.656 -0.3630 -0.0544 -0.0874
14302SOL    HW144347   7.274   2.145   4.613 -1.9785 -1.1067  0.8929
14302SOL    HW244348   7.288   2.033   4.714  1.3756 -1.4131  0.2073
14303SOL     OW44349   0.212   6.561   2.300  0.1641  0.2428  0.3384
14303SOL    HW144350   0.210   6.591   2.391 -3.5415 -1.3702  0.9641
14303SOL    HW244351   0.173   6.474   2.302  1.9585 -0.7984 -2.5940
14304SOL     OW44352   5.264   5.216   7.725  0.3765  0.0802  0.4749
14304SOL    HW144353   5.280   5.310   7.720  0.0863  0.2003  1.6177
14304SOL    HW244354   5.323   5.184   7.793  0.9439 -0.6826 -0.3576
14305SOL     OW44355   6.056   1.265  11.565  0.0959  0.2450  0.1513
14305SOL    HW144356   6.113   1.244  11.639  0.9308  0.1945 -0.4899
14305SOL    HW244357   6.116   1.297  11.497 -0.8447  2.1958  0.1703
14306SOL     OW44358   6.701   0.230   5.424 -0.5597 -0.2254  0.3600
14306SOL    HW144359   6.711   0.149   5.375 -0.4488  0.7345 -1.2578
14306SOL    HW244360   6.663   0.292   5.362  0.8672  1.4307  1.0603
14307SOL     OW44361   2.922   7.677   9.769 -0.1086 -0.0185  0.2456
14307SOL    HW144362   2.955   7.660   9.681  1.4518 -1.0672  0.9850
14307SOL    HW244363   2.831   7.650   9.766  0.1252 -0.7765 -0.8541
14308SOL     OW44364   5.967   2.240   2.073  0.2400 -0.4032 -0.1547
14308SOL    HW144365   6.013   2.201   2.147  0.4389  2.2742  1.2604
14308SOL    HW244366   6.017   2.214   1.996  1.9489 -0.5873  0.9868
14309SOL     OW44367   4.093   4.407   6.400 -0.2644 -0.0679 -0.3985
14309SOL    HW144368   4.150   4.331   6.390  2.1168  1.3291  1.6004
14309SOL    HW244369   4.133   4.475   6.345 -0.2279  0.8008  0.6717
14310SOL     OW44370   2.604   2.893   5.608 -0.3774  0.1373 -0.0796
14310SOL    HW144371   2.688   2.848   5.599  0.3902  1.7277 -1.3605
14310SOL    HW244372   2.607   2.933   5.695 -0.0835 -0.3166  0.1249
14311SOL     OW44373   4.955   5.103   1.594  0.1370 -0.4230  0.2132
14311SOL    HW144374   4.890   5.127   1.659 -2.6062  0.0543 -2.4521
14311SOL    HW244375   4.927   5.149   1.514  2.2389 -2.3056 -1.7701
14312SOL     OW44376   6.345   7.347   6.359 -0.1679  0.6783 -0.3995
14312SOL    HW144377   6.381   7.258   6.363  2.7464  1.6061 -2.7663
14312SOL    HW244378   6.273   7.346   6.423  1.2569 -2.6349  1.4211
14313SOL     OW44379   5.096   1.305   5.587 -0.5617  0.6248 -0.1835
14313SOL    HW144380   5.130   1.340   5.505 -2.4343 -1.4741 -1.9569
14313SOL    HW244381   5.165   1.246   5.618  0.5967  2.2006  0.3854
14314SOL     OW44382   6.645   5.546   8.135  0.3538  0.0022  0.7357
14314SOL    HW144383   6.627   5.637   8.159  2.3434  0.6945 -0.1926
14314SOL    HW244384   6.691   5.509   8.210  2.0645  0.6543  0.0579
14315SOL     OW44385   7.329   0.071   2.556  0.9627 -0.5117 -0.7507
14315SOL    HW144386   7.320   0.085   2.650  0.7313  1.0951 -0.9888
14315SOL    HW244387   7.378  -0.011   2.549  1.7061 -0.2428  0.7914
14316SOL     OW44388   0.822   5.300  12.366 -0.0916 -0.6606 -0.3992
14316SOL    HW144389   0.853   5.363  12.431 -0.0485 -2.8337  1.8802
14316SOL    HW244390   0.901   5.250  12.342 -0.6154 -1.9455  0.4073
14317SOL     OW44391   0.875   1.181  11.570  0.6250  0.3835  0.0255
14317SOL    HW144392   0.938   1.134  11.625  1.1367  0.8887 -0.1132
14317SOL    HW244393   0.879   1.137  11.486  2.1473  1.5191 -0.5309
14318SOL     OW44394   6.616   3.469   4.628 -0.0272 -0.2594  0.1098
14318SOL    HW144395   6.528   3.452   4.661 -0.8807 -0.2481 -2.0148
14318SOL    HW244396   6.603   3.534   4.558  1.4985 -1.1855 -1.0801
14319SOL     OW44397   6.690   5.376   7.414 -0.1190  0.5346 -0.1507
14319SOL    HW144398   6.729   5.332   7.490  0.0922  1.2524  0.1638
14319SOL    HW244399   6.680   5.467   7.442 -1.2729  0.5328 -0.5218
14320SOL     OW44400   7.782   6.522   1.195  0.8828 -0.1048 -0.0954
14320SOL    HW144401   7.706   6.568   1.230 -0.1227 -0.1645 -2.0406
14320SOL    HW244402   7.843   6.592   1.170  0.2286  0.1019 -1.1602
14321SOL     OW44403   3.276   5.049   9.394  0.1438 -0.3132 -0.3058
14321SOL    HW144404   3.283   5.038   9.299  1.7161 -0.4149 -0.2145
14321SOL    HW244405   3.356   5.097   9.418 -0.6676  0.5329  0.8593
14322SOL     OW44406   6.378   7.291   9.624  0.0628  0.4331  0.0642
14322SOL    HW144407   6.367   7.348   9.700 -0.4973  1.6059 -0.8541
14322SOL    HW244408   6.472   7.275   9.619  0.0119 -0.4402  1.5352
14323SOL     OW44409   1.903   7.106   5.897  0.0343  0.2573 -0.1267
14323SOL    HW144410   1.833   7.148   5.846 -0.1590 -2.0133 -1.9078
14323SOL    HW244411   1.859   7.077   5.977 -0.5716  0.5883 -0.3286
14324SOL     OW44412   4.193   2.322   3.614 -0.1720  0.4566  0.2126
14324SOL    HW144413   4.251   2.389   3.578  0.5657  0.2338  0.9441
14324SOL    HW244414   4.112   2.331   3.564  0.4290  0.8910 -0.7171
14325SOL     OW44415   6.072   2.338   5.760 -0.6760 -0.2048  0.4328
14325SOL    HW144416   6.112   2.311   5.843 -0.4816 -2.5907 -0.3421
14325SOL    HW244417   6.144   2.370   5.707  0.5254 -4.5484 -0.9859
14326SOL     OW44418   3.453   5.623   7.695  0.3648  0.9097 -0.3581
14326SOL    HW144419   3.540   5.607   7.732  0.1775  1.3202  0.2620
14326SOL    HW244420   3.393   5.609   7.767  0.0379  2.2590 -0.3411
14327SOL     OW44421   7.536   1.029  11.185 -0.2374 -0.2422  0.2148
14327SOL    HW144422   7.446   1.020  11.216  0.0126  0.5225  1.2105
14327SOL    HW244423   7.534   0.996  11.095 -2.0107  1.8549 -0.6036
14328SOL     OW44424   0.864   3.814   4.136  0.2272 -0.0554 -0.6477
14328SOL    HW144425   0.877   3.893   4.189  0.4074 -0.1227 -0.5900
14328SOL    HW244426   0.771   3.813   4.117 -0.1335 -0.8311  0.9528
14329SOL     OW44427   4.693   7.230   4.853 -0.3173 -0.4530  0.4072
14329SOL    HW144428   4.739   7.267   4.928  0.4394  0.7146 -0.5957
14329SOL    HW244429   4.745   7.154   4.827 -1.8192 -2.2766  2.4116
14330SOL     OW44430   0.830   1.381   0.770  0.9682 -0.2552 -0.5057
14330SOL    HW144431   0.834   1.469   0.810 -3.1475  0.2601 -0.8766
14330SOL    HW244432   0.818   1.322   0.844 -0.4310  0.0056 -0.5058
14331SOL     OW44433   2.298   7.194  11.722  0.0883 -0.1558  0.3440
14331SOL    HW144434   2.371   7.254  11.737  1.1292 -1.6241  1.4269
14331SOL    HW244435   2.306   7.169  11.630  0.5310  0.2048  0.2785
14332SOL     OW44436   0.126   1.136   4.168  0.0269 -0.1473 -0.0834
14332SOL    HW144437   0.101   1.137   4.260 -0.5698 -0.6559 -0.2320
14332SOL    HW244438   0.045   1.114   4.121  0.2992  0.2154 -0.7384
14333SOL     OW44439   7.247   4.090   1.574  0.1663 -0.0640  0.3224
14333SOL    HW144440   7.153   4.078   1.559  0.0136 -0.8190  1.7392
14333SOL    HW244441   7.275   4.150   1.504 -1.6843  1.4669  0.8030
14334SOL     OW44442   5.519   3.947   0.003  0.6310  0.1014 -0.2430
14334SOL    HW144443   5.467   3.959   0.082  1.3583 -1.6453  0.5509
14334SOL    HW244444   5.595   4.005   0.015 -0.2389  1.3699 -0.6317
14335SOL     OW44445   5.560   1.817   5.148 -0.0432 -0.0267  0.3117
14335SOL    HW144446   5.466   1.805   5.134  0.0403 -1.9031  1.0796
14335SOL    HW244447   5.592   1.852   5.065 -1.2683 -0.2953 -0.2973
14336SOL     OW44448   4.635   2.398   0.519 -0.0112  0.0233  0.5675
14336SOL    HW144449   4.548   2.408   0.480 -0.3456  0.1461  1.3052
14336SOL    HW244450   4.684   2.346   0.456 -0.1601  1.1579 -0.5242
14337SOL     OW44451   2.032   1.617   0.706 -0.8205 -0.0052 -0.7044
14337SOL    HW144452   2.018   1.532   0.663  2.3640 -0.6928 -0.6129
14337SOL    HW244453   2.000   1.681   0.643 -1.5218 -1.1854 -1.6011
14338SOL     OW44454   5.459   7.019   3.986  0.4869 -0.3778  0.1062
14338SOL    HW144455   5.368   6.988   3.989 -0.0741  0.9695 -1.4141
14338SOL    HW244456   5.451   7.112   3.969  2.1737  0.0077  1.2331
14339SOL     OW44457   4.732   1.459   6.564  0.0362  0.1406 -0.2193
14339SOL    HW144458   4.753   1.532   6.506  3.0326 -1.7279 -1.7449
14339SOL    HW244459   4.709   1.387   6.505 -2.2525 -0.4296  1.2134
14340SOL     OW44460   4.662   1.252   7.387 -0.7420  0.4350  0.4233
14340SOL    HW144461   4.640   1.187   7.320 -0.7022  2.2307 -1.4151
14340SOL    HW244462   4.593   1.317   7.382 -0.1847  1.1368  1.4450
14341SOL     OW44463   5.548   5.795  10.177  0.5023  0.2325 -0.4873
14341SOL    HW144464   5.462   5.764  10.207  0.8729  1.0009  1.5145
14341SOL    HW244465   5.605   5.719  10.188  0.4480  0.2520 -0.0279
14342SOL     OW44466   1.601   3.525  11.043  0.5782 -0.0383  0.6347
14342SOL    HW144467   1.532   3.529  11.109 -0.5972  0.2699 -0.5562
14342SOL    HW244468   1.658   3.599  11.063  0.9525 -0.6506  2.0010
14343SOL     OW44469   2.210   2.017   0.254  0.3908 -0.2996 -0.3917
14343SOL    HW144470   2.185   2.015   0.347 -0.1868  1.4040 -0.4733
14343SOL    HW244471   2.301   1.988   0.253  1.7136  3.2525  1.2591
14344SOL     OW44472   0.871   4.376   4.904  0.0263  0.2146  0.1105
14344SOL    HW144473   0.929   4.319   4.854 -0.5735 -1.5879  1.3512
14344SOL    HW244474   0.927   4.448   4.933  1.0190 -0.1390 -0.8548
14345SOL     OW44475   4.346   5.443   7.580 -0.4285 -0.4190 -0.2148
14345SOL    HW144476   4.384   5.529   7.598 -0.3654 -0.5243  0.1721
14345SOL    HW244477   4.394   5.384   7.639 -2.1593 -0.3492  1.3371
14346SOL     OW44478   7.725   6.306   8.736 -0.5697  0.2617 -0.8598
14346SOL    HW144479   7.673   6.373   8.780 -0.0682  1.1413 -1.5859
14346SOL    HW244480   7.815   6.338   8.740  0.1021 -1.5729  1.0025
14347SOL     OW44481   2.850   2.064   3.506  0.6039 -0.1623 -0.7163
14347SOL    HW144482   2.770   2.013   3.516 -0.7110  1.9116  0.1908
14347SOL    HW244483   2.834   2.118   3.428 -0.2538  2.3543  1.0345
14348SOL     OW44484   4.291   3.784   8.102 -0.2509 -0.3359  0.0727
14348SOL    HW144485   4.228   3.732   8.151  0.9415 -1.0119  0.9259
14348SOL    HW244486   4.347   3.825   8.168  4.0206 -4.4568 -0.4748
14349SOL     OW44487   2.243   1.029   0.842  0.5039 -0.1456  0.5479
14349SOL    HW144488   2.221   1.095   0.776  0.8774 -0.8600 -0.3156
14349SOL    HW244489   2.269   1.080   0.919  1.3122  0.7411 -0.2792
14350SOL     OW44490   6.000   3.859   5.490  0.1891 -0.4316 -0.8217
14350SOL    HW144491   5.919   3.909   5.481  0.2302 -0.1174  0.4166
14350SOL    HW244492   6.068   3.918   5.457  0.0616 -0.2095 -0.6913
14351SOL     OW44493   7.869   5.286   0.124  0.3568  0.3000  0.2462
14351SOL    HW144494   7.803   5.354   0.133 -2.3462 -2.2104  0.9111
14351SOL    HW244495   7.889   5.283   0.031 -1.7520  0.0764 -0.2306
14352SOL     OW44496   3.172   1.236   5.953 -0.1108 -0.0765 -0.5591
14352SOL    HW144497   3.173   1.166   6.018  1.5737  0.3479 -0.0886
14352SOL    HW244498   3.198   1.194   5.872  0.8396 -0.0190 -0.2898
14353SOL     OW44499   3.193   2.869   9.024  0.1515  0.3162  0.5983
14353SOL    HW144500   3.270   2.855   8.969 -0.3333  0.6671 -0.1738
14353SOL    HW244501   3.222   2.932   9.090  0.5786  0.3004  0.4267
14354SOL     OW44502   7.033   4.413  11.675  0.6618  0.2500 -0.1727
14354SOL    HW144503   6.942   4.387  11.686  0.4112  1.5770  1.1666
14354SOL    HW244504   7.039   4.499  11.716  2.2788  0.6798 -1.2090
14355SOL     OW44505   4.439   3.748   1.535 -0.2170 -0.5006 -0.2123
14355SOL    HW144506   4.345   3.739   1.551 -0.2402 -1.4681 -0.8374
14355SOL    HW244507   4.455   3.843   1.539 -0.9352 -0.4161  1.4152
14356SOL     OW44508   2.680   5.659  11.029  0.1045  0.0315  0.5084
14356SOL    HW144509   2.618   5.732  11.036  1.5959  1.2989  1.1812
14356SOL    HW244510   2.712   5.664  10.938  1.3574  1.2690  0.9739
14357SOL     OW44511   4.942   6.928  11.609  0.3591  0.4232 -0.7559
14357SOL    HW144512   5.030   6.898  11.632  0.0735  0.1967  0.0564
14357SOL    HW244513   4.899   6.852  11.571 -0.0533  0.0280  0.4484
14358SOL     OW44514   3.800   3.483  11.958 -0.1223 -0.4776 -0.2818
14358SOL    HW144515   3.890   3.452  11.954  0.3316  0.6368  0.6076
14358SOL    HW244516   3.806   3.578  11.946 -1.3437 -0.5390 -1.6966
14359SOL     OW44517   1.571   3.390   0.875  0.0082 -0.5997 -0.0033
14359SOL    HW144518   1.533   3.397   0.788  0.9119  0.6916 -0.3290
14359SOL    HW244519   1.500   3.415   0.934 -0.0914  0.4070 -0.5166
14360SOL     OW44520   3.820   2.433   3.056  0.7026 -0.2176 -0.4293
14360SOL    HW144521   3.757   2.494   3.095  2.7931 -0.0521  3.1270
14360SOL    HW244522   3.771   2.352   3.045 -0.8707  0.7118 -0.6484
14361SOL     OW44523   3.004   6.349  10.788  0.3650  0.3191  0.1154
14361SOL    HW144524   2.999   6.422  10.726  0.1111 -0.5669 -0.9423
14361SOL    HW244525   2.918   6.347  10.829  0.7753  1.3817  1.0858
14362SOL     OW44526   7.778   5.987   6.191 -0.5477  0.2845  0.2840
14362SOL    HW144527   7.744   5.985   6.102  0.7872 -0.1038 -0.2357
14362SOL    HW244528   7.773   5.897   6.221  0.2278  0.1833  0.1175
14363SOL     OW44529   1.072   5.281   8.035 -0.6277  0.3753  0.1078
14363SOL    HW144530   1.023   5.257   7.956  0.2217 -0.2425 -0.2403
14363SOL    HW244531   1.039   5.221   8.102 -0.4404  0.0442 -0.0936
14364SOL     OW44532   5.139   2.806   0.827 -0.5061  0.3840  0.0401
14364SOL    HW144533   5.145   2.749   0.751  0.6898  0.2069  0.2544
14364SOL    HW244534   5.045   2.809   0.847 -0.7642 -0.1050 -1.0189
14365SOL     OW44535   2.048   5.140   4.028 -0.0036  0.0395 -0.2232
14365SOL    HW144536   2.021   5.225   3.993 -0.6959 -0.4288 -0.8506
14365SOL    HW244537   2.108   5.105   3.963 -0.2479 -0.2507 -0.2925
14366SOL     OW44538   2.797   7.552   7.978  0.4112 -0.1114 -0.0987
14366SOL    HW144539   2.872   7.526   7.925  1.6582 -1.7874  2.2830
14366SOL    HW244540   2.753   7.470   7.998  0.9979  0.1615  2.7769
14367SOL     OW44541   2.689   6.741   0.935 -0.8473 -0.0358  0.0464
14367SOL    HW144542   2.638   6.821   0.950  1.6749  1.8214 -0.4828
14367SOL    HW244543   2.663   6.682   1.006 -2.2103  1.5791  0.9608
14368SOL     OW44544   0.973   6.487   3.470 -0.1574  0.0477  0.0227
14368SOL    HW144545   1.066   6.503   3.486  0.4161 -2.5872 -0.2049
14368SOL    HW244546   0.933   6.491   3.557  0.1463  1.0563  0.1368
14369SOL     OW44547   4.098   1.917  12.090 -0.3291 -0.6898  0.8683
14369SOL    HW144548   4.017   1.923  12.039 -0.2202  0.2083  0.7859
14369SOL    HW244549   4.158   1.978  12.047 -1.2390  2.6142  3.8518
14370SOL     OW44550   4.651   4.487   6.301 -0.3097  0.4460  0.4798
14370SOL    HW144551   4.571   4.455   6.342 -1.5670  1.4436 -1.0459
14370SOL    HW244552   4.710   4.412   6.300 -2.1623 -1.0827 -0.5642
14371SOL     OW44553   3.045   6.529   5.062 -0.4186 -0.2777  0.1006
14371SOL    HW144554   3.063   6.619   5.090  0.6559 -0.6317  0.6210
14371SOL    HW244555   3.062   6.476   5.140 -0.8589 -0.9460 -0.2535
14372SOL     OW44556   1.727   2.645   5.918  0.4006  0.4543  0.4020
14372SOL    HW144557   1.749   2.603   5.836  1.5008  2.6115 -0.5022
14372SOL    HW244558   1.812   2.665   5.958 -0.1080  0.4519  1.5193
14373SOL     OW44559   5.773   7.527   1.202 -0.7388 -0.2889  0.3136
14373SOL    HW144560   5.759   7.615   1.168 -0.3995 -0.3234  0.0745
14373SOL    HW244561   5.802   7.541   1.293  2.4737  0.0477 -0.6235
14374SOL     OW44562   6.418   0.730   3.412  0.6923 -0.0940  0.1476
14374SOL    HW144563   6.358   0.674   3.363  0.3401 -1.7506  2.3472
14374SOL    HW244564   6.408   0.816   3.371 -3.2378 -0.2595  0.3849
14375SOL     OW44565   2.004   1.982  10.796  0.1120 -0.8490  0.1627
14375SOL    HW144566   2.067   2.045  10.762 -1.1574  0.1362 -0.4834
14375SOL    HW244567   1.991   1.921  10.723 -1.3416  0.2807 -0.5834
14376SOL     OW44568   3.750   5.404   5.857 -0.3007 -0.6364  0.4807
14376SOL    HW144569   3.817   5.351   5.812  0.9991  1.3544 -0.0569
14376SOL    HW244570   3.696   5.438   5.786 -0.3406 -0.2246  0.7097
14377SOL     OW44571   1.470   7.578  10.520  0.3434  0.0630 -0.5945
14377SOL    HW144572   1.441   7.492  10.549 -2.3333  0.5689 -1.4225
14377SOL    HW244573   1.481   7.629  10.600  0.0056 -0.5042 -0.1869
14378SOL     OW44574   7.912   2.798   1.099  0.2549  0.0998  0.6473
14378SOL    HW144575   7.975   2.796   1.027  1.0278 -0.1417  1.3123
14378SOL    HW244576   7.900   2.891   1.118 -0.1726  0.1765  0.0281
14379SOL     OW44577   4.005   1.668   6.252 -0.0797  0.1115  0.1758
14379SOL    HW144578   4.030   1.602   6.316 -0.4692  0.0772  0.2947
14379SOL    HW244579   3.941   1.722   6.297 -0.1841  0.2272 -0.1102
14380SOL     OW44580   6.951   2.573   4.255 -0.1133 -0.2247  0.3622
14380SOL    HW144581   6.884   2.507   4.246 -0.9706  0.5593  0.8118
14380SOL    HW244582   6.946   2.624   4.174  0.6933 -0.8283 -0.0788
14381SOL     OW44583   7.698   1.207   2.447  0.2725  0.2783  0.2416
14381SOL    HW144584   7.655   1.262   2.382 -2.8194 -0.3971  1.5428
14381SOL    HW244585   7.688   1.118   2.415 -0.6106  0.0001  1.2278
14382SOL     OW44586   3.976   2.432   6.149  0.4236  0.1219 -0.3619
14382SOL    HW144587   3.988   2.358   6.090 -0.3352 -0.4285  0.1504
14382SOL    HW244588   3.902   2.481   6.112  0.3939  0.1607 -0.2514
14383SOL     OW44589   0.080   7.220   5.804 -0.2878 -0.3941  0.0365
14383SOL    HW144590   0.071   7.267   5.722 -3.8764  1.3330  1.2102
14383SOL    HW244591   0.067   7.128   5.780 -0.1466 -0.0489 -1.4612
14384SOL     OW44592   3.407   7.589   9.961 -0.7207 -0.2667  0.6931
14384SOL    HW144593   3.480   7.635  10.002 -0.5896  0.9844 -0.8298
14384SOL    HW244594   3.351   7.562  10.034 -0.0000  0.9703  1.7487
14385SOL     OW44595   5.305   6.512   1.748 -0.5278 -0.7778 -0.0461
14385SOL    HW144596   5.291   6.572   1.821  0.8538 -0.8703  0.3198
14385SOL    HW244597   5.218   6.477   1.729 -1.1392  0.3505  0.5853
14386SOL     OW44598   1.896   4.808   8.651 -0.6802 -0.0523  0.0299
14386SOL    HW144599   1.849   4.883   8.615 -0.7480 -0.5542 -0.9730
14386SOL    HW244600   1.837   4.734   8.635 -0.6795 -0.3052  1.1454
14387SOL     OW44601   2.004   2.576   3.536 -0.2515 -0.1692  0.1351
14387SOL    HW144602   1.963   2.629   3.605 -0.1313  0.4860 -0.2847
14387SOL    HW244603   1.995   2.486   3.566  0.8086  0.1637  1.5616
14388SOL     OW44604   1.547   2.304   4.048 -0.2470 -0.2026 -0.1836
14388SOL    HW144605   1.505   2.299   3.962  0.5739 -0.5358 -0.5732
14388SOL    HW244606   1.481   2.343   4.105 -0.1179  2.0290 -1.4306
14389SOL     OW44607   4.975   3.469   8.197  0.1134 -0.5901 -0.0773
14389SOL    HW144608   4.993   3.550   8.244 -0.1930 -0.4420 -0.2112
14389SOL    HW244609   5.058   3.446   8.156  0.5628 -1.0685  1.0543
14390SOL     OW44610   7.618   4.107   0.419  0.4010 -0.1078 -0.1749
14390SOL    HW144611   7.633   4.014   0.436 -1.1011 -0.2427  0.5792
14390SOL    HW244612   7.533   4.126   0.459  0.1460  1.3348 -1.2823
14391SOL     OW44613   6.991   3.503  10.570 -0.4094  0.0617  0.0811
14391SOL    HW144614   6.989   3.437  10.640  0.0980  1.4967  1.5037
14391SOL    HW244615   6.899   3.525  10.555 -0.5412 -0.4684  0.0845
14392SOL     OW44616   3.477   5.680   6.245 -0.2425  0.1457  0.2051
14392SOL    HW144617   3.516   5.606   6.199  1.2143  0.8626  0.2169
14392SOL    HW244618   3.387   5.653   6.262  0.1653 -1.4966 -0.0446
14393SOL     OW44619   4.189   0.459   7.469  0.5211 -0.0995 -0.3332
14393SOL    HW144620   4.101   0.487   7.492  0.3106 -0.1857 -1.0152
14393SOL    HW244621   4.223   0.529   7.413  0.1877 -0.9161 -1.6125
14394SOL     OW44622   6.077   1.563   5.308  0.0319  0.4094 -0.1083
14394SOL    HW144623   6.105   1.583   5.397  2.2714  0.0506 -0.6861
14394SOL    HW244624   6.112   1.634   5.255  2.2123 -1.3629 -1.2176
14395SOL     OW44625   6.275   0.022   9.974 -0.4971 -0.7464  0.1883
14395SOL    HW144626   6.206  -0.022   9.924  0.1699  1.1159 -2.5837
14395SOL    HW244627   6.232   0.096  10.016 -0.4509 -0.3014 -0.5313
14396SOL     OW44628   0.421   3.025   9.095  0.1777  0.2207 -0.2370
14396SOL    HW144629   0.476   3.097   9.126  0.3856  0.5252 -1.2646
14396SOL    HW244630   0.483   2.956   9.069  0.0355  0.1603 -0.4224
14397SOL     OW44631   7.012   0.394   2.641 -0.2658 -0.4806  1.2187
14397SOL    HW144632   6.963   0.324   2.597 -1.0533  0.4220  0.6202
14397SOL    HW244633   6.946   0.459   2.665  0.5908  0.7262  0.4769
14398SOL     OW44634   5.298   4.152  12.245 -0.3197 -0.6635  0.5113
14398SOL    HW144635   5.238   4.196  12.185 -1.1808 -0.8864  1.1864
14398SOL    HW244636   5.334   4.223  12.298 -0.3448 -0.5809  0.4180
14399SOL     OW44637   7.178   2.916  11.429 -0.2841 -0.1621  0.5846
14399SOL    HW144638   7.199   2.998  11.475 -0.8833  0.4839 -0.2612
14399SOL    HW244639   7.212   2.929  11.340 -1.5377 -0.2965  0.0675
14400SOL     OW44640   1.904   5.665   5.587  0.3992 -0.4236 -0.2150
14400SOL    HW144641   1.834   5.629   5.642 -0.0883  0.6638 -0.0821
14400SOL    HW244642   1.869   5.749   5.556  1.6004  0.0892 -0.2466
14401SOL     OW44643   6.823   0.963   8.877  0.0588 -0.3523  0.0228
14401SOL    HW144644   6.912   0.978   8.906  0.1525 -0.2615 -0.3026
14401SOL    HW244645   6.789   0.896   8.936 -0.1156  0.5780  1.0051
14402SOL     OW44646   0.771   4.329   1.853  0.6270  0.5485 -0.0330
14402SOL    HW144647   0.816   4.336   1.769  0.9857 -1.9144 -0.1046
14402SOL    HW244648   0.679   4.315   1.830  0.6416  0.3960  0.0032
14403SOL     OW44649   2.341   5.357   7.781 -0.6249 -0.7089 -0.1865
14403SOL    HW144650   2.337   5.392   7.870 -2.9006  0.8280 -0.7851
14403SOL    HW244651   2.309   5.266   7.790 -0.9742 -0.5248  0.5591
14404SOL     OW44652   0.848   6.333   7.233 -0.7635  0.1536  0.6545
14404SOL    HW144653   0.942   6.315   7.232 -0.7950 -0.0246  0.8480
14404SOL    HW244654   0.809   6.259   7.186 -0.5864  1.5866 -1.9787
14405SOL     OW44655   4.477   7.218  11.770 -0.1069  0.2199 -0.3116
14405SOL    HW144656   4.453   7.149  11.832  1.7918 -0.4745 -0.2925
14405SOL    HW244657   4.398   7.231  11.717 -0.9154 -1.0521  0.5203
14406SOL     OW44658   0.386   2.641   8.534 -0.1249  0.1996  0.0673
14406SOL    HW144659   0.458   2.644   8.597 -0.4280 -0.3043  0.4364
14406SOL    HW244660   0.362   2.549   8.529  0.5938  0.0676 -1.5868
14407SOL     OW44661   7.239   7.890  10.283 -0.0274  0.4447 -0.2185
14407SOL    HW144662   7.263   7.962  10.226 -0.8625  0.1681 -0.9457
14407SOL    HW244663   7.278   7.912  10.368 -0.2336  1.7135 -0.4366
14408SOL     OW44664   1.432   7.049   1.658  0.3196  0.6206 -0.1289
14408SOL    HW144665   1.391   7.133   1.639 -1.4408  0.1751  1.4036
14408SOL    HW244666   1.359   6.990   1.677  1.5408 -1.0774 -0.4266
14409SOL     OW44667   0.487   1.007   7.558 -0.0472  0.1287  0.1511
14409SOL    HW144668   0.464   1.015   7.465 -0.6204 -0.7849  0.2022
14409SOL    HW244669   0.519   1.094   7.582  1.9026 -0.1091 -1.3684
14410SOL     OW44670   7.206   2.916   5.207 -0.0929 -0.1156 -0.0540
14410SOL    HW144671   7.202   2.827   5.172 -0.1525  0.6064 -1.9951
14410SOL    HW244672   7.277   2.913   5.270  0.0112 -1.5024 -0.1885
14411SOL     OW44673   2.806   0.683   9.096  0.8782 -0.1768 -0.8353
14411SOL    HW144674   2.786   0.605   9.045 -0.7640 -0.5484  0.2903
14411SOL    HW244675   2.781   0.660   9.186 -0.1573  1.7843 -0.5527
14412SOL     OW44676   0.458   1.526   1.765 -0.0477 -0.1362 -0.0279
14412SOL    HW144677   0.508   1.447   1.748  1.2577  0.2687  1.5997
14412SOL    HW244678   0.385   1.497   1.820 -0.7304 -0.4861 -1.0926
14413SOL     OW44679   0.399   5.258   8.860  0.1457 -0.8595 -0.4281
14413SOL    HW144680   0.362   5.181   8.903 -1.9221  0.3696  0.1360
14413SOL    HW244681   0.332   5.285   8.798 -0.4700  2.0179  1.2924
14414SOL     OW44682   2.215   6.667  10.563  0.0052  0.0088 -0.0666
14414SOL    HW144683   2.208   6.571  10.557 -0.3017  0.0369 -0.1980
14414SOL    HW244684   2.124   6.697  10.558  0.2137  0.4520 -2.6002
14415SOL     OW44685   1.470   1.192  11.043 -0.1407  0.6617 -0.3231
14415SOL    HW144686   1.460   1.230  10.956 -0.6892  0.9432 -0.1396
14415SOL    HW244687   1.408   1.120  11.046  0.5759  0.0258 -0.5068
14416SOL     OW44688   0.529   6.385   9.877  0.3678  0.0376 -0.2517
14416SOL    HW144689   0.444   6.341   9.880 -0.3621  1.4165  0.4790
14416SOL    HW244690   0.581   6.333   9.816 -1.2713 -0.3760 -1.3578
14417SOL     OW44691   5.316   0.927   6.660 -0.2074 -0.3281  0.0120
14417SOL    HW144692   5.240   0.875   6.635 -0.0204 -0.8735  0.5409
14417SOL    HW244693   5.330   0.987   6.587 -0.7289 -0.6873 -0.3868
14418SOL     OW44694   4.328   6.305  10.186  0.1934  0.4279 -0.1611
14418SOL    HW144695   4.251   6.297  10.129  0.5978  0.5401 -0.7378
14418SOL    HW244696   4.403   6.298  10.126  0.6846 -1.3562  0.5940
14419SOL     OW44697   7.401   1.455  11.710  0.3132 -0.5642 -0.1250
14419SOL    HW144698   7.472   1.397  11.682  0.6791  0.0680 -0.5044
14419SOL    HW244699   7.374   1.420  11.795  0.5481 -1.2773 -0.3380
14420SOL     OW44700   1.398   7.338   7.520 -0.1593 -0.3698  0.0610
14420SOL    HW144701   1.408   7.293   7.436  0.3502 -1.2558  0.5777
14420SOL    HW244702   1.463   7.408   7.517 -0.8720  0.2907 -0.6995
14421SOL     OW44703   3.120   4.554  10.169  0.0598 -0.4554  0.1146
14421SOL    HW144704   3.175   4.565  10.247  0.1844  0.1333 -0.0544
14421SOL    HW244705   3.048   4.616  10.182  0.0173 -0.4407 -0.1871
14422SOL     OW44706   4.988   7.092   4.860  0.6041 -0.3856 -0.1526
14422SOL    HW144707   5.082   7.106   4.856  0.6802 -0.9375 -0.2297
14422SOL    HW244708   4.970   7.072   4.952  0.4355  0.6103  0.0442
14423SOL     OW44709   7.918   6.504   4.756  0.2747 -0.5350  0.0585
14423SOL    HW144710   7.871   6.437   4.706  1.7604 -1.0194 -0.7436
14423SOL    HW244711   8.006   6.505   4.719  0.2714  2.0069 -0.0888
14424SOL     OW44712   6.985   4.935  11.074 -0.0463 -0.0879  0.2982
14424SOL    HW144713   6.891   4.918  11.080  0.1413 -1.2505  0.2224
14424SOL    HW244714   6.992   5.016  11.024 -1.0213  0.2835  0.7479
14425SOL     OW44715   0.311   5.411   6.410 -0.7263 -0.2687 -0.0089
14425SOL    HW144716   0.377   5.342   6.417  0.3289  0.7011 -0.1332
14425SOL    HW244717   0.258   5.402   6.490  0.6885  0.0639  1.0073
14426SOL     OW44718   2.893   3.392   9.587  0.0375 -0.0590  0.0314
14426SOL    HW144719   2.956   3.323   9.611 -0.6421 -0.3964  0.9023
14426SOL    HW244720   2.867   3.371   9.498  1.3397  0.2315 -0.4456
14427SOL     OW44721   6.274   5.823  11.248 -0.1730  0.2765 -0.8080
14427SOL    HW144722   6.277   5.871  11.165 -1.9176 -0.2873 -1.2455
14427SOL    HW244723   6.346   5.858  11.299  1.4159  0.1430 -2.8324
14428SOL     OW44724   0.618   2.005   9.560 -0.1547 -0.0428 -0.2130
14428SOL    HW144725   0.552   2.074   9.549 -0.0627 -0.1976 -1.9288
14428SOL    HW244726   0.572   1.925   9.537  0.2454 -0.3334 -0.0067
14429SOL     OW44727   4.549   7.634   4.528  0.2401 -0.2796 -0.0913
14429SOL    HW144728   4.590   7.554   4.497 -0.7560 -1.6957  2.0048
14429SOL    HW244729   4.562   7.632   4.623 -1.5997  1.0045  0.2361
14430SOL     OW44730   3.789   7.691   0.122  0.0880  0.0599  0.2135
14430SOL    HW144731   3.755   7.638   0.050 -3.0501  3.0471 -0.7814
14430SOL    HW244732   3.853   7.750   0.081 -0.7777  0.9268  0.0873
14431SOL     OW44733   4.562   2.670   5.327  0.2089 -0.3164  0.9499
14431SOL    HW144734   4.640   2.723   5.317  0.4252 -0.9862 -1.6839
14431SOL    HW244735   4.567   2.606   5.256 -2.0634 -1.2368  1.5185
14432SOL     OW44736   5.162   1.914   1.261  0.2664 -0.2309 -0.5479
14432SOL    HW144737   5.194   1.989   1.211 -0.6805  1.9772  1.9609
14432SOL    HW244738   5.070   1.907   1.236  0.4003 -0.7135 -0.9214
14433SOL     OW44739   7.302   3.143   5.565  0.1138 -0.6221  0.4831
14433SOL    HW144740   7.239   3.212   5.586 -1.1513 -1.7581  0.6005
14433SOL    HW244741   7.348   3.126   5.648 -0.8330 -1.1249  0.9302
14434SOL     OW44742   2.210   0.903   7.806  0.6518 -0.4739  0.5008
14434SOL    HW144743   2.228   0.991   7.837  0.7373  0.1489 -1.2196
14434SOL    HW244744   2.116   0.902   7.788  0.9632 -0.0444 -1.3889
14435SOL     OW44745   0.168   4.164   2.016  0.3239  0.1087 -0.5084
14435SOL    HW144746   0.096   4.106   2.039 -0.5791  1.6829  0.8581
14435SOL    HW244747   0.127   4.250   2.003  1.9447  1.0942  0.4945
14436SOL     OW44748   7.406   4.799   6.634 -0.0848  0.1899  0.5883
14436SOL    HW144749   7.344   4.844   6.577 -0.7279 -0.3376  0.8592
14436SOL    HW244750   7.467   4.756   6.573 -1.2109 -1.0014  0.2540
14437SOL     OW44751   4.884   7.214  12.323 -0.0720 -0.0632 -0.5677
14437SOL    HW144752   4.889   7.245  12.232  2.6859 -1.0769 -0.8770
14437SOL    HW244753   4.875   7.119  12.316  0.2519 -0.1582  0.1905
14438SOL     OW44754   0.243   1.176  11.843  0.2626  0.3322 -0.2526
14438SOL    HW144755   0.313   1.227  11.803 -1.5842  3.2436 -0.0154
14438SOL    HW244756   0.167   1.190  11.786 -0.4876 -1.7433  0.1539
14439SOL     OW44757   0.252   2.871   8.470  0.0885 -0.4989 -0.3028
14439SOL    HW144758   0.313   2.797   8.468  0.8754  0.0470  1.6082
14439SOL    HW244759   0.190   2.848   8.538 -0.0712  0.2978 -0.1783
14440SOL     OW44760   3.853   7.476   1.450  0.0250 -0.3351  0.4773
14440SOL    HW144761   3.935   7.492   1.496  0.5519 -1.2178 -0.1310
14440SOL    HW244762   3.879   7.466   1.358 -0.8971  0.4675  0.1078
14441SOL     OW44763   3.538   7.685   4.868 -0.2698 -0.5480 -0.4003
14441SOL    HW144764   3.618   7.693   4.816 -1.3029  1.6610 -1.8003
14441SOL    HW244765   3.564   7.712   4.956  0.5796 -0.0884 -0.7770
14442SOL     OW44766   2.923   7.575   5.164 -0.2122  0.1934  0.3810
14442SOL    HW144767   2.835   7.612   5.157 -0.3265  0.1524  1.4321
14442SOL    HW244768   2.923   7.501   5.103 -0.6504  0.6624 -0.1912
14443SOL     OW44769   4.414   2.373   2.797  0.2097  0.3767 -0.0299
14443SOL    HW144770   4.322   2.397   2.795  0.1635  0.1668 -0.5487
14443SOL    HW244771   4.448   2.414   2.877 -0.4970 -0.1627  0.5612
14444SOL     OW44772   1.232   0.301   8.100 -0.2277 -0.1781 -0.4263
14444SOL    HW144773   1.309   0.244   8.095  0.2200  0.4657 -1.4316
14444SOL    HW244774   1.213   0.323   8.008 -0.2461  1.4389 -0.0662
14445SOL     OW44775   0.783   1.573   3.755 -0.3264 -0.1171 -0.3655
14445SOL    HW144776   0.859   1.611   3.711 -0.2655  1.9035  1.3492
14445SOL    HW244777   0.730   1.536   3.683  1.8917 -1.0083 -1.6445
14446SOL     OW44778   6.471   6.157   0.442 -0.0965 -0.1089  0.1451
14446SOL    HW144779   6.432   6.107   0.370 -1.7926 -0.6114  1.3622
14446SOL    HW244780   6.397   6.191   0.491  0.9382 -1.2345  2.6864
14447SOL     OW44781   1.884   6.942   6.491  0.0701 -0.5769 -0.3539
14447SOL    HW144782   1.850   6.942   6.402 -1.1501  1.2074  0.0411
14447SOL    HW244783   1.895   7.035   6.512  2.1363 -1.0157  0.7077
14448SOL     OW44784   2.057   6.242   3.032 -0.6616 -0.5844  0.2590
14448SOL    HW144785   2.013   6.181   3.091 -0.4589 -0.8442  0.1460
14448SOL    HW244786   2.036   6.328   3.066 -1.6531 -0.6869 -0.0749
14449SOL     OW44787   0.352   4.390   6.009 -0.5378 -0.3574 -0.0858
14449SOL    HW144788   0.410   4.346   5.946 -2.3094 -2.9468 -0.0755
14449SOL    HW244789   0.410   4.417   6.080  0.8345 -1.9609 -0.5193
14450SOL     OW44790   7.321   0.985   9.240 -0.1437  0.1798 -0.2698
14450SOL    HW144791   7.321   0.899   9.198 -0.3376  0.2457 -0.4040
14450SOL    HW244792   7.407   1.022   9.217  0.1231 -0.1557  0.1609
14451SOL     OW44793   2.766   0.271   2.252  0.2709 -0.1676  0.1815
14451SOL    HW144794   2.705   0.208   2.214 -0.5105 -0.7378  2.2262
14451SOL    HW244795   2.852   0.244   2.220 -0.0126 -2.4612  1.1362
14452SOL     OW44796   0.015   6.455   4.227  0.3673 -0.3619 -0.2568
14452SOL    HW144797  -0.024   6.501   4.301  0.3181  0.8605 -1.0239
14452SOL    HW244798   0.096   6.419   4.262  1.2018  1.6340  0.0128
14453SOL     OW44799   6.060   4.199   9.460 -0.6046  0.6128  0.0243
14453SOL    HW144800   6.040   4.271   9.519 -0.4236 -1.0371  2.2088
14453SOL    HW244801   6.124   4.146   9.506  1.4349  0.4761 -2.7029
14454SOL     OW44802   7.897   0.545   0.671  0.1796  0.9159 -0.0795
14454SOL    HW144803   7.987   0.540   0.704 -0.0109  0.6699  0.4253
14454SOL    HW244804   7.905   0.579   0.582  0.9458 -0.9296 -0.7732
14455SOL     OW44805   0.738   5.646   0.718  0.0800  0.2377  1.1087
14455SOL    HW144806   0.686   5.725   0.706  4.0884  3.1125  0.4925
14455SOL    HW244807   0.696   5.601   0.792 -2.3934  2.9335  1.5381
14456SOL     OW44808   5.610   5.250   6.203  0.0457  0.1393 -0.1314
14456SOL    HW144809   5.657   5.277   6.282  0.5351  2.5491 -1.1481
14456SOL    HW244810   5.534   5.308   6.200 -0.3083 -0.3635 -1.1022
14457SOL     OW44811   5.852   2.420   3.221 -0.9364 -0.4136  0.3051
14457SOL    HW144812   5.927   2.475   3.196 -0.3967 -0.4311  1.7619
14457SOL    HW244813   5.823   2.457   3.304 -2.2612 -0.7144 -0.0097
14458SOL     OW44814   4.832   3.908   1.386 -0.4471  0.0461  0.3925
14458SOL    HW144815   4.835   3.853   1.308 -0.0007 -0.0481  0.4770
14458SOL    HW244816   4.862   3.852   1.457  0.9657  0.6807  0.3165
14459SOL     OW44817   4.791   5.875   6.577  0.4969 -0.2800  0.7156
14459SOL    HW144818   4.738   5.800   6.553  0.0629  0.3271 -0.3305
14459SOL    HW244819   4.871   5.866   6.524  0.0746  0.4127 -0.0813
14460SOL     OW44820   1.524   1.186   7.552  0.4208  0.3474  0.1291
14460SOL    HW144821   1.568   1.188   7.467 -0.4689 -0.1206 -0.3647
14460SOL    HW244822   1.434   1.214   7.533 -0.1759 -1.1091  0.6513
14461SOL     OW44823   6.159   7.382   4.498  0.2745 -0.0910  0.5571
14461SOL    HW144824   6.067   7.402   4.515 -0.7021 -1.5124 -2.3920
14461SOL    HW244825   6.177   7.304   4.550 -1.3333 -1.8769 -1.3966
14462SOL     OW44826   1.865   1.177  10.407 -0.2485 -0.0479  0.1929
14462SOL    HW144827   1.901   1.131  10.332 -1.6001 -1.6999  0.4763
14462SOL    HW244828   1.926   1.157  10.479  0.0025 -0.0936 -0.0316
14463SOL     OW44829   3.087   6.761   5.249  0.0536 -0.5227  0.0323
14463SOL    HW144830   3.152   6.812   5.200  1.3732 -0.2106  1.9942
14463SOL    HW244831   3.003   6.794   5.218  0.8477  2.3951  0.6649
14464SOL     OW44832   0.439   1.623   4.056  0.4234  0.2396  0.0998
14464SOL    HW144833   0.528   1.656   4.041  0.3856  0.5901  0.6019
14464SOL    HW244834   0.392   1.699   4.091  0.0007 -0.0233  0.1053
14465SOL     OW44835   3.053   6.339   5.251  0.6048  0.3180 -0.5281
14465SOL    HW144836   3.055   6.271   5.183  0.8796 -0.9900  0.7467
14465SOL    HW244837   2.961   6.341   5.279  0.8257 -0.4552  0.3050
14466SOL     OW44838   4.427   2.845   2.498  0.4690 -0.3910 -0.0316
14466SOL    HW144839   4.500   2.837   2.559  0.4910  1.1201  0.1872
14466SOL    HW244840   4.381   2.925   2.526 -0.2879 -0.3947 -1.1839
14467SOL     OW44841   0.846   1.687   2.077  0.5682 -0.2364 -0.3504
14467SOL    HW144842   0.883   1.754   2.135 -0.7109  0.0218  0.2123
14467SOL    HW244843   0.810   1.737   2.003 -0.8463 -0.2018  0.3149
14468SOL     OW44844   2.065   3.636   2.382  0.0929  0.3687 -1.0223
14468SOL    HW144845   2.044   3.682   2.463 -0.6374  0.7168 -1.4034
14468SOL    HW244846   2.157   3.610   2.392 -0.0574  0.2152  0.0014
14469SOL     OW44847   4.929   4.289   7.791  0.2274  1.3622  0.0981
14469SOL    HW144848   4.972   4.360   7.744  0.5173  1.2473  0.1895
14469SOL    HW244849   4.988   4.269   7.863  0.5585  0.4445 -0.4217
14470SOL     OW44850   5.606   1.748  10.382 -0.3918 -1.0163 -0.0990
14470SOL    HW144851   5.523   1.780  10.346 -0.1279 -0.3496 -0.1350
14470SOL    HW244852   5.673   1.801  10.338 -0.0385 -0.4585  1.0512
14471SOL     OW44853   1.998   5.988   1.743  0.4428  0.3530  0.0235
14471SOL    HW144854   2.073   6.036   1.777  0.4351 -0.1526  0.7603
14471SOL    HW244855   1.980   5.920   1.808 -1.1987  1.0174  0.3283
14472SOL     OW44856   3.305   1.809   5.727  0.5749 -0.1875 -0.2676
14472SOL    HW144857   3.286   1.840   5.815  2.3189  3.3998 -0.9880
14472SOL    HW244858   3.394   1.839   5.709  1.0941 -2.6958 -2.5202
14473SOL     OW44859   1.072   2.644   3.326 -0.1364 -0.0897  0.2901
14473SOL    HW144860   1.148   2.603   3.367 -0.5190 -0.4264  0.6782
14473SOL    HW244861   0.997   2.602   3.367 -0.5619  1.4178  1.1452
14474SOL     OW44862   1.669   1.140   5.108  0.5684  0.6690  0.5687
14474SOL    HW144863   1.712   1.205   5.164  2.9722 -0.0540 -0.2922
14474SOL    HW244864   1.711   1.150   5.023  0.8677 -1.8188  0.3312
14475SOL     OW44865   0.261   0.914  11.900 -0.4648  0.1971 -0.0363
14475SOL    HW144866   0.236   1.003  11.876  0.3530  0.2747 -0.6595
14475SOL    HW244867   0.229   0.903  11.990  0.1881  1.4369  0.3813
14476SOL     OW44868   4.361   5.587   9.280 -0.1300 -0.0967 -0.3427
14476SOL    HW144869   4.445   5.618   9.313  0.3116 -0.9826 -0.5883
14476SOL    HW244870   4.359   5.616   9.189  0.2164 -0.6372 -0.5293
14477SOL     OW44871   2.767   0.565   4.524 -0.1993 -0.2681  0.5012
14477SOL    HW144872   2.764   0.643   4.468  0.2306 -0.8288 -0.3294
14477SOL    HW244873   2.736   0.595   4.609 -0.8120  0.6223 -0.0207
14478SOL     OW44874   7.757   4.671   6.203  0.3843 -0.2070 -0.1120
14478SOL    HW144875   7.683   4.714   6.246 -1.2667 -0.5945 -2.3839
14478SOL    HW244876   7.761   4.711   6.116  3.5274  0.4855  0.2412
14479SOL     OW44877   1.620   7.533   2.283  0.3801  0.3771  0.5594
14479SOL    HW144878   1.598   7.534   2.377 -0.6820 -0.3279  0.3303
14479SOL    HW244879   1.564   7.466   2.246 -0.2007  1.5849 -0.8409
14480SOL     OW44880   1.098   7.148   6.433  0.0604  0.0053 -0.2807
14480SOL    HW144881   1.030   7.214   6.444 -0.0737 -0.3595  1.2359
14480SOL    HW244882   1.179   7.194   6.456 -0.1560 -0.6047  1.9011
14481SOL     OW44883   3.145   7.553   8.728 -0.0426  0.1881 -0.3667
14481SOL    HW144884   3.119   7.609   8.656  1.1206  0.3061 -0.7237
14481SOL    HW244885   3.241   7.561   8.731  0.0394 -0.8145  0.3534
14482SOL     OW44886   3.647   1.799   0.774 -0.0813 -0.2665  0.4935
14482SOL    HW144887   3.618   1.860   0.843 -0.4894  1.5265 -1.1805
14482SOL    HW244888   3.571   1.744   0.756  0.2234 -1.1912  1.8748
14483SOL     OW44889   7.415   6.667  11.396 -0.4001  0.5420  0.8286
14483SOL    HW144890   7.493   6.692  11.446  0.6976 -0.1246 -0.4834
14483SOL    HW244891   7.448   6.610  11.326 -2.2403 -0.8799  1.0335
14484SOL     OW44892   6.335   4.005  10.519 -0.0418  0.0143  0.4659
14484SOL    HW144893   6.291   3.990  10.603 -1.8576  0.8315 -0.2872
14484SOL    HW244894   6.407   4.064  10.541  0.3166 -0.8253  1.6387
14485SOL     OW44895   3.244   4.252   4.699  0.2182  0.2684 -0.1043
14485SOL    HW144896   3.182   4.286   4.633 -1.1963  0.4634  1.2594
14485SOL    HW244897   3.329   4.286   4.672 -0.2832  0.1898 -1.9227
14486SOL     OW44898   4.783   7.377   7.459 -0.2776  0.1873 -0.0310
14486SOL    HW144899   4.842   7.422   7.519 -0.5829  2.0891 -1.1037
14486SOL    HW244900   4.718   7.443   7.434 -1.0611 -0.9931 -1.2657
14487SOL     OW44901   6.668   2.931   5.233  0.4530 -0.7447 -0.0780
14487SOL    HW144902   6.621   2.870   5.290 -1.5606 -1.1733 -2.0446
14487SOL    HW244903   6.726   2.876   5.180  0.0734 -0.7404 -0.5081
14488SOL     OW44904   6.287   0.074  12.296  0.4213  0.4552 -0.2149
14488SOL    HW144905   6.356   0.008  12.294 -1.1961 -1.5522  2.3650
14488SOL    HW244906   6.294   0.114  12.382 -0.0288  2.1365 -0.9116
14489SOL     OW44907   6.625   4.115  10.603 -0.5676  0.0847  0.4247
14489SOL    HW144908   6.664   4.029  10.618 -0.6618  0.0682  0.5735
14489SOL    HW244909   6.629   4.159  10.687  0.5380  0.6669  0.0824
14490SOL     OW44910   4.319   1.356   2.335  0.4485  0.4202  0.3517
14490SOL    HW144911   4.336   1.433   2.390  1.2715 -1.1301  2.3744
14490SOL    HW244912   4.401   1.308   2.335  0.2175 -0.0556 -1.6442
14491SOL     OW44913   6.140   6.453   8.780  0.0737 -0.2384 -0.2834
14491SOL    HW144914   6.143   6.508   8.701  0.0684 -1.4666 -1.1706
14491SOL    HW244915   6.190   6.502   8.845  2.0468 -0.2244 -1.7331
14492SOL     OW44916   1.378   3.040   5.371 -0.6612  0.5830  0.0519
14492SOL    HW144917   1.382   3.131   5.342 -1.6981  0.2921 -1.0969
14492SOL    HW244918   1.365   2.990   5.290 -0.7675 -0.5226  0.7372
14493SOL     OW44919   7.568   1.989   8.150  0.0465 -0.1970  0.2976
14493SOL    HW144920   7.558   2.040   8.230  0.1492 -1.0947  0.9034
14493SOL    HW244921   7.590   2.053   8.082  2.1582  0.3477  1.4151
14494SOL     OW44922   6.875   2.806   6.312  0.3421  0.4422  0.5340
14494SOL    HW144923   6.785   2.794   6.282 -0.1393  2.0418  1.2305
14494SOL    HW244924   6.873   2.778   6.404  0.2374  1.6612  0.9128
14495SOL     OW44925   4.051   5.225  11.298 -0.1475  0.1777  0.0032
14495SOL    HW144926   4.113   5.173  11.247 -1.4371 -0.1922 -1.2610
14495SOL    HW244927   4.054   5.186  11.386  3.4165  1.9419  0.8285
14496SOL     OW44928   5.879   6.829   4.307 -0.0401 -0.4536  0.0496
14496SOL    HW144929   5.973   6.846   4.300 -0.0035 -0.9282 -0.6907
14496SOL    HW244930   5.871   6.766   4.378  0.4647 -2.3805 -1.5390
14497SOL     OW44931   0.750   0.297   1.809  0.4563 -0.6681  0.0587
14497SOL    HW144932   0.655   0.285   1.814  0.2753  0.6653  0.0883
14497SOL    HW244933   0.783   0.251   1.886 -0.1778 -0.9937  0.1494
14498SOL     OW44934   7.599   7.366  10.840  0.1317 -0.2333  0.4276
14498SOL    HW144935   7.617   7.432  10.773 -0.8526  0.0909  0.4628
14498SOL    HW244936   7.545   7.412  10.904  2.9906  0.1968  2.7371
14499SOL     OW44937   6.690   4.184   6.502 -0.3091 -0.7976 -0.2796
14499SOL    HW144938   6.654   4.270   6.523 -0.9152 -1.0874 -0.1127
14499SOL    HW244939   6.663   4.168   6.411 -1.3984 -1.4046  0.1341
14500SOL     OW44940   5.322   5.584   2.136 -0.7013  0.1732  0.6621
14500SOL    HW144941   5.400   5.608   2.186  0.8894 -1.3750 -0.9310
14500SOL    HW244942   5.300   5.496   2.169 -0.5549 -0.2126 -0.2524
14501SOL     OW44943   3.464   7.426   1.413  0.2412  0.0869 -0.1759
14501SOL    HW144944   3.509   7.346   1.439 -1.4750 -0.3420  1.7212
14501SOL    HW244945   3.481   7.488   1.484  1.0182  1.2351 -1.3144
14502SOL     OW44946   3.759   5.192   0.439  0.1268  0.0790 -0.1568
14502SOL    HW144947   3.815   5.163   0.367 -0.1086 -0.5303 -0.1038
14502SOL    HW244948   3.819   5.212   0.510  0.2237 -2.0243  0.4171
14503SOL     OW44949   2.668   1.722   7.169 -0.0419 -0.1919 -0.1364
14503SOL    HW144950   2.709   1.764   7.245 -1.7960  1.6382 -0.1268
14503SOL    HW244951   2.639   1.637   7.202 -0.7419  0.5554  1.2921
14504SOL     OW44952   2.424   3.323   8.966  0.0017  0.3325 -0.3658
14504SOL    HW144953   2.428   3.313   9.061 -1.5564  2.0766 -0.0752
14504SOL    HW244954   2.351   3.267   8.939 -0.0420  0.4326 -0.4528
14505SOL     OW44955   4.458   7.011   0.004 -0.2637 -0.1411  0.0794
14505SOL    HW144956   4.366   7.030  -0.013 -1.2506 -2.6326  1.9182
14505SOL    HW244957   4.462   6.991   0.098  1.6898 -2.2366 -0.3512
14506SOL     OW44958   3.864   3.030   1.438 -0.3014 -0.0493  0.1618
14506SOL    HW144959   3.934   3.012   1.501  0.6954 -0.7331 -1.0957
14506SOL    HW244960   3.866   3.126   1.427  2.0879 -0.2006 -1.5990
14507SOL     OW44961   1.801   1.181  11.777  0.0032 -0.4682  0.0088
14507SOL    HW144962   1.849   1.204  11.698 -1.5790  0.3126 -0.7718
14507SOL    HW244963   1.858   1.207  11.849  0.0170  2.1753 -0.8594
14508SOL     OW44964   6.091   2.679  10.277  0.6686  0.2470  0.9260
14508SOL    HW144965   6.073   2.769  10.306  0.3939  0.0964  1.2354
14508SOL    HW244966   6.057   2.675  10.188  0.6891  0.4531  0.9082
14509SOL     OW44967   3.039   4.707   4.338 -0.4249  0.1938 -0.5884
14509SOL    HW144968   3.095   4.758   4.397 -0.3496 -0.9721  0.3835
14509SOL    HW244969   3.097   4.677   4.269  0.0295 -0.4784  0.0755
14510SOL     OW44970   5.238   2.769   4.558  0.8459  0.2353  0.1797
14510SOL    HW144971   5.165   2.799   4.611  0.5557 -0.5715  0.2537
14510SOL    HW244972   5.198   2.740   4.476  0.8068 -1.8573  0.8565
14511SOL     OW44973   0.078   2.092   4.509 -0.0902 -0.0142  0.3042
14511SOL    HW144974   0.002   2.141   4.543 -0.3594 -0.8139  0.8925
14511SOL    HW244975   0.046   2.003   4.497  1.0782 -0.7137  1.8793
14512SOL     OW44976   5.183   7.135   2.695 -0.2237 -0.2405  0.3076
14512SOL    HW144977   5.147   7.128   2.783  1.6934 -3.2866  0.9994
14512SOL    HW244978   5.261   7.189   2.705 -1.4815  1.7927 -0.1716
14513SOL     OW44979   4.890   3.801   8.099  0.1828 -0.2638  0.2661
14513SOL    HW144980   4.916   3.746   8.173 -1.7376  0.0202  1.2391
14513SOL    HW244981   4.827   3.747   8.050 -0.9509  0.6583  0.6601
14514SOL     OW44982   5.982   6.500   4.307  0.6825  0.2766  0.0232
14514SOL    HW144983   5.996   6.405   4.316 -1.4437 -0.0314  0.6406
14514SOL    HW244984   5.919   6.508   4.235  0.3319  1.1597  0.4163
14515SOL     OW44985   7.156   0.846   6.388 -0.0716 -0.2467 -0.5870
14515SOL    HW144986   7.235   0.823   6.339  0.8048  1.2111  0.0751
14515SOL    HW244987   7.188   0.887   6.468 -1.4992  0.2920 -0.2551
14516SOL     OW44988   4.628   6.767   9.631  0.1327  0.0137 -0.1640
14516SOL    HW144989   4.633   6.819   9.551  0.4937  0.5770  0.2200
14516SOL    HW244990   4.665   6.682   9.606  1.9575  0.7585 -0.1478
14517SOL     OW44991   6.159   1.032   2.578  0.4806 -0.1986 -0.1184
14517SOL    HW144992   6.215   0.962   2.543 -0.4505 -0.6620 -0.7147
14517SOL    HW244993   6.131   0.999   2.664  1.9628  0.5077  0.6766
14518SOL     OW44994   1.573   2.217   2.153  0.6824 -0.6902  0.3742
14518SOL    HW144995   1.664   2.244   2.158  0.7024 -0.7868  0.5258
14518SOL    HW244996   1.535   2.242   2.237 -0.3034  2.5163 -0.8706
14519SOL     OW44997   7.057   5.870  11.363  0.5713 -0.4121 -1.0456
14519SOL    HW144998   6.962   5.858  11.356  0.7393 -1.4082 -1.8350
14519SOL    HW244999   7.069   5.916  11.446 -0.4301 -2.5078  0.3484
14520SOL     OW45000   7.494   2.890   2.712  0.2012 -0.4373 -0.4085
14520SOL    HW145001   7.473   2.798   2.697  1.3820 -0.4814 -2.1408
14520SOL    HW245002   7.437   2.938   2.651 -0.9224  0.0709  0.9862
14521SOL     OW45003   4.254   5.028  10.701 -0.4604 -0.4597  0.1079
14521SOL    HW145004   4.212   5.106  10.664  0.5576  0.2332  0.3734
14521SOL    HW245005   4.189   4.991  10.760 -0.6760  0.6569  0.5922
14522SOL     OW45006   0.694   2.007   4.633  0.7711  0.2055  0.3256
14522SOL    HW145007   0.755   2.016   4.561  0.5073 -1.6451 -0.1687
14522SOL    HW245008   0.616   1.969   4.594 -0.5396  1.9806  1.0524
14523SOL     OW45009   2.807   6.408   7.341  0.2004 -0.4281  0.0110
14523SOL    HW145010   2.807   6.472   7.270  2.4137  1.5335  1.5949
14523SOL    HW245011   2.751   6.448   7.409  1.8616  0.0840  1.1435
14524SOL     OW45012   4.367   1.409   3.606  0.7588  0.4331 -0.1821
14524SOL    HW145013   4.435   1.472   3.582  1.7214 -1.1066 -1.7320
14524SOL    HW245014   4.285   1.449   3.579  1.4131  0.7617 -1.7541
14525SOL     OW45015   2.803   0.239  11.005  0.0943 -0.5823  0.0062
14525SOL    HW145016   2.848   0.264  11.085  0.3209  0.9172 -0.5620
14525SOL    HW245017   2.857   0.169  10.968  0.2921 -0.8898  0.8675
14526SOL     OW45018   1.239   4.174   9.440  0.4393 -0.3803  0.3636
14526SOL    HW145019   1.307   4.152   9.376  2.2596  0.0575  2.0558
14526SOL    HW245020   1.264   4.260   9.474 -1.2468  0.0153  0.7158
14527SOL     OW45021   4.351   5.772  12.105 -0.2539  0.2806  0.3179
14527SOL    HW145022   4.328   5.680  12.090  0.0939  0.1929  0.3039
14527SOL    HW245023   4.293   5.821  12.047 -1.1765  0.1329  1.0953
14528SOL     OW45024   0.494   0.912   5.403  0.7373 -0.4634 -0.0381
14528SOL    HW145025   0.479   0.928   5.310  0.0504  1.1990  0.3264
14528SOL    HW245026   0.419   0.860   5.432  0.9830 -1.0358 -0.3941
14529SOL     OW45027   0.214   7.223   8.141  0.4891 -0.2027  0.2417
14529SOL    HW145028   0.170   7.264   8.067 -0.9759 -0.7047  0.8040
14529SOL    HW245029   0.262   7.149   8.103  0.9618  0.4172 -0.3928
14530SOL     OW45030   4.832   7.005   5.251 -0.5779 -0.3998 -0.3928
14530SOL    HW145031   4.869   7.091   5.272  0.7844 -0.6440 -1.6288
14530SOL    HW245032   4.738   7.022   5.242 -0.2410  1.1805 -1.4955
14531SOL     OW45033   0.441   6.240   7.691  0.1073 -0.1303 -0.0250
14531SOL    HW145034   0.379   6.312   7.698 -0.2970 -0.5050  0.3190
14531SOL    HW245035   0.387   6.161   7.686  0.5392 -0.6086  1.9580
14532SOL     OW45036   2.107   1.800   1.014 -0.0285  0.1545  0.1878
14532SOL    HW145037   2.013   1.784   1.029  0.4398 -1.5615  1.5355
14532SOL    HW245038   2.128   1.749   0.936  0.3143 -1.6188  1.4022
14533SOL     OW45039   5.674   6.824   7.447 -0.2030 -0.0683  0.2386
14533SOL    HW145040   5.743   6.889   7.459  0.2687 -0.3036 -1.0530
14533SOL    HW245041   5.593   6.876   7.447  0.1369  0.4880 -0.3389
14534SOL     OW45042   1.625   1.669   4.137  0.0564 -0.1001  0.1748
14534SOL    HW145043   1.568   1.743   4.117  2.2634  1.2146 -1.7659
14534SOL    HW245044   1.645   1.631   4.052  2.2556 -0.3058  0.7318
14535SOL     OW45045   5.692   4.943   7.369 -0.9761 -0.0951  0.3124
14535SOL    HW145046   5.725   4.934   7.279  0.6280  0.1568  0.8402
14535SOL    HW245047   5.707   5.035   7.391 -1.5782 -0.1005  0.7527
14536SOL     OW45048   2.401   3.733  11.607 -0.2648  0.1192  0.4469
14536SOL    HW145049   2.369   3.718  11.518 -0.3769 -1.7978  0.7635
14536SOL    HW245050   2.330   3.703  11.663  0.1263  0.5552  1.1966
14537SOL     OW45051   7.659   0.762   1.179 -0.0864  0.0686 -0.1917
14537SOL    HW145052   7.624   0.690   1.127 -3.6942  1.6004 -0.1537
14537SOL    HW245053   7.692   0.825   1.115 -0.9684  0.2577 -0.4738
14538SOL     OW45054   6.561   0.034   9.945  0.3947  0.7562  0.0260
14538SOL    HW145055   6.625   0.101   9.968  0.1971  1.5102 -1.4452
14538SOL    HW245056   6.477   0.080   9.947  0.0690  0.1450  0.5298
14539SOL     OW45057   4.886   7.446   2.836  0.5981 -0.3743  0.2715
14539SOL    HW145058   4.827   7.490   2.897  0.1490 -0.5701 -0.0150
14539SOL    HW245059   4.891   7.505   2.760 -0.0102 -0.8134 -0.1154
14540SOL     OW45060   5.705   6.127   2.080 -0.0117  0.0300 -0.5211
14540SOL    HW145061   5.772   6.059   2.076 -0.7489 -0.6338 -2.9377
14540SOL    HW245062   5.703   6.164   1.992 -2.3296  0.4922 -0.3303
14541SOL     OW45063   2.866   1.807   8.096  0.5196 -0.3984  0.5277
14541SOL    HW145064   2.821   1.784   8.177  0.1472 -0.8321  0.1995
14541SOL    HW245065   2.954   1.832   8.124  0.3891 -0.5327  1.0659
14542SOL     OW45066   0.452   1.458   8.898  0.0377  0.5234 -0.3513
14542SOL    HW145067   0.443   1.422   8.986 -0.0894 -0.2546 -0.6703
14542SOL    HW245068   0.437   1.383   8.840 -0.5191  1.1517 -1.0466
14543SOL     OW45069   2.144   0.492   0.108 -0.3560  0.0428  0.9131
14543SOL    HW145070   2.110   0.450   0.029  0.4452  0.1861  0.4768
14543SOL    HW245071   2.169   0.580   0.080 -0.4665  0.2454  1.4289
14544SOL     OW45072   0.177   3.519   5.114 -0.2412  0.0286  0.4040
14544SOL    HW145073   0.179   3.492   5.022 -0.6379  0.3314  0.3074
14544SOL    HW245074   0.097   3.570   5.123 -0.3725 -0.2761  0.9965
14545SOL     OW45075   4.227   2.076   6.428  0.2611  0.2086  0.1786
14545SOL    HW145076   4.237   2.080   6.333 -0.2678 -0.7009  0.0760
14545SOL    HW245077   4.312   2.102   6.463  0.8649 -0.7146 -0.5676
14546SOL     OW45078   5.410   7.515   2.699 -0.0757  0.0198 -0.0657
14546SOL    HW145079   5.349   7.500   2.627 -1.2057  0.9002  0.6760
14546SOL    HW245080   5.414   7.610   2.708  0.0685 -0.0737  1.0081
14547SOL     OW45081   5.879   3.489   2.645 -0.0257 -0.1996 -0.1803
14547SOL    HW145082   5.843   3.403   2.668  1.1119 -0.8914 -0.8552
14547SOL    HW245083   5.960   3.495   2.696  1.4584 -0.8612 -2.3095
14548SOL     OW45084   4.185   6.607  10.048 -0.6778  0.5018  0.8744
14548SOL    HW145085   4.213   6.657  10.125 -0.5195  0.1004  1.0810
14548SOL    HW245086   4.156   6.674   9.986  1.0787  0.9810  0.5047
14549SOL     OW45087   6.238   2.418  10.602 -0.3927 -0.2504  0.1035
14549SOL    HW145088   6.330   2.390  10.606 -0.1910  0.0523 -1.7706
14549SOL    HW245089   6.211   2.421  10.694  1.9001  1.0445  0.8291
14550SOL     OW45090   0.209   2.662  10.446 -0.7992 -0.1524 -0.1034
14550SOL    HW145091   0.219   2.731  10.512  0.2871 -0.7874  0.4132
14550SOL    HW245092   0.247   2.585  10.486 -0.4614 -0.6499 -1.3404
14551SOL     OW45093   3.126   1.822  10.301  0.0806 -0.1347 -0.5714
14551SOL    HW145094   3.125   1.768  10.222 -0.8457 -1.6451  0.4335
14551SOL    HW245095   3.040   1.808  10.341  1.2216 -0.9829  1.7275
14552SOL     OW45096   0.704   6.251   4.149 -0.0767  0.1084  0.1188
14552SOL    HW145097   0.760   6.245   4.072 -1.0034 -0.6538 -0.5197
14552SOL    HW245098   0.662   6.337   4.142  0.3069  0.2938  0.1009
14553SOL     OW45099   6.390   6.254   7.737  0.3495 -0.4882 -0.4910
14553SOL    HW145100   6.320   6.217   7.791 -0.2819  0.8473 -0.3422
14553SOL    HW245101   6.458   6.279   7.799  0.1190 -0.0119 -0.4264
14554SOL     OW45102   6.105   6.262   1.037  0.5379  0.7742  0.5450
14554SOL    HW145103   6.174   6.201   1.012  0.4649  1.2341 -0.8560
14554SOL    HW245104   6.041   6.256   0.967 -0.3316  1.1667  1.2818
14555SOL     OW45105   7.691   0.279   0.376  0.4838 -0.3489 -0.2148
14555SOL    HW145106   7.625   0.344   0.350  0.1464 -0.3016  0.7485
14555SOL    HW245107   7.775   0.324   0.363  0.3049 -0.1306 -0.6608
14556SOL     OW45108   5.899   1.667   0.728 -0.4797 -0.4211 -0.2126
14556SOL    HW145109   5.970   1.725   0.699 -0.5798 -0.7288 -1.0822
14556SOL    HW245110   5.944   1.593   0.769 -0.2472 -1.0594 -1.5757
14557SOL     OW45111   0.429   4.071   1.101 -0.2685 -0.4498 -0.6227
14557SOL    HW145112   0.444   3.993   1.047  0.4404 -0.4432 -0.4414
14557SOL    HW245113   0.369   4.041   1.170 -0.8104 -0.5713 -1.1430
14558SOL     OW45114   7.547   3.901   9.914 -0.1268  0.0946 -0.4548
14558SOL    HW145115   7.521   3.810   9.931 -3.4246  0.5846 -1.9583
14558SOL    HW245116   7.628   3.894   9.863  0.0513 -1.9584  0.0190
14559SOL     OW45117   3.338   3.869   2.264 -0.5100 -0.3760 -0.0143
14559SOL    HW145118   3.370   3.876   2.174  1.7031  1.8340  0.8185
14559SOL    HW245119   3.357   3.955   2.303  0.8418 -1.9712  3.2273
14560SOL     OW45120   2.702   5.142  11.444  0.0725 -0.3272 -0.3503
14560SOL    HW145121   2.713   5.123  11.537  2.9129  0.8912 -0.3201
14560SOL    HW245122   2.621   5.193  11.438 -0.7974 -1.4526  1.2463
14561SOL     OW45123   2.647   3.820   8.994  0.0540  0.3332  0.1001
14561SOL    HW145124   2.595   3.836   8.915  0.7148  3.0648  0.1231
14561SOL    HW245125   2.693   3.738   8.975  0.5279  1.1004 -2.6177
14562SOL     OW45126   7.312   5.841   9.904 -0.4159 -0.0207  0.0457
14562SOL    HW145127   7.373   5.785   9.856 -0.5666  0.0889 -0.2802
14562SOL    HW245128   7.226   5.804   9.887 -0.3935 -0.5366  1.0029
14563SOL     OW45129   0.276   2.769   5.242  0.1369  0.8937 -0.2352
14563SOL    HW145130   0.309   2.837   5.184  0.4091  1.1319  0.2020
14563SOL    HW245131   0.340   2.763   5.312  0.0817  0.2329 -0.2310
14564SOL     OW45132   5.164   5.480   5.659 -0.2323 -0.4671 -0.3172
14564SOL    HW145133   5.072   5.455   5.649 -0.2371 -0.0011 -1.6320
14564SOL    HW245134   5.213   5.410   5.615  0.0116 -0.4749 -0.0329
14565SOL     OW45135   5.509   7.769   1.659  0.4495  0.4997  0.2764
14565SOL    HW145136   5.544   7.783   1.747  1.0087  1.2111 -0.0473
14565SOL    HW245137   5.499   7.857   1.623  0.2149  0.2164 -0.3715
14566SOL     OW45138   3.939   0.699  11.358 -0.1006 -0.5638  0.2831
14566SOL    HW145139   3.970   0.782  11.322  0.4882 -0.8630  0.0918
14566SOL    HW245140   3.899   0.654  11.284 -0.1145 -0.5997  0.3121
14567SOL     OW45141   1.278   3.282  11.912 -0.2990 -0.3688 -0.0368
14567SOL    HW145142   1.366   3.268  11.947 -0.4842  0.0454  0.6033
14567SOL    HW245143   1.227   3.313  11.986 -1.1072 -1.0318 -0.2954
14568SOL     OW45144   6.133   7.037   5.676 -0.0739  0.3508  0.4055
14568SOL    HW145145   6.153   6.943   5.671  0.3736  0.3735  1.5778
14568SOL    HW245146   6.038   7.041   5.683 -0.0637 -0.0432  0.8106
14569SOL     OW45147   2.127   6.196   3.753 -0.3607 -0.3461  0.6270
14569SOL    HW145148   2.163   6.281   3.776  1.8814 -1.5114  1.6825
14569SOL    HW245149   2.088   6.209   3.666  1.1572  1.4245  0.1504
14570SOL     OW45150   5.907   6.429   5.471 -0.0735  0.3819 -0.5398
14570SOL    HW145151   5.958   6.487   5.529 -1.4693  0.3129  0.8229
14570SOL    HW245152   5.823   6.474   5.461 -0.2447 -0.1561 -1.6609
14571SOL     OW45153   3.108   2.728   8.398  0.1360 -0.2537  0.3889
14571SOL    HW145154   3.049   2.749   8.326  1.1150  0.4406 -0.2299
14571SOL    HW245155   3.119   2.810   8.446  1.1598 -0.1822  0.0660
14572SOL     OW45156   0.451   1.773   8.858  0.2198  0.5966 -0.0686
14572SOL    HW145157   0.402   1.708   8.908 -1.1906 -0.3756 -2.5160
14572SOL    HW245158   0.541   1.742   8.859 -0.3954 -1.4260 -1.0845
14573SOL     OW45159   1.939   0.121  11.315 -0.4821  0.1633 -0.2436
14573SOL    HW145160   1.886   0.042  11.326  1.5955 -1.5416 -1.5584
14573SOL    HW245161   1.976   0.137  11.402  1.0902 -1.9542 -0.4228
14574SOL     OW45162   2.563   2.086   9.897 -0.2949  0.0888  0.5193
14574SOL    HW145163   2.499   2.141   9.852  0.7344  0.3062 -0.7263
14574SOL    HW245164   2.613   2.045   9.827  1.1253  0.1510  1.4638
14575SOL     OW45165   5.687   5.156  10.810 -0.3357  0.3584  0.6328
14575SOL    HW145166   5.651   5.219  10.747 -1.4349 -0.9839 -0.1351
14575SOL    HW245167   5.627   5.158  10.884 -0.2385  0.3873  0.7110
14576SOL     OW45168   4.793   3.448   2.522  0.7255  0.2944  0.2310
14576SOL    HW145169   4.714   3.432   2.471 -0.0084  1.6283  0.8848
14576SOL    HW245170   4.855   3.383   2.492 -0.2263 -0.0004 -1.1768
14577SOL     OW45171   5.414   5.612   4.671  0.2210  0.4775  0.4401
14577SOL    HW145172   5.430   5.664   4.592  1.1410 -0.5678 -0.0814
14577SOL    HW245173   5.473   5.649   4.736 -1.1301  1.8865  0.9255
14578SOL     OW45174   3.385   6.817  12.209  0.2681 -0.0880  0.1140
14578SOL    HW145175   3.293   6.800  12.188 -0.8730  1.0973  3.4771
14578SOL    HW245176   3.402   6.765  12.287  2.2940  0.1738 -0.0993
14579SOL     OW45177   4.962   6.164  10.446  0.1897 -0.0074  0.6503
14579SOL    HW145178   4.968   6.187  10.354  0.2825 -1.9623  0.1277
14579SOL    HW245179   4.961   6.068  10.447  2.1822 -0.0869  2.8021
14580SOL     OW45180   0.656   0.491   5.632  0.0051  0.1089 -0.0012
14580SOL    HW145181   0.634   0.560   5.694 -0.3107  0.6063 -0.6641
14580SOL    HW245182   0.704   0.427   5.685 -0.7768  0.2323  0.8985
14581SOL     OW45183   6.055   3.185  10.843  0.1742  0.3211 -0.4886
14581SOL    HW145184   6.125   3.138  10.797 -0.1417  0.5744 -1.2340
14581SOL    HW245185   5.988   3.118  10.858  0.7112 -0.0051  0.5379
14582SOL     OW45186   0.918   5.995   1.919 -0.4667 -0.2320  0.1012
14582SOL    HW145187   0.997   5.943   1.934 -1.3546 -2.3237 -1.8265
14582SOL    HW245188   0.846   5.939   1.947 -1.3700  0.8385  0.0060
14583SOL     OW45189   7.483   6.278   6.133 -0.5992 -0.4550 -0.1321
14583SOL    HW145190   7.412   6.216   6.117 -0.2230 -1.0737  0.5471
14583SOL    HW245191   7.546   6.230   6.187 -0.0901  0.3784  0.0430
14584SOL     OW45192   3.179   0.176   4.914  0.1389 -0.2151  0.1402
14584SOL    HW145193   3.223   0.124   4.846 -1.7050 -0.3837 -0.9911
14584SOL    HW245194   3.180   0.120   4.991  1.8776 -0.2095  0.1594
14585SOL     OW45195   7.789   6.155   3.636  0.6897 -0.2735 -0.0367
14585SOL    HW145196   7.845   6.213   3.585  0.4065  0.0741  0.0416
14585SOL    HW245197   7.767   6.206   3.714  0.3849 -0.4627  0.0025
14586SOL     OW45198   7.112   2.218   4.062  0.2126  0.0057  0.0583
14586SOL    HW145199   7.107   2.167   3.981 -0.4833 -0.9880  0.6914
14586SOL    HW245200   7.159   2.162   4.123  0.6164  0.6895  0.3892
14587SOL     OW45201   7.085   2.101  11.809  0.3350 -0.1884 -0.6019
14587SOL    HW145202   7.161   2.142  11.768 -0.6947 -0.6600 -3.1848
14587SOL    HW245203   7.027   2.173  11.832  0.7694  0.0672 -0.3071
14588SOL     OW45204   6.017   6.371   1.813 -0.1212  0.5172 -0.1577
14588SOL    HW145205   6.017   6.386   1.908 -0.4162  1.0945 -0.2427
14588SOL    HW245206   6.107   6.347   1.793 -0.3445 -0.9331  0.4654
14589SOL     OW45207   2.822   3.314   7.926  0.1759 -0.2895 -0.3777
14589SOL    HW145208   2.746   3.268   7.962 -0.1932 -1.3317 -2.3342
14589SOL    HW245209   2.786   3.395   7.890  0.6491  1.0910  2.0332
14590SOL     OW45210   6.813   6.724   8.641 -0.2118  0.2852  0.0506
14590SOL    HW145211   6.874   6.773   8.586  0.0310 -0.7692 -0.6518
14590SOL    HW245212   6.857   6.718   8.726 -0.1974  1.1563  0.1148
14591SOL     OW45213   2.221   6.675   8.131 -0.5817 -0.5680  0.6719
14591SOL    HW145214   2.234   6.770   8.136 -0.3393 -0.6068  0.7838
14591SOL    HW245215   2.152   6.664   8.065  0.6907 -0.3992 -0.7646
14592SOL     OW45216   6.644   4.196  10.324 -0.1786  0.0566 -0.7285
14592SOL    HW145217   6.575   4.261  10.339  0.8997  1.3947 -1.3621
14592SOL    HW245218   6.635   4.134  10.396 -1.5956  0.5913 -0.4128
14593SOL     OW45219   6.563   0.442   7.799  0.1134  0.0496 -0.5051
14593SOL    HW145220   6.529   0.369   7.746  1.8611 -1.4215  0.2929
14593SOL    HW245221   6.484   0.487   7.829 -1.0733 -1.7347 -0.7448
14594SOL     OW45222   6.654   7.640   4.115  0.3839 -0.5949 -0.2406
14594SOL    HW145223   6.634   7.603   4.028 -1.6233  1.6403 -0.8330
14594SOL    HW245224   6.696   7.724   4.096 -0.2128 -0.0126  0.9560
14595SOL     OW45225   6.006   2.801   3.825  0.2069  0.0601  0.3398
14595SOL    HW145226   6.053   2.874   3.863 -1.0129  0.3724  1.3162
14595SOL    HW245227   6.071   2.730   3.821  1.0737  0.8274  0.4976
14596SOL     OW45228   0.428   7.862   0.647  0.0669  0.0754  0.4443
14596SOL    HW145229   0.414   7.806   0.723  0.1846  1.2291  1.3350
14596SOL    HW245230   0.355   7.841   0.588  1.1844 -2.4285 -0.1479
14597SOL     OW45231   7.766   4.182  11.500 -0.2956  0.2437 -0.3978
14597SOL    HW145232   7.682   4.228  11.503  0.1929  1.1380  0.3411
14597SOL    HW245233   7.819   4.227  11.567  0.7703 -0.2874 -0.8752
14598SOL     OW45234   4.363   6.305   4.257 -0.4299 -0.1109  0.3773
14598SOL    HW145235   4.268   6.315   4.259 -0.6196 -1.4045 -0.8350
14598SOL    HW245236   4.379   6.244   4.186  1.4332  1.3183 -0.5076
14599SOL     OW45237   1.886   5.523   2.940  0.3571 -0.0717  0.4102
14599SOL    HW145238   1.966   5.516   2.889 -0.2917 -0.6704 -0.5632
14599SOL    HW245239   1.830   5.452   2.908 -0.9795  0.9900  0.2709
14600SOL     OW45240   0.284   2.100   1.306  0.4087  0.0004 -0.5556
14600SOL    HW145241   0.311   2.017   1.266  1.3331  0.2179 -0.4042
14600SOL    HW245242   0.217   2.134   1.247 -1.8288 -2.0122  0.6424
14601SOL     OW45243   3.051   1.689  11.459 -0.2150  0.0277 -0.2851
14601SOL    HW145244   3.146   1.686  11.465 -0.2518  0.7621  0.6712
14601SOL    HW245245   3.028   1.606  11.416  0.7177 -1.0501  1.2185
14602SOL     OW45246   4.494   5.459   0.987  0.4190  0.0235 -0.0568
14602SOL    HW145247   4.505   5.553   1.005 -0.7487  0.1738 -0.0341
14602SOL    HW245248   4.550   5.415   1.051  1.1482  0.6999 -0.2068
14603SOL     OW45249   0.893   3.111   7.842 -0.4406  0.5916  0.4896
14603SOL    HW145250   0.934   3.078   7.762  0.8475  0.7254  1.0670
14603SOL    HW245251   0.801   3.089   7.832 -0.0762 -0.6916 -0.3872
14604SOL     OW45252   3.693   0.458   7.049  0.1230  0.1401  0.3431
14604SOL    HW145253   3.783   0.432   7.026  0.6973  0.9121  1.6251
14604SOL    HW245254   3.682   0.544   7.008 -0.7914 -0.7976 -1.5279
14605SOL     OW45255   0.717   0.700   5.358  0.6691  0.3427 -0.1533
14605SOL    HW145256   0.665   0.751   5.296  2.3795  1.4811 -0.7225
14605SOL    HW245257   0.659   0.629   5.385 -1.4176  1.9128 -0.2063
14606SOL     OW45258   0.821   5.084   5.150  0.0661 -0.6246  0.0077
14606SOL    HW145259   0.818   5.057   5.058 -0.4284 -3.0386  0.6423
14606SOL    HW245260   0.786   5.008   5.198 -1.7718  1.3613  2.0430
14607SOL     OW45261   5.421   1.412   8.864 -0.7345  0.6732 -0.4599
14607SOL    HW145262   5.479   1.369   8.928  0.0438 -1.0316 -2.1929
14607SOL    HW245263   5.468   1.491   8.839 -1.1063  1.4307  1.1109
14608SOL     OW45264   4.728   2.597   7.056  0.1649  0.8775  0.3287
14608SOL    HW145265   4.764   2.523   7.009  0.3895  1.0885  0.1686
14608SOL    HW245266   4.665   2.636   6.995 -1.0677 -0.0522  0.9439
14609SOL     OW45267   0.198   3.881   2.210  0.1457 -0.3080  0.0289
14609SOL    HW145268   0.122   3.938   2.201 -0.3027 -0.9386 -0.2432
14609SOL    HW245269   0.172   3.815   2.273  0.6255 -0.2739  0.2677
14610SOL     OW45270   2.547   2.872   0.787  0.0933  0.0319 -0.3064
14610SOL    HW145271   2.484   2.804   0.809  1.9371 -1.2168  1.4912
14610SOL    HW245272   2.533   2.889   0.694 -1.9346 -1.1548 -0.2807
14611SOL     OW45273   7.854   1.722   8.097 -0.1178  0.1167  0.0807
14611SOL    HW145274   7.878   1.647   8.152 -0.9828 -0.0631  0.2298
14611SOL    HW245275   7.894   1.797   8.141  2.0074 -0.3840 -0.8522
14612SOL     OW45276   0.199   7.660   3.742 -0.1054  0.6127  0.1052
14612SOL    HW145277   0.154   7.743   3.727 -1.8033 -0.1040  0.9530
14612SOL    HW245278   0.289   7.685   3.763  0.2632  2.0588 -2.6591
14613SOL     OW45279   6.887   2.733   6.899 -0.1581 -0.0072 -0.0067
14613SOL    HW145280   6.919   2.704   6.984  0.1181 -0.8464 -0.3818
14613SOL    HW245281   6.872   2.652   6.850 -0.8687  0.4421 -0.5610
14614SOL     OW45282   2.901   0.364  11.757  0.8122 -0.3022  0.2767
14614SOL    HW145283   2.860   0.430  11.813  1.3441  0.5861 -0.3585
14614SOL    HW245284   2.845   0.287  11.766 -0.1057  0.3893  0.6315
14615SOL     OW45285   5.293   2.578  10.955 -0.0526  0.3325 -0.1263
14615SOL    HW145286   5.252   2.548  11.036  0.1589  1.1280  0.2942
14615SOL    HW245287   5.223   2.577  10.891 -0.7071  1.4391  0.5261
14616SOL     OW45288   2.760   4.361   1.049 -0.6662  0.4563 -0.0756
14616SOL    HW145289   2.821   4.434   1.057 -1.1160  0.5996  3.1775
14616SOL    HW245290   2.674   4.400   1.064 -1.0984 -0.4738 -0.0398
14617SOL     OW45291   1.883   2.484   2.353  0.1290 -0.5867 -0.2204
14617SOL    HW145292   1.841   2.456   2.435  0.0139 -0.1139 -0.1162
14617SOL    HW245293   1.976   2.489   2.374  0.3394 -2.2244 -0.6127
14618SOL     OW45294   5.326   3.050   9.106 -0.2891 -0.4321 -0.6863
14618SOL    HW145295   5.337   3.102   9.186 -0.8316  0.8489 -1.4027
14618SOL    HW245296   5.276   2.974   9.133 -2.0757  0.8805 -0.1003
14619SOL     OW45297   7.349   0.321   1.047  0.4790 -0.3149  0.0295
14619SOL    HW145298   7.329   0.229   1.024 -2.2251  0.3836 -0.8665
14619SOL    HW245299   7.336   0.325   1.142  2.3675 -1.1865  0.3713
14620SOL     OW45300   1.010   5.271   4.457  0.7009 -0.3031 -0.4113
14620SOL    HW145301   1.054   5.222   4.387  2.2756  0.1491  0.2133
14620SOL    HW245302   1.039   5.228   4.537 -0.7520 -0.5512  0.0005
14621SOL     OW45303   4.795   0.375   3.813 -0.2705 -0.3180  0.1127
14621SOL    HW145304   4.836   0.297   3.850  0.2389  0.1535  0.5583
14621SOL    HW245305   4.856   0.406   3.747  0.2084  0.4989  0.9173
14622SOL     OW45306   5.849   0.023   1.526 -0.3752 -0.0759  0.2827
14622SOL    HW145307   5.810  -0.005   1.442 -0.0254 -0.7363  0.3303
14622SOL    HW245308   5.937   0.054   1.502 -0.0324 -0.8740  0.4798
14623SOL     OW45309   0.891   4.309   0.989 -0.1454  0.0496  0.0331
14623SOL    HW145310   0.963   4.246   0.985 -0.9836 -0.8502 -2.2636
14623SOL    HW245311   0.812   4.256   0.977 -0.9718  1.3974 -0.7082
14624SOL     OW45312   2.306   5.287   2.788  0.4707  0.6127 -0.1824
14624SOL    HW145313   2.347   5.208   2.752 -0.0422 -0.5079  1.5728
14624SOL    HW245314   2.212   5.267   2.790  0.5187  0.3505  2.2797
14625SOL     OW45315   2.601   4.062   7.229  0.1664 -0.0867 -0.0190
14625SOL    HW145316   2.632   3.987   7.178  2.0916  1.6384 -1.5828
14625SOL    HW245317   2.647   4.054   7.313 -0.3826 -1.1279  0.2011
14626SOL     OW45318   4.365   1.770   9.114 -0.0329 -0.2387 -0.2244
14626SOL    HW145319   4.306   1.781   9.189  0.9726 -0.4812  0.6301
14626SOL    HW245320   4.339   1.839   9.053 -1.3792 -0.5210  0.0014
14627SOL     OW45321   6.178   1.869   1.842  0.0333  0.4041  0.4911
14627SOL    HW145322   6.197   1.933   1.911 -1.7506 -0.5077  1.9299
14627SOL    HW245323   6.090   1.837   1.864  0.7273 -2.2799 -0.3567
14628SOL     OW45324   7.500   7.727   5.993 -0.5486 -0.1212 -0.1232
14628SOL    HW145325   7.586   7.748   6.027 -0.7693  0.2520  0.2103
14628SOL    HW245326   7.475   7.804   5.941 -0.3551 -0.5459 -0.8534
14629SOL     OW45327   2.203   2.978   5.490  0.8036  0.5785 -0.2697
14629SOL    HW145328   2.260   2.906   5.462 -1.6334 -1.3731 -0.5141
14629SOL    HW245329   2.238   3.003   5.575  2.5318  0.0634 -0.7775
14630SOL     OW45330   3.021   4.616   9.492  0.4511  0.0932 -0.1067
14630SOL    HW145331   2.972   4.648   9.416  0.9520 -0.0225 -0.4839
14630SOL    HW245332   3.095   4.676   9.501 -0.9051  1.5856  1.7980
14631SOL     OW45333   6.325   2.576   6.463 -0.2715 -0.3809  0.3937
14631SOL    HW145334   6.381   2.600   6.390  1.8435 -0.3313  1.9261
14631SOL    HW245335   6.256   2.522   6.424  1.4732 -1.4142 -1.4756
14632SOL     OW45336   3.675   7.464   6.832 -0.4421 -0.0175  0.1763
14632SOL    HW145337   3.741   7.533   6.840  0.6455 -0.9815 -0.1974
14632SOL    HW245338   3.620   7.474   6.910  0.3957  0.5511  0.7126
14633SOL     OW45339   4.897   3.505   7.741  0.2745 -0.0659  0.2421
14633SOL    HW145340   4.953   3.558   7.684  0.6318 -1.5729 -0.8839
14633SOL    HW245341   4.953   3.432   7.767 -0.1372  0.1878  1.9404
14634SOL     OW45342   6.193   2.403  12.303 -0.2461  0.3426 -0.1106
14634SOL    HW145343   6.248   2.481  12.310  0.7207 -0.3800  0.5871
14634SOL    HW245344   6.239   2.347  12.240  0.4498 -0.7552  1.3277
14635SOL     OW45345   0.639   6.971   2.190 -0.0159 -0.0075 -0.1488
14635SOL    HW145346   0.678   6.935   2.269  0.6559  0.4849 -0.2477
14635SOL    HW245347   0.712   7.010   2.143 -0.3792 -0.4202 -1.0880
14636SOL     OW45348   5.623   4.229   7.245 -0.2869  0.5752 -0.0144
14636SOL    HW145349   5.681   4.280   7.189 -1.1506  1.4746 -0.1267
14636SOL    HW245350   5.596   4.155   7.190 -0.9838  1.3492 -0.7529
14637SOL     OW45351   7.562   6.967   5.776  0.3959  0.1619 -0.1705
14637SOL    HW145352   7.550   7.061   5.779  0.2978  0.1402  0.2328
14637SOL    HW245353   7.526   6.940   5.692 -0.4838  0.3575  0.1356
14638SOL     OW45354   2.857   2.143   2.739  0.7114 -0.0118 -0.1539
14638SOL    HW145355   2.768   2.177   2.731 -0.4464 -2.9192 -1.1852
14638SOL    HW245356   2.860   2.103   2.826  0.1267 -1.9423 -0.9620
14639SOL     OW45357   3.754   2.898   9.635 -0.2704  0.0671  0.4742
14639SOL    HW145358   3.676   2.906   9.689 -1.2187  1.1846 -0.9721
14639SOL    HW245359   3.759   2.804   9.614  0.9525 -0.6771  3.5372
14640SOL     OW45360   3.447   6.559   1.793  0.4207 -0.1590  0.4183
14640SOL    HW145361   3.405   6.538   1.876  1.2396  0.5539  1.0271
14640SOL    HW245362   3.520   6.497   1.786 -1.6369 -2.5669 -1.4574
14641SOL     OW45363   6.490   2.719   4.196 -0.3972  0.5120  0.2278
14641SOL    HW145364   6.548   2.666   4.141 -1.4082 -0.7169  0.2836
14641SOL    HW245365   6.543   2.741   4.273  0.2942  0.2206 -0.1574
14642SOL     OW45366   4.427   7.868   1.252 -0.2188  0.8828  0.0370
14642SOL    HW145367   4.481   7.935   1.293 -0.3632  0.0764  1.6288
14642SOL    HW245368   4.486   7.793   1.241 -0.2164  1.0373 -1.1479
14643SOL     OW45369   5.859   1.795   7.144  0.4732  0.0463  0.1829
14643SOL    HW145370   5.801   1.871   7.144  1.5566  0.9380 -1.2599
14643SOL    HW245371   5.936   1.824   7.094  1.2536 -1.7535  0.2712
14644SOL     OW45372   4.103   4.163   5.750 -0.1097  0.3206  0.0229
14644SOL    HW145373   4.160   4.133   5.821 -0.9465 -2.8204 -0.4342
14644SOL    HW245374   4.132   4.114   5.674 -2.2015 -0.0119 -0.6388
14645SOL     OW45375   4.332   0.306   3.652 -0.2310  0.8414  0.8507
14645SOL    HW145376   4.361   0.299   3.561 -0.6724  0.0683  0.7664
14645SOL    HW245377   4.390   0.372   3.690  0.8837  0.1496  0.3913
14646SOL     OW45378   4.092   0.359   6.431  0.3574 -0.1675  0.3103
14646SOL    HW145379   4.178   0.343   6.391  0.0523  1.6497 -1.2494
14646SOL    HW245380   4.059   0.436   6.385 -1.2261  0.4330  2.3060
14647SOL     OW45381   4.823   6.908  10.807 -0.6294  0.0066 -0.8146
14647SOL    HW145382   4.728   6.899  10.798 -0.7074  0.8637 -0.9761
14647SOL    HW245383   4.834   6.951  10.892 -0.4171  0.2847 -0.9802
14648SOL     OW45384   4.813   2.567   4.091  0.0617 -0.1532 -0.2315
14648SOL    HW145385   4.782   2.484   4.127  0.8954 -0.8925 -1.1496
14648SOL    HW245386   4.900   2.546   4.056 -0.1194  0.8719 -1.3436
14649SOL     OW45387   2.102   1.651   3.640 -0.0420 -0.2520 -0.1107
14649SOL    HW145388   2.006   1.648   3.642 -0.1692  1.7476 -0.8954
14649SOL    HW245389   2.127   1.592   3.569 -0.7183 -0.3783 -0.2465
14650SOL     OW45390   3.838   1.865   5.775  0.0193  0.1750  0.6738
14650SOL    HW145391   3.903   1.874   5.705  0.6640  1.3666  1.3961
14650SOL    HW245392   3.889   1.833   5.850 -0.3726  0.3830  1.0273
14651SOL     OW45393   2.297   0.621   7.075  0.3965 -0.6157 -0.5093
14651SOL    HW145394   2.324   0.641   6.985 -0.3731 -0.6045 -0.7447
14651SOL    HW245395   2.264   0.704   7.109  0.4984 -0.6662 -0.2880
14652SOL     OW45396   4.833   0.086   3.555  0.3350 -0.2197  0.0712
14652SOL    HW145397   4.796   0.166   3.518 -2.6531 -0.8440  1.3865
14652SOL    HW245398   4.782   0.016   3.515  1.6507 -1.3630  0.3249
14653SOL     OW45399   4.412   1.343   9.853 -1.4328 -0.3208 -0.2243
14653SOL    HW145400   4.398   1.412   9.789  1.9116 -0.9018 -1.8265
14653SOL    HW245401   4.424   1.264   9.802  3.3642 -0.4760  0.6597
14654SOL     OW45402   0.051   3.079   6.186 -0.0530 -0.2069 -0.0479
14654SOL    HW145403   0.001   3.129   6.122  0.6196  1.7123  0.8526
14654SOL    HW245404  -0.012   3.014   6.219 -1.9946  1.9628  0.8742
14655SOL     OW45405   0.755   5.846   8.645  0.0538  0.6912  0.2190
14655SOL    HW145406   0.800   5.863   8.728 -0.1484  1.3806  0.1966
14655SOL    HW245407   0.769   5.753   8.629 -2.4411 -0.2250  2.5843
14656SOL     OW45408   2.129   5.454   3.382 -0.2996 -0.3256 -0.0369
14656SOL    HW145409   2.149   5.446   3.475  0.0160  1.1738  0.0475
14656SOL    HW245410   2.133   5.548   3.364  3.5828 -0.7044 -2.4152
14657SOL     OW45411   5.269   2.749   1.075 -0.1302  0.2280 -0.2868
14657SOL    HW145412   5.230   2.747   1.163  1.5950 -1.6180  0.5177
14657SOL    HW245413   5.201   2.788   1.020 -1.7856  0.2192  1.6158
14658SOL     OW45414   6.432   6.524   1.850  1.0927 -0.0789 -0.1660
14658SOL    HW145415   6.429   6.539   1.755 -0.4288  0.2331 -0.0987
14658SOL    HW245416   6.474   6.603   1.885 -1.9762  1.7752 -0.2827
14659SOL     OW45417   5.426   2.071   9.865  0.1981  0.1464  0.2977
14659SOL    HW145418   5.354   2.129   9.841 -0.3592 -0.2938  0.8623
14659SOL    HW245419   5.492   2.085   9.798 -1.4008 -1.2744 -1.6953
14660SOL     OW45420   3.230   2.516   6.292 -0.2713  0.4850 -0.0434
14660SOL    HW145421   3.267   2.570   6.221  0.3515  1.9493  1.3341
14660SOL    HW245422   3.200   2.579   6.357 -1.3650 -0.8183  0.7616
14661SOL     OW45423   2.776   2.617   5.933  0.0124 -0.0530  0.3316
14661SOL    HW145424   2.689   2.584   5.908 -0.5983  2.5575 -1.3775
14661SOL    HW245425   2.758   2.677   6.005  0.3119  0.8424 -0.3294
14662SOL     OW45426   1.090   0.106   2.357  0.3178 -0.0856 -0.1802
14662SOL    HW145427   1.032   0.031   2.340 -1.0637  1.2852 -1.7856
14662SOL    HW245428   1.067   0.134   2.446  0.5297 -1.2453  0.2633
14663SOL     OW45429   2.260   4.660   6.624  0.2992  0.0519  0.1078
14663SOL    HW145430   2.309   4.725   6.676  0.3733  0.2270 -0.1769
14663SOL    HW245431   2.281   4.682   6.534 -0.1560  0.0054 -0.0098
14664SOL     OW45432   1.969   0.403  10.471  0.1302  1.0061 -0.3801
14664SOL    HW145433   1.971   0.474  10.407 -0.9766 -0.3083 -1.9279
14664SOL    HW245434   1.888   0.356  10.453  0.1875  0.0962  1.4703
14665SOL     OW45435   6.071   3.520   5.763  0.0747 -0.0754 -0.9536
14665SOL    HW145436   6.139   3.569   5.717  1.2637 -0.1618  0.6767
14665SOL    HW245437   6.101   3.513   5.853 -1.5169 -1.1882 -0.4527
14666SOL     OW45438   7.472   3.638   3.834  0.0642 -0.3187  0.0561
14666SOL    HW145439   7.467   3.594   3.919  0.5495  0.9480  0.7641
14666SOL    HW245440   7.457   3.731   3.854 -0.3848 -0.0776 -1.3224
14667SOL     OW45441   1.361   7.793   7.485  0.0413  0.2773  0.0222
14667SOL    HW145442   1.393   7.742   7.410  1.4669 -0.0072  0.7846
14667SOL    HW245443   1.349   7.882   7.451  0.2952  0.0620 -0.6407
14668SOL     OW45444   0.174   4.007   9.055 -0.2754 -0.3364  0.0452
14668SOL    HW145445   0.105   4.058   9.013  0.8940  0.1594 -1.3126
14668SOL    HW245446   0.147   4.002   9.147 -2.8302 -1.3275 -0.6737
14669SOL     OW45447   0.568   2.634   2.005 -0.4705  0.1699  0.0670
14669SOL    HW145448   0.495   2.678   1.962 -1.6623 -0.4351  1.3811
14669SOL    HW245449   0.534   2.611   2.092  2.0620  2.0868  1.7101
14670SOL     OW45450   0.208   4.864   4.942  0.1523 -0.2392  0.2329
14670SOL    HW145451   0.191   4.955   4.916 -0.3063 -0.7358 -1.2521
14670SOL    HW245452   0.205   4.867   5.038 -2.4987  0.8472  0.2023
14671SOL     OW45453   4.662   6.714  10.030  0.2716 -0.6646 -0.5150
14671SOL    HW145454   4.742   6.747   9.988 -0.3203  0.8050 -0.5601
14671SOL    HW245455   4.601   6.697   9.958 -0.0103 -0.2048 -0.3878
14672SOL     OW45456   0.453   1.777  10.698  0.7792  0.1979 -0.2573
14672SOL    HW145457   0.476   1.752  10.788 -0.4353  1.3509  0.4144
14672SOL    HW245458   0.520   1.842  10.674  1.7403 -0.8931 -0.6187
14673SOL     OW45459   0.404   5.112   2.584  0.0998  0.4570  0.2606
14673SOL    HW145460   0.311   5.127   2.602 -0.4184 -1.3702 -0.6441
14673SOL    HW245461   0.433   5.053   2.654  0.1523 -0.2106 -0.3076
14674SOL     OW45462   6.642   3.098   6.287  0.3572 -0.0779  0.2844
14674SOL    HW145463   6.685   3.182   6.299  2.6120 -0.9912 -0.8466
14674SOL    HW245464   6.666   3.047   6.364  1.5878 -0.6827 -0.4785
14675SOL     OW45465   7.215   5.460   1.802  0.2372 -0.3693  0.1384
14675SOL    HW145466   7.143   5.428   1.857 -1.3426  2.6621  0.0465
14675SOL    HW245467   7.293   5.451   1.857 -0.0397 -3.8699  0.2032
14676SOL     OW45468   1.208   7.232   0.875  0.2711 -0.0533 -0.6127
14676SOL    HW145469   1.293   7.226   0.920 -0.0977  0.2175  0.1357
14676SOL    HW245470   1.181   7.141   0.863  0.5483 -0.1365 -0.6167
14677SOL     OW45471   3.483   4.254  11.078  0.1639 -0.7121  0.5842
14677SOL    HW145472   3.422   4.210  11.018 -1.4677  1.1759  0.7472
14677SOL    HW245473   3.436   4.258  11.161  0.6146  0.5080  0.7997
14678SOL     OW45474   7.136   0.071  10.733  0.2544 -0.4873  0.2580
14678SOL    HW145475   7.205   0.050  10.671  1.2261  0.7700  0.8886
14678SOL    HW245476   7.076  -0.004  10.727  2.3350 -2.2961  0.6950
14679SOL     OW45477   3.416   4.805  10.029 -0.6717  0.2792  0.1644
14679SOL    HW145478   3.342   4.817  10.089 -0.5782 -0.7288  0.4938
14679SOL    HW245479   3.402   4.871   9.961 -1.9925 -0.0374  0.1002
14680SOL     OW45480   6.292   3.033   1.226 -0.0527 -0.4108  0.1209
14680SOL    HW145481   6.331   2.999   1.306 -0.3742  0.2827  0.5726
14680SOL    HW245482   6.363   3.084   1.185  0.0519 -0.6107  0.0477
14681SOL     OW45483   7.124   5.775   1.355  0.0952 -0.0478  0.0828
14681SOL    HW145484   7.126   5.746   1.446 -0.3554 -2.6583 -0.6708
14681SOL    HW245485   7.198   5.731   1.313  1.1385  2.1974 -0.5863
14682SOL     OW45486   5.787   0.483   2.830 -0.2879  0.5487  0.5194
14682SOL    HW145487   5.832   0.456   2.910 -0.4244 -0.9214  0.1250
14682SOL    HW245488   5.821   0.571   2.812  1.1950  0.1273  1.1251
14683SOL     OW45489   5.502   2.057   4.413  0.5594  0.1272  0.0211
14683SOL    HW145490   5.582   2.005   4.403 -0.5929 -1.5980 -0.7191
14683SOL    HW245491   5.454   2.013   4.483  0.0225  0.8374  0.1071
14684SOL     OW45492   3.223   0.712   2.142 -0.3058 -0.9055 -0.0767
14684SOL    HW145493   3.156   0.746   2.201 -1.8748 -1.4281 -1.4946
14684SOL    HW245494   3.237   0.622   2.172  1.1373 -0.2590  1.3442
14685SOL     OW45495   6.897   5.557   5.479 -0.2014 -0.2694 -0.0530
14685SOL    HW145496   6.850   5.635   5.510  0.5752  0.5779 -0.9263
14685SOL    HW245497   6.958   5.591   5.413 -0.9370 -1.8311 -1.6001
14686SOL     OW45498   1.682   0.186   2.383 -0.1306  0.2281  0.4510
14686SOL    HW145499   1.657   0.275   2.406  0.8169  0.3557  1.0459
14686SOL    HW245500   1.684   0.186   2.287 -1.0492  0.5752  0.4220
14687SOL     OW45501   3.018   7.282   8.843  0.2484 -0.2806  0.2180
14687SOL    HW145502   3.023   7.258   8.750 -2.7086  1.7476 -0.6118
14687SOL    HW245503   3.094   7.338   8.857  0.1278  0.3677 -1.3836
14688SOL     OW45504   3.012   4.451  10.910 -0.0568  0.0340 -0.5231
14688SOL    HW145505   3.016   4.430  11.004 -2.0747 -1.5424 -0.7331
14688SOL    HW245506   3.104   4.447  10.882  0.3381 -2.5798  0.7926
14689SOL     OW45507   5.526   1.002   4.586 -0.2617 -0.9753  0.1813
14689SOL    HW145508   5.486   1.038   4.665  0.4064 -0.5707  0.3449
14689SOL    HW245509   5.614   1.040   4.584 -0.5469 -0.3105 -1.1933
14690SOL     OW45510   3.349   4.979   5.397 -0.1878  0.2771 -0.1025
14690SOL    HW145511   3.260   4.948   5.377  0.5223 -0.6453 -2.1266
14690SOL    HW245512   3.399   4.899   5.413  0.7419  0.6209 -1.1533
14691SOL     OW45513   3.827   5.397  11.988  0.5870 -0.3048 -0.4084
14691SOL    HW145514   3.912   5.433  11.963  0.1772  1.1017  0.1609
14691SOL    HW245515   3.766   5.431  11.922  0.0530  0.7921  0.6229
14692SOL     OW45516   4.009   6.111   0.577 -0.0713  0.0877  0.0045
14692SOL    HW145517   3.961   6.124   0.496  0.3484 -2.0336 -0.6454
14692SOL    HW245518   4.094   6.152   0.561 -0.4456  0.8352 -0.1145
14693SOL     OW45519   3.295   1.756   4.922  0.3104  0.2744 -0.2623
14693SOL    HW145520   3.260   1.753   5.011  1.3491  2.3606  0.2777
14693SOL    HW245521   3.368   1.694   4.922  0.5149  0.5058  0.4450
14694SOL     OW45522   6.391   1.836  11.103  0.0770 -0.1156  0.3450
14694SOL    HW145523   6.400   1.856  11.010  0.8114  0.8476  0.6041
14694SOL    HW245524   6.387   1.741  11.107  0.8142 -0.1969 -0.6108
14695SOL     OW45525   6.646   4.733   5.929  0.5127  0.6242  0.1237
14695SOL    HW145526   6.643   4.641   5.901 -1.2688  0.0983  1.7585
14695SOL    HW245527   6.681   4.780   5.854  0.7137 -1.2939 -1.0634
14696SOL     OW45528   0.143   7.665   4.773  0.8265  0.2109  0.2696
14696SOL    HW145529   0.113   7.630   4.857  0.0278  0.0289 -0.0886
14696SOL    HW245530   0.136   7.592   4.712 -0.4527  0.8505 -0.3909
14697SOL     OW45531   0.522   5.084   1.302 -0.6319  0.6032  0.5523
14697SOL    HW145532   0.476   5.014   1.349 -0.1209  0.8815  1.4967
14697SOL    HW245533   0.469   5.162   1.317  0.6275  1.1748  2.5973
14698SOL     OW45534   6.241   1.582  10.926 -0.6124 -0.1715 -0.5079
14698SOL    HW145535   6.196   1.557  11.007  0.4412  1.5963  0.7044
14698SOL    HW245536   6.206   1.669  10.905 -1.2813 -0.8352 -2.3079
14699SOL     OW45537   7.873   5.020   5.872  0.0901  0.5277 -0.5663
14699SOL    HW145538   7.797   5.076   5.888 -0.3264 -0.3070  0.5548
14699SOL    HW245539   7.944   5.063   5.920 -0.4010 -0.2413  0.9329
14700SOL     OW45540   4.765   5.216  10.330  0.3887 -0.6394  0.0733
14700SOL    HW145541   4.703   5.143  10.326 -1.2054  0.6930 -0.3306
14700SOL    HW245542   4.802   5.221  10.242 -0.3525 -0.2449 -0.2167
14701SOL     OW45543   2.367   0.278   9.050 -0.6631 -0.2739  0.6813
14701SOL    HW145544   2.402   0.199   9.010 -1.9355 -1.2188  1.3799
14701SOL    HW245545   2.443   0.336   9.059 -0.0581 -0.5659 -1.7321
14702SOL     OW45546   1.271   2.153  11.238 -0.1955 -0.6338  0.4801
14702SOL    HW145547   1.319   2.089  11.290  0.1573  0.0316  0.9973
14702SOL    HW245548   1.264   2.230  11.296 -0.6483 -0.2273 -0.1056
14703SOL     OW45549   0.291   7.250  11.753 -0.2052 -0.1653  0.3941
14703SOL    HW145550   0.362   7.284  11.698 -0.2452 -0.7453 -0.0208
14703SOL    HW245551   0.303   7.156  11.753 -0.9319 -0.2625  0.3901
14704SOL     OW45552   6.504   6.818   3.820  0.1935  0.2336  0.1096
14704SOL    HW145553   6.448   6.879   3.867  0.9100  0.4377  0.7181
14704SOL    HW245554   6.517   6.745   3.880  1.3540  0.6319  0.3738
14705SOL     OW45555   2.498   0.929   4.107  0.4006  0.1345  0.3682
14705SOL    HW145556   2.485   0.900   4.197 -0.2336 -2.1064 -0.4047
14705SOL    HW245557   2.419   0.902   4.060  0.2449  2.1857 -0.6988
14706SOL     OW45558   7.775   0.191  11.069  0.1329  0.2014 -0.3096
14706SOL    HW145559   7.790   0.136  11.146 -0.3134 -1.2807 -1.2590
14706SOL    HW245560   7.847   0.170  11.010 -0.3024  0.2950 -0.8779
14707SOL     OW45561   6.565   4.680   3.527 -0.0945  0.1022 -0.1396
14707SOL    HW145562   6.580   4.684   3.621  1.6503  0.3584 -0.3857
14707SOL    HW245563   6.504   4.750   3.509 -1.2387 -0.5880  0.9208
14708SOL     OW45564   2.655   7.161   6.223  0.7201 -0.4947  0.4859
14708SOL    HW145565   2.683   7.249   6.248 -0.7437  0.7467 -1.8479
14708SOL    HW245566   2.722   7.132   6.161 -0.7170  0.7041 -1.7788
14709SOL     OW45567   6.758   1.409   6.272  0.3117 -0.3911 -0.6985
14709SOL    HW145568   6.671   1.447   6.260  0.1833 -0.4505  0.0239
14709SOL    HW245569   6.805   1.433   6.192 -0.0177  0.6080 -0.6163
14710SOL     OW45570   3.872   4.436   3.196  0.2794  0.1316 -0.2766
14710SOL    HW145571   3.859   4.422   3.103 -0.4521  0.0747 -0.1731
14710SOL    HW245572   3.940   4.373   3.221  0.5192  0.1871 -0.7750
14711SOL     OW45573   2.538   1.519  12.140  0.5152  0.7140  0.2227
14711SOL    HW145574   2.502   1.607  12.126 -1.0426  0.2688  1.1881
14711SOL    HW245575   2.501   1.491  12.224 -0.4482 -1.5346 -0.8599
14712SOL     OW45576   7.119   1.000   1.123  0.1606 -0.0340  0.2995
14712SOL    HW145577   7.113   1.060   1.198  0.4061 -0.6858  0.8453
14712SOL    HW245578   7.028   0.978   1.103  0.1376 -1.0392  1.3846
14713SOL     OW45579   5.981   2.058  10.287 -0.1846  0.3364 -0.0296
14713SOL    HW145580   6.004   2.131  10.345 -1.5670  0.3516  0.5181
14713SOL    HW245581   6.066   2.019  10.264  0.5132  1.5018  0.4514
14714SOL     OW45582   4.211   7.626   5.135 -0.5080  0.0339  0.2101
14714SOL    HW145583   4.261   7.626   5.054 -0.7806  1.5126  0.0186
14714SOL    HW245584   4.119   7.622   5.107 -0.5757 -0.4071  0.4823
14715SOL     OW45585   7.264   0.207   5.422 -0.1390 -0.4347 -0.1855
14715SOL    HW145586   7.224   0.264   5.357  1.0278  0.1170 -0.4432
14715SOL    HW245587   7.355   0.236   5.428  0.8844 -3.0585 -1.2958
14716SOL     OW45588   1.872   0.744   4.928  0.0784 -0.1319  0.8316
14716SOL    HW145589   1.852   0.789   4.846  1.6116  3.1151  2.0308
14716SOL    HW245590   1.814   0.785   4.992  1.6861  0.3702  2.0363
14717SOL     OW45591   6.138   5.127   2.817  0.2067 -0.0409  0.1015
14717SOL    HW145592   6.147   5.220   2.794 -0.6901 -0.3340 -1.6262
14717SOL    HW245593   6.044   5.110   2.809  0.5640 -1.5166 -1.4527
14718SOL     OW45594   2.389   7.796  12.088  0.0475  0.0556 -0.0564
14718SOL    HW145595   2.342   7.805  12.005  1.6817  1.7159 -0.8739
14718SOL    HW245596   2.320   7.801  12.155 -1.0739  1.3324 -1.2354
14719SOL     OW45597   4.402   3.132  10.577 -0.3745  0.1965  0.6467
14719SOL    HW145598   4.386   3.226  10.568  0.9431  0.5443  1.5686
14719SOL    HW245599   4.422   3.120  10.670  0.6143 -0.7868  0.3336
14720SOL     OW45600   3.711   7.865   1.854  0.0499  0.0820  0.1513
14720SOL    HW145601   3.731   7.821   1.772 -0.7805  0.1417 -0.0908
14720SOL    HW245602   3.784   7.843   1.912  2.1187  2.3000 -1.4366
14721SOL     OW45603   4.064   1.026   9.942  0.0012  0.1481 -0.3392
14721SOL    HW145604   4.150   1.025   9.984 -0.5112  1.7846  0.8622
14721SOL    HW245605   4.048   1.119   9.923 -1.3398 -0.1760 -0.8762
14722SOL     OW45606   1.347   2.706   4.177 -0.9650  0.6232  0.4191
14722SOL    HW145607   1.383   2.657   4.251  0.5523 -1.3762 -1.5344
14722SOL    HW245608   1.262   2.664   4.160 -0.6769  0.1271  0.1685
14723SOL     OW45609   1.369   2.681   0.459  0.3068  0.0799 -0.2357
14723SOL    HW145610   1.389   2.747   0.393 -2.0263 -0.1524 -1.2645
14723SOL    HW245611   1.312   2.724   0.521  0.2518 -0.4646  0.1013
14724SOL     OW45612   1.852   4.006   5.973 -0.0197 -0.1177  0.0156
14724SOL    HW145613   1.921   4.067   5.998  0.1179 -0.8046  1.3934
14724SOL    HW245614   1.791   4.006   6.046 -2.9076  2.3213 -2.1202
14725SOL     OW45615   5.510   3.062   7.089  0.0632  0.5176 -0.5216
14725SOL    HW145616   5.539   2.986   7.039 -0.4016 -0.7100  0.9941
14725SOL    HW245617   5.422   3.039   7.119  0.5161  0.9828  1.2482
14726SOL     OW45618   2.400   7.158   8.787  0.3535  0.2201  0.4114
14726SOL    HW145619   2.477   7.213   8.804  0.5389  0.1196 -0.0872
14726SOL    HW245620   2.431   7.093   8.725 -0.1864  0.2916  0.0638
14727SOL     OW45621   3.908   7.211   6.109 -0.6352 -0.3108  0.1928
14727SOL    HW145622   3.863   7.276   6.163 -1.5191 -0.9358  0.2397
14727SOL    HW245623   3.856   7.206   6.029  0.3143  0.1544 -0.4591
14728SOL     OW45624   0.098   6.512  12.060  0.1320  0.1843  0.7158
14728SOL    HW145625   0.188   6.480  12.066  0.8271  1.8898 -0.0793
14728SOL    HW245626   0.081   6.519  11.967 -0.6126  0.4788  0.8719
14729SOL     OW45627   6.899   2.674   5.438  0.0841 -0.3867 -0.0176
14729SOL    HW145628   6.976   2.621   5.420 -0.2712 -1.0882  0.4791
14729SOL    HW245629   6.836   2.649   5.370 -0.2554 -0.9685  0.5003
14730SOL     OW45630   2.629   5.888   3.635 -0.7240  0.0468 -0.0853
14730SOL    HW145631   2.619   5.966   3.582 -0.3343 -0.2578 -0.6150
14730SOL    HW245632   2.559   5.893   3.699  0.6303  1.9746  1.3494
14731SOL     OW45633   6.326   7.071  11.285 -0.1981  0.0569  0.0782
14731SOL    HW145634   6.292   7.015  11.354  0.9123 -1.3372 -0.4474
14731SOL    HW245635   6.305   7.024  11.204  0.8634  0.3204 -0.3686
14732SOL     OW45636   4.753   3.173  10.970  0.4740 -0.2468  0.8227
14732SOL    HW145637   4.799   3.194  10.889  0.4690  0.2038  0.9365
14732SOL    HW245638   4.814   3.195  11.040  1.0358 -1.9983  0.9176
14733SOL     OW45639   7.559   3.616   1.231  0.3581 -0.3622 -0.3561
14733SOL    HW145640   7.522   3.558   1.165  0.3486  0.4603 -1.0921
14733SOL    HW245641   7.653   3.603   1.225  0.2969 -1.3532  0.4879
14734SOL     OW45642   6.819   0.189  11.759 -0.0516  0.0439  0.8337
14734SOL    HW145643   6.894   0.246  11.775  0.5115 -0.4571  0.0524
14734SOL    HW245644   6.814   0.182  11.664  0.2188 -1.6266  0.9116
14735SOL     OW45645   7.444   2.648   2.638 -0.1473  0.3063  0.3343
14735SOL    HW145646   7.517   2.588   2.623  0.1172  0.9456 -1.0543
14735SOL    HW245647   7.366   2.597   2.616 -0.0722 -0.1085  0.9972
14736SOL     OW45648   2.397   4.898   4.401 -0.3438  0.1620  0.4465
14736SOL    HW145649   2.392   4.993   4.417 -0.8010 -0.1182  2.3136
14736SOL    HW245650   2.422   4.890   4.309  0.1125  2.0943  0.3500
14737SOL     OW45651   6.189   6.669   9.094 -0.7895 -0.7143 -0.2040
14737SOL    HW145652   6.118   6.604   9.101 -2.2345  0.8920  1.0970
14737SOL    HW245653   6.269   6.617   9.096 -1.8823 -2.4864  0.3734
14738SOL     OW45654   0.612   1.730   2.710  0.2454  0.4265  0.3408
14738SOL    HW145655   0.618   1.638   2.682  0.5305  0.3572  0.6248
14738SOL    HW245656   0.678   1.775   2.657  0.0041  0.4970  0.0951
14739SOL     OW45657   3.447   5.499   8.043 -0.0420 -0.5642 -0.3692
14739SOL    HW145658   3.352   5.489   8.043 -0.0681 -0.3281 -0.4114
14739SOL    HW245659   3.481   5.411   8.058 -0.3073 -0.2856  2.2144
14740SOL     OW45660   3.163   6.578  10.878 -0.0725  0.2515 -0.3794
14740SOL    HW145661   3.078   6.565  10.921 -0.6311 -0.4424 -1.6417
14740SOL    HW245662   3.153   6.658  10.828 -0.4815 -0.5581 -1.6367
14741SOL     OW45663   1.393   3.855   9.993  0.3648 -0.1470  0.1448
14741SOL    HW145664   1.402   3.910  10.071  0.0850  0.7273 -0.4160
14741SOL    HW245665   1.302   3.824   9.995  0.2584  0.1501 -0.0020
14742SOL     OW45666   5.659   2.280   1.569  0.0585 -0.4501 -0.3006
14742SOL    HW145667   5.618   2.235   1.643  0.5073  1.2911  1.0907
14742SOL    HW245668   5.593   2.280   1.501 -1.5508  0.5552  1.1857
14743SOL     OW45669   6.896   4.264  11.991  0.8694 -0.3403  0.5647
14743SOL    HW145670   6.958   4.282  12.061  2.2051  0.8307 -0.8426
14743SOL    HW245671   6.920   4.325  11.921  1.3709 -3.1609 -1.9820
14744SOL     OW45672   6.571   6.439   2.747  0.8064  0.8087  0.1974
14744SOL    HW145673   6.582   6.425   2.653  1.3974  1.7293  0.1229
14744SOL    HW245674   6.547   6.531   2.754  2.0575  1.0883  1.0383
14745SOL     OW45675   5.498   5.735   4.397 -0.8628  0.5134 -0.0427
14745SOL    HW145676   5.538   5.821   4.409 -0.7581  0.5056 -0.3186
14745SOL    HW245677   5.497   5.723   4.302 -1.5344  0.5197 -0.0412
14746SOL     OW45678   2.076   2.743   2.786 -1.2400  0.5449  0.0209
14746SOL    HW145679   2.114   2.750   2.698 -1.8594  0.1342 -0.2859
14746SOL    HW245680   2.035   2.828   2.801  0.6107  1.3586  0.7583
14747SOL     OW45681   3.533   0.943   7.630 -0.1555  0.8084 -0.1617
14747SOL    HW145682   3.506   0.948   7.539 -2.8206 -1.2682  0.4064
14747SOL    HW245683   3.595   0.870   7.634  1.1694  1.8712 -0.4957
14748SOL     OW45684   6.979   4.257   6.839 -0.1637  0.5789 -0.3806
14748SOL    HW145685   6.955   4.185   6.781 -0.1411  0.6387 -0.4646
14748SOL    HW245686   6.897   4.282   6.881 -0.4430  1.4226 -1.3831
14749SOL     OW45687   1.484   4.451   5.113  0.2971 -0.3242  0.0365
14749SOL    HW145688   1.438   4.511   5.053 -1.4580 -0.2789  1.3587
14749SOL    HW245689   1.497   4.502   5.192  0.1505 -1.2107  0.6430
14750SOL     OW45690   0.115   0.209   3.602  0.1771 -0.4308 -0.4003
14750SOL    HW145691   0.145   0.245   3.686 -2.1152 -0.4573  0.4949
14750SOL    HW245692   0.101   0.287   3.547 -0.2795 -0.2692 -0.0586
14751SOL     OW45693   3.928   5.886   5.983  0.7128  0.6195  0.1385
14751SOL    HW145694   3.884   5.840   6.054  3.3698  1.8691  2.8386
14751SOL    HW245695   4.003   5.831   5.961  1.3067  1.4078  0.1215
14752SOL     OW45696   5.708   3.072   1.735  0.0510  0.8468  0.1642
14752SOL    HW145697   5.749   3.105   1.815  1.1994 -0.3860  0.1204
14752SOL    HW245698   5.729   2.979   1.734  0.5690  0.9417 -1.8643
14753SOL     OW45699   4.601   6.828  12.204  0.2861 -0.0440 -0.1218
14753SOL    HW145700   4.570   6.737  12.200 -1.0980  0.4469 -1.1083
14753SOL    HW245701   4.567   6.861  12.287  0.1219 -0.1888 -0.1307
14754SOL     OW45702   3.820   1.189   2.656 -0.0621  0.6073 -0.5437
14754SOL    HW145703   3.765   1.143   2.720 -0.1320  1.5819  0.1088
14754SOL    HW245704   3.774   1.271   2.639  0.8503  1.1446 -0.4853
14755SOL     OW45705   2.455   4.403  11.698 -0.2379 -0.2326  0.5000
14755SOL    HW145706   2.391   4.353  11.748  1.0420 -2.4677  0.0163
14755SOL    HW245707   2.540   4.382  11.738  0.6102 -0.5782 -1.3684
14756SOL     OW45708   0.671   6.487   0.666  0.0132 -0.4046 -0.7035
14756SOL    HW145709   0.658   6.579   0.645  1.0531 -0.1872 -0.4433
14756SOL    HW245710   0.584   6.454   0.688 -0.7225 -0.0045 -2.7936
14757SOL     OW45711   5.751   0.283   8.553  0.4502  0.3179  0.0329
14757SOL    HW145712   5.681   0.297   8.617  0.1566 -1.2463  0.0832
14757SOL    HW245713   5.734   0.196   8.517  1.4058  0.6066 -1.1882
14758SOL     OW45714   2.538   2.310  10.797 -0.1899 -0.4013 -0.0126
14758SOL    HW145715   2.543   2.218  10.769 -0.3144 -0.3225 -0.2925
14758SOL    HW245716   2.498   2.355  10.723  0.3385 -0.0330 -0.0767
14759SOL     OW45717   3.004   2.906   7.946 -0.7663 -0.0140 -0.8569
14759SOL    HW145718   3.077   2.867   7.898 -0.5547  0.0184 -0.5613
14759SOL    HW245719   3.024   2.999   7.950  0.5367 -0.3139  1.5207
14760SOL     OW45720   4.007   6.890   9.392  0.4956  0.3593  0.1039
14760SOL    HW145721   4.027   6.897   9.298 -1.1011  0.6549 -0.2313
14760SOL    HW245722   4.003   6.980   9.422 -0.9349  0.3377  0.0146
14761SOL     OW45723   6.107   2.419   7.050 -0.3464  0.1604  0.6071
14761SOL    HW145724   6.022   2.452   7.022  0.2255  0.3685 -1.0228
14761SOL    HW245725   6.119   2.338   7.000 -1.0381 -1.8082  3.3745
14762SOL     OW45726   4.584   5.928   0.033 -0.7176  0.6570  0.6618
14762SOL    HW145727   4.676   5.943   0.011 -0.7879  0.2194  0.0185
14762SOL    HW245728   4.586   5.850   0.090 -0.8278 -0.6419 -1.0242
14763SOL     OW45729   0.514   5.050   0.052  0.0414  0.3920 -0.2203
14763SOL    HW145730   0.541   5.010  -0.030 -1.2205 -0.5658 -0.1986
14763SOL    HW245731   0.512   5.144   0.034  1.1867  0.3035 -0.8379
14764SOL     OW45732   4.588   5.205   7.120  0.5693 -0.3044  0.1961
14764SOL    HW145733   4.586   5.114   7.149  1.5963  0.1091  1.6373
14764SOL    HW245734   4.681   5.224   7.107  0.2872  0.1628 -1.4232
14765SOL     OW45735   7.755   7.318   8.348 -0.4417  0.3847  0.3020
14765SOL    HW145736   7.661   7.304   8.359 -0.6596 -0.2584 -1.9469
14765SOL    HW245737   7.772   7.300   8.256  1.7977  1.1185  0.5004
14766SOL     OW45738   7.196   7.668   5.744  0.8653  0.2112 -0.1395
14766SOL    HW145739   7.231   7.656   5.656 -1.0549 -1.0793 -0.8078
14766SOL    HW245740   7.228   7.754   5.772  1.6994  0.5487 -1.9918
14767SOL     OW45741   7.672   5.155   5.973  0.6262  0.2408 -0.9002
14767SOL    HW145742   7.576   5.162   5.969  0.6487  0.9457 -0.3234
14767SOL    HW245743   7.695   5.179   6.062  1.3929  0.6955 -1.2059
14768SOL     OW45744   3.038   7.501   7.823 -0.0309  0.1925 -0.4501
14768SOL    HW145745   3.067   7.446   7.750 -1.3156  0.3910 -1.1425
14768SOL    HW245746   3.069   7.589   7.800 -0.8524  0.3451 -1.0238
14769SOL     OW45747   5.113   2.914   2.061  0.3701  0.0192 -0.2661
14769SOL    HW145748   5.080   2.998   2.090 -1.5113 -0.6580 -0.3224
14769SOL    HW245749   5.038   2.871   2.021  0.8997 -2.2500  1.0008
14770SOL     OW45750   2.541   7.143   5.802  0.8417 -0.2335 -0.0595
14770SOL    HW145751   2.550   7.173   5.711 -2.3985  1.0695 -0.1146
14770SOL    HW245752   2.609   7.191   5.849 -0.2092  2.6469 -1.1883
14771SOL     OW45753   1.129   2.733   2.580 -0.2438 -0.2080 -0.7145
14771SOL    HW145754   1.119   2.812   2.526  0.0666 -1.1680 -2.2454
14771SOL    HW245755   1.042   2.694   2.582 -0.0744 -0.6459 -1.3277
14772SOL     OW45756   4.067   4.658   3.055 -0.0312  0.2873 -0.5689
14772SOL    HW145757   4.085   4.607   3.134  2.5327  2.3126  0.2894
14772SOL    HW245758   4.084   4.597   2.982  2.2634 -0.3436  0.4107
14773SOL     OW45759   4.093   7.150   5.158 -0.2634 -0.7756  0.2230
14773SOL    HW145760   4.079   7.114   5.070 -0.4058  0.0407 -0.0994
14773SOL    HW245761   4.127   7.239   5.143  0.2704 -0.8375  0.9973
14774SOL     OW45762   1.045   2.028   0.742 -0.2815 -0.3534 -0.2711
14774SOL    HW145763   1.060   1.945   0.696 -1.3435 -0.7813  0.1338
14774SOL    HW245764   0.954   2.024   0.771 -0.2505  0.8184  0.0440
14775SOL     OW45765   0.830   0.497   5.933  0.6128  0.0548  0.3835
14775SOL    HW145766   0.843   0.421   5.876  0.6689  1.6671 -1.8954
14775SOL    HW245767   0.802   0.460   6.017  1.9431 -2.5168 -0.2171
14776SOL     OW45768   4.809   1.768  10.330 -0.2498 -0.3714  0.1528
14776SOL    HW145769   4.867   1.731  10.264 -0.4185  0.0359 -0.2346
14776SOL    HW245770   4.849   1.853  10.352 -0.1158 -0.5716  0.6814
14777SOL     OW45771   5.137   1.842  10.210 -0.3228 -0.2440  0.2226
14777SOL    HW145772   5.211   1.827  10.269  0.0339 -0.1561 -0.2019
14777SOL    HW245773   5.118   1.756  10.172 -0.1001 -0.1672 -0.0644
14778SOL     OW45774   0.886   1.800   5.515 -0.1123  0.3817 -0.3580
14778SOL    HW145775   0.935   1.832   5.440 -0.4024 -2.0278 -1.6684
14778SOL    HW245776   0.810   1.857   5.520  0.9896  1.9293 -0.5032
14779SOL     OW45777   4.742   2.107  12.152 -0.1220  0.0969 -0.2530
14779SOL    HW145778   4.646   2.103  12.152 -0.1942  1.2895 -0.9648
14779SOL    HW245779   4.762   2.198  12.128  1.1839 -0.4223 -1.2393
14780SOL     OW45780   1.575   0.306   2.840 -0.0151  0.3076 -0.3057
14780SOL    HW145781   1.490   0.316   2.884 -0.0324 -1.5701  0.1962
14780SOL    HW245782   1.635   0.281   2.911  0.3786 -0.8704 -1.0244
14781SOL     OW45783   1.742   3.594   6.851  0.1425 -0.2683 -0.2759
14781SOL    HW145784   1.792   3.644   6.787 -1.1146  0.2083 -0.9108
14781SOL    HW245785   1.791   3.512   6.860  1.4854  0.5090 -0.2286
14782SOL     OW45786   6.979   2.946   5.387 -0.2050  0.0968 -0.1779
14782SOL    HW145787   7.053   2.895   5.356  0.5550 -0.0689  1.7986
14782SOL    HW245788   6.910   2.882   5.404  0.0418 -0.0400  0.3183
14783SOL     OW45789   7.701   1.680   2.101 -0.0661 -0.3051 -0.1727
14783SOL    HW145790   7.786   1.714   2.072 -0.7374  1.5389 -0.1215
14783SOL    HW245791   7.660   1.647   2.021  0.7085 -1.2704 -0.1867
14784SOL     OW45792   6.252   3.671   7.463  0.0738  0.0194 -0.0426
14784SOL    HW145793   6.326   3.635   7.511 -0.6637 -0.2059  0.9565
14784SOL    HW245794   6.206   3.595   7.429 -1.4714 -0.0655  2.0504
14785SOL     OW45795   3.020   1.626   0.381  0.2769 -0.1132 -0.6473
14785SOL    HW145796   3.069   1.556   0.338  0.9607  0.6465 -1.1289
14785SOL    HW245797   3.031   1.608   0.475  1.9477  0.3314 -0.7257
14786SOL     OW45798   1.658   1.372   1.539 -0.0510 -0.0391  0.2694
14786SOL    HW145799   1.594   1.352   1.471 -2.9230  1.9210  2.1327
14786SOL    HW245800   1.656   1.296   1.597  1.2785 -1.0606 -0.9585
14787SOL     OW45801   5.812   6.262   8.998 -0.4085 -0.4344  0.3183
14787SOL    HW145802   5.727   6.279   8.957  0.0753 -0.5331 -0.7681
14787SOL    HW245803   5.809   6.170   9.023 -0.1401 -0.8153 -0.9683
14788SOL     OW45804   7.228   5.706   9.108 -0.3475  0.0346  0.8246
14788SOL    HW145805   7.149   5.684   9.158  0.3510 -0.3951  1.7756
14788SOL    HW245806   7.294   5.644   9.139  0.2071 -0.0276 -0.4092
14789SOL     OW45807   7.558   3.457   7.619  0.3074 -0.2336 -0.0558
14789SOL    HW145808   7.579   3.548   7.640 -1.0926  0.2059 -0.4819
14789SOL    HW245809   7.643   3.413   7.618  0.8679  0.7064  1.7494
14790SOL     OW45810   5.038   6.585   9.876  0.6383 -0.3223  0.2297
14790SOL    HW145811   5.073   6.497   9.876  0.1843 -0.5096  0.7037
14790SOL    HW245812   5.035   6.610   9.969 -0.9898 -0.5411  0.2751
14791SOL     OW45813   3.082   7.806   0.696 -0.5391 -0.5105 -0.1019
14791SOL    HW145814   3.078   7.833   0.787  0.4514  2.2695 -0.8006
14791SOL    HW245815   2.992   7.816   0.664 -0.4475  0.7441  0.0056
14792SOL     OW45816   7.761   2.962   3.430 -0.2672 -0.7213  0.0366
14792SOL    HW145817   7.710   2.883   3.448  0.9997 -1.5765  0.0818
14792SOL    HW245818   7.829   2.963   3.498  0.1346  0.0419 -0.3617
14793SOL     OW45819   7.478   5.493   9.205  0.1495  0.0690  0.2271
14793SOL    HW145820   7.400   5.437   9.205  0.3627 -0.4100  2.9805
14793SOL    HW245821   7.544   5.442   9.251  0.8523  1.9265  1.4185
14794SOL     OW45822   2.421   0.350   9.315  0.0332  0.4440  0.4563
14794SOL    HW145823   2.372   0.304   9.247 -0.2339 -1.3285  1.7747
14794SOL    HW245824   2.493   0.393   9.268  0.3222 -1.3595 -0.8658
14795SOL     OW45825   6.542   4.124  10.007 -0.0599  0.3693 -0.2638
14795SOL    HW145826   6.550   4.140   9.913 -2.5259  2.5561 -0.2196
14795SOL    HW245827   6.476   4.054  10.014 -1.0999  1.3308 -0.1816
14796SOL     OW45828   6.268   5.440   8.410 -0.5007 -0.1273  0.0030
14796SOL    HW145829   6.301   5.507   8.469 -0.9888  0.7363 -0.6820
14796SOL    HW245830   6.185   5.476   8.377 -0.0926 -0.4545 -1.4310
14797SOL     OW45831   1.869   0.202   0.651  0.3114 -0.3776  0.6504
14797SOL    HW145832   1.795   0.143   0.636 -1.7554  1.9272  1.1246
14797SOL    HW245833   1.879   0.248   0.568  1.7345 -1.1653  0.3638
14798SOL     OW45834   4.432   5.521   4.665 -0.1153 -0.2450  0.7790
14798SOL    HW145835   4.414   5.581   4.737  1.1903  2.3570 -0.9230
14798SOL    HW245836   4.364   5.540   4.600  1.6120  1.1517 -0.7209
14799SOL     OW45837   0.452   5.636   5.452  0.7380 -0.1642  0.2255
14799SOL    HW145838   0.438   5.549   5.414  1.9134 -1.0079  1.6242
14799SOL    HW245839   0.543   5.657   5.431  0.1118  1.3187 -1.1788
14800SOL     OW45840   6.748   7.287   9.396  0.5522  0.0182  0.4243
14800SOL    HW145841   6.721   7.233   9.321  0.7395  1.6725 -0.8741
14800SOL    HW245842   6.816   7.235   9.438 -0.0552 -1.2688 -0.1093
14801SOL     OW45843   3.475   3.128   6.503  0.2116  0.1868  0.7911
14801SOL    HW145844   3.532   3.052   6.516  1.3385  1.0909  1.2146
14801SOL    HW245845   3.532   3.204   6.514 -1.0191  1.1187  0.9501
14802SOL     OW45846   5.799   6.726   0.636  0.8598 -0.3420  0.0747
14802SOL    HW145847   5.838   6.762   0.717 -0.2996 -1.0309  0.9688
14802SOL    HW245848   5.749   6.799   0.599  2.8484  0.5398 -1.0570
14803SOL     OW45849   3.697   2.015   7.408 -0.1073 -0.0218  0.3763
14803SOL    HW145850   3.630   1.947   7.409 -0.2804  0.0900 -1.1148
14803SOL    HW245851   3.680   2.064   7.328  0.9420  0.8378  0.6610
14804SOL     OW45852   6.481   4.269   2.818  0.2345  0.1992  0.2533
14804SOL    HW145853   6.447   4.304   2.736 -0.6100 -0.1392  0.4541
14804SOL    HW245854   6.576   4.285   2.813  0.4956 -1.5359 -1.6400
14805SOL     OW45855   2.055   7.829   6.698  0.1186  0.2493  0.2112
14805SOL    HW145856   2.132   7.885   6.710 -0.0403  0.7239 -0.9103
14805SOL    HW245857   2.080   7.746   6.738  1.9346 -0.2258 -1.7290
14806SOL     OW45858   0.925   6.788   2.259 -0.1431  0.9656  0.0798
14806SOL    HW145859   0.857   6.807   2.324  0.2534  1.1983  0.4294
14806SOL    HW245860   0.995   6.746   2.310 -0.2306  0.2642 -0.3612
14807SOL     OW45861   5.179   5.897   0.694  0.2115  0.5747  0.4922
14807SOL    HW145862   5.237   5.861   0.760 -0.0476 -2.0293 -0.5919
14807SOL    HW245863   5.236   5.913   0.618 -0.3954 -2.4074 -0.7309
14808SOL     OW45864   5.547   2.906   2.139 -0.2348  0.2170  0.2574
14808SOL    HW145865   5.629   2.941   2.105 -0.3452 -1.0839 -1.4182
14808SOL    HW245866   5.558   2.909   2.234  0.8839  2.0341  0.1221
14809SOL     OW45867   5.885   0.477   4.931 -0.1902 -0.3686 -0.2494
14809SOL    HW145868   5.947   0.550   4.936  0.2864 -0.5873 -2.0577
14809SOL    HW245869   5.841   0.477   5.015  3.1046 -0.9573  1.6568
14810SOL     OW45870   4.557   2.509   7.330 -0.2326 -0.5995 -0.3499
14810SOL    HW145871   4.607   2.499   7.411 -0.9185 -0.7031  0.0685
14810SOL    HW245872   4.617   2.480   7.262  0.3847 -0.4291  0.1118
14811SOL     OW45873   5.785   3.727   8.014  0.1735 -0.0991  0.2898
14811SOL    HW145874   5.734   3.798   8.053 -0.9879 -0.2483 -0.8966
14811SOL    HW245875   5.723   3.655   8.006 -0.4069  0.5661 -3.7552
14812SOL     OW45876   6.503   3.890   6.407  0.1241  0.2595  0.2722
14812SOL    HW145877   6.545   3.865   6.325  1.8331  0.9911  0.8699
14812SOL    HW245878   6.555   3.848   6.475 -0.4892  0.6850  1.0232
14813SOL     OW45879   4.412   6.957   9.718 -0.4455  0.7532  0.2280
14813SOL    HW145880   4.390   6.926   9.630 -1.0367  1.0079  0.2832
14813SOL    HW245881   4.452   6.881   9.761 -1.2209  0.2723  0.1238
14814SOL     OW45882   3.430   4.608   2.642 -0.1427 -0.0842 -0.7325
14814SOL    HW145883   3.515   4.633   2.676 -0.0660  0.3933 -1.2651
14814SOL    HW245884   3.424   4.650   2.557 -1.3011  0.6871 -0.3083
14815SOL     OW45885   1.396   0.830  10.327 -0.1950 -0.4841 -0.0382
14815SOL    HW145886   1.342   0.851  10.251  0.2228  1.5776  0.1844
14815SOL    HW245887   1.383   0.736  10.340 -1.4212 -0.5992 -1.7487
14816SOL     OW45888   7.647   6.750  11.553 -0.4946 -0.4336  0.4178
14816SOL    HW145889   7.684   6.809  11.488 -0.9692 -0.9868 -0.3846
14816SOL    HW245890   7.723   6.711  11.597 -0.1120 -1.0468 -0.7357
14817SOL     OW45891   5.008   6.752   6.002  0.1787 -0.9032 -0.2745
14817SOL    HW145892   4.983   6.723   6.089 -1.9857  0.7563 -0.2700
14817SOL    HW245893   5.045   6.840   6.015  1.0465 -1.1576 -0.9073
14818SOL     OW45894   5.133   0.329   5.928  0.2532 -0.1844  0.4277
14818SOL    HW145895   5.103   0.418   5.947  0.4377 -0.2353  0.9626
14818SOL    HW245896   5.078   0.301   5.855 -0.0136  0.2565  0.4521
14819SOL     OW45897   0.056   7.198   3.404 -0.2220  0.1896  0.6797
14819SOL    HW145898   0.077   7.276   3.456 -0.7107  1.2036 -0.6045
14819SOL    HW245899  -0.009   7.228   3.341 -0.5832 -1.3242  0.2962
14820SOL     OW45900   1.071   1.608   9.898  0.1433 -0.5014 -0.2846
14820SOL    HW145901   1.072   1.514   9.916  0.3705 -0.6065 -0.8169
14820SOL    HW245902   0.981   1.634   9.914  0.3187 -0.5893  0.9328
14821SOL     OW45903   6.121   1.379   4.121 -0.1928  0.0657  0.0016
14821SOL    HW145904   6.143   1.448   4.059  3.1443  0.4087  1.3402
14821SOL    HW245905   6.097   1.426   4.201 -0.1051 -0.3253  0.2593
14822SOL     OW45906   2.974   5.642  11.843 -0.2829 -0.1296 -0.3609
14822SOL    HW145907   2.903   5.705  11.856 -0.8489 -0.9617  0.7682
14822SOL    HW245908   2.931   5.556  11.845  0.4649 -0.5764 -1.8758
14823SOL     OW45909   4.844   3.850   3.509 -0.0574  0.7227 -0.5539
14823SOL    HW145910   4.764   3.801   3.487  0.3002  0.5913 -1.6180
14823SOL    HW245911   4.813   3.926   3.558 -0.7098 -0.0658  0.2755
14824SOL     OW45912   3.844   4.560  11.389 -0.1990  0.2259  0.0506
14824SOL    HW145913   3.777   4.499  11.420 -0.4864  1.2072  1.4586
14824SOL    HW245914   3.799   4.611  11.322  0.2753 -1.5698 -1.7355
14825SOL     OW45915   2.815   5.048   4.002  0.1582 -0.3733  0.1497
14825SOL    HW145916   2.828   5.110   4.074 -1.9360  0.4097 -0.0979
14825SOL    HW245917   2.854   5.091   3.926  0.4955 -0.2711  0.3769
14826SOL     OW45918   1.649   2.138   2.672 -0.5831 -0.0180 -0.1235
14826SOL    HW145919   1.745   2.132   2.670 -0.4718  1.4554 -0.6514
14826SOL    HW245920   1.628   2.161   2.762 -0.5641 -1.6338  0.3220
14827SOL     OW45921   6.330   3.490   9.242  0.3308  0.1446 -0.2647
14827SOL    HW145922   6.407   3.509   9.189  0.8707  1.9201  1.0313
14827SOL    HW245923   6.279   3.571   9.241  0.4102  0.2918  1.9298
14828SOL     OW45924   2.817   7.701   6.356  0.2602 -0.4218  0.5118
14828SOL    HW145925   2.834   7.650   6.276  1.3631  1.1518 -0.3098
14828SOL    HW245926   2.722   7.706   6.361  0.1628  0.2431 -1.2716
14829SOL     OW45927   7.222   3.578   4.460  0.2534 -0.1659  0.2803
14829SOL    HW145928   7.228   3.603   4.552 -1.3057 -0.5283  0.5057
14829SOL    HW245929   7.192   3.487   4.461 -2.7416  0.7084 -0.5337
14830SOL     OW45930   4.604   2.779   2.716 -0.3440 -0.4561  0.5295
14830SOL    HW145931   4.666   2.710   2.741  0.0581  0.0168  0.8532
14830SOL    HW245932   4.573   2.815   2.799 -0.9866 -0.6176  0.3708
14831SOL     OW45933   1.644   3.296  10.882 -0.4040  0.1608  0.2167
14831SOL    HW145934   1.587   3.319  10.809  0.0402 -0.5153 -0.3656
14831SOL    HW245935   1.634   3.367  10.944  1.2421  2.2097 -1.6711
14832SOL     OW45936   2.544   7.749   2.583 -0.0598  0.3592 -0.4040
14832SOL    HW145937   2.550   7.751   2.678 -1.2479  1.0388 -0.3272
14832SOL    HW245938   2.499   7.666   2.563 -0.7878  0.7197 -0.2969
14833SOL     OW45939   5.866   2.034   0.727 -0.2501 -0.0923  0.8007
14833SOL    HW145940   5.771   2.023   0.726 -0.1522 -1.2924  2.0870
14833SOL    HW245941   5.886   2.066   0.815  0.5115  0.6803  0.3739
14834SOL     OW45942   1.471   3.473   0.293 -0.3764 -0.2454  0.2168
14834SOL    HW145943   1.519   3.513   0.220 -1.1336  0.7146  0.2213
14834SOL    HW245944   1.483   3.379   0.281  0.0266 -0.0796 -0.7958
14835SOL     OW45945   6.649   7.054   3.828 -0.3204  0.1139  0.6295
14835SOL    HW145946   6.597   7.115   3.880  0.0768  0.4103  0.6866
14835SOL    HW245947   6.616   6.968   3.853 -1.9164  0.3437 -0.5619
14836SOL     OW45948   1.895   6.894   3.471 -0.2035 -0.2838  0.1448
14836SOL    HW145949   1.892   6.919   3.563 -0.6598  0.1194  0.0218
14836SOL    HW245950   1.821   6.939   3.431  0.6123  0.4146 -0.6359
14837SOL     OW45951   5.154   1.381   6.246  0.4910 -0.4766  0.1263
14837SOL    HW145952   5.145   1.298   6.200 -1.7605 -0.1546 -0.0938
14837SOL    HW245953   5.166   1.446   6.177  0.7162 -0.4198  0.2167
14838SOL     OW45954   3.883   6.284  11.903 -0.3179  0.2651  0.3757
14838SOL    HW145955   3.852   6.209  11.955  1.2080 -1.1090 -0.6159
14838SOL    HW245956   3.973   6.262  11.881 -1.1823  0.2147 -3.8292
14839SOL     OW45957   4.816   0.575   3.397  0.0291  0.3978 -0.2331
14839SOL    HW145958   4.880   0.630   3.441 -0.0970  0.6374 -0.3471
14839SOL    HW245959   4.733   0.621   3.409  0.2076  1.2567 -2.0035
14840SOL     OW45960   7.791   2.176   5.625  0.0050 -0.1949  0.1993
14840SOL    HW145961   7.789   2.106   5.690 -0.3399  0.6789  1.1671
14840SOL    HW245962   7.721   2.236   5.652 -2.2604 -1.2472 -2.6990
14841SOL     OW45963   7.182   0.630   8.451 -0.0812 -0.1298  0.2403
14841SOL    HW145964   7.269   0.645   8.487 -0.2748 -1.9715  1.5959
14841SOL    HW245965   7.196   0.567   8.381 -0.1791  0.6413 -0.4910
14842SOL     OW45966   3.974   7.160   9.071  0.0726 -0.4586  0.0015
14842SOL    HW145967   4.001   7.078   9.112 -1.3014  0.0995  2.2226
14842SOL    HW245968   3.901   7.135   9.014  0.4122 -0.9298 -0.2314
14843SOL     OW45969   1.972   3.923   1.121 -0.3639  0.3585 -0.0927
14843SOL    HW145970   1.973   3.835   1.158 -3.2745  1.0251  1.9829
14843SOL    HW245971   2.023   3.976   1.182  3.2299 -0.0642 -2.4398
14844SOL     OW45972   2.776   0.513   7.327 -0.4756 -0.0129  0.0886
14844SOL    HW145973   2.683   0.490   7.317 -0.3002 -0.7230  0.0635
14844SOL    HW245974   2.821   0.429   7.333  0.2412  0.3168 -0.5368
14845SOL     OW45975   2.407   6.547   3.153  0.1782 -0.3613 -0.0229
14845SOL    HW145976   2.446   6.570   3.237 -0.9965  0.3589  0.3491
14845SOL    HW245977   2.344   6.617   3.136  2.7272  1.4841 -3.1627
14846SOL     OW45978   0.207   0.514   1.883  0.6689  0.2507  0.5824
14846SOL    HW145979   0.162   0.489   1.802  1.8189 -0.0188 -0.0009
14846SOL    HW245980   0.200   0.610   1.885  0.8446  0.2818  0.0243
14847SOL     OW45981   4.030   2.458   3.225 -0.5133 -0.1540 -0.3664
14847SOL    HW145982   4.093   2.409   3.172  0.3428  2.0065 -1.4677
14847SOL    HW245983   3.946   2.443   3.182 -0.3247 -0.8964 -0.4925
14848SOL     OW45984   2.944   3.563   6.941 -0.0625 -0.4563 -0.5163
14848SOL    HW145985   2.923   3.547   6.849  2.6614 -0.8541 -1.1662
14848SOL    HW245986   2.933   3.657   6.952  0.1136 -0.3166 -1.4365
14849SOL     OW45987   4.993   0.811   5.228  0.3122  0.7616  0.1179
14849SOL    HW145988   5.066   0.783   5.283  0.3232  0.6527  0.0483
14849SOL    HW245989   4.931   0.850   5.289  0.4957  0.9928  0.1578
14850SOL     OW45990   3.548   4.556   7.465 -0.6405 -0.1230  0.9512
14850SOL    HW145991   3.537   4.462   7.480  0.8655 -0.1232  2.4139
14850SOL    HW245992   3.578   4.563   7.375 -2.7170 -0.8367  0.1499
14851SOL     OW45993   7.673   7.476   2.731 -0.0147  0.3464  0.0439
14851SOL    HW145994   7.767   7.481   2.748  0.4646 -0.3715 -2.0807
14851SOL    HW245995   7.651   7.560   2.690 -0.2832  0.4591  0.4111
14852SOL     OW45996   7.656   7.158   0.168 -0.7614 -0.3932 -0.5942
14852SOL    HW145997   7.705   7.095   0.114 -1.7355 -0.5561 -1.3241
14852SOL    HW245998   7.602   7.104   0.225 -1.3022 -0.2217 -0.9398
14853SOL     OW45999   3.161   3.229   9.269 -0.5423  0.4183  0.4833
14853SOL    HW146000   3.217   3.292   9.221 -1.6197  0.2568 -1.0725
14853SOL    HW246001   3.072   3.260   9.252 -1.0479 -1.0278  0.4149
14854SOL     OW46002   3.308   6.958   5.875 -0.3184 -0.4974 -0.1836
14854SOL    HW146003   3.227   7.001   5.903  0.0579 -0.4013  0.8182
14854SOL    HW246004   3.358   7.027   5.831  0.5247  0.3185  1.9030
14855SOL     OW46005   4.112   5.844   6.356  1.2269 -0.1298 -0.2075
14855SOL    HW146006   4.057   5.909   6.311  0.7128  0.0810  0.7001
14855SOL    HW246007   4.051   5.797   6.413  1.5503 -1.5840 -1.0301
14856SOL     OW46008   6.998   0.173  10.068  0.1484 -0.0364 -0.3269
14856SOL    HW146009   7.094   0.179  10.067  0.1743 -0.5098 -0.6827
14856SOL    HW246010   6.977   0.145  10.157  0.3787 -0.5780 -0.4437
14857SOL     OW46011   3.790   0.872   4.814  0.0560 -0.4739 -0.6758
14857SOL    HW146012   3.860   0.909   4.761 -0.9928  1.4641 -0.8063
14857SOL    HW246013   3.722   0.940   4.815  0.0710 -0.3000  3.3161
14858SOL     OW46014   6.697   5.807   5.418  0.4152  0.1980 -0.3668
14858SOL    HW146015   6.754   5.845   5.352  0.9601  0.5455  0.2877
14858SOL    HW246016   6.752   5.797   5.496  0.0779 -1.2468 -0.2852
14859SOL     OW46017   5.621   2.869   4.728  0.0237  0.1631 -0.4940
14859SOL    HW146018   5.552   2.910   4.780 -0.7552 -1.4524 -0.1728
14859SOL    HW246019   5.576   2.837   4.650  0.1894 -1.6035  0.0770
14860SOL     OW46020   7.240   4.307   9.801  0.0965  0.0217 -0.3023
14860SOL    HW146021   7.154   4.302   9.842  0.5398 -0.9568  0.5355
14860SOL    HW246022   7.256   4.401   9.790 -0.0623  0.3216  1.7268
14861SOL     OW46023   7.918   4.775   4.712 -0.1371 -0.0550 -0.1663
14861SOL    HW146024   7.998   4.779   4.764  0.5366 -0.4113 -1.1429
14861SOL    HW246025   7.860   4.839   4.752  0.3440 -0.3384  1.0348
14862SOL     OW46026   1.718   4.098   3.029 -0.0189  0.4683 -0.0557
14862SOL    HW146027   1.677   4.136   2.952  1.9851  0.2708 -1.2757
14862SOL    HW246028   1.788   4.159   3.052  2.2244 -1.5848 -1.0832
14863SOL     OW46029   7.599   2.438   5.205 -0.3684  0.0913  0.7804
14863SOL    HW146030   7.591   2.360   5.149 -2.1055 -0.2791  1.4818
14863SOL    HW246031   7.661   2.494   5.159  2.9154 -2.6654  1.4105
14864SOL     OW46032   6.447   1.118   1.759  0.5789  0.3343  0.6085
14864SOL    HW146033   6.526   1.164   1.785  0.4743 -0.2677  2.0847
14864SOL    HW246034   6.388   1.186   1.725  1.1567  0.9864  0.9073
14865SOL     OW46035   1.495   0.813   0.370  0.1174  0.3293  0.1029
14865SOL    HW146036   1.493   0.893   0.422  0.2169  0.7703 -0.5558
14865SOL    HW246037   1.586   0.807   0.339  0.0885  0.0133  0.0745
14866SOL     OW46038   1.347   6.715   0.479  0.5082 -0.6067  0.9026
14866SOL    HW146039   1.434   6.674   0.485  1.1784  0.2056 -1.9906
14866SOL    HW246040   1.360   6.793   0.425 -1.6143  0.9181  2.4130
14867SOL     OW46041   2.957   5.899   9.916  0.3143 -0.2648 -0.4965
14867SOL    HW146042   2.991   5.959   9.849 -0.3468 -2.2007 -2.6625
14867SOL    HW246043   3.006   5.818   9.904 -0.0320 -0.7805  1.2072
14868SOL     OW46044   4.819   4.457   8.802  0.0859  0.2522 -0.6337
14868SOL    HW146045   4.892   4.436   8.744  1.3115  0.7279  0.6755
14868SOL    HW246046   4.740   4.443   8.749  1.1663  1.8022 -2.7454
14869SOL     OW46047   2.110   7.025   5.725  0.3729 -0.1669 -0.2601
14869SOL    HW146048   2.031   7.051   5.772  0.6337  0.3832 -0.1216
14869SOL    HW246049   2.077   6.985   5.644 -0.1747 -3.1693  1.2859
14870SOL     OW46050   4.646   2.409   0.854  0.3113 -0.0426 -0.2540
14870SOL    HW146051   4.606   2.336   0.901 -0.8504  0.1283 -0.9378
14870SOL    HW246052   4.619   2.397   0.763  0.9454  0.6819 -0.5489
14871SOL     OW46053   6.663   1.255   1.872  0.0522 -0.0802 -0.5623
14871SOL    HW146054   6.618   1.293   1.948  0.1919 -0.9582 -0.0241
14871SOL    HW246055   6.740   1.212   1.909 -0.5374 -1.6011 -1.0221
14872SOL     OW46056   6.159   5.374   2.465 -0.5861 -0.7164  0.5719
14872SOL    HW146057   6.207   5.445   2.424  0.4642 -1.0803  1.1522
14872SOL    HW246058   6.166   5.301   2.403 -1.6804 -0.3290 -0.0328
14873SOL     OW46059   5.429   5.132   5.625  0.1813 -0.1191 -0.1105
14873SOL    HW146060   5.440   5.220   5.588 -0.7808 -0.7978 -2.1729
14873SOL    HW246061   5.518   5.099   5.635  0.5772 -0.5262 -3.6390
14874SOL     OW46062   5.361   7.413   4.546  0.3407 -0.7010 -0.0342
14874SOL    HW146063   5.412   7.442   4.621  0.0488  2.4559 -0.9029
14874SOL    HW246064   5.417   7.350   4.501  3.3006  1.9632 -0.4782
14875SOL     OW46065   2.592   7.615   1.600 -0.0354  0.0429  0.0983
14875SOL    HW146066   2.595   7.708   1.576  0.3401  0.4226  1.4855
14875SOL    HW246067   2.556   7.615   1.689  0.9203 -1.0386  0.5154
14876SOL     OW46068   4.227   4.858   4.215 -0.3962 -0.3351  0.2240
14876SOL    HW146069   4.195   4.945   4.238  1.4848  0.2278  0.8885
14876SOL    HW246070   4.235   4.813   4.299  1.7721  0.0277  0.2709
14877SOL     OW46071   6.617   5.758  11.025  0.0949 -0.3233  0.2418
14877SOL    HW146072   6.710   5.754  11.048 -0.4158  1.2056  2.9593
14877SOL    HW246073   6.610   5.705  10.945  3.5041  0.6611 -0.8849
14878SOL     OW46074   6.206   3.338   0.537  0.1595 -0.7634  0.1503
14878SOL    HW146075   6.166   3.330   0.624 -0.0614 -0.4532  0.0812
14878SOL    HW246076   6.298   3.358   0.555 -0.2812  1.3585  0.3506
14879SOL     OW46077   2.600   3.994   4.207 -0.3048 -0.0087  0.0948
14879SOL    HW146078   2.511   4.010   4.237 -0.8175 -2.6544  0.2659
14879SOL    HW246079   2.619   3.905   4.237  2.0143  0.1129 -0.8372
14880SOL     OW46080   2.373   5.628   5.012 -0.0307  0.5142 -0.7573
14880SOL    HW146081   2.393   5.622   5.105 -1.6699 -0.5389 -0.4357
14880SOL    HW246082   2.289   5.675   5.009  0.1289  0.7542 -1.7168
14881SOL     OW46083   0.458   5.395   5.305 -0.1216 -0.2079 -0.0029
14881SOL    HW146084   0.426   5.325   5.362 -0.7484  0.1825  0.1401
14881SOL    HW246085   0.547   5.368   5.281  0.0179 -0.5596  0.8644
14882SOL     OW46086   6.705   3.627  12.233  0.2922  0.3337 -0.3071
14882SOL    HW146087   6.742   3.619  12.321  0.0975  0.9856 -0.1616
14882SOL    HW246088   6.758   3.569  12.179  0.6293  0.1880  0.1764
14883SOL     OW46089   2.891   0.891   3.493 -0.1618  1.0978  0.9241
14883SOL    HW146090   2.947   0.935   3.430 -0.2211  2.0508  1.5191
14883SOL    HW246091   2.816   0.861   3.442  0.8023 -0.0971  0.1426
14884SOL     OW46092   5.416   6.117   1.485 -0.0325  0.5639  0.2492
14884SOL    HW146093   5.496   6.082   1.524 -1.0126 -2.0498  0.1291
14884SOL    HW246094   5.355   6.123   1.559 -1.1047 -1.9976 -0.3006
14885SOL     OW46095   2.251   3.956  11.208  0.4567  0.2418  0.1013
14885SOL    HW146096   2.214   4.045  11.208 -0.5689 -0.0918  2.6028
14885SOL    HW246097   2.324   3.961  11.270 -0.8549 -1.0265  1.8736
14886SOL     OW46098   6.221   5.347   5.544  0.3177 -0.2212 -0.6177
14886SOL    HW146099   6.199   5.438   5.521  0.5427  0.5707  1.9591
14886SOL    HW246100   6.148   5.295   5.509 -0.6344  1.1539 -0.7804
14887SOL     OW46101   0.710   1.484   8.799  0.1156 -0.7672  0.2647
14887SOL    HW146102   0.636   1.443   8.843  2.3701 -2.7674  2.5618
14887SOL    HW246103   0.787   1.449   8.844  2.4575  2.3788 -0.9107
14888SOL     OW46104   6.544   3.151   1.134 -0.7134 -0.3443  0.0101
14888SOL    HW146105   6.589   3.073   1.166 -1.1119 -0.2944  0.7371
14888SOL    HW246106   6.577   3.164   1.045  1.4695  0.2825  0.8476
14889SOL     OW46107   6.909   1.361   8.522 -0.1643 -0.1817  0.0977
14889SOL    HW146108   6.873   1.382   8.608  0.3938 -0.5058  0.4101
14889SOL    HW246109   6.832   1.352   8.466 -0.5401 -0.2232  0.6178
14890SOL     OW46110   2.890   4.311   8.182  0.3447  0.8963  0.5836
14890SOL    HW146111   2.944   4.294   8.259 -0.0783  0.4200  0.7786
14890SOL    HW246112   2.945   4.282   8.108  0.3005  0.2749  0.7918
14891SOL     OW46113   0.907   7.214   6.039  0.1330  0.3425 -0.4732
14891SOL    HW146114   0.823   7.194   5.998 -0.9188 -1.6628  2.3750
14891SOL    HW246115   0.952   7.130   6.043  0.1780  0.4014  2.2921
14892SOL     OW46116   2.547   7.189   4.527  0.7336 -0.4948  0.4488
14892SOL    HW146117   2.587   7.209   4.443  0.2188 -0.3133  0.2410
14892SOL    HW246118   2.467   7.242   4.529  1.2522  0.2742  1.4871
14893SOL     OW46119   1.962   3.068   3.129  0.0345 -0.2419 -0.5897
14893SOL    HW146120   1.930   3.032   3.212  0.1641  1.3160  0.1881
14893SOL    HW246121   1.883   3.087   3.079 -0.1085 -0.0493 -0.2970
14894SOL     OW46122   7.553   1.272   9.561  0.3745 -0.3694  0.1608
14894SOL    HW146123   7.588   1.233   9.480  2.4243  1.6596 -0.0270
14894SOL    HW246124   7.630   1.286   9.615 -0.6174  0.9735  1.2808
14895SOL     OW46125   7.100   1.545   0.194 -0.2153 -0.5829  0.6929
14895SOL    HW146126   7.031   1.481   0.212 -0.0480 -0.7410  0.7761
14895SOL    HW246127   7.128   1.526   0.105  1.5191 -2.2440  1.5047
14896SOL     OW46128   2.000   4.226   5.430  0.5621  0.4283 -0.0102
14896SOL    HW146129   2.025   4.160   5.494  0.6580  0.1389 -0.3440
14896SOL    HW246130   1.982   4.177   5.350  1.1326  0.8496 -0.4085
14897SOL     OW46131   7.507   1.779  11.903  0.4033 -0.0828  0.1530
14897SOL    HW146132   7.515   1.831  11.984 -0.2825  0.0069  0.1702
14897SOL    HW246133   7.426   1.730  11.914 -0.1514  0.5667 -0.8337
14898SOL     OW46134   1.102   6.634  10.502 -0.0043  0.2695  0.3234
14898SOL    HW146135   1.094   6.670  10.414 -2.1299 -1.0973 -0.1228
14898SOL    HW246136   1.067   6.703  10.559 -0.6097  0.3457 -0.1288
14899SOL     OW46137   7.318   5.237   0.724 -0.1022  0.4329 -0.1203
14899SOL    HW146138   7.335   5.220   0.631 -0.6294  1.1001 -0.3429
14899SOL    HW246139   7.340   5.155   0.768  2.2322  0.7441 -0.5727
14900SOL     OW46140   4.710   6.045   2.307 -0.5228 -0.0096 -0.6459
14900SOL    HW146141   4.688   6.136   2.326 -0.1581 -0.2581  1.1773
14900SOL    HW246142   4.806   6.043   2.305 -0.5352 -0.2834 -0.9941
14901SOL     OW46143   2.888   2.392   8.939 -0.6863  0.6443 -0.0976
14901SOL    HW146144   2.933   2.470   8.971 -1.5845  1.0239  0.2612
14901SOL    HW246145   2.899   2.395   8.844  1.4213 -0.1383  0.0699
14902SOL     OW46146   2.451   6.416   7.088 -0.4019 -0.2332  0.4241
14902SOL    HW146147   2.403   6.362   7.151 -2.3688  0.2085 -0.6088
14902SOL    HW246148   2.415   6.504   7.099  0.7486  0.2979  0.1374
14903SOL     OW46149   4.953   5.772   8.109  0.3375 -0.2380  0.3382
14903SOL    HW146150   5.000   5.838   8.057 -0.1819  0.0160  0.1759
14903SOL    HW246151   5.010   5.755   8.183  0.9081 -0.2967 -0.1033
14904SOL     OW46152   1.764   0.355  12.051  0.1369  0.1011  0.1702
14904SOL    HW146153   1.849   0.318  12.025  0.3524  0.4721  0.3355
14904SOL    HW246154   1.704   0.327  11.982  0.5012  0.2607 -0.2168
14905SOL     OW46155   7.441   4.752   3.932 -0.5741  0.5391  0.0649
14905SOL    HW146156   7.524   4.764   3.887  0.1194  1.4646  1.4968
14905SOL    HW246157   7.394   4.834   3.919 -0.8813  0.3600  0.0259
14906SOL     OW46158   5.468   7.908  12.236 -0.0581 -0.1180 -0.5529
14906SOL    HW146159   5.401   7.878  12.297  1.4573 -1.3255  0.6135
14906SOL    HW246160   5.444   7.869  12.152 -0.2988 -1.3287  0.0634
14907SOL     OW46161   2.699   4.957   6.215 -0.3607  0.0866  0.2000
14907SOL    HW146162   2.645   4.899   6.268  0.8908 -0.5351  0.8367
14907SOL    HW246163   2.774   4.978   6.271 -1.2390  3.1683  0.3848
14908SOL     OW46164   4.240   6.023  10.594 -0.0048  0.3844 -0.3373
14908SOL    HW146165   4.327   6.004  10.559  0.5988  1.9951  0.1872
14908SOL    HW246166   4.257   6.074  10.673 -1.4394  0.8407 -0.2990
14909SOL     OW46167   5.132   7.874   2.089  0.1721 -0.2074 -0.2363
14909SOL    HW146168   5.182   7.887   2.169 -0.9574  0.9401  0.3130
14909SOL    HW246169   5.125   7.778   2.080  0.3189 -0.3485  1.0177
14910SOL     OW46170   3.266   2.020   4.896  0.1533  0.0925  0.8124
14910SOL    HW146171   3.285   1.929   4.916 -0.0622 -0.1350  0.0299
14910SOL    HW246172   3.351   2.061   4.881  0.2585  0.0614  1.3384
14911SOL     OW46173   0.512   0.579   6.899 -0.6830 -0.5772  0.1234
14911SOL    HW146174   0.547   0.610   6.983  0.0536 -1.5197  0.1845
14911SOL    HW246175   0.520   0.654   6.841 -2.6457  0.5976  1.2631
14912SOL     OW46176   2.485   6.126   7.782  0.2085 -0.3219  0.2600
14912SOL    HW146177   2.573   6.123   7.744  0.3516  2.4518  0.1844
14912SOL    HW246178   2.437   6.056   7.737  1.4634  0.2788 -2.1890
14913SOL     OW46179   5.582   4.246   8.908  0.3011  0.6808 -0.3457
14913SOL    HW146180   5.639   4.288   8.843  0.1104 -0.7520 -1.4979
14913SOL    HW246181   5.576   4.155   8.878 -0.8347  0.2955  0.9903
14914SOL     OW46182   7.322   2.275   4.930  0.1276  0.1307  0.3657
14914SOL    HW146183   7.284   2.187   4.926  2.5562 -1.2140  3.1462
14914SOL    HW246184   7.266   2.323   4.992 -1.4691  0.8168 -1.4952
14915SOL     OW46185   0.963   3.555   8.382  0.0670  0.1841  0.8835
14915SOL    HW146186   1.018   3.604   8.442  0.6963  0.7371 -0.1129
14915SOL    HW246187   0.918   3.621   8.330  1.6299 -0.2256 -1.1132
14916SOL     OW46188   0.005   2.316   8.423 -0.6193 -0.6540  0.6386
14916SOL    HW146189  -0.027   2.293   8.510 -0.1051  2.1197  1.6677
14916SOL    HW246190   0.093   2.351   8.438 -0.3225 -0.5758 -1.0681
14917SOL     OW46191   7.562   2.486   0.003 -0.0881  0.4300 -0.0743
14917SOL    HW146192   7.521   2.572   0.001 -1.7072 -0.3147 -0.3453
14917SOL    HW246193   7.567   2.460  -0.089  2.3565  1.0784 -0.1922
14918SOL     OW46194   6.856   7.382  11.503 -0.2730  0.3391 -0.6935
14918SOL    HW146195   6.851   7.455  11.441  1.3375  1.5150  0.4751
14918SOL    HW246196   6.902   7.313  11.455 -0.6509  0.5626 -1.3876
14919SOL     OW46197   5.050   5.942   7.131  0.1543 -0.1516 -0.2464
14919SOL    HW146198   5.097   6.007   7.184 -0.6289 -0.4887  0.9000
14919SOL    HW246199   5.008   5.993   7.062 -0.0514  0.5104  0.3503
14920SOL     OW46200   0.880   6.286   2.882 -0.1943 -0.0150  0.0792
14920SOL    HW146201   0.900   6.376   2.855  0.4466 -0.4327 -0.9261
14920SOL    HW246202   0.947   6.266   2.947 -0.7592  0.4537  0.8246
14921SOL     OW46203   7.558   5.280   5.554 -0.4038  0.9005  0.0398
14921SOL    HW146204   7.512   5.294   5.471 -1.1511 -0.5620  0.1798
14921SOL    HW246205   7.517   5.343   5.614  0.2541  2.0861 -0.6973
14922SOL     OW46206   7.789   4.979   4.851 -0.3020  0.0075  0.8928
14922SOL    HW146207   7.819   4.984   4.941  0.3390 -3.1961  0.9809
14922SOL    HW246208   7.696   4.955   4.857 -1.0114  2.3289  0.5912
14923SOL     OW46209   0.588   2.745   9.596  0.2418 -0.1674 -0.4408
14923SOL    HW146210   0.546   2.804   9.659 -1.5123 -0.7973 -0.9547
14923SOL    HW246211   0.669   2.717   9.638  0.9168  2.2242  0.0180
14924SOL     OW46212   0.891   0.300   1.295  0.4986 -0.2927 -0.2219
14924SOL    HW146213   0.854   0.248   1.367  1.1670  1.6400  1.6240
14924SOL    HW246214   0.818   0.353   1.263  0.3336 -0.7383 -0.5907
14925SOL     OW46215   3.554   1.435   8.515  0.3533  0.0208 -0.8489
14925SOL    HW146216   3.596   1.419   8.430 -0.0350 -1.2317 -0.8211
14925SOL    HW246217   3.608   1.504   8.555  1.5910 -0.6051 -1.3627
14926SOL     OW46218   5.008   4.005   6.697  0.2331  0.4071  0.5919
14926SOL    HW146219   4.945   4.076   6.692 -0.5857 -0.2512  1.2119
14926SOL    HW246220   4.973   3.947   6.765 -0.0960 -1.5138 -1.1248
14927SOL     OW46221   0.361   2.470  11.299 -0.3969  1.0826  0.2053
14927SOL    HW146222   0.341   2.433  11.213 -0.0074  0.1338  0.5115
14927SOL    HW246223   0.279   2.464  11.347 -0.0041 -0.6684  0.7005
14928SOL     OW46224   0.206   7.345   1.375  0.0225  0.0422 -0.2596
14928SOL    HW146225   0.232   7.269   1.426  1.6156  0.1846 -0.8162
14928SOL    HW246226   0.281   7.364   1.318 -0.1847  2.2008  0.0770
14929SOL     OW46227   2.407   5.622   1.645 -0.4627  0.1187 -0.3424
14929SOL    HW146228   2.375   5.706   1.612 -0.6390  1.3892  2.7092
14929SOL    HW246229   2.502   5.633   1.649 -0.5181  0.3615  0.4522
14930SOL     OW46230   2.348   2.544   6.616  0.5935 -0.6334  0.2624
14930SOL    HW146231   2.410   2.616   6.629  0.3924 -0.3332 -0.3580
14930SOL    HW246232   2.296   2.542   6.696 -0.1843  0.7164 -0.1687
14931SOL     OW46233   0.763   7.514  11.912 -0.5076  0.2584 -0.3133
14931SOL    HW146234   0.691   7.530  11.851 -0.5999  0.6648 -0.1072
14931SOL    HW246235   0.739   7.433  11.957 -1.1478  0.7089  0.1824
14932SOL     OW46236   7.389   6.249  10.510  0.1354 -0.1017 -0.2076
14932SOL    HW146237   7.346   6.181  10.459  3.1917 -1.2131 -1.5736
14932SOL    HW246238   7.447   6.293  10.447  1.7975  0.5243  1.6407
14933SOL     OW46239   0.317   7.214   0.894  0.1411 -0.1961 -0.3725
14933SOL    HW146240   0.285   7.187   0.980  1.6713  2.4136  1.1315
14933SOL    HW246241   0.246   7.266   0.857 -0.4719 -1.2227 -0.6938
14934SOL     OW46242   2.431   0.573   4.091  0.3320  0.4323  0.4316
14934SOL    HW146243   2.517   0.605   4.119  0.0156  1.0672  0.6978
14934SOL    HW246244   2.368   0.621   4.145 -0.1502 -1.1977  1.3850
14935SOL     OW46245   5.423   3.595  11.620  0.0481 -0.4064  0.1451
14935SOL    HW146246   5.463   3.586  11.707 -0.3892  0.0689  0.4100
14935SOL    HW246247   5.477   3.659  11.575 -1.5355  1.8626  1.2517
14936SOL     OW46248   0.061   2.416   5.717 -0.1224 -0.1636  0.2076
14936SOL    HW146249  -0.011   2.360   5.746 -0.4701  0.3891  0.4275
14936SOL    HW246250   0.089   2.462   5.796 -0.3003  0.4830 -0.1022
14937SOL     OW46251   2.909   0.246   9.923 -0.1975  0.5068 -0.6735
14937SOL    HW146252   2.853   0.323   9.935  2.4410  2.2750  1.3671
14937SOL    HW246253   2.856   0.173   9.957 -1.6456  1.9076  0.2538
14938SOL     OW46254   2.353   1.122  11.155  0.2674 -0.1042 -0.3625
14938SOL    HW146255   2.419   1.061  11.187 -1.3843 -1.0880  1.3908
14938SOL    HW246256   2.327   1.172  11.232 -0.1574  1.1428 -1.2798
14939SOL     OW46257   4.226   0.231   0.636 -0.2399  0.1551  0.1621
14939SOL    HW146258   4.157   0.166   0.648 -0.5542  0.5780  0.6572
14939SOL    HW246259   4.307   0.185   0.658 -0.4671 -0.0487  0.5799
14940SOL     OW46260   5.428   1.372  11.235  0.2924  0.1690  0.1933
14940SOL    HW146261   5.382   1.447  11.196  1.4664 -0.2934 -2.2513
14940SOL    HW246262   5.358   1.320  11.275 -0.4635  3.0057  2.9967
14941SOL     OW46263   7.391   5.562  11.760 -0.8197 -0.1931 -0.1866
14941SOL    HW146264   7.395   5.569  11.665 -1.8106 -0.7931 -0.2875
14941SOL    HW246265   7.331   5.489  11.777  0.3145 -0.9243  0.8960
14942SOL     OW46266   1.626   5.217   6.230 -0.3851 -0.2573 -0.3073
14942SOL    HW146267   1.534   5.193   6.222  0.2084 -2.5730 -0.9374
14942SOL    HW246268   1.652   5.245   6.142 -0.7700  1.7404  0.1634
14943SOL     OW46269   2.669   6.233   5.947 -0.3278  0.4528  0.5328
14943SOL    HW146270   2.629   6.236   5.861  1.5314 -2.1530 -0.5579
14943SOL    HW246271   2.692   6.324   5.966 -1.3414  1.1751 -1.4214
14944SOL     OW46272   6.641   2.799   1.082 -0.4490 -0.3220 -0.2152
14944SOL    HW146273   6.639   2.713   1.124 -2.5668 -0.3239 -0.2021
14944SOL    HW246274   6.658   2.860   1.154 -2.6356 -0.4510  0.4854
14945SOL     OW46275   0.935   3.855  11.758 -0.3797 -0.2758  0.0654
14945SOL    HW146276   0.900   3.912  11.826  0.4319 -1.1445  1.2669
14945SOL    HW246277   0.860   3.802  11.730 -0.9750  0.8521 -0.5599
14946SOL     OW46278   0.023   0.847   5.913 -0.2649 -0.1039  0.3929
14946SOL    HW146279  -0.016   0.806   5.835 -0.3846 -0.4985  0.6593
14946SOL    HW246280  -0.039   0.828   5.984 -0.0542  0.0800  0.6258
14947SOL     OW46281   2.334   3.291   9.612 -0.2320  0.5053  0.5394
14947SOL    HW146282   2.253   3.242   9.624 -0.5133  1.1167  1.2389
14947SOL    HW246283   2.307   3.373   9.571  0.0903  0.5468  0.4043
14948SOL     OW46284   1.444   4.864   3.289  0.1229 -0.3226  0.6298
14948SOL    HW146285   1.508   4.849   3.359  0.1689  1.2584  0.9576
14948SOL    HW246286   1.453   4.787   3.233 -0.5740 -2.0935  2.8081
14949SOL     OW46287   0.378   7.017   8.095 -0.7713  0.3007  0.5617
14949SOL    HW146288   0.434   7.014   8.017  0.4906  3.9892  1.1419
14949SOL    HW246289   0.384   6.928   8.132  0.6059 -0.8370 -2.1244
14950SOL     OW46290   4.917   6.152  11.034 -0.3067 -0.1339  0.1899
14950SOL    HW146291   4.931   6.119  10.945  0.9067 -1.5497  0.8510
14950SOL    HW246292   4.848   6.217  11.025 -0.7549 -0.7983 -1.6736
14951SOL     OW46293   2.298   3.060   9.973  0.7414  0.1198 -0.1137
14951SOL    HW146294   2.376   3.103   9.939  1.1157  1.1464  1.9090
14951SOL    HW246295   2.286   3.096  10.061  0.2250 -2.8570  1.1824
14952SOL     OW46296   7.243   3.288   1.083  0.1914 -0.2113 -0.3282
14952SOL    HW146297   7.212   3.208   1.126 -0.3210  0.6688  0.9833
14952SOL    HW246298   7.177   3.354   1.104  1.7939  1.1622  0.6444
14953SOL     OW46299   5.707   2.911  12.119  0.2688  0.3498 -0.0342
14953SOL    HW146300   5.639   2.928  12.184  0.5318 -1.2166  0.7069
14953SOL    HW246301   5.691   2.821  12.090  0.8740  0.6151 -1.2829
14954SOL     OW46302   5.311   6.625   5.456 -0.4609 -0.1173 -0.4580
14954SOL    HW146303   5.383   6.572   5.489 -2.2793 -2.0510  0.7176
14954SOL    HW246304   5.318   6.708   5.502  0.0791 -0.8948  0.9154
14955SOL     OW46305   6.708   2.691   1.970  0.3855 -0.4597  0.0405
14955SOL    HW146306   6.721   2.760   1.905 -1.6621  0.5001  0.5772
14955SOL    HW246307   6.781   2.703   2.031  1.9702 -0.9622 -1.6553
14956SOL     OW46308   7.443   4.350   2.081 -0.1913  0.1996 -0.5545
14956SOL    HW146309   7.500   4.315   2.013 -1.0345 -0.0722 -1.1448
14956SOL    HW246310   7.473   4.309   2.162  0.8060  0.5020 -0.7562
14957SOL     OW46311   7.557   3.337  11.923  0.4505  0.3783 -0.2692
14957SOL    HW146312   7.561   3.416  11.977 -1.3712  0.4390 -0.1506
14957SOL    HW246313   7.592   3.363  11.838  0.8645  1.0157  0.0923
14958SOL     OW46314   1.115   3.639   5.751  0.2575 -0.2987  0.3744
14958SOL    HW146315   1.187   3.638   5.688 -0.4146  0.3209 -0.4305
14958SOL    HW246316   1.115   3.551   5.789  1.7311 -0.1664  0.7581
14959SOL     OW46317   1.607   6.154  10.537  0.5162 -0.1130 -0.4663
14959SOL    HW146318   1.582   6.101  10.613  1.3166 -0.8220 -0.6854
14959SOL    HW246319   1.545   6.228  10.538  0.0403 -0.5073  0.4328
14960SOL     OW46320   5.557   1.848   3.093  0.3403 -0.3475  0.1944
14960SOL    HW146321   5.543   1.939   3.121 -1.5692 -0.2372 -0.8848
14960SOL    HW246322   5.476   1.825   3.047  0.9157 -2.5017  0.1502
14961SOL     OW46323   1.431   4.661  11.024  0.0867  0.2591 -0.0832
14961SOL    HW146324   1.398   4.573  11.042  0.2845  0.4599  1.4031
14961SOL    HW246325   1.372   4.696  10.957  0.4623 -1.2615 -1.2722
14962SOL     OW46326   6.081   3.899   7.487 -0.2848 -0.0109  0.1223
14962SOL    HW146327   6.141   3.825   7.482  0.3881  0.5915 -1.3745
14962SOL    HW246328   6.137   3.976   7.485 -1.0008  0.5690  1.2039
14963SOL     OW46329   0.441   1.087   6.069 -0.4715 -0.3642 -0.0268
14963SOL    HW146330   0.492   1.090   5.989 -0.6833  3.2740 -0.2061
14963SOL    HW246331   0.350   1.100   6.041 -0.6840 -0.2216  0.6849
14964SOL     OW46332   0.974   5.586   8.964  0.1100 -0.4497 -0.0641
14964SOL    HW146333   1.011   5.604   8.877  0.1918 -3.4537 -0.7551
14964SOL    HW246334   1.050   5.564   9.017 -0.1842 -1.7468 -0.1423
14965SOL     OW46335   3.994   4.573   8.721 -0.2049 -0.4123 -0.0813
14965SOL    HW146336   3.916   4.627   8.706  1.8280  2.5851 -0.9367
14965SOL    HW246337   4.008   4.577   8.815 -0.7519 -0.5097  0.0098
14966SOL     OW46338   4.144   2.362   8.059  0.1043  0.4456 -0.1970
14966SOL    HW146339   4.062   2.329   8.020 -0.1446  0.7979  0.0195
14966SOL    HW246340   4.213   2.322   8.006 -0.2398  1.3137 -1.3359
14967SOL     OW46341   5.500   7.791   5.018 -0.3482  0.6536 -0.1546
14967SOL    HW146342   5.571   7.853   5.005 -0.3626  0.7834  0.3649
14967SOL    HW246343   5.505   7.767   5.110 -0.0781 -0.4434 -0.4344
14968SOL     OW46344   2.331   1.503   2.531 -0.5524  0.2865 -0.1091
14968SOL    HW146345   2.355   1.585   2.487  2.3336 -1.3082 -1.8183
14968SOL    HW246346   2.376   1.509   2.616  0.4263  0.1197 -0.6038
14969SOL     OW46347   1.132   4.181   6.214 -0.3265  0.0334 -0.2530
14969SOL    HW146348   1.192   4.252   6.239  0.5052 -0.2341 -1.4431
14969SOL    HW246349   1.077   4.219   6.146 -0.6964 -0.1037 -0.0344
14970SOL     OW46350   6.830   0.746   3.747  0.1465  0.2519 -0.2693
14970SOL    HW146351   6.760   0.680   3.750  1.0993 -0.8066  2.2122
14970SOL    HW246352   6.785   0.828   3.731 -1.5481 -0.5446  0.1778
14971SOL     OW46353   5.613   6.381   0.906 -0.2753 -0.5476 -0.2358
14971SOL    HW146354   5.629   6.420   0.819 -2.0981  0.4853 -0.1528
14971SOL    HW246355   5.596   6.289   0.888  1.4546 -0.8224 -0.7173
14972SOL     OW46356   6.580   3.398   9.480  0.1797  0.7630  0.0369
14972SOL    HW146357   6.636   3.356   9.415 -1.2339 -0.1140 -0.6550
14972SOL    HW246358   6.609   3.489   9.482  2.1483  0.1810  0.2932
14973SOL     OW46359   7.207   1.847   6.356 -0.0996 -0.2229 -0.1861
14973SOL    HW146360   7.146   1.794   6.408  1.0532  0.0740  1.5489
14973SOL    HW246361   7.262   1.782   6.312 -0.4033 -0.4732 -0.2103
14974SOL     OW46362   3.846   2.481   5.625  0.5444 -0.3928  0.7677
14974SOL    HW146363   3.903   2.417   5.582  1.6342  0.3558  1.0505
14974SOL    HW246364   3.848   2.456   5.717 -2.2060 -2.3141  0.4163
14975SOL     OW46365   3.899   7.722   6.541  0.0762  0.2283  0.1339
14975SOL    HW146366   3.808   7.719   6.510  0.6299  2.9545 -2.0951
14975SOL    HW246367   3.920   7.815   6.546  2.5406 -0.3204  1.3335
14976SOL     OW46368   2.835   3.363  11.368 -0.2273  0.2191 -0.1840
14976SOL    HW146369   2.857   3.300  11.437 -2.8823  0.8730  1.4161
14976SOL    HW246370   2.908   3.425  11.368  0.3874 -0.4597  1.2486
14977SOL     OW46371   2.507   3.095   6.940 -0.2077  0.3725 -0.1661
14977SOL    HW146372   2.531   3.083   6.848  0.2361 -1.1921  0.1262
14977SOL    HW246373   2.444   3.026   6.958  2.1503 -1.5339  1.5093
14978SOL     OW46374   6.805   1.012   2.021 -0.0763 -0.2189 -0.1585
14978SOL    HW146375   6.838   1.090   2.065  0.5838 -0.5847  0.0067
14978SOL    HW246376   6.852   0.940   2.062 -1.8135 -0.8682  0.8008
14979SOL     OW46377   5.868   4.584   0.052 -0.1913 -0.3057  0.4404
14979SOL    HW146378   5.931   4.569  -0.018 -2.0201  0.9615 -1.5847
14979SOL    HW246379   5.895   4.668   0.091  1.5142 -1.5553  2.1560
14980SOL     OW46380   3.606   0.118   6.725 -0.6700 -0.1069 -0.1751
14980SOL    HW146381   3.552   0.039   6.717 -1.1011  0.2018 -0.3426
14980SOL    HW246382   3.634   0.119   6.816 -1.2564 -0.0691  0.0081
14981SOL     OW46383   4.893   5.050   2.126  0.2148 -0.1377 -0.1306
14981SOL    HW146384   4.893   5.025   2.219 -2.0843  1.9171  0.5392
14981SOL    HW246385   4.888   5.146   2.127 -1.0917 -0.1123 -2.3495
14982SOL     OW46386   4.872   5.139   3.547  0.2956 -0.0889 -0.0417
14982SOL    HW146387   4.925   5.082   3.603 -0.6704 -1.3518 -0.3598
14982SOL    HW246388   4.792   5.153   3.598  0.3164  0.5746 -0.1903
14983SOL     OW46389   4.659   5.641   8.610 -0.0132  0.1031  0.5781
14983SOL    HW146390   4.587   5.691   8.649 -0.6848  0.3902 -0.9376
14983SOL    HW246391   4.733   5.701   8.613 -0.2970  0.4611  0.5677
14984SOL     OW46392   3.417   0.679   4.673 -0.0152  0.1731 -0.2068
14984SOL    HW146393   3.334   0.712   4.707  1.0050  0.8098  1.8326
14984SOL    HW246394   3.398   0.656   4.582 -2.0010  1.8009 -0.2761
14985SOL     OW46395   2.492   1.383   9.132  0.7732  0.7182  0.0292
14985SOL    HW146396   2.496   1.317   9.202 -3.2425 -0.8835 -1.0088
14985SOL    HW246397   2.584   1.396   9.106  2.1366 -0.8510  3.4748
14986SOL     OW46398   4.370   3.258   0.885 -0.4126 -0.2151  0.3434
14986SOL    HW146399   4.450   3.307   0.863  0.6674 -1.0630  2.1815
14986SOL    HW246400   4.300   3.321   0.873  0.3174  0.2052 -2.6182
14987SOL     OW46401   5.438   4.424   2.406  0.3402  0.3591  0.0705
14987SOL    HW146402   5.462   4.450   2.316  0.7986 -1.3340 -0.3278
14987SOL    HW246403   5.358   4.372   2.395  0.5591 -0.0935  0.6108
14988SOL     OW46404   2.681   4.510   8.985  0.3371  0.2356 -0.6460
14988SOL    HW146405   2.742   4.582   9.000  0.6736 -0.5897  3.0964
14988SOL    HW246406   2.607   4.529   9.044 -0.6950 -1.2487 -1.4124
14989SOL     OW46407   1.171   5.278   2.268  0.1425  0.1699  0.4854
14989SOL    HW146408   1.178   5.247   2.178  0.4234 -2.4329  1.2939
14989SOL    HW246409   1.256   5.315   2.288  1.6751 -3.1352  0.8644
14990SOL     OW46410   7.559   3.707   0.645 -0.5536 -0.4931 -0.1534
14990SOL    HW146411   7.654   3.713   0.657 -0.6325  1.1077 -0.2144
14990SOL    HW246412   7.547   3.629   0.591  0.6498 -1.2117  0.5642
14991SOL     OW46413   2.320   5.092   5.114  0.2528 -0.2977 -0.3040
14991SOL    HW146414   2.375   5.169   5.100  0.0895 -0.2986 -0.9685
14991SOL    HW246415   2.247   5.103   5.053  0.7394 -1.4700 -1.1358
14992SOL     OW46416   2.616   6.911  10.372 -0.0865 -0.1872 -0.3777
14992SOL    HW146417   2.527   6.886  10.396 -0.4973 -0.5047 -2.0855
14992SOL    HW246418   2.668   6.897  10.452 -1.4659 -0.4397  0.5050
14993SOL     OW46419   6.340   4.174   9.511  0.0394 -0.0251  0.0966
14993SOL    HW146420   6.426   4.136   9.492  0.7638  1.0985  1.0034
14993SOL    HW246421   6.356   4.268   9.515 -1.6162  0.3865 -1.5780
14994SOL     OW46422   7.034   4.438  10.401 -0.5055 -0.4071  0.2073
14994SOL    HW146423   7.128   4.433  10.416 -0.4275 -0.9844 -0.4386
14994SOL    HW246424   7.024   4.512  10.340 -0.5660  0.2221  0.9630
14995SOL     OW46425   5.554   6.587   2.864 -0.5554  0.0859 -0.2522
14995SOL    HW146426   5.578   6.496   2.848 -1.0572 -0.3368  1.2401
14995SOL    HW246427   5.511   6.586   2.950  0.0155  1.8371  0.0968
14996SOL     OW46428   1.841   6.741   0.039 -0.1313  0.0750  0.1135
14996SOL    HW146429   1.809   6.826   0.066  0.3518 -0.0429  1.1099
14996SOL    HW246430   1.819   6.735  -0.054 -0.1057  1.3046  0.0162
14997SOL     OW46431   4.404   6.951   4.394  0.5538  0.0155  0.4979
14997SOL    HW146432   4.486   6.927   4.350  1.8533  2.5224  1.3795
14997SOL    HW246433   4.354   6.997   4.327  0.6555  0.0382  0.4365
14998SOL     OW46434   3.287   0.479   4.053  0.1391  0.1288 -0.2778
14998SOL    HW146435   3.356   0.460   4.117 -0.3579  0.5840  0.4065
14998SOL    HW246436   3.333   0.488   3.969  0.9031  0.3840  0.1621
14999SOL     OW46437   5.591   5.353   7.480  0.0351  0.5076  0.0785
14999SOL    HW146438   5.505   5.332   7.516  1.0728 -1.2957  1.7864
14999SOL    HW246439   5.593   5.448   7.476 -1.2535  0.6948  2.1791
15000SOL     OW46440   0.455   4.948   3.651  0.0658 -0.0156  0.4393
15000SOL    HW146441   0.365   4.966   3.625  0.1235 -0.7003 -0.2665
15000SOL    HW246442   0.447   4.891   3.728 -0.0961  0.5485  0.8498
15001SOL     OW46443   3.601   5.096   3.523 -0.2585  0.4221 -0.3599
15001SOL    HW146444   3.548   5.047   3.459  2.6445 -0.8361 -1.9980
15001SOL    HW246445   3.661   5.148   3.469  1.2301  0.5613  1.3407
15002SOL     OW46446   3.017   2.092   9.846 -0.0487  0.2329  0.6977
15002SOL    HW146447   2.989   2.182   9.859  0.0380  0.5076 -0.8466
15002SOL    HW246448   2.963   2.041   9.906 -0.0752  1.3120  1.6053
15003SOL     OW46449   4.632   5.689  10.819  0.3142 -0.3443 -0.2154
15003SOL    HW146450   4.691   5.751  10.775  1.4944 -0.5390  1.0112
15003SOL    HW246451   4.600   5.737  10.896  2.2527 -1.5609  1.4783
15004SOL     OW46452   7.194   7.225   3.573  0.5381  0.0688 -0.2351
15004SOL    HW146453   7.273   7.221   3.519  0.4764  0.5858 -0.3635
15004SOL    HW246454   7.173   7.318   3.579  0.6339  0.0268  0.8149
15005SOL     OW46455   2.737   6.320   8.896 -0.0746 -0.6039  0.1965
15005SOL    HW146456   2.654   6.279   8.872 -1.2027  2.4064 -1.6424
15005SOL    HW246457   2.714   6.382   8.965  0.8445 -0.4093  0.3377
15006SOL     OW46458   2.560   4.587   2.567 -0.3450 -0.2185  0.1054
15006SOL    HW146459   2.492   4.647   2.537 -0.2792 -0.1852  0.0239
15006SOL    HW246460   2.558   4.515   2.504  1.7862  1.2203 -1.7470
15007SOL     OW46461   7.674   5.579   3.850 -0.1664  0.5055  0.2716
15007SOL    HW146462   7.769   5.579   3.844 -0.1250 -1.6565  0.2531
15007SOL    HW246463   7.655   5.623   3.933  0.8791  0.3034  0.6306
15008SOL     OW46464   0.092   6.757  11.450 -0.2951  0.3321  0.1226
15008SOL    HW146465   0.118   6.831  11.396 -2.6166  1.2914  0.2006
15008SOL    HW246466   0.113   6.785  11.540  0.2218  0.2605  0.0249
15009SOL     OW46467   6.023   4.472  12.199  0.6340 -1.1623  0.5731
15009SOL    HW146468   5.935   4.503  12.179  1.1349 -0.2777 -0.3621
15009SOL    HW246469   6.034   4.394  12.145  0.8120 -0.6309 -0.1741
15010SOL     OW46470   2.064   2.575   4.984  0.3370  0.7494 -0.1207
15010SOL    HW146471   1.983   2.534   5.015  0.4606  1.1943  0.8050
15010SOL    HW246472   2.034   2.655   4.940  0.3101  1.3788  0.9993
15011SOL     OW46473   5.815   0.971  11.135 -0.4845  0.3068 -0.2683
15011SOL    HW146474   5.728   0.934  11.123 -0.4442 -0.1672  0.7628
15011SOL    HW246475   5.818   0.993  11.228  0.3261  0.7711 -0.3978
15012SOL     OW46476   4.103   1.292   5.588  0.5035  0.5746 -0.6327
15012SOL    HW146477   4.033   1.239   5.549  1.1823  0.1558 -1.2967
15012SOL    HW246478   4.057   1.364   5.630 -0.3741 -0.0204 -0.5382
15013SOL     OW46479   1.119   6.517   4.230 -0.1060  0.5053 -0.0160
15013SOL    HW146480   1.057   6.528   4.158  1.4751  0.6989 -1.3954
15013SOL    HW246481   1.071   6.464   4.295 -0.9361 -1.3744 -2.0282
15014SOL     OW46482   7.891   1.105  10.343 -0.0817  0.7284  0.5969
15014SOL    HW146483   7.866   1.162  10.270 -1.8959 -1.1740 -0.3565
15014SOL    HW246484   7.920   1.166  10.412 -1.4237  2.7717 -0.5393
15015SOL     OW46485   7.266   4.310   0.247 -0.1122 -1.0720 -0.0147
15015SOL    HW146486   7.235   4.276   0.163  0.5953 -3.2167  0.5257
15015SOL    HW246487   7.209   4.267   0.312 -1.2307  1.2231  0.6020
15016SOL     OW46488   7.366   5.237   2.433 -0.4498 -0.0828  0.2651
15016SOL    HW146489   7.358   5.299   2.360  0.9970  0.1187  0.2423
15016SOL    HW246490   7.321   5.158   2.403 -0.0741  0.0778 -0.7633
15017SOL     OW46491   2.364   0.385  12.364  0.0496  0.2711  0.4328
15017SOL    HW146492   2.447   0.398  12.410 -0.5516 -1.8522  2.2693
15017SOL    HW246493   2.309   0.457  12.392  0.9249  1.1525 -0.0413
15018SOL     OW46494   5.609   0.128   8.005  0.0301  0.2650 -0.2403
15018SOL    HW146495   5.667   0.160   8.074  0.3355  0.5451 -0.6224
15018SOL    HW246496   5.532   0.095   8.052  0.5863 -0.3151  0.2823
15019SOL     OW46497   7.000   4.935   6.672  0.0812 -0.4436  0.3300
15019SOL    HW146498   7.036   4.922   6.584 -0.2735 -0.6858  0.2152
15019SOL    HW246499   6.984   4.846   6.705  0.0889 -0.3505  0.5874
15020SOL     OW46500   7.742   1.716   3.644  0.1843 -0.4760  0.4215
15020SOL    HW146501   7.728   1.687   3.734  0.4907 -2.0340  0.0072
15020SOL    HW246502   7.756   1.811   3.650 -0.2394 -0.4963  1.9490
15021SOL     OW46503   3.519   5.512   4.582  0.0309 -0.4286  0.1844
15021SOL    HW146504   3.596   5.538   4.532  0.1079 -0.2843  0.3732
15021SOL    HW246505   3.447   5.515   4.519 -0.5506  3.2107  0.7774
15022SOL     OW46506   3.884   1.009  10.638 -0.4757 -0.2222  0.5063
15022SOL    HW146507   3.914   0.932  10.686  0.0272 -0.4990 -0.2240
15022SOL    HW246508   3.951   1.022  10.571  0.6299  2.1504  1.9292
15023SOL     OW46509   5.257   2.968   3.588 -0.1387  0.5759  0.3367
15023SOL    HW146510   5.312   3.016   3.650  0.1252 -0.7892  1.1940
15023SOL    HW246511   5.297   2.881   3.582 -1.7432 -0.2019  0.3680
15024SOL     OW46512   3.635   6.401   2.033  0.4173  0.8988  0.3220
15024SOL    HW146513   3.557   6.451   2.057  0.7373  1.5665  0.0308
15024SOL    HW246514   3.696   6.415   2.106 -0.4048 -1.2039  1.4703
15025SOL     OW46515   0.368   5.317   3.196 -0.1265 -0.1206  0.2838
15025SOL    HW146516   0.303   5.282   3.135  0.2802  0.7300 -0.6717
15025SOL    HW246517   0.389   5.403   3.162  1.3188 -0.2698  0.7095
15026SOL     OW46518   3.669   7.362   0.133 -0.1407 -0.4409  0.3628
15026SOL    HW146519   3.620   7.297   0.082  0.0093 -0.9588  0.8628
15026SOL    HW246520   3.683   7.435   0.072 -1.6897 -0.1938  0.2818
15027SOL     OW46521   1.155   5.776  11.498  0.3657 -0.3626 -0.3582
15027SOL    HW146522   1.066   5.796  11.527  0.2749 -0.2150 -0.7378
15027SOL    HW246523   1.144   5.710  11.430  0.5155 -0.0052 -0.7322
15028SOL     OW46524   1.598   4.424   9.461  0.0381  0.0248  0.3291
15028SOL    HW146525   1.643   4.346   9.427  0.7431  0.4514  0.2636
15028SOL    HW246526   1.631   4.496   9.408 -2.1456  0.1254 -0.9993
15029SOL     OW46527   5.924   1.739   1.881  0.2864 -0.6641 -0.2960
15029SOL    HW146528   5.967   1.655   1.864  1.5071 -0.2294  0.4863
15029SOL    HW246529   5.848   1.739   1.823  0.6769 -1.9878 -0.8540
15030SOL     OW46530   1.386   7.784   9.676 -0.8066 -0.5186 -0.8543
15030SOL    HW146531   1.414   7.785   9.767  0.5492  2.4732 -1.1990
15030SOL    HW246532   1.291   7.797   9.679 -0.7757 -0.4715  0.1251
15031SOL     OW46533   0.510   5.324  11.647 -0.0060  0.2701 -0.4929
15031SOL    HW146534   0.516   5.414  11.680  2.0054 -0.5304  1.5957
15031SOL    HW246535   0.478   5.273  11.721  3.6003 -1.4183  0.1158
15032SOL     OW46536   7.746   3.742   4.457  0.1337  0.1888  0.3510
15032SOL    HW146537   7.840   3.726   4.458 -0.1811 -1.9734  0.4594
15032SOL    HW246538   7.722   3.735   4.364  0.1743  1.6060  0.2103
15033SOL     OW46539   1.338   6.105   9.306 -0.6307  0.3170 -0.3035
15033SOL    HW146540   1.263   6.064   9.349 -0.1919  1.2088  1.4003
15033SOL    HW246541   1.316   6.198   9.302  0.5939  0.6856  0.7583
15034SOL     OW46542   1.599   5.872   6.927 -0.6913 -0.1641 -0.1108
15034SOL    HW146543   1.570   5.781   6.921  0.9606 -0.6658 -1.2360
15034SOL    HW246544   1.552   5.917   6.857 -0.9882 -0.3073 -0.0024
15035SOL     OW46545   5.964   6.622   0.414 -0.4934  0.2963  0.2225
15035SOL    HW146546   5.893   6.647   0.473  0.2302 -1.3375  1.8842
15035SOL    HW246547   6.040   6.612   0.471  1.0314  1.6525 -1.4543
15036SOL     OW46548   2.045   0.048   8.271  0.2788 -0.5496 -0.1005
15036SOL    HW146549   2.022  -0.018   8.205  0.4593  0.0526 -0.7688
15036SOL    HW246550   2.131   0.080   8.245  0.3382 -0.2794  0.4096
15037SOL     OW46551   6.882   7.626  11.330  0.0451  0.1539  0.2266
15037SOL    HW146552   6.841   7.577  11.258  0.6611  0.1913 -0.1578
15037SOL    HW246553   6.811   7.679  11.366 -0.7466 -1.3236  0.9417
15038SOL     OW46554   5.585   2.775   8.311 -0.5673  0.3419  0.2880
15038SOL    HW146555   5.597   2.869   8.326 -3.2318  0.7861  0.0415
15038SOL    HW246556   5.581   2.766   8.215 -0.1960 -0.0465  0.3069
15039SOL     OW46557   0.353   6.523   1.788  0.9164 -0.1366 -0.0072
15039SOL    HW146558   0.412   6.577   1.842  0.6013  1.3387 -1.0741
15039SOL    HW246559   0.265   6.555   1.810  0.4394 -2.3865  1.6430
15040SOL     OW46560   7.517   2.296   4.559  0.0163  0.0173 -0.1008
15040SOL    HW146561   7.455   2.297   4.486  0.3464 -3.3179 -0.5776
15040SOL    HW246562   7.488   2.223   4.614  2.4111 -0.4647  0.6474
15041SOL     OW46563   5.943   2.680  11.899  0.0945 -0.4430 -0.2523
15041SOL    HW146564   5.980   2.756  11.943  0.8902 -1.1958  0.3993
15041SOL    HW246565   5.852   2.677  11.929 -0.3000  0.9275 -1.2116
15042SOL     OW46566   2.711   5.357   5.804 -0.5018  0.3023 -0.0094
15042SOL    HW146567   2.677   5.349   5.893 -0.7615 -0.2522 -0.1569
15042SOL    HW246568   2.760   5.440   5.804  1.1282 -0.6058  1.1821
15043SOL     OW46569   6.754   7.870   3.781 -0.8998  0.4434  0.3114
15043SOL    HW146570   6.817   7.939   3.799 -0.1093  0.0425 -0.7800
15043SOL    HW246571   6.797   7.815   3.715 -1.7455 -0.7529  0.7136
15044SOL     OW46572   5.476   0.736   0.693 -0.3994 -0.0374 -0.4391
15044SOL    HW146573   5.426   0.717   0.773  0.0181  2.7178  0.5820
15044SOL    HW246574   5.567   0.718   0.717 -0.0279  2.5684  0.4632
15045SOL     OW46575   3.177   3.361   5.446  0.1738  0.8484  0.0014
15045SOL    HW146576   3.141   3.446   5.421  0.3071  0.1891 -2.6946
15045SOL    HW246577   3.113   3.325   5.507 -0.1468  2.6264  0.7644
15046SOL     OW46578   5.548   4.704   6.172 -0.3765 -0.3580 -0.2128
15046SOL    HW146579   5.485   4.720   6.243 -0.5072  0.9212 -0.5859
15046SOL    HW246580   5.567   4.792   6.138  0.7096 -0.8393 -0.8811
15047SOL     OW46581   1.386   0.346   4.068 -0.0248  0.3556 -0.4772
15047SOL    HW146582   1.448   0.304   4.008  1.6076  0.4678  1.0396
15047SOL    HW246583   1.383   0.437   4.039 -0.9889 -0.0458 -1.7212
15048SOL     OW46584   7.535   7.793   2.851 -0.5813 -0.1207 -0.0452
15048SOL    HW146585   7.491   7.729   2.795 -0.2941  0.9597 -1.5876
15048SOL    HW246586   7.466   7.852   2.880 -0.3620  1.0928 -1.8000
15049SOL     OW46587   4.619   6.861   8.695 -0.0804  0.1001  0.0636
15049SOL    HW146588   4.620   6.789   8.758 -1.1788 -0.4906 -0.5556
15049SOL    HW246589   4.711   6.887   8.687  0.1630 -0.2913  1.3481
15050SOL     OW46590   2.156   0.764   3.899 -0.1061  0.1948 -0.4933
15050SOL    HW146591   2.197   0.844   3.864  1.5356  0.2024  1.2881
15050SOL    HW246592   2.143   0.783   3.992  1.0463 -1.8515  0.1479
15051SOL     OW46593   4.985   2.074   9.975  0.2967  0.1298  0.4850
15051SOL    HW146594   5.031   1.993  10.000  0.2308 -0.4706 -1.1922
15051SOL    HW246595   4.893   2.057   9.995  0.3639  0.0056  0.6831
15052SOL     OW46596   1.394   5.340   6.990  0.0006 -0.3660 -0.6884
15052SOL    HW146597   1.447   5.395   6.931  0.9543  1.1578  1.4303
15052SOL    HW246598   1.307   5.341   6.952 -0.0211  2.6977 -0.8364
15053SOL     OW46599   5.973   0.637   4.641 -0.0218  0.2910  0.1350
15053SOL    HW146600   5.896   0.625   4.696  0.5007  0.6521  0.9531
15053SOL    HW246601   6.040   0.582   4.680  0.5401  1.0386  0.2544
15054SOL     OW46602   3.747   3.685   4.880 -0.4877 -0.2554 -0.0042
15054SOL    HW146603   3.693   3.687   4.959  0.7267 -1.1948  0.9015
15054SOL    HW246604   3.697   3.635   4.816 -0.9743 -0.5404  0.5957
15055SOL     OW46605   3.935   7.127   6.763 -0.0651 -0.0966  0.4940
15055SOL    HW146606   3.908   7.203   6.712 -0.9122  0.0727  1.1840
15055SOL    HW246607   4.000   7.161   6.825 -0.6000  0.1106  0.9456
15056SOL     OW46608   0.604   3.061   4.862  0.5087 -0.3915  0.0259
15056SOL    HW146609   0.635   3.102   4.943  1.0505 -0.5678 -0.0903
15056SOL    HW246610   0.520   3.022   4.886 -0.7056  1.9258 -0.1890
15057SOL     OW46611   1.685   0.319   5.012 -0.1194 -0.0583 -0.2277
15057SOL    HW146612   1.727   0.320   4.926  0.4990 -2.0001  0.0198
15057SOL    HW246613   1.599   0.281   4.997 -0.4776  0.6970 -0.1574
15058SOL     OW46614   2.724   0.184  12.020 -0.1344 -0.1734  0.1893
15058SOL    HW146615   2.733   0.176  11.926  0.6491 -1.7254  0.3742
15058SOL    HW246616   2.768   0.266  12.041 -0.3309  0.1946 -0.7769
15059SOL     OW46617   6.396   1.749   2.082 -0.3065  0.0866 -0.2011
15059SOL    HW146618   6.488   1.775   2.092 -0.5291  0.8975 -0.1832
15059SOL    HW246619   6.396   1.687   2.010  0.4258 -0.8364  0.5727
15060SOL     OW46620   0.399   7.263   5.865 -0.1058 -1.0039 -0.1717
15060SOL    HW146621   0.407   7.273   5.770  0.9073  1.7232  0.0988
15060SOL    HW246622   0.305   7.253   5.880 -0.5444  0.7478 -1.3818
15061SOL     OW46623   2.944   0.389  12.144  0.2678 -1.0199 -0.3619
15061SOL    HW146624   3.027   0.404  12.098 -0.2944 -0.2823 -1.1660
15061SOL    HW246625   2.887   0.460  12.115 -0.4416 -1.1254  0.7064
15062SOL     OW46626   4.372   3.500   3.843 -0.2536 -0.4678  0.0605
15062SOL    HW146627   4.359   3.516   3.937  1.5463 -0.7783  0.4033
15062SOL    HW246628   4.314   3.428   3.823 -0.4407 -0.6061  1.0220
15063SOL     OW46629   2.139   5.407  10.409 -0.1689 -0.2247 -0.3063
15063SOL    HW146630   2.221   5.383  10.364 -0.8125 -1.4495 -0.8701
15063SOL    HW246631   2.091   5.325  10.416 -0.8858  0.2908  1.0163
15064SOL     OW46632   5.912   5.298   8.598  0.3730 -0.3624 -0.3846
15064SOL    HW146633   5.855   5.223   8.616 -0.6157  0.7038  1.0708
15064SOL    HW246634   6.000   5.259   8.590  0.2503 -1.4820  2.5396
15065SOL     OW46635   1.419   4.133  11.599 -0.7598 -0.1452 -0.2409
15065SOL    HW146636   1.388   4.160  11.685  0.1789  1.1312 -0.2772
15065SOL    HW246637   1.358   4.064  11.572 -0.3444 -1.4606  1.9545
15066SOL     OW46638   3.719   2.953   2.997 -0.1923 -0.8464  0.3883
15066SOL    HW146639   3.699   3.043   2.974 -1.9557 -1.1999  0.3766
15066SOL    HW246640   3.692   2.902   2.920 -2.4789 -1.6625  1.6215
15067SOL     OW46641   5.347   2.032   8.189 -0.2722 -0.8596 -0.8493
15067SOL    HW146642   5.441   2.015   8.188 -0.1233 -0.0674 -1.8938
15067SOL    HW246643   5.314   1.983   8.114 -0.8054 -1.6653 -0.1047
15068SOL     OW46644   3.329   7.547   4.654  0.2162 -0.1407 -0.3387
15068SOL    HW146645   3.408   7.592   4.682 -0.2876  1.8568 -1.9110
15068SOL    HW246646   3.279   7.534   4.736  2.0892 -1.4402  0.6665
15069SOL     OW46647   6.566   4.682   3.801 -0.2057 -0.0407  0.0126
15069SOL    HW146648   6.494   4.620   3.796 -0.6194  0.5289 -1.9730
15069SOL    HW246649   6.524   4.767   3.810  0.3232  0.0850  1.5512
15070SOL     OW46650   7.376   6.988   9.740 -0.4565  0.8864  0.2470
15070SOL    HW146651   7.357   6.894   9.746 -2.8420  1.2342 -1.0218
15070SOL    HW246652   7.387   7.015   9.831  0.2447 -0.5876  0.6390
15071SOL     OW46653   2.632   5.560  11.904  0.2634 -0.1865  0.2653
15071SOL    HW146654   2.668   5.529  11.987  0.5591 -1.6508 -0.3841
15071SOL    HW246655   2.539   5.538  11.908 -0.0510  1.1073  0.7984
15072SOL     OW46656   2.716   2.849  10.742 -0.0028 -0.1201 -0.4174
15072SOL    HW146657   2.669   2.791  10.802 -1.5140  1.0486 -0.4345
15072SOL    HW246658   2.770   2.790  10.689  0.8170 -1.2520  1.5561
15073SOL     OW46659   5.390   2.410   4.622 -0.1066 -0.0179  0.1435
15073SOL    HW146660   5.303   2.441   4.649  0.8480  4.6404 -1.2449
15073SOL    HW246661   5.376   2.372   4.535 -0.7097  2.0578 -0.7429
15074SOL     OW46662   3.813   6.915   8.473 -0.1045  0.5481 -0.5148
15074SOL    HW146663   3.756   6.986   8.503  0.8816  0.7055  1.0838
15074SOL    HW246664   3.766   6.835   8.500  0.4305  0.6782  0.8745
15075SOL     OW46665   6.418   5.746   1.815 -0.0298 -0.8211  0.0702
15075SOL    HW146666   6.408   5.654   1.839 -0.4747 -0.2419  2.2785
15075SOL    HW246667   6.333   5.785   1.834  0.3817  0.2109 -0.1465
15076SOL     OW46668   5.475   4.795   7.171  0.1700  0.4628  0.7838
15076SOL    HW146669   5.415   4.736   7.126 -0.2000  1.3320  0.1179
15076SOL    HW246670   5.468   4.878   7.124  1.3642  0.7874  1.1378
15077SOL     OW46671   5.983   3.792   9.840  0.4843 -0.0909 -0.4691
15077SOL    HW146672   5.964   3.749   9.757 -1.5137 -1.6654  0.7101
15077SOL    HW246673   5.968   3.724   9.906  0.3243  1.5690  1.2847
15078SOL     OW46674   5.686   4.594   3.450  0.3682  0.5366  0.0802
15078SOL    HW146675   5.735   4.539   3.387 -1.5855 -0.6324 -0.5144
15078SOL    HW246676   5.746   4.605   3.523  1.8024 -0.1885 -0.9261
15079SOL     OW46677   4.278   1.502   1.397 -0.1523 -0.7370 -0.2068
15079SOL    HW146678   4.190   1.463   1.397 -0.3870 -0.2709  1.5639
15079SOL    HW246679   4.263   1.595   1.412  0.6666 -0.7351  0.6785
15080SOL     OW46680   7.495   7.212   7.753  0.0801  0.1492  0.2551
15080SOL    HW146681   7.546   7.292   7.756 -0.1520  0.2829  0.7407
15080SOL    HW246682   7.455   7.205   7.840 -1.4841  0.5452 -0.3927
15081SOL     OW46683   4.680   6.733  10.556  0.2109  0.4911  0.7199
15081SOL    HW146684   4.691   6.827  10.564  0.6110  0.4246  0.9852
15081SOL    HW246685   4.586   6.720  10.547  0.2324  0.9923 -0.3255
15082SOL     OW46686   5.421   7.303   4.929 -0.1223 -0.3616 -0.1042
15082SOL    HW146687   5.448   7.389   4.897 -0.7842 -0.6301 -1.4862
15082SOL    HW246688   5.502   7.261   4.957  0.2225  0.6513  0.4789
15083SOL     OW46689   1.854   5.352  11.434 -0.3310  0.6895  0.1238
15083SOL    HW146690   1.941   5.312  11.437 -0.5837  0.1613  0.6108
15083SOL    HW246691   1.863   5.425  11.373  0.0618 -0.3124 -1.0728
15084SOL     OW46692   1.524   2.298   3.741  0.3193 -0.7288  0.6278
15084SOL    HW146693   1.565   2.353   3.675  1.1184  0.1362  1.8212
15084SOL    HW246694   1.430   2.303   3.722  0.6148 -1.7644 -1.3864
15085SOL     OW46695   6.402   1.521   7.447  0.1970  0.0152  0.2406
15085SOL    HW146696   6.430   1.430   7.439 -0.4965 -0.1450 -0.4907
15085SOL    HW246697   6.470   1.563   7.499  0.7952 -0.7970  0.1241
15086SOL     OW46698   6.485   2.101   2.005 -0.3807 -0.0666 -0.5632
15086SOL    HW146699   6.538   2.078   2.082 -0.7810  1.3983  0.1980
15086SOL    HW246700   6.417   2.034   2.002  1.0168 -1.5260 -1.0942
15087SOL     OW46701   1.935   6.937   1.991 -0.3507  0.6101 -0.3213
15087SOL    HW146702   1.869   6.868   2.000 -0.6614  0.9206 -0.1631
15087SOL    HW246703   1.987   6.912   1.915 -0.9036  0.5599 -0.6893
15088SOL     OW46704   1.441   5.057   7.167 -0.2652 -0.5671  0.0687
15088SOL    HW146705   1.467   5.021   7.083  0.4241  0.5960 -0.2460
15088SOL    HW246706   1.362   5.009   7.191 -0.0367 -1.4380 -0.8700
15089SOL     OW46707   7.380   6.834   2.282 -0.4649  0.6580 -0.3097
15089SOL    HW146708   7.363   6.751   2.237 -2.0082  1.2701 -0.9158
15089SOL    HW246709   7.295   6.878   2.284  0.5817  2.8748 -1.3191
15090SOL     OW46710   5.693   0.750  10.632  0.1383 -0.2286 -0.3692
15090SOL    HW146711   5.729   0.661  10.632  0.5413 -0.0662 -0.4365
15090SOL    HW246712   5.766   0.806  10.606 -0.2618  0.0663 -0.8748
15091SOL     OW46713   0.687   3.578   1.738  0.3583 -0.7345  0.0403
15091SOL    HW146714   0.619   3.637   1.705 -0.1663 -2.0331 -1.3147
15091SOL    HW246715   0.659   3.491   1.710  2.0118 -1.4375  0.4480
15092SOL     OW46716   6.175   2.182   2.290  0.2602 -0.1308 -0.2163
15092SOL    HW146717   6.169   2.097   2.333 -0.0660  0.2783  0.5676
15092SOL    HW246718   6.107   2.235   2.332  0.9536  0.7351 -0.1631
15093SOL     OW46719   4.754   4.030   3.695  0.0404  0.1961  0.6143
15093SOL    HW146720   4.673   3.980   3.711  0.1825 -0.3665 -0.3335
15093SOL    HW246721   4.793   4.041   3.782  0.7994 -2.7493  0.7546
15094SOL     OW46722   3.273   6.405   8.656  0.0373 -0.2999 -0.6135
15094SOL    HW146723   3.233   6.323   8.625  0.9409 -1.0843  0.2283
15094SOL    HW246724   3.213   6.473   8.627 -2.2125 -1.4367  1.0284
15095SOL     OW46725   7.058   5.928   5.622 -0.0641 -0.3738 -0.3033
15095SOL    HW146726   7.087   5.934   5.713  1.9329 -1.7516 -0.7710
15095SOL    HW246727   7.128   5.878   5.578 -0.7791  0.5631 -2.6673
15096SOL     OW46728   7.806   2.753   2.042  0.1326  0.5013 -0.2995
15096SOL    HW146729   7.779   2.842   2.020 -1.7348  0.3517  1.1034
15096SOL    HW246730   7.726   2.711   2.076  1.6893 -0.6431  2.2598
15097SOL     OW46731   0.912   0.083   4.781  0.1470 -0.3152 -0.1816
15097SOL    HW146732   0.883   0.145   4.847 -0.0799 -1.0593  0.4303
15097SOL    HW246733   0.832   0.057   4.735 -0.0822 -1.7451  0.9657
15098SOL     OW46734   6.527   2.314   6.698  0.0914  0.1459 -0.1325
15098SOL    HW146735   6.486   2.259   6.631  0.7561 -0.8468  0.2439
15098SOL    HW246736   6.609   2.343   6.659  0.1947  0.0681  0.0248
15099SOL     OW46737   4.221   7.794   7.470 -0.5805  0.7827  0.9190
15099SOL    HW146738   4.247   7.885   7.454  1.2275 -0.0341 -1.3009
15099SOL    HW246739   4.295   7.756   7.518  0.2017 -0.2755 -1.0011
15100SOL     OW46740   6.217   4.300  10.563 -0.2502 -0.3926 -0.4445
15100SOL    HW146741   6.252   4.225  10.516 -1.6372  0.2940 -2.7521
15100SOL    HW246742   6.125   4.304  10.537 -1.4337 -0.4536  3.1052
15101SOL     OW46743   4.269   0.840   4.177  0.5751 -0.0629  0.6655
15101SOL    HW146744   4.225   0.827   4.093 -1.7778  0.6950  1.7106
15101SOL    HW246745   4.213   0.796   4.241  0.8890  1.6211  2.1820
15102SOL     OW46746   5.309   7.355   9.982 -0.0581 -0.5071 -0.4837
15102SOL    HW146747   5.224   7.329   9.944 -0.3340 -1.1967  0.5872
15102SOL    HW246748   5.349   7.273  10.009  1.9743 -0.4448 -2.9548
15103SOL     OW46749   2.373   2.262  11.478 -0.3511  0.0216  0.1003
15103SOL    HW146750   2.407   2.345  11.510  2.6495 -0.4952 -1.4514
15103SOL    HW246751   2.428   2.196  11.518 -2.9730 -1.4030  1.6716
15104SOL     OW46752   4.337   1.636   1.706  0.6356  0.2331  0.2770
15104SOL    HW146753   4.351   1.714   1.652 -0.9993  0.6940  0.4453
15104SOL    HW246754   4.244   1.615   1.695  1.3778 -2.8448 -1.2412
15105SOL     OW46755   3.518   0.993   1.909 -0.3775  0.5306  0.1039
15105SOL    HW146756   3.525   0.915   1.964  1.4706  1.1069  0.7455
15105SOL    HW246757   3.501   1.064   1.970 -0.2231  0.8964 -0.2735
15106SOL     OW46758   5.540   1.077   1.554  0.2860  0.1611 -0.4541
15106SOL    HW146759   5.558   1.071   1.460  1.6405 -0.7207 -0.1652
15106SOL    HW246760   5.553   1.170   1.575  2.1121  0.0163 -0.7644
15107SOL     OW46761   3.134   6.047   5.686 -0.0408  0.2750 -0.3821
15107SOL    HW146762   3.126   6.077   5.596  0.0406  1.9566  0.1305
15107SOL    HW246763   3.198   6.106   5.726  0.2294 -0.6883  0.6782
15108SOL     OW46764   1.439   1.635   8.836 -0.0477 -0.7479 -0.0532
15108SOL    HW146765   1.428   1.633   8.931  1.1105  0.7918  0.1376
15108SOL    HW246766   1.532   1.618   8.821  0.3737  1.7332 -0.7092
15109SOL     OW46767   6.415   4.780   4.198  0.3630  0.8742  0.2413
15109SOL    HW146768   6.400   4.874   4.207  0.3935  0.8222  0.8990
15109SOL    HW246769   6.344   4.740   4.249 -0.6025  0.4957 -1.3185
15110SOL     OW46770   3.633   6.584   3.197 -0.2478 -0.2088 -0.1171
15110SOL    HW146771   3.686   6.664   3.187 -1.1684  0.4645  0.1964
15110SOL    HW246772   3.568   6.590   3.127 -0.2586 -0.7342 -0.1503
15111SOL     OW46773   6.783   7.510   2.303 -0.0773 -0.0854  0.1144
15111SOL    HW146774   6.828   7.492   2.220 -1.2230  1.2862 -0.8577
15111SOL    HW246775   6.819   7.594   2.332 -2.2052  1.2797 -0.9206
15112SOL     OW46776   4.179   3.330   1.521 -0.0822 -0.0878  0.2603
15112SOL    HW146777   4.245   3.284   1.469 -1.1765 -0.6763 -0.6702
15112SOL    HW246778   4.223   3.351   1.603  1.5884  0.5035 -0.7271
15113SOL     OW46779   4.071   6.226   9.438  0.0088 -0.7564  0.5268
15113SOL    HW146780   4.038   6.310   9.469 -0.8359 -1.3105  1.1912
15113SOL    HW246781   4.017   6.206   9.361  1.1146 -0.0737 -0.4526
15114SOL     OW46782   0.060   1.191   4.468  0.4736  0.4010  0.3769
15114SOL    HW146783   0.074   1.264   4.527  1.7361  0.5256 -0.0501
15114SOL    HW246784   0.092   1.114   4.516 -0.2680  0.2090  0.5805
15115SOL     OW46785   7.178   7.413   0.677  0.3679 -0.0551 -0.7595
15115SOL    HW146786   7.130   7.340   0.639  0.0772 -1.1306  1.5103
15115SOL    HW246787   7.249   7.372   0.727 -1.1122  0.9737  2.3986
15116SOL     OW46788   5.190   2.221  12.037  0.1117 -0.2506 -0.3395
15116SOL    HW146789   5.160   2.132  12.055 -0.1000 -0.5232 -1.9140
15116SOL    HW246790   5.110   2.272  12.027  0.2014 -0.2210 -0.9675
15117SOL     OW46791   3.899   2.770   2.872  0.3273 -0.1566 -0.2467
15117SOL    HW146792   3.885   2.826   2.948  1.8531  1.5468 -1.1271
15117SOL    HW246793   3.820   2.781   2.819  0.1145  0.2538  0.1490
15118SOL     OW46794   1.542   7.434   9.363 -0.1666 -0.3598 -0.4265
15118SOL    HW146795   1.558   7.457   9.454  0.5489 -2.1983 -0.0571
15118SOL    HW246796   1.529   7.519   9.319 -0.1693  0.5713  1.2896
15119SOL     OW46797   6.717   7.428  12.153  0.0425  0.0089 -0.3674
15119SOL    HW146798   6.676   7.475  12.226 -1.3802  2.1667 -2.4117
15119SOL    HW246799   6.738   7.342  12.189 -1.6041  0.5881  2.2651
15120SOL     OW46800   6.650   4.257   0.575 -0.1989 -0.3106 -0.4206
15120SOL    HW146801   6.691   4.225   0.494  0.1502  1.6244 -1.0605
15120SOL    HW246802   6.570   4.301   0.546 -1.6423 -2.1010  0.6189
15121SOL     OW46803   3.528   4.818   2.484 -1.0148 -0.0671  0.1646
15121SOL    HW146804   3.560   4.872   2.556  0.0941  0.3228 -0.5926
15121SOL    HW246805   3.444   4.856   2.460 -0.2011  1.4408 -0.4460
15122SOL     OW46806   3.288   3.687   5.198 -0.1391 -0.0667  0.0306
15122SOL    HW146807   3.228   3.684   5.273 -1.2087  2.2035 -0.6291
15122SOL    HW246808   3.246   3.633   5.132  1.2027 -2.7411  1.2320
15123SOL     OW46809   1.111   7.321   5.666  0.6647 -0.5313 -0.3179
15123SOL    HW146810   1.096   7.400   5.719 -0.8336  0.6897 -2.4109
15123SOL    HW246811   1.205   7.325   5.645  0.5299  0.9723 -0.7624
15124SOL     OW46812   3.159   2.060   3.685  0.4937  0.0871  0.1333
15124SOL    HW146813   3.246   2.077   3.722  0.6229  1.5505 -0.7669
15124SOL    HW246814   3.100   2.067   3.760  1.0125  0.5155  0.5142
15125SOL     OW46815   5.977   0.578   5.732  0.0037  0.0570  0.1305
15125SOL    HW146816   6.047   0.528   5.690 -0.6117  0.0931 -1.0012
15125SOL    HW246817   6.023   0.642   5.787  0.8071 -1.1474  0.9005
15126SOL     OW46818   4.363   4.190   7.490  0.6409 -0.0866 -0.3940
15126SOL    HW146819   4.294   4.206   7.554  1.1832 -0.1401  0.2178
15126SOL    HW246820   4.341   4.246   7.416 -0.7528 -1.0547 -0.7530
15127SOL     OW46821   5.904   7.043   9.845  0.0525 -0.2887 -0.5013
15127SOL    HW146822   5.975   7.055   9.781  0.5156  1.3880  0.2739
15127SOL    HW246823   5.825   7.034   9.792  0.7374 -1.5023 -1.3605
15128SOL     OW46824   2.783   7.376   6.711  0.0810  0.7158  0.1179
15128SOL    HW146825   2.763   7.304   6.772  2.6236  1.0202  1.4489
15128SOL    HW246826   2.848   7.429   6.758  0.8588  1.9335 -2.2048
15129SOL     OW46827   5.279   2.684   2.959  0.5128 -0.2253  0.0760
15129SOL    HW146828   5.333   2.762   2.946  0.1374  0.0277  0.0424
15129SOL    HW246829   5.270   2.646   2.872  1.3596 -0.7501  0.2071
15130SOL     OW46830   3.817   7.044   8.225 -0.2100  0.2473 -0.3073
15130SOL    HW146831   3.810   6.999   8.310 -0.6000  1.2745  0.2209
15130SOL    HW246832   3.855   7.129   8.247 -0.8528  0.7431 -1.0923
15131SOL     OW46833   2.887   1.721  10.412 -0.4093  0.4991  0.3230
15131SOL    HW146834   2.891   1.750  10.504 -0.3390 -2.4389  1.3616
15131SOL    HW246835   2.801   1.680  10.404 -0.5894  1.1166 -1.0801
15132SOL     OW46836   6.611   2.515  11.057  0.7651  0.4748 -0.4505
15132SOL    HW146837   6.697   2.478  11.037  0.9604  0.2152  0.7867
15132SOL    HW246838   6.550   2.461  11.006  1.2812  0.2213 -0.8095
15133SOL     OW46839   3.444   2.961   6.137  0.7977 -0.6199 -0.1393
15133SOL    HW146840   3.355   2.935   6.161  1.3634 -1.0073  1.7560
15133SOL    HW246841   3.434   3.011   6.056 -1.1543 -0.4646  0.1444
15134SOL     OW46842   0.837   2.985   2.560  0.3503  0.7845 -0.0058
15134SOL    HW146843   0.801   3.018   2.643  1.3063 -0.2282  0.8484
15134SOL    HW246844   0.826   2.890   2.566 -0.4613  0.7569 -1.4941
15135SOL     OW46845   0.553   1.592  10.147 -0.4450  0.1489  0.0753
15135SOL    HW146846   0.578   1.500  10.160 -0.6352  0.3253  2.0632
15135SOL    HW246847   0.504   1.614  10.226 -1.8479  1.5029 -1.1093
15136SOL     OW46848   3.881   4.613   5.017 -0.0149  0.3351 -0.4061
15136SOL    HW146849   3.903   4.705   5.030 -0.5522  0.2442  1.5009
15136SOL    HW246850   3.961   4.566   5.041  0.2001  0.2886 -1.1987
15137SOL     OW46851   4.534   7.870  11.424 -0.1759 -0.4707  0.2878
15137SOL    HW146852   4.567   7.931  11.359 -0.1679 -1.3677 -0.5672
15137SOL    HW246853   4.607   7.811  11.443 -0.4178 -0.7063  0.5132
15138SOL     OW46854   0.611   4.943   6.368 -0.0830  0.1263 -0.1834
15138SOL    HW146855   0.535   4.998   6.346 -0.0162 -0.0452 -0.8456
15138SOL    HW246856   0.657   4.993   6.436 -0.2392  0.7128 -0.4989
15139SOL     OW46857   6.878   6.253   0.661  0.1477 -0.0466 -0.6002
15139SOL    HW146858   6.875   6.287   0.572 -0.3645 -1.9048 -1.3387
15139SOL    HW246859   6.910   6.163   0.652 -0.3522 -0.4314  1.0185
15140SOL     OW46860   1.290   2.180   2.151 -0.0879  0.2523 -0.7768
15140SOL    HW146861   1.351   2.250   2.177 -0.4672  0.2316  0.2231
15140SOL    HW246862   1.313   2.161   2.060  1.4273  0.2289 -0.4232
15141SOL     OW46863   0.928   2.967  11.006 -0.7527 -0.2360 -0.3604
15141SOL    HW146864   0.960   2.890  10.959  1.0349  0.7510 -0.8786
15141SOL    HW246865   0.958   2.954  11.096 -1.9922 -0.9430 -0.0272
15142SOL     OW46866   2.162   0.527   1.545 -0.1000 -0.2732 -0.0010
15142SOL    HW146867   2.083   0.514   1.598  0.0709  0.7481  0.5386
15142SOL    HW246868   2.129   0.541   1.456 -0.4136 -1.6268 -0.1194
15143SOL     OW46869   1.927   1.512   9.705  0.0106  0.1329  0.1466
15143SOL    HW146870   1.998   1.570   9.678  0.9605 -1.0227  0.0838
15143SOL    HW246871   1.921   1.524   9.800 -0.2866  0.8565  0.0404
15144SOL     OW46872   6.519   2.304   5.796  0.4924 -0.4114  0.4397
15144SOL    HW146873   6.573   2.257   5.733  0.7531  0.3486  0.0895
15144SOL    HW246874   6.581   2.346   5.855  0.3521  1.3552 -0.6052
15145SOL     OW46875   0.333   1.192   4.722 -0.0215 -0.6172  0.4969
15145SOL    HW146876   0.373   1.261   4.668 -0.3051 -1.3495 -0.6870
15145SOL    HW246877   0.358   1.214   4.812  1.5705 -0.0740 -0.0451
15146SOL     OW46878   3.217   4.854  11.247 -0.1965  0.4418  0.3585
15146SOL    HW146879   3.190   4.945  11.261 -0.9277  0.5423 -1.3469
15146SOL    HW246880   3.310   4.860  11.225 -0.1155  0.7170  0.7663
15147SOL     OW46881   7.773   2.670   8.475  0.7037 -0.3636 -0.3378
15147SOL    HW146882   7.857   2.689   8.433  1.4503 -0.3490  1.1070
15147SOL    HW246883   7.708   2.692   8.408  1.8073  0.4974 -1.1786
15148SOL     OW46884   3.369   4.170   7.835  0.5857  0.1038 -0.5785
15148SOL    HW146885   3.397   4.239   7.774 -0.1330 -1.1039 -2.3640
15148SOL    HW246886   3.288   4.136   7.797  1.2263 -2.1201 -0.0889
15149SOL     OW46887   7.625   0.897   5.980 -0.6346  0.2274 -0.5761
15149SOL    HW146888   7.537   0.926   6.000 -0.7554 -0.9156  0.6280
15149SOL    HW246889   7.664   0.876   6.065  0.1106 -1.1796 -1.2299
15150SOL     OW46890   6.876   2.437  10.998  0.7491 -0.2863 -0.1171
15150SOL    HW146891   6.887   2.439  11.093  0.9620  0.7809 -0.1569
15150SOL    HW246892   6.898   2.347  10.973  2.9000  0.0119  0.5675
15151SOL     OW46893   4.805   3.836   4.398 -0.2683 -0.0263  0.0965
15151SOL    HW146894   4.804   3.930   4.419 -0.9675  0.1407 -0.5890
15151SOL    HW246895   4.767   3.794   4.475  0.3951  0.2137  0.5616
15152SOL     OW46896   7.031   6.118  10.695  0.0778 -0.4038 -0.4232
15152SOL    HW146897   6.967   6.179  10.734  0.5859 -0.4950  0.5713
15152SOL    HW246898   7.103   6.116  10.757  0.1123 -1.9594 -0.4853
15153SOL     OW46899   3.822   0.022   3.125  0.3252  0.3770  0.0646
15153SOL    HW146900   3.827  -0.033   3.047 -0.3885  1.8803 -1.0674
15153SOL    HW246901   3.845  -0.038   3.197  2.4170 -0.7251 -1.3910
15154SOL     OW46902   3.230   1.642   7.803 -0.3983  0.1046  0.3557
15154SOL    HW146903   3.316   1.604   7.784  0.5191  1.7328  1.0047
15154SOL    HW246904   3.238   1.676   7.892 -0.8812  2.3303 -0.3759
15155SOL     OW46905   7.691   0.615   3.774  0.1509  0.8591 -0.7196
15155SOL    HW146906   7.640   0.688   3.808 -0.0468  1.3726 -2.0779
15155SOL    HW246907   7.773   0.655   3.745 -0.2791  0.6818 -2.2112
15156SOL     OW46908   7.811   5.914  12.313  0.4066  0.6967  0.0801
15156SOL    HW146909   7.803   5.905  12.408  2.6491  1.4373  0.3989
15156SOL    HW246910   7.729   5.957  12.286  0.4737  2.1390  1.9470
15157SOL     OW46911   5.801   4.649   6.285  0.1795  0.3759 -0.5050
15157SOL    HW146912   5.741   4.611   6.348 -0.3990  0.8381 -0.7656
15157SOL    HW246913   5.745   4.689   6.219  0.7486 -0.7973 -1.7697
15158SOL     OW46914   2.544   5.018  10.610 -0.4653 -0.2833 -0.3725
15158SOL    HW146915   2.558   4.990  10.519  0.0398  0.2864 -0.4760
15158SOL    HW246916   2.580   5.107  10.613  0.3791 -0.6383  0.6105
15159SOL     OW46917   7.592   7.498   0.731 -0.5856 -0.0543 -0.6966
15159SOL    HW146918   7.504   7.516   0.701 -1.0200 -0.2291  0.4153
15159SOL    HW246919   7.584   7.421   0.787  0.8239 -2.2436 -3.2558
15160SOL     OW46920   1.576   0.060   3.897  0.3055 -0.0348  0.6241
15160SOL    HW146921   1.612   0.134   3.946 -1.9066  1.3024  0.3733
15160SOL    HW246922   1.564   0.094   3.808  0.1171 -0.9847  0.2777
15161SOL     OW46923   7.927   7.417   2.824  0.0148  0.3654  0.6987
15161SOL    HW146924   7.942   7.345   2.886 -1.6169  1.1981  2.1718
15161SOL    HW246925   8.001   7.476   2.837  0.9432 -0.6301  0.0677
15162SOL     OW46926   3.298   7.924   0.528 -0.4964 -0.4126  0.3188
15162SOL    HW146927   3.354   7.850   0.501  0.0904  0.7337 -1.8292
15162SOL    HW246928   3.233   7.885   0.586 -1.0680 -2.9308 -1.8219
15163SOL     OW46929   7.224   7.071   0.881  0.1306  0.1003  0.2170
15163SOL    HW146930   7.233   7.028   0.966  1.8870 -0.3591 -0.1647
15163SOL    HW246931   7.213   6.999   0.818  1.4163  0.2766 -0.2292
15164SOL     OW46932   3.594   0.846   6.071  0.5351  0.4583  0.1836
15164SOL    HW146933   3.521   0.792   6.040  1.4242  0.1012 -1.4208
15164SOL    HW246934   3.622   0.894   5.992  1.5380  1.1674  0.9523
15165SOL     OW46935   5.641   2.627   3.006 -0.0361  0.5120  0.2012
15165SOL    HW146936   5.582   2.558   2.975  1.7055 -0.8826 -0.2130
15165SOL    HW246937   5.671   2.671   2.927  2.0940 -1.0877  0.0196
15166SOL     OW46938   7.872   4.930  10.530 -0.0893 -0.3193  0.1070
15166SOL    HW146939   7.875   5.026  10.536  1.8846 -0.3715  0.5854
15166SOL    HW246940   7.944   4.908  10.471  0.1151 -1.5678  0.8047
15167SOL     OW46941   1.088   7.558   2.644 -0.2424  0.4110 -0.2665
15167SOL    HW146942   1.161   7.565   2.706  0.9073  0.0899 -1.5252
15167SOL    HW246943   1.081   7.645   2.606 -0.8810  0.5807  0.2220
15168SOL     OW46944   0.086   4.812   1.696 -0.2914  0.0866 -0.4510
15168SOL    HW146945   0.163   4.811   1.753  0.0050  2.5941 -0.6771
15168SOL    HW246946   0.029   4.743   1.730  0.7863  0.1211  1.5572
15169SOL     OW46947   3.707   0.076   2.236 -0.2451 -0.6546 -0.1980
15169SOL    HW146948   3.738   0.097   2.148  0.5022  0.1926  0.2446
15169SOL    HW246949   3.766   0.007   2.266 -1.3463 -1.9052 -0.8490
15170SOL     OW46950   3.398   7.028  11.780  0.4947  0.3140  0.1859
15170SOL    HW146951   3.418   6.948  11.829  0.1004  1.5227  2.4202
15170SOL    HW246952   3.483   7.072  11.770  0.3869  0.7466  1.0779
15171SOL     OW46953   3.333   4.550  10.417  0.2056 -0.8044 -0.7358
15171SOL    HW146954   3.412   4.556  10.471 -0.0785 -0.1635 -0.3795
15171SOL    HW246955   3.283   4.478  10.456 -1.4840  1.5862  1.9253
15172SOL     OW46956   5.048   4.765   6.910  0.1047 -0.1185  0.0309
15172SOL    HW146957   5.037   4.859   6.922  0.0290 -0.2639  1.2578
15172SOL    HW246958   4.996   4.744   6.832 -1.0389  0.6307  0.5636
15173SOL     OW46959   2.172   6.595  10.014 -0.3183 -0.6053  0.2481
15173SOL    HW146960   2.224   6.665  10.054  1.0822  0.0936 -2.5354
15173SOL    HW246961   2.151   6.536  10.086 -1.0783  2.3259  2.6498
15174SOL     OW46962   0.790   2.916   1.181  0.0531  0.0213  0.1249
15174SOL    HW146963   0.836   2.965   1.112 -2.4630 -0.5953 -2.1678
15174SOL    HW246964   0.722   2.976   1.210 -0.6451 -0.7309  0.0564
15175SOL     OW46965   6.959   0.069   3.547 -0.1637  0.6820  0.0998
15175SOL    HW146966   6.888   0.118   3.506  0.7933  2.2475  0.2400
15175SOL    HW246967   6.941   0.076   3.641 -0.2205  0.4362  0.1086
15176SOL     OW46968   0.787   2.671   9.303 -0.4309 -0.0122  0.5557
15176SOL    HW146969   0.754   2.587   9.332  2.9538 -1.9499 -0.5940
15176SOL    HW246970   0.840   2.703   9.376 -1.1262  0.8219  0.7170
15177SOL     OW46971   7.734   2.427   8.266  0.2552  0.7122  0.1622
15177SOL    HW146972   7.766   2.436   8.356 -0.8173  0.8045  0.5468
15177SOL    HW246973   7.792   2.361   8.226 -0.6435 -1.0481  1.6142
15178SOL     OW46974   3.221   1.742   8.896  0.3156 -0.2674  0.6213
15178SOL    HW146975   3.241   1.779   8.982  0.1700  0.0554  0.5197
15178SOL    HW246976   3.269   1.799   8.835  1.6087 -1.3581  0.5736
15179SOL     OW46977   7.622   0.813   9.715  0.4491 -0.9314  0.9067
15179SOL    HW146978   7.667   0.881   9.766 -0.3134 -0.4196  0.9014
15179SOL    HW246979   7.660   0.821   9.627  0.6559 -0.7904  1.0057
15180SOL     OW46980   7.084   7.091   9.513 -0.3723 -0.5709  0.2954
15180SOL    HW146981   7.017   7.023   9.502 -0.0963 -0.6256 -1.4476
15180SOL    HW246982   7.144   7.077   9.439 -0.7020  1.9835 -0.5794
15181SOL     OW46983   7.605   1.961   5.084  0.0984 -0.2503 -0.5375
15181SOL    HW146984   7.516   1.926   5.080 -0.4496  0.9612  0.4491
15181SOL    HW246985   7.646   1.913   5.157 -0.4180  0.6086  0.3389
15182SOL     OW46986   5.656   6.917   3.534  0.1149  0.0144 -0.1711
15182SOL    HW146987   5.644   6.823   3.549  0.6459 -0.3485 -1.9053
15182SOL    HW246988   5.684   6.950   3.619  1.3918 -1.6575  0.1115
15183SOL     OW46989   6.715   7.655   9.079  1.0062  0.3241 -0.0734
15183SOL    HW146990   6.767   7.728   9.044 -0.4257  2.3878  1.7753
15183SOL    HW246991   6.634   7.696   9.108 -0.4085 -2.2752 -0.0925
15184SOL     OW46992   6.836   3.153   5.175  0.1350 -0.3101 -0.1241
15184SOL    HW146993   6.776   3.097   5.224  0.7890 -0.0624  0.9931
15184SOL    HW246994   6.780   3.200   5.113 -0.5220 -1.6198 -0.5540
15185SOL     OW46995   0.264   4.611   1.868 -0.3375 -0.3386 -0.2156
15185SOL    HW146996   0.198   4.585   1.932 -0.1614  0.8157  0.4638
15185SOL    HW246997   0.325   4.538   1.865 -1.3161 -1.1687 -0.4069
15186SOL     OW46998   3.547   1.549   4.088  0.2203  0.1338 -0.0702
15186SOL    HW146999   3.479   1.583   4.030  0.7688  0.0582 -0.7762
15186SOL    HW247000   3.598   1.489   4.032  2.4912  2.1688 -0.3495
15187SOL     OW47001   0.060   0.906   4.907 -0.1199 -0.0731 -0.4245
15187SOL    HW147002  -0.025   0.887   4.947 -1.2165 -0.9911 -2.9679
15187SOL    HW247003   0.114   0.829   4.927 -0.2515  0.0098  0.2587
15188SOL     OW47004   6.843   2.443  12.325 -0.5463  0.6771  0.0612
15188SOL    HW147005   6.902   2.382  12.368 -0.5302  0.1247 -0.7238
15188SOL    HW247006   6.902   2.508  12.284 -0.5051  0.4857 -0.1866
15189SOL     OW47007   4.509   2.264   5.487 -0.4228 -0.0858  0.2315
15189SOL    HW147008   4.458   2.240   5.410 -1.3337  0.2412  0.7176
15189SOL    HW247009   4.592   2.217   5.477  0.7006  2.1849 -2.4092
15190SOL     OW47010   4.427   7.266   2.789  0.0063  0.1484  0.4478
15190SOL    HW147011   4.372   7.212   2.845 -0.6590 -2.0263 -2.0880
15190SOL    HW247012   4.366   7.309   2.729  0.8460 -0.8128 -1.1921
15191SOL     OW47013   4.127   5.053   1.614 -0.0913  0.4836 -0.5650
15191SOL    HW147014   4.164   5.141   1.624  0.1531  0.2324  1.0027
15191SOL    HW247015   4.033   5.065   1.626 -0.2777  0.7514 -2.0571
15192SOL     OW47016   1.108   0.484   4.683  0.0121 -0.6526  0.4620
15192SOL    HW147017   1.063   0.432   4.749 -0.0691  2.1030  2.7564
15192SOL    HW247018   1.185   0.518   4.728 -0.5518  2.1201 -0.4967
15193SOL     OW47019   5.423   5.947   9.971 -0.1571  0.1137 -0.9198
15193SOL    HW147020   5.492   5.886   9.998 -0.2157  0.5095  0.1528
15193SOL    HW247021   5.344   5.916  10.014 -0.4975  0.1260 -1.5171
15194SOL     OW47022   5.229   4.011  10.213 -0.0528 -0.1535 -0.4065
15194SOL    HW147023   5.228   4.065  10.293 -0.5023 -1.5110  0.5288
15194SOL    HW247024   5.140   4.017  10.180  0.5077  1.7087 -1.7577
15195SOL     OW47025   6.682   2.035  10.618  0.0242  0.1124 -0.1390
15195SOL    HW147026   6.681   1.960  10.558  0.7773  0.5429 -0.7087
15195SOL    HW247027   6.619   2.097  10.580 -1.7206 -0.7906  1.1188
15196SOL     OW47028   2.254   6.840   2.994  0.4681  0.1269 -0.1139
15196SOL    HW147029   2.329   6.898   2.982 -1.0601  2.1256 -0.4714
15196SOL    HW247030   2.217   6.831   2.906  0.5485 -1.2735 -0.0330
15197SOL     OW47031   2.682   5.825   5.394  0.5136  0.3984  0.1437
15197SOL    HW147032   2.671   5.903   5.339  2.3044 -0.2797 -1.2798
15197SOL    HW247033   2.745   5.851   5.461  0.4501  0.4275  0.1919
15198SOL     OW47034   6.823   4.742   1.945 -0.5042 -0.1291  0.1873
15198SOL    HW147035   6.768   4.666   1.967 -1.1038  0.2270 -0.0527
15198SOL    HW247036   6.810   4.754   1.851  0.0610 -0.0907  0.1119
15199SOL     OW47037   7.757   2.989   2.761 -0.0262  0.5471 -0.3923
15199SOL    HW147038   7.673   2.954   2.731  1.3284 -1.5351 -2.0824
15199SOL    HW247039   7.748   2.997   2.856 -1.4325 -1.7025 -0.2697
15200SOL     OW47040   4.954   1.780   6.634  0.0868 -0.6986 -0.2955
15200SOL    HW147041   4.974   1.815   6.547  0.7880  0.0669  0.1662
15200SOL    HW247042   4.860   1.794   6.644  0.3048  0.8691 -0.2143
15201SOL     OW47043   6.899   2.882  11.350  0.3322  0.5317 -0.3526
15201SOL    HW147044   6.884   2.942  11.423  0.6769  0.4693 -0.2260
15201SOL    HW247045   6.994   2.876  11.343  0.3006  0.5840 -0.8524
15202SOL     OW47046   7.906   3.001   1.532  0.1399  0.3824 -0.0503
15202SOL    HW147047   7.968   2.936   1.499  0.3951  0.5108  0.1752
15202SOL    HW247048   7.941   3.085   1.504 -1.9147  0.3335 -3.3354
15203SOL     OW47049   6.707   7.167   5.388  0.4777  0.1324 -0.4770
15203SOL    HW147050   6.693   7.110   5.313  0.5642 -0.4048 -0.0916
15203SOL    HW247051   6.635   7.230   5.385  2.3052  2.3249 -2.9786
15204SOL     OW47052   5.328   2.775   8.770 -0.1960 -0.6247 -0.7023
15204SOL    HW147053   5.369   2.735   8.693 -0.1340  0.6798 -1.3849
15204SOL    HW247054   5.234   2.766   8.754 -0.1965 -1.8926 -0.0739
15205SOL     OW47055   5.347   4.548   2.653  0.3546 -0.3106  0.7666
15205SOL    HW147056   5.412   4.604   2.697 -0.6449  1.3816  0.2130
15205SOL    HW247057   5.391   4.517   2.575  0.4523  1.0423  0.2556
15206SOL     OW47058   2.619   3.958   6.109  0.0876 -0.1265  0.5343
15206SOL    HW147059   2.612   3.868   6.078  0.2284  0.1300 -0.2700
15206SOL    HW247060   2.705   3.987   6.078 -0.1342  0.4204  0.4114
15207SOL     OW47061   1.827   4.309   8.387 -0.4660  0.1536 -0.2563
15207SOL    HW147062   1.817   4.264   8.303 -1.2582 -1.0517  0.4433
15207SOL    HW247063   1.853   4.240   8.448 -0.4234  0.8999  0.5919
15208SOL     OW47064   3.349   6.187   5.748  0.5386 -0.4706 -0.6106
15208SOL    HW147065   3.404   6.152   5.818  2.0108  2.9842  0.1282
15208SOL    HW247066   3.409   6.206   5.676  0.0409  1.4103 -0.5794
15209SOL     OW47067   1.919   0.969   9.414  0.1012  0.3257 -0.2703
15209SOL    HW147068   1.921   0.997   9.323  2.0362 -0.7042 -0.5972
15209SOL    HW247069   1.891   1.046   9.463 -3.0256  0.3547 -1.8477
15210SOL     OW47070   4.449   7.567   2.152 -0.2652 -0.4970  0.3991
15210SOL    HW147071   4.408   7.574   2.239  0.3842 -0.9575  0.7508
15210SOL    HW247072   4.389   7.613   2.094  0.8759  2.7405  1.5892
15211SOL     OW47073   2.930   5.810   2.666 -0.0581  0.0754  0.5871
15211SOL    HW147074   2.857   5.809   2.728  0.0874  2.0018  0.8569
15211SOL    HW247075   2.996   5.752   2.705 -1.0309 -0.8909  0.8334
15212SOL     OW47076   4.468   0.106   0.677  0.3267 -0.2438 -0.4230
15212SOL    HW147077   4.490   0.193   0.642 -0.7239  0.2191  0.0037
15212SOL    HW247078   4.539   0.085   0.737 -0.9420  1.7931  1.9573
15213SOL     OW47079   1.119   0.644  12.121 -0.6882 -0.0688  0.0615
15213SOL    HW147080   1.154   0.608  12.039  0.1871  0.3591  0.2344
15213SOL    HW247081   1.166   0.727  12.132 -0.3629 -0.4074  1.3106
15214SOL     OW47082   4.178   5.791  10.324  0.0854 -0.1811  0.2779
15214SOL    HW147083   4.142   5.727  10.263 -0.1564  0.8047 -0.6448
15214SOL    HW247084   4.270   5.767  10.332  0.0404 -0.5406 -0.2096
15215SOL     OW47085   5.028   5.796   8.411 -0.0861 -0.0214  0.1615
15215SOL    HW147086   4.998   5.823   8.498  0.1505  0.9274 -0.0355
15215SOL    HW247087   5.071   5.711   8.425  0.6212  0.4755  1.1043
15216SOL     OW47088   2.777   2.699  11.114 -0.1460  0.6489 -0.3174
15216SOL    HW147089   2.850   2.710  11.054 -0.0705  0.4614 -0.2614
15216SOL    HW247090   2.800   2.623  11.167 -0.3100  0.6821 -0.1944
15217SOL     OW47091   1.208   7.774  11.957  0.0783  0.1610 -0.4207
15217SOL    HW147092   1.195   7.795  12.050 -2.1815  0.3305 -0.7243
15217SOL    HW247093   1.186   7.855  11.911 -1.8123 -0.7439 -1.2177
15218SOL     OW47094   2.405   6.303   8.084 -0.3029 -0.0268 -0.1551
15218SOL    HW147095   2.330   6.310   8.024 -1.3254 -0.9923  0.9388
15218SOL    HW247096   2.380   6.356   8.159  0.9880  1.2112 -0.5759
15219SOL     OW47097   3.724   2.668   1.750 -0.3850  0.0395 -0.0794
15219SOL    HW147098   3.659   2.732   1.780  0.3458  0.8250 -0.1538
15219SOL    HW247099   3.672   2.601   1.706 -1.1352  0.7609 -0.3159
15220SOL     OW47100   0.652   1.787   4.380 -0.3075  0.2292  0.1793
15220SOL    HW147101   0.713   1.856   4.353 -1.5214  1.4302  0.4537
15220SOL    HW247102   0.684   1.760   4.466 -0.2612  0.9754  0.4005
15221SOL     OW47103   1.057   4.811  12.068 -0.1974 -0.6375 -0.1760
15221SOL    HW147104   1.047   4.807  12.163 -1.8105  0.2018 -0.2704
15221SOL    HW247105   1.069   4.904  12.049 -0.3267 -0.7479 -0.8294
15222SOL     OW47106   0.627   6.458   5.575 -0.0336 -0.5150 -0.1039
15222SOL    HW147107   0.559   6.520   5.549  0.9880  0.0523 -1.5923
15222SOL    HW247108   0.665   6.496   5.654 -0.6951 -0.2600  0.0963
15223SOL     OW47109   3.703   5.426   5.155 -0.2547  0.2695 -0.3424
15223SOL    HW147110   3.703   5.479   5.235 -1.2845 -0.5150  0.2016
15223SOL    HW247111   3.777   5.367   5.166 -0.2612  0.3104 -0.0727
15224SOL     OW47112   6.955   7.510   8.167  0.0687 -0.1966 -0.2015
15224SOL    HW147113   7.012   7.435   8.150  0.0830 -0.2241 -0.0305
15224SOL    HW247114   7.003   7.564   8.229  0.4896  0.4569 -1.0711
15225SOL     OW47115   0.565   6.396  11.353  0.6784  0.4894 -0.1333
15225SOL    HW147116   0.476   6.409  11.384  0.0970 -2.4523 -0.3349
15225SOL    HW247117   0.558   6.400  11.257  1.0852  1.6981 -0.1410
15226SOL     OW47118   7.207   7.797  12.150 -0.2612  0.3094 -0.4446
15226SOL    HW147119   7.219   7.702  12.149  2.0508  0.5313 -1.2319
15226SOL    HW247120   7.150   7.816  12.076 -1.3407 -0.4915  0.1570
15227SOL     OW47121   2.909   0.315   4.897  0.6930 -0.4008  0.4448
15227SOL    HW147122   2.826   0.268   4.891  1.0959 -1.1864  0.7990
15227SOL    HW247123   2.975   0.248   4.877  1.2541  0.1369  0.4771
15228SOL     OW47124   4.718   7.665  10.458 -0.0885 -0.1146  0.4828
15228SOL    HW147125   4.747   7.606  10.528 -1.0973  0.1042  1.0968
15228SOL    HW247126   4.626   7.682  10.477 -0.1335  0.6846 -0.3868
15229SOL     OW47127   4.614   3.239   7.025  0.7438  0.0278  0.3508
15229SOL    HW147128   4.677   3.292   6.976 -0.5144  0.9376 -0.3355
15229SOL    HW247129   4.577   3.300   7.089  0.5319 -0.4890  0.7269
15230SOL     OW47130   2.398   4.110   8.216 -0.1573 -0.8359  0.4848
15230SOL    HW147131   2.436   4.104   8.303  0.9226 -0.4991  0.0569
15230SOL    HW247132   2.467   4.150   8.163 -1.4852  0.8157 -0.0929
15231SOL     OW47133   2.166   0.947   2.629  0.4988 -0.2751 -0.4672
15231SOL    HW147134   2.174   0.878   2.696  1.6716  1.3718  1.2120
15231SOL    HW247135   2.248   0.941   2.580  1.7377  1.3518  1.2434
15232SOL     OW47136   4.819   5.843   9.876  0.4551 -0.3962  0.0509
15232SOL    HW147137   4.849   5.768   9.927  2.7800  1.0598  1.0177
15232SOL    HW247138   4.893   5.904   9.878 -0.1798  0.6914 -3.2305
15233SOL     OW47139   3.010   4.660   7.834  0.3066 -0.3076 -0.2143
15233SOL    HW147140   2.992   4.711   7.755 -2.2406 -2.9746 -1.5847
15233SOL    HW247141   3.084   4.604   7.811 -0.3568 -0.9958 -0.7290
15234SOL     OW47142   4.366   2.834   1.050  0.0729 -0.6489  1.1388
15234SOL    HW147143   4.336   2.748   1.020  0.3170 -0.5306  0.5541
15234SOL    HW247144   4.304   2.896   1.011  0.2858 -0.5091  1.0246
15235SOL     OW47145   7.284   7.768   1.661  0.6002  0.3300  0.1741
15235SOL    HW147146   7.320   7.687   1.696  0.9628  0.5935  0.4154
15235SOL    HW247147   7.354   7.803   1.606  0.3010  0.2840 -0.2381
15236SOL     OW47148   4.214   5.606   2.360  0.1241 -0.1580 -0.1274
15236SOL    HW147149   4.131   5.559   2.350 -0.8620  1.2064  1.0518
15236SOL    HW247150   4.280   5.545   2.328 -1.2405 -1.6609 -0.2590
15237SOL     OW47151   7.709   0.913   7.207 -0.1646  0.2892  0.7809
15237SOL    HW147152   7.621   0.940   7.183  0.2376  1.0717  0.1265
15237SOL    HW247153   7.701   0.881   7.296 -1.3570 -0.8924  0.2836
15238SOL     OW47154   1.545   0.004   7.168  0.1811 -0.0416  0.3625
15238SOL    HW147155   1.600   0.025   7.244 -0.6593  2.3013  0.4114
15238SOL    HW247156   1.606  -0.006   7.096  0.7794  1.3987  0.6384
15239SOL     OW47157   4.902   2.824  10.119 -0.6412  0.1673 -0.4418
15239SOL    HW147158   4.944   2.798  10.037  0.9858  0.6218  0.2123
15239SOL    HW247159   4.957   2.894  10.154 -2.1381  1.0345  0.3205
15240SOL     OW47160   3.317   4.741   6.932  0.0670  0.2858  0.6925
15240SOL    HW147161   3.224   4.725   6.947  0.2543 -0.4931  1.0471
15240SOL    HW247162   3.322   4.836   6.918 -1.2621  0.0170 -2.8478
15241SOL     OW47163   2.390   0.717   6.832 -0.3576 -0.1551 -0.0600
15241SOL    HW147164   2.470   0.718   6.779 -0.2184 -1.4653  0.1011
15241SOL    HW247165   2.370   0.810   6.846  2.4943  0.3006  1.9153
15242SOL     OW47166   7.091   7.441   6.719  0.3979 -0.1930  0.1765
15242SOL    HW147167   7.111   7.478   6.633  0.9568 -2.5836 -0.7962
15242SOL    HW247168   7.166   7.465   6.774  0.1745  1.0867 -0.0350
15243SOL     OW47169   0.015   7.587   7.263 -0.1051  0.1269 -0.0481
15243SOL    HW147170   0.009   7.611   7.170 -2.3764 -1.6613 -0.4501
15243SOL    HW247171   0.014   7.492   7.263 -0.1192  0.0936  1.8356
15244SOL     OW47172   1.108   2.696  11.795  0.3099  0.2272 -0.0604
15244SOL    HW147173   1.076   2.608  11.775 -0.5260  0.6717 -0.7342
15244SOL    HW247174   1.044   2.755  11.755  1.2109  1.1482 -0.1947
15245SOL     OW47175   4.604   0.372   8.385  0.9015  0.2452  0.0469
15245SOL    HW147176   4.538   0.371   8.455  0.1367  0.8882 -0.6368
15245SOL    HW247177   4.682   0.407   8.426  0.9811 -0.9756  1.0024
15246SOL     OW47178   4.305   3.458   5.207  0.2257 -0.0328  0.1506
15246SOL    HW147179   4.292   3.503   5.123  1.0734  0.7039  0.3981
15246SOL    HW247180   4.377   3.398   5.191 -0.9605 -1.4127 -0.2008
15247SOL     OW47181   1.848   3.026   8.253  0.1175 -0.0869  0.8564
15247SOL    HW147182   1.938   3.019   8.286  1.1749  2.3941 -1.1564
15247SOL    HW247183   1.803   3.082   8.316  0.5491  0.2208  0.8959
15248SOL     OW47184   7.275   5.200   2.161 -0.1048 -0.6549  0.0096
15248SOL    HW147185   7.220   5.131   2.198  0.6720 -0.8323  0.8389
15248SOL    HW247186   7.214   5.253   2.110 -0.6379 -2.2294 -1.0730
15249SOL     OW47187   2.884   5.858   5.575  0.9851  0.2612 -0.4576
15249SOL    HW147188   2.862   5.813   5.656  1.5579  1.0507  0.1427
15249SOL    HW247189   2.915   5.944   5.602  1.4804  0.4237 -1.4905
15250SOL     OW47190   5.595   1.331   6.941 -0.6832 -0.1877 -0.2002
15250SOL    HW147191   5.649   1.404   6.970  0.5046 -0.7634 -0.8630
15250SOL    HW247192   5.580   1.347   6.847  0.6229 -1.3671 -0.6514
15251SOL     OW47193   7.701   3.984   3.605  0.5190 -0.5178  0.1347
15251SOL    HW147194   7.673   4.018   3.690 -2.3771 -2.7277  0.2228
15251SOL    HW247195   7.775   4.039   3.580  0.7690  0.9319  3.5390
15252SOL     OW47196   6.033   0.329   0.465  0.0011 -0.1081  0.1037
15252SOL    HW147197   6.105   0.267   0.480 -0.3004 -0.3845  0.4220
15252SOL    HW247198   5.954   0.279   0.484 -0.4084 -0.3669 -1.9746
15253SOL     OW47199   4.573   7.313  10.237 -0.5875 -1.0878 -0.4572
15253SOL    HW147200   4.481   7.287  10.233 -0.5750 -1.3844  0.7462
15253SOL    HW247201   4.590   7.325  10.330 -0.0616  1.3324 -0.7868
15254SOL     OW47202   7.882   7.892   1.127 -0.0127 -0.2506 -0.8684
15254SOL    HW147203   7.969   7.904   1.164 -0.4623 -0.4675  0.2864
15254SOL    HW247204   7.823   7.900   1.201 -0.8680 -1.8395 -1.3311
15255SOL     OW47205   3.032   2.445   9.386 -0.1745 -0.1563 -0.1998
15255SOL    HW147206   3.043   2.420   9.477 -0.7371 -0.5386 -0.2334
15255SOL    HW247207   2.941   2.474   9.380  0.3660  1.6734 -0.2175
15256SOL     OW47208   5.357   3.121   2.221  0.3170  0.0762 -0.5759
15256SOL    HW147209   5.416   3.189   2.191 -0.0588  0.1037 -1.2741
15256SOL    HW247210   5.388   3.041   2.179  1.5668 -0.4719  1.2742
15257SOL     OW47211   7.926   7.801   2.427 -0.0296  0.4809 -0.8368
15257SOL    HW147212   7.832   7.822   2.423  0.0540  0.7297 -1.8407
15257SOL    HW247213   7.970   7.884   2.412  0.3764  0.5018  0.3700
15258SOL     OW47214   1.527   4.071   5.753  0.2408 -0.1575  0.7984
15258SOL    HW147215   1.538   4.138   5.820  0.3198  2.4379 -1.6396
15258SOL    HW247216   1.470   4.112   5.687 -0.0383 -2.6497 -0.6451
15259SOL     OW47217   2.871   2.080   6.288 -0.0705  0.2275  0.1643
15259SOL    HW147218   2.890   2.040   6.373 -0.7219  0.6789  0.5319
15259SOL    HW247219   2.957   2.094   6.248  0.2372 -0.0396  0.7240
15260SOL     OW47220   2.454   3.078   8.800 -0.0358 -0.8630 -0.4532
15260SOL    HW147221   2.488   3.156   8.756 -2.3732  0.2717 -0.3434
15260SOL    HW247222   2.422   3.023   8.728  0.5385 -1.2270 -0.4434
15261SOL     OW47223   7.417   7.069   8.173  0.0140 -0.3322 -0.0044
15261SOL    HW147224   7.401   7.157   8.205 -0.2051 -0.1671 -0.5654
15261SOL    HW247225   7.493   7.039   8.223  1.2281  0.8407 -1.0902
15262SOL     OW47226   7.886   1.359   0.777  0.0606 -0.1931 -0.0386
15262SOL    HW147227   7.815   1.348   0.714 -1.0198  0.2178  1.0744
15262SOL    HW247228   7.844   1.350   0.862  0.8644  2.5138  0.7226
15263SOL     OW47229   3.896   4.635   6.888  0.1464  0.0221  0.1454
15263SOL    HW147230   3.958   4.676   6.949 -0.4841 -1.0881  1.5902
15263SOL    HW247231   3.938   4.554   6.862 -0.9060 -1.0495  1.6319
15264SOL     OW47232   5.161   0.371   2.188  0.1023 -0.4522 -0.2490
15264SOL    HW147233   5.128   0.342   2.102 -0.0291  0.5649 -0.5532
15264SOL    HW247234   5.255   0.384   2.174  0.1641 -0.7376 -0.1080
15265SOL     OW47235   7.491   4.270  11.260 -0.0859  0.2079 -0.5988
15265SOL    HW147236   7.470   4.255  11.352  2.1995 -1.4656 -0.2740
15265SOL    HW247237   7.483   4.365  11.249  3.9065  1.1909  2.5869
15266SOL     OW47238   1.496   0.633   4.024  0.4931  0.7066  0.0936
15266SOL    HW147239   1.449   0.641   4.107  0.0435  0.7763 -0.1628
15266SOL    HW247240   1.541   0.717   4.013  1.0787  0.4643  0.5762
15267SOL     OW47241   1.466   2.196   9.303 -0.3684 -0.4376  1.0509
15267SOL    HW147242   1.525   2.132   9.263  1.7946  1.1706  1.5272
15267SOL    HW247243   1.405   2.143   9.354 -1.4979 -2.3902 -2.0365
15268SOL     OW47244   6.355   6.608   0.922 -0.2958  0.6563 -0.4838
15268SOL    HW147245   6.421   6.559   0.873 -0.4617  0.0839 -0.1490
15268SOL    HW247246   6.384   6.699   0.917 -0.2105  0.5822 -1.4722
15269SOL     OW47247   0.552   4.223   0.066 -0.7376 -0.4121  0.3957
15269SOL    HW147248   0.515   4.162   0.130  2.0052 -0.7192  1.8812
15269SOL    HW247249   0.615   4.169   0.016 -2.3893 -0.0447 -2.2666
15270SOL     OW47250   1.710   0.872   5.088  0.1504 -0.3289 -0.2903
15270SOL    HW147251   1.733   0.856   5.179  1.4878 -0.4377 -0.6309
15270SOL    HW247252   1.699   0.967   5.082 -1.4518 -0.4487  0.3021
15271SOL     OW47253   5.728   4.840   3.894 -0.4832 -0.2607 -0.0122
15271SOL    HW147254   5.683   4.758   3.875 -0.7594  0.1447 -1.1853
15271SOL    HW247255   5.763   4.828   3.983 -1.9761 -0.9803  0.5051
15272SOL     OW47256   3.408   0.492  10.874  0.4725 -0.3992  0.5339
15272SOL    HW147257   3.320   0.456  10.862  0.0713  0.6929 -0.0046
15272SOL    HW247258   3.439   0.508  10.785  0.3259  1.2359  0.7403
15273SOL     OW47259   2.105   6.809   6.811  0.1342  0.0757 -0.0274
15273SOL    HW147260   2.135   6.718   6.811 -2.1777 -0.7331  0.1980
15273SOL    HW247261   2.169   6.854   6.755  1.5529 -1.5714  0.1518
15274SOL     OW47262   0.491   6.036   1.672 -0.5155 -0.1171 -0.0502
15274SOL    HW147263   0.488   6.049   1.767  0.1944 -0.4501  0.0202
15274SOL    HW247264   0.495   6.124   1.636  2.1705 -0.0071  0.3481
15275SOL     OW47265   0.860   4.595   5.813 -0.6623 -0.1167  0.0859
15275SOL    HW147266   0.875   4.657   5.741 -1.1290  0.1452  0.2028
15275SOL    HW247267   0.820   4.649   5.882 -0.0683 -0.3280  0.6087
15276SOL     OW47268   0.807   1.681   9.963 -0.0086 -0.0674 -0.1139
15276SOL    HW147269   0.752   1.679   9.885 -1.6418 -1.5641  1.0232
15276SOL    HW247270   0.748   1.661  10.036  1.9954 -1.7530  1.1720
15277SOL     OW47271   1.673   3.815   9.262 -0.3310  0.1531 -0.0190
15277SOL    HW147272   1.590   3.849   9.295  0.8380  2.6451  0.5178
15277SOL    HW247273   1.692   3.867   9.184  1.8874  1.3764  1.2455
15278SOL     OW47274   3.996   0.651   3.243  0.0279  0.3585  0.1529
15278SOL    HW147275   3.981   0.584   3.175  1.5442  1.2934 -1.1548
15278SOL    HW247276   3.917   0.706   3.239 -0.8060 -0.7629  0.5837
15279SOL     OW47277   1.912   3.315   1.765 -0.2028  0.3139  0.4889
15279SOL    HW147278   1.908   3.230   1.810 -0.0792 -0.0224 -0.1269
15279SOL    HW247279   1.980   3.363   1.812 -1.2990  0.6474  1.7991
15280SOL     OW47280   4.377   5.551   5.710  0.0376 -0.4320  0.4115
15280SOL    HW147281   4.297   5.498   5.716 -0.0580 -0.1203  2.4999
15280SOL    HW247282   4.349   5.639   5.732  0.5982  0.1170 -0.9548
15281SOL     OW47283   5.443   7.054   0.324  0.2129  0.6170  0.0743
15281SOL    HW147284   5.390   7.031   0.400 -2.8485 -0.0743 -2.0788
15281SOL    HW247285   5.465   6.970   0.284 -1.6549  1.0064 -1.9028
15282SOL     OW47286   2.782   7.693  10.228  0.6002  0.1027 -0.0692
15282SOL    HW147287   2.732   7.618  10.261  1.1882 -0.8360 -1.2447
15282SOL    HW247288   2.853   7.654  10.178  1.3774  1.4533 -0.0593
15283SOL     OW47289   4.833   3.517   1.753 -0.1461 -0.1372  0.5730
15283SOL    HW147290   4.851   3.423   1.756 -0.2303 -0.3635 -2.6572
15283SOL    HW247291   4.842   3.546   1.844  1.6031 -2.9199  1.4094
15284SOL     OW47292   0.636   0.969   4.855  0.3899 -0.1335  0.6645
15284SOL    HW147293   0.712   0.913   4.866  0.6459 -0.1488 -1.0079
15284SOL    HW247294   0.669   1.045   4.806 -0.4365  0.4014  0.9109
15285SOL     OW47295   2.521   0.580  10.776  0.0180 -0.2463  0.0525
15285SOL    HW147296   2.511   0.675  10.786  1.3835 -0.1104  0.3273
15285SOL    HW247297   2.548   0.568  10.685 -1.3858 -0.4969 -0.3462
15286SOL     OW47298   4.047   7.228   5.407  0.0177  0.0907 -0.3924
15286SOL    HW147299   4.063   7.166   5.335 -1.2074 -1.1076  0.3240
15286SOL    HW247300   3.989   7.294   5.369  0.6206  0.3321 -0.9157
15287SOL     OW47301   1.583   2.470   8.928 -0.5656 -0.5503 -0.2872
15287SOL    HW147302   1.629   2.386   8.920 -0.3086 -0.5512  0.9977
15287SOL    HW247303   1.531   2.461   9.008 -1.5947  0.0310 -0.8647
15288SOL     OW47304   1.473   0.482   0.161  0.3408  0.5643  0.2935
15288SOL    HW147305   1.413   0.454   0.230  1.3469 -2.5970  0.0480
15288SOL    HW247306   1.546   0.524   0.207  0.3145 -0.1969  1.0476
15289SOL     OW47307   6.240   6.824   2.722  0.2731  0.3289  0.5531
15289SOL    HW147308   6.154   6.784   2.709  1.1304 -0.9657 -1.8571
15289SOL    HW247309   6.273   6.838   2.633  2.6451  0.5859  1.4095
15290SOL     OW47310   3.823   5.691   0.312  0.4768  0.0424  0.1684
15290SOL    HW147311   3.751   5.750   0.331  0.9863  0.0507  2.3333
15290SOL    HW247312   3.790   5.634   0.242 -1.9925 -0.5214  1.6681
15291SOL     OW47313   5.075   6.968   0.213 -0.1024 -0.3588  0.1836
15291SOL    HW147314   5.008   7.033   0.189  0.6484  0.5491  0.4685
15291SOL    HW247315   5.050   6.940   0.301 -0.3696 -0.3750  0.1047
15292SOL     OW47316   3.183   2.045   9.009  0.5556 -0.2461  0.0557
15292SOL    HW147317   3.130   2.109   9.058  0.9141 -0.0226  0.1562
15292SOL    HW247318   3.153   1.960   9.041  1.2794 -0.0971  1.2211
15293SOL     OW47319   5.385   3.931   3.682  0.0918  0.6751 -0.2577
15293SOL    HW147320   5.420   3.885   3.606  0.9780 -0.4483  0.8003
15293SOL    HW247321   5.448   3.914   3.751 -1.5064  0.3055  1.1678
15294SOL     OW47322   2.747   5.324   8.570  0.0169 -0.1137  0.4782
15294SOL    HW147323   2.769   5.291   8.657 -0.3084 -1.9704 -0.0901
15294SOL    HW247324   2.657   5.292   8.555  1.1845 -2.7892 -1.7913
15295SOL     OW47325   6.192   6.849   9.558 -0.0540 -0.1443  0.5563
15295SOL    HW147326   6.101   6.822   9.553 -0.1569  0.3087 -0.2418
15295SOL    HW247327   6.239   6.786   9.503 -0.1567  0.6640 -0.5013
15296SOL     OW47328   6.712   4.562   7.309  0.0796  0.3581 -0.7924
15296SOL    HW147329   6.783   4.505   7.338  0.7636  0.7663 -1.6036
15296SOL    HW247330   6.734   4.648   7.345 -1.0601  0.0965  0.6077
15297SOL     OW47331   0.818   5.257   6.838 -0.3183 -0.2429  0.5387
15297SOL    HW147332   0.864   5.331   6.798 -1.0288 -0.4734 -0.7713
15297SOL    HW247333   0.730   5.291   6.856 -0.4906 -0.6095  0.4015
15298SOL     OW47334   1.130   5.740   4.487 -0.1040  0.2335  0.1446
15298SOL    HW147335   1.204   5.799   4.470 -2.4217  3.2260 -0.4678
15298SOL    HW247336   1.101   5.763   4.575 -1.3244  0.3711 -0.2762
15299SOL     OW47337   3.403   2.157  10.047  0.6142 -0.2087 -0.2501
15299SOL    HW147338   3.437   2.231   9.998 -0.3943 -0.2949 -1.1190
15299SOL    HW247339   3.443   2.165  10.134  2.1610  0.1415 -0.9544
15300SOL     OW47340   4.416   1.179  11.487 -0.1533 -0.0166  0.0693
15300SOL    HW147341   4.449   1.160  11.574 -0.7990 -1.5795  0.0043
15300SOL    HW247342   4.425   1.097  11.439 -1.9159  0.1532 -0.6381
15301SOL     OW47343   6.665   5.134  10.310 -0.1892 -0.5456  0.1049
15301SOL    HW147344   6.617   5.128  10.392 -2.1624  0.1518 -0.9425
15301SOL    HW247345   6.680   5.227  10.296 -0.3974 -0.6084 -0.6082
15302SOL     OW47346   7.196   5.670  10.892 -0.5326  0.5113  0.1095
15302SOL    HW147347   7.139   5.742  10.863 -0.2548  0.9669  0.6802
15302SOL    HW247348   7.153   5.636  10.970 -1.2434 -0.6699 -0.7654
15303SOL     OW47349   7.112   0.052   5.230  0.1065  0.0988  0.0807
15303SOL    HW147350   7.062  -0.009   5.284 -1.0945  2.1318  1.4121
15303SOL    HW247351   7.195   0.063   5.277  0.6884 -1.1503 -0.6346
15304SOL     OW47352   5.007   7.384   1.366 -0.1498  0.5026  0.1981
15304SOL    HW147353   5.088   7.350   1.329 -0.8210 -1.5754  0.5185
15304SOL    HW247354   4.939   7.359   1.304 -0.9240 -0.5586  1.4285
15305SOL     OW47355   3.126   6.064  12.368  0.3409 -0.3847 -0.2906
15305SOL    HW147356   3.127   5.985  12.314 -0.0666 -1.8933  1.7905
15305SOL    HW247357   3.158   6.036  12.453 -2.5186  0.9820  1.4078
15306SOL     OW47358   3.191   4.840  10.227  0.2626  0.3281 -0.3484
15306SOL    HW147359   3.262   4.874  10.283  0.2919  0.3208 -0.3804
15306SOL    HW247360   3.111   4.861  10.274  0.3388 -0.8834  0.3537
15307SOL     OW47361   0.202   4.078  11.377 -0.1525  0.3026 -0.0861
15307SOL    HW147362   0.138   4.046  11.314  0.0956 -1.7759  0.6487
15307SOL    HW247363   0.164   4.160  11.410 -1.4079  0.1950 -1.1811
15308SOL     OW47364   1.432   0.098   1.094  0.5842 -0.1161 -0.1107
15308SOL    HW147365   1.439   0.152   1.173  0.6745  2.5756 -1.8479
15308SOL    HW247366   1.353   0.045   1.108 -0.3997  1.5751  1.0745
15309SOL     OW47367   4.572   7.381   8.272  0.2099  0.0173  0.1281
15309SOL    HW147368   4.482   7.409   8.258 -0.1579 -1.6061 -1.0178
15309SOL    HW247369   4.596   7.418   8.357 -1.6017  0.3216  0.5394
15310SOL     OW47370   3.046   1.459   7.328  0.0892  0.3611  0.7163
15310SOL    HW147371   3.053   1.380   7.381  0.3013 -0.0485  0.0973
15310SOL    HW247372   3.026   1.528   7.390 -0.1483 -0.1872  1.2642
15311SOL     OW47373   7.503   5.733   3.428 -0.4010 -0.1758 -0.4058
15311SOL    HW147374   7.484   5.686   3.509 -0.3696 -0.3599 -0.5023
15311SOL    HW247375   7.522   5.823   3.455 -0.2867 -0.2607 -0.2002
15312SOL     OW47376   3.610   5.951  11.846  0.1715 -0.1631 -0.0275
15312SOL    HW147377   3.521   5.919  11.859 -1.0821  2.7791 -0.8229
15312SOL    HW247378   3.602   6.022  11.783  2.9923  0.6989  0.4426
15313SOL     OW47379   7.893   3.413   3.120 -0.3080  0.3445  0.7874
15313SOL    HW147380   7.938   3.402   3.204 -0.3860  0.2160  0.8134
15313SOL    HW247381   7.908   3.329   3.075 -0.5995  0.2680  0.8336
15314SOL     OW47382   4.046   0.037   1.901  0.1853 -0.0718 -0.4293
15314SOL    HW147383   4.016  -0.008   1.981 -1.9450  1.0815 -0.4882
15314SOL    HW247384   4.140   0.046   1.913 -0.0875  0.2658  2.0930
15315SOL     OW47385   2.704   2.147   0.288  0.0165 -0.2883 -0.0819
15315SOL    HW147386   2.665   2.215   0.343 -1.4808  0.4261 -1.8955
15315SOL    HW247387   2.636   2.080   0.282  0.2885 -0.5100 -0.7592
15316SOL     OW47388   3.916   0.048   5.223 -0.5282  0.2873  0.1220
15316SOL    HW147389   3.921   0.020   5.131 -1.0046  0.9820 -0.1208
15316SOL    HW247390   3.940   0.140   5.221  0.1003  0.1483  0.7912
15317SOL     OW47391   5.937   1.506   9.814 -0.2183  0.0713  0.2335
15317SOL    HW147392   5.854   1.523   9.769 -0.0239  1.8203  0.4688
15317SOL    HW247393   6.004   1.534   9.752  0.2665 -1.7979 -0.1576
15318SOL     OW47394   2.967   5.588  10.028  0.4870  0.2506 -1.1031
15318SOL    HW147395   2.970   5.582  10.123  1.3290  0.4660 -1.1071
15318SOL    HW247396   3.034   5.653  10.006 -0.7606  1.3607 -1.7496
15319SOL     OW47397   2.213   6.664   4.549 -0.8808  0.1689  0.1330
15319SOL    HW147398   2.232   6.649   4.642  2.8035  0.2861 -0.4592
15319SOL    HW247399   2.221   6.578   4.508  1.4517  0.6669 -0.5700
15320SOL     OW47400   1.168   5.670   8.232  0.1475 -0.3482 -0.8716
15320SOL    HW147401   1.127   5.756   8.237  0.2949 -0.3503  0.8804
15320SOL    HW247402   1.107   5.618   8.178 -1.7367 -0.0852  0.8938
15321SOL     OW47403   4.206   5.459   4.502 -0.2408 -0.4586  0.0388
15321SOL    HW147404   4.230   5.435   4.413 -0.9283 -0.1250 -0.2425
15321SOL    HW247405   4.134   5.521   4.492  1.5152  1.8350  0.7266
15322SOL     OW47406   0.086   5.671   4.578 -0.0274  0.2843  0.3739
15322SOL    HW147407   0.172   5.711   4.594 -0.1646  1.2306 -1.0783
15322SOL    HW247408   0.098   5.579   4.601  0.8689  0.7347  1.8711
15323SOL     OW47409   0.771   2.874   1.637  0.5559  0.4400  0.1620
15323SOL    HW147410   0.721   2.801   1.599  0.5507 -0.6978  2.2422
15323SOL    HW247411   0.853   2.875   1.587  0.9432 -1.6145  0.6744
15324SOL     OW47412   2.520   4.561   0.854  0.4787 -0.6791 -0.2005
15324SOL    HW147413   2.427   4.538   0.863 -0.1080  1.3624 -0.6467
15324SOL    HW247414   2.547   4.586   0.942  0.1554  0.2277 -0.3478
15325SOL     OW47415   7.431   4.438   7.276 -0.2223 -0.1482  0.2272
15325SOL    HW147416   7.410   4.347   7.257 -1.6815  0.0612  0.6804
15325SOL    HW247417   7.346   4.478   7.296  0.0528  1.8551 -2.1479
15326SOL     OW47418   3.060   4.427   6.157  0.3577 -0.6111  0.6672
15326SOL    HW147419   3.109   4.496   6.111 -0.3710 -0.1205  0.6186
15326SOL    HW247420   3.067   4.351   6.099  1.0993 -0.5678  0.6829
15327SOL     OW47421   1.601   2.286  11.985 -0.2218  0.5091  0.0005
15327SOL    HW147422   1.589   2.269  11.892 -0.8918  2.0291 -0.2182
15327SOL    HW247423   1.512   2.299  12.019  0.0239  0.1262  0.8277
15328SOL     OW47424   6.695   2.117   7.112 -0.5587 -0.2974 -0.8029
15328SOL    HW147425   6.720   2.194   7.162 -0.7795 -0.9287  0.3271
15328SOL    HW247426   6.777   2.078   7.083 -0.4219 -0.0335 -0.7659
15329SOL     OW47427   2.861   1.321   9.943 -0.6214  0.1909  0.0962
15329SOL    HW147428   2.862   1.341   9.849 -1.1891 -0.6527 -0.0979
15329SOL    HW247429   2.849   1.406   9.985  0.9040  0.7617 -0.5300
15330SOL     OW47430   6.781   5.203   0.470  0.0295 -0.2813  0.6089
15330SOL    HW147431   6.876   5.210   0.462 -0.0814  0.1641 -0.4829
15330SOL    HW247432   6.756   5.144   0.398 -0.6801  1.0068 -0.2439
15331SOL     OW47433   3.712   4.640   4.772 -0.0129 -0.0306 -0.2251
15331SOL    HW147434   3.711   4.580   4.698  0.4255 -0.1685 -0.1226
15331SOL    HW247435   3.752   4.590   4.843 -0.1805  0.1917  0.0296
15332SOL     OW47436   3.479   1.442   7.798 -0.2936 -0.1275  0.5392
15332SOL    HW147437   3.472   1.357   7.841 -1.9200  0.1976  1.0093
15332SOL    HW247438   3.459   1.506   7.867 -0.6114  0.5324 -0.1416
15333SOL     OW47439   7.005   5.778   8.670  0.7704 -0.2258  0.0200
15333SOL    HW147440   7.066   5.791   8.597 -0.6943 -1.4927 -1.5098
15333SOL    HW247441   7.054   5.805   8.747  2.8420 -0.0423 -1.2873
15334SOL     OW47442   5.611   7.669   6.769 -0.0623 -0.2756  0.0880
15334SOL    HW147443   5.556   7.596   6.799 -1.0376  0.8084  1.0606
15334SOL    HW247444   5.675   7.681   6.839  0.8426 -0.9201 -0.6066
15335SOL     OW47445   1.397   4.605   2.428  0.0373 -0.3924 -0.2461
15335SOL    HW147446   1.453   4.541   2.471  0.2152 -0.1655 -0.1385
15335SOL    HW247447   1.451   4.684   2.422 -0.6805  0.2249  0.9912
15336SOL     OW47448   2.738   2.964   7.461  0.4566  0.1066  0.4227
15336SOL    HW147449   2.773   2.885   7.418 -0.7015 -0.2969  0.1873
15336SOL    HW247450   2.672   2.931   7.522 -0.6602  0.9378 -0.2943
15337SOL     OW47451   5.392   5.016   6.960 -0.2894  0.2467 -0.0497
15337SOL    HW147452   5.298   5.027   6.974 -0.2147  0.3057  0.3909
15337SOL    HW247453   5.405   5.043   6.869 -0.6459  0.5464 -0.0153
15338SOL     OW47454   1.447   3.298   3.669 -0.1966 -0.3318 -0.0591
15338SOL    HW147455   1.365   3.331   3.633 -0.5495 -0.9667  0.1496
15338SOL    HW247456   1.514   3.330   3.609 -0.8362 -2.0833 -1.8054
15339SOL     OW47457   5.393   5.858   6.058  0.3053 -0.5121  0.0541
15339SOL    HW147458   5.336   5.805   6.113  0.8732 -0.5488  0.6145
15339SOL    HW247459   5.482   5.831   6.081  0.6260  0.9335  0.6399
15340SOL     OW47460   5.500   2.263  11.036 -0.0634  0.4592 -0.7860
15340SOL    HW147461   5.573   2.235  11.092 -1.3019  0.6458  0.9957
15340SOL    HW247462   5.496   2.358  11.047 -2.6452  0.1618  1.9272
15341SOL     OW47463   7.449   2.423   9.419  0.3056  0.4822 -0.2995
15341SOL    HW147464   7.399   2.344   9.442  2.8095 -1.2423 -0.3161
15341SOL    HW247465   7.414   2.450   9.335  0.8094 -2.0385 -1.4305
15342SOL     OW47466   3.956   6.131   3.682 -0.3055 -0.0220 -0.3762
15342SOL    HW147467   3.951   6.036   3.671 -1.2187 -0.0126 -0.1385
15342SOL    HW247468   3.960   6.144   3.776  1.0469  0.1422 -0.4410
15343SOL     OW47469   1.086   7.851  10.492 -0.0453  0.0437 -0.4939
15343SOL    HW147470   1.084   7.941  10.526  3.7355 -0.1175  0.5692
15343SOL    HW247471   1.088   7.863  10.396  2.9948  1.4119 -0.3980
15344SOL     OW47472   6.805   4.854   4.125 -0.0679 -0.1128 -0.0085
15344SOL    HW147473   6.824   4.779   4.069  1.0344  0.0650  0.0950
15344SOL    HW247474   6.871   4.919   4.101  0.0292  0.2033  1.0557
15345SOL     OW47475   0.056   5.148   2.660 -0.5795  0.1610 -0.3826
15345SOL    HW147476  -0.011   5.197   2.612 -1.1048  0.0047  0.1782
15345SOL    HW247477   0.081   5.078   2.600  1.0154  1.7373 -1.6638
15346SOL     OW47478   0.971   5.287   2.667  0.1428  0.5169  0.0897
15346SOL    HW147479   0.941   5.212   2.615 -1.4110  0.3873  1.1004
15346SOL    HW247480   1.020   5.341   2.606 -0.7942 -0.1199 -1.2675
15347SOL     OW47481   5.646   2.925   5.361 -0.0511  0.1562  0.5075
15347SOL    HW147482   5.553   2.920   5.386  0.1019 -1.2893  0.8819
15347SOL    HW247483   5.683   2.991   5.419 -0.6325 -0.0181  1.0896
15348SOL     OW47484   3.936   6.820  10.018 -0.2920 -0.1846  0.2498
15348SOL    HW147485   3.874   6.874  10.067 -0.0456  0.4360 -0.1044
15348SOL    HW247486   3.996   6.883   9.977  2.1236 -0.7888  2.5520
15349SOL     OW47487   6.260   4.717  10.193 -0.3405 -0.2825  0.0454
15349SOL    HW147488   6.165   4.720  10.202 -0.3143  2.9303  0.4628
15349SOL    HW247489   6.294   4.726  10.282  0.4482 -3.0161  0.0947
15350SOL     OW47490   1.872   3.192   5.731 -0.1343  0.3380  0.2321
15350SOL    HW147491   1.866   3.285   5.711  1.9938  0.9753  2.1922
15350SOL    HW247492   1.956   3.182   5.775 -0.6963 -2.3723  0.8553
15351SOL     OW47493   0.028   2.104   9.350  0.3913  0.3827  0.5035
15351SOL    HW147494  -0.011   2.137   9.269 -1.0879  0.0089  1.0302
15351SOL    HW247495  -0.043   2.059   9.394  1.7830 -1.6483  0.8316
15352SOL     OW47496   4.493   6.853   4.099 -0.0385  0.0654  0.7671
15352SOL    HW147497   4.473   6.761   4.116 -0.1080 -0.0799 -0.0887
15352SOL    HW247498   4.410   6.890   4.066 -0.1536  0.5596  1.5830
15353SOL     OW47499   1.136   0.094   9.161 -0.9968 -0.5304  0.4951
15353SOL    HW147500   1.090   0.171   9.128  0.0330  0.0873  0.4744
15353SOL    HW247501   1.153   0.041   9.083  1.0901  0.7414  0.0342
15354SOL     OW47502   0.747   4.181   3.820 -0.2112 -0.2739 -0.5371
15354SOL    HW147503   0.703   4.249   3.768 -0.4178 -1.7887 -2.4663
15354SOL    HW247504   0.676   4.132   3.861 -0.1066  0.1268  0.1219
15355SOL     OW47505   0.087   4.743   3.577  0.0576  0.0669 -0.1069
15355SOL    HW147506   0.017   4.797   3.540 -0.6948 -0.5624  0.3660
15355SOL    HW247507   0.122   4.795   3.649 -1.4612 -0.5327  1.1120
15356SOL     OW47508   1.953   3.292   7.184  0.3612  0.0580  0.2181
15356SOL    HW147509   1.949   3.199   7.207  0.0595 -0.1223 -0.5423
15356SOL    HW247510   2.020   3.328   7.242 -0.0267 -0.4830  1.0168
15357SOL     OW47511   6.530   7.885   8.800  0.0475 -0.1736  0.5429
15357SOL    HW147512   6.533   7.797   8.836  0.5875 -0.0425  0.8302
15357SOL    HW247513   6.555   7.942   8.872 -0.2534  0.2172  0.3486
15358SOL     OW47514   0.258   6.983  10.545  0.0336  0.2738 -0.5352
15358SOL    HW147515   0.202   7.056  10.518  0.0927  1.5177  2.2647
15358SOL    HW247516   0.345   7.008  10.514  0.1217  1.6912  0.6781
15359SOL     OW47517   5.803   2.460  10.182 -0.5075  0.0581 -0.1208
15359SOL    HW147518   5.854   2.409  10.119 -1.0180 -0.4543 -0.1180
15359SOL    HW247519   5.737   2.400  10.216  0.3161  0.0519  1.5982
15360SOL     OW47520   7.083   4.849  10.444 -0.3090  0.1245  0.1402
15360SOL    HW147521   7.107   4.786  10.376 -0.3946 -0.3622  0.5565
15360SOL    HW247522   7.009   4.898  10.406  1.3292  1.7099 -1.1982
15361SOL     OW47523   0.277   1.819   9.505 -0.2933 -0.2503 -0.4776
15361SOL    HW147524   0.361   1.801   9.464  1.0337  1.5217  1.2778
15361SOL    HW247525   0.296   1.828   9.598 -2.2038  1.3398 -0.1597
15362SOL     OW47526   1.696   3.592   4.541 -0.4950  0.3900  0.1418
15362SOL    HW147527   1.791   3.586   4.551 -0.2326  2.0364 -0.9176
15362SOL    HW247528   1.677   3.538   4.464 -0.2359  1.0106 -0.3675
15363SOL     OW47529   3.326   1.077   3.027  0.4794 -0.0528  0.0646
15363SOL    HW147530   3.293   1.040   2.946  0.9919  1.9807 -1.1543
15363SOL    HW247531   3.337   1.002   3.085 -0.9592 -1.4307 -1.3429
15364SOL     OW47532   3.948   0.780   1.352 -0.5565 -0.3522  0.2706
15364SOL    HW147533   4.023   0.784   1.292  0.5544  0.6001  1.6313
15364SOL    HW247534   3.967   0.704   1.408 -1.3451 -0.9520 -0.2577
15365SOL     OW47535   5.616   6.432  12.006  0.3714  0.4470  0.2671
15365SOL    HW147536   5.521   6.446  12.005  0.0823 -1.3242  0.1920
15365SOL    HW247537   5.641   6.445  12.097  0.2854  2.1451  0.0791
15366SOL     OW47538   6.278   0.298  12.086 -0.1076  0.1269 -0.2889
15366SOL    HW147539   6.243   0.248  12.013 -0.1892 -1.2948  0.6823
15366SOL    HW247540   6.283   0.235  12.158  1.5520  1.0497  0.4654
15367SOL     OW47541   2.768   1.431   9.378  0.9179 -0.3193  0.5286
15367SOL    HW147542   2.771   1.362   9.312  0.8375 -1.3578  1.5722
15367SOL    HW247543   2.853   1.476   9.370  0.5700  0.1434 -0.8312
15368SOL     OW47544   0.957   0.005   7.890  0.1499 -0.2942 -0.0530
15368SOL    HW147545   0.986   0.019   7.799  0.0206 -0.2547 -0.0889
15368SOL    HW247546   1.006  -0.072   7.919  3.8400  2.2885  1.4083
15369SOL     OW47547   3.229   5.336   4.725  0.2149 -0.1427  0.1415
15369SOL    HW147548   3.243   5.249   4.764 -1.1743 -1.2535 -1.6947
15369SOL    HW247549   3.262   5.328   4.636 -0.9624  0.8635 -0.4104
15370SOL     OW47550   5.606   1.808  11.523  0.6000  0.0089 -0.3034
15370SOL    HW147551   5.537   1.772  11.468 -0.7662  1.8478  0.1071
15370SOL    HW247552   5.666   1.850  11.462 -0.9274  2.0761 -0.5000
15371SOL     OW47553   6.796   6.478   6.386 -0.1943  0.0174  0.2826
15371SOL    HW147554   6.869   6.510   6.438  0.7584 -2.9491  0.9210
15371SOL    HW247555   6.720   6.486   6.443  0.5429 -1.5842  1.5280
15372SOL     OW47556   6.006   4.749   7.017  0.4631 -0.8176  0.2137
15372SOL    HW147557   5.961   4.700   6.948  1.4113 -0.2937 -0.8011
15372SOL    HW247558   6.035   4.681   7.079 -0.5743 -1.2681  0.2293
15373SOL     OW47559   5.912   7.534  11.104 -0.4141  0.2086 -0.4337
15373SOL    HW147560   5.833   7.495  11.141 -0.0879 -0.5840 -0.5529
15373SOL    HW247561   5.979   7.524  11.172 -0.5549  1.4611 -0.0715
15374SOL     OW47562   6.436   2.192   9.500  0.6443  0.3409  0.1701
15374SOL    HW147563   6.470   2.221   9.415 -0.0126  0.5153 -0.0415
15374SOL    HW247564   6.464   2.100   9.507 -1.1212 -0.3760 -1.2484
15375SOL     OW47565   7.641   3.496   9.647  0.4856  0.5560  0.7446
15375SOL    HW147566   7.674   3.526   9.563  1.9532  1.4966  1.6142
15375SOL    HW247567   7.711   3.440   9.681  0.6554  1.5048  2.0409
15376SOL     OW47568   6.076   4.249   1.040  0.3357  0.1751  0.2831
15376SOL    HW147569   6.098   4.313   1.108 -2.1210  0.6307  0.7218
15376SOL    HW247570   6.070   4.166   1.088  2.1349 -0.2086 -0.0567
15377SOL     OW47571   2.336   2.072   4.177  0.5530  0.1957  0.1040
15377SOL    HW147572   2.356   1.988   4.218  0.0654 -0.0491 -0.1585
15377SOL    HW247573   2.286   2.120   4.243  2.2377  0.9515  0.9066
15378SOL     OW47574   3.505   3.102   4.633 -0.1432  0.0530  0.0466
15378SOL    HW147575   3.414   3.086   4.608  0.2811 -0.0538 -1.5411
15378SOL    HW247576   3.553   3.099   4.550  1.4127 -0.5789  0.9344
15379SOL     OW47577   5.464   7.243  12.353 -0.8224  0.3364 -0.0365
15379SOL    HW147578   5.429   7.170  12.301  0.6280 -0.4174 -0.0092
15379SOL    HW247579   5.406   7.249  12.428 -0.3226 -1.5674  0.5458
15380SOL     OW47580   0.543   2.410   4.052 -0.3378  0.2486 -0.2203
15380SOL    HW147581   0.614   2.380   4.109 -0.9380 -0.6018  0.0932
15380SOL    HW247582   0.523   2.498   4.082 -0.2758  0.0102  0.5201
15381SOL     OW47583   7.127   3.451   4.073 -0.0319 -0.3548 -0.3728
15381SOL    HW147584   7.089   3.406   4.148  1.3336 -1.0364 -0.0605
15381SOL    HW247585   7.139   3.382   4.007 -0.1690  0.0229 -0.7986
15382SOL     OW47586   0.752   3.759   5.826 -0.5143  0.2268  0.7286
15382SOL    HW147587   0.744   3.664   5.816  0.1437 -0.0810  2.5929
15382SOL    HW247588   0.668   3.786   5.862 -1.2400  0.6180 -1.1614
15383SOL     OW47589   6.682   2.071   8.850 -0.6211  0.4444 -0.5782
15383SOL    HW147590   6.678   2.016   8.929 -0.1827 -1.1354 -1.5989
15383SOL    HW247591   6.639   2.152   8.875 -0.4215  0.0150  1.3134
15384SOL     OW47592   1.700   5.092   0.733 -0.2076 -0.4851  0.2025
15384SOL    HW147593   1.657   5.062   0.814 -2.4266  0.1453 -0.6713
15384SOL    HW247594   1.683   5.022   0.670  0.0501 -0.2111 -0.1740
15385SOL     OW47595   3.774   4.367   9.376  0.0751 -0.1220 -0.1688
15385SOL    HW147596   3.734   4.364   9.289  2.6250 -0.1924 -1.4418
15385SOL    HW247597   3.775   4.276   9.406 -0.8880 -0.0866 -0.0015
15386SOL     OW47598   6.420   7.202   0.477  0.2800  0.1185 -0.8261
15386SOL    HW147599   6.468   7.284   0.478  0.7940 -0.1830 -0.0869
15386SOL    HW247600   6.460   7.150   0.546 -0.5530 -0.4578 -0.7629
15387SOL     OW47601   5.519   4.312   4.129  0.8616 -0.3118  0.6009
15387SOL    HW147602   5.439   4.304   4.181 -0.0083 -0.4364 -0.6904
15387SOL    HW247603   5.574   4.372   4.179 -0.8373  1.3514  0.6329
15388SOL     OW47604   4.034   1.705  10.939 -0.1808  0.0349  0.0482
15388SOL    HW147605   4.021   1.703  10.844  1.5087 -0.1231 -0.2098
15388SOL    HW247606   3.981   1.779  10.969 -0.7835  0.0443 -1.0012
15389SOL     OW47607   2.633   4.114   3.941  0.6633 -0.1012 -0.2021
15389SOL    HW147608   2.726   4.126   3.921  0.7744 -3.0390 -2.0053
15389SOL    HW247609   2.632   4.057   4.017  0.4027 -1.1607 -0.9764
15390SOL     OW47610   3.627   7.278  11.386 -0.2580 -0.1527 -0.2144
15390SOL    HW147611   3.559   7.245  11.327 -0.3482 -0.8675  0.2691
15390SOL    HW247612   3.661   7.356  11.343 -1.2238  0.0832 -0.5828
15391SOL     OW47613   7.568   2.574   6.530 -0.5562  0.3601  1.0015
15391SOL    HW147614   7.659   2.544   6.538 -0.1486  0.9831 -0.9077
15391SOL    HW247615   7.552   2.623   6.611  1.0303  0.8168  1.0785
15392SOL     OW47616   1.508   3.832   5.936  1.0144  0.2126 -0.1180
15392SOL    HW147617   1.516   3.886   6.015  0.0963  0.2450 -0.0386
15392SOL    HW247618   1.543   3.887   5.866  1.0630  0.5072  0.1353
15393SOL     OW47619   1.985   3.728   0.079  0.2017  0.2861  0.2455
15393SOL    HW147620   1.960   3.649   0.127  1.3380  0.8401  1.8518
15393SOL    HW247621   1.911   3.746   0.022 -1.0535 -0.6821  1.4930
15394SOL     OW47622   3.336   5.814   6.666 -0.0634  0.5074 -0.3357
15394SOL    HW147623   3.313   5.842   6.754 -0.0628  1.5219 -0.6429
15394SOL    HW247624   3.254   5.817   6.617  0.1345  1.0713 -0.6478
15395SOL     OW47625   3.438   3.272   4.191 -0.2283  0.2099 -0.2721
15395SOL    HW147626   3.506   3.254   4.257 -0.1168  1.1833 -0.1089
15395SOL    HW247627   3.363   3.220   4.220 -0.2852  0.8663  0.8271
15396SOL     OW47628   7.796   6.373   0.643  0.8776 -0.2476  0.1887
15396SOL    HW147629   7.866   6.321   0.683  0.1966 -0.9358  0.5208
15396SOL    HW247630   7.716   6.326   0.666  0.4751 -1.2214 -2.7366
15397SOL     OW47631   1.064   0.003   8.617  0.2782  0.0845  0.4609
15397SOL    HW147632   1.130  -0.064   8.602 -0.8214 -1.4650  2.0944
15397SOL    HW247633   1.087   0.040   8.703 -0.3234  0.3258  0.5226
15398SOL     OW47634   6.324   4.490   4.340  0.3674 -0.1738  0.1819
15398SOL    HW147635   6.348   4.506   4.431  1.7656  2.7779 -0.5978
15398SOL    HW247636   6.397   4.523   4.289 -0.7018 -1.0550 -2.0688
15399SOL     OW47637   3.392   2.347   5.808 -0.4209 -0.3474 -0.7278
15399SOL    HW147638   3.424   2.423   5.856 -0.4779 -0.2519 -0.8393
15399SOL    HW247639   3.468   2.317   5.758 -0.3392 -0.4976 -0.5159
15400SOL     OW47640   5.243   7.829   9.635 -0.3152  0.2330  0.7135
15400SOL    HW147641   5.173   7.798   9.578  0.5598 -0.4546 -0.0141
15400SOL    HW247642   5.252   7.761   9.701  1.1091 -0.7520 -0.4557
15401SOL     OW47643   6.992   3.772   8.786 -0.6520 -0.0573 -0.1729
15401SOL    HW147644   7.043   3.711   8.733 -1.1740 -0.3686 -0.3227
15401SOL    HW247645   6.972   3.845   8.728  0.9102  0.7991  0.3130
15402SOL     OW47646   1.573   4.062   3.896 -0.8799  0.1712 -0.8329
15402SOL    HW147647   1.603   4.124   3.829  0.9189  0.5036  0.2253
15402SOL    HW247648   1.614   3.980   3.872 -0.8576  0.1040 -0.5645
15403SOL     OW47649   1.490   3.313   8.720 -0.0898 -0.1529 -0.1831
15403SOL    HW147650   1.559   3.379   8.711  2.2285 -2.5266 -1.1368
15403SOL    HW247651   1.480   3.302   8.815  1.0706  0.0778 -0.0120
15404SOL     OW47652   7.451   4.506   9.306  0.1186  0.7312  0.1369
15404SOL    HW147653   7.393   4.580   9.320 -0.9733 -0.3467  1.7022
15404SOL    HW247654   7.412   4.458   9.233 -0.5941  0.3976  0.7202
15405SOL     OW47655   4.755   6.360  10.924 -0.3023  0.1354 -0.0145
15405SOL    HW147656   4.740   6.443  10.879 -0.4054  0.6856  1.0083
15405SOL    HW247657   4.667   6.330  10.948 -0.1634  0.7495  1.3770
15406SOL     OW47658   1.354   7.921   2.770 -0.3319 -0.0308 -0.1361
15406SOL    HW147659   1.400   7.911   2.853  1.8851 -0.1971 -1.3185
15406SOL    HW247660   1.365   8.013   2.747  0.0798 -0.2378 -0.7928
15407SOL     OW47661   1.039   1.695   7.966 -0.1174  0.1249 -0.4815
15407SOL    HW147662   1.039   1.731   7.877 -0.0022 -0.6059 -0.7859
15407SOL    HW247663   0.946   1.688   7.990 -0.2452 -1.3898 -1.2740
15408SOL     OW47664   6.705   0.835   2.855 -0.3723 -0.1859 -0.0368
15408SOL    HW147665   6.677   0.880   2.775  1.0860  1.7255  0.4538
15408SOL    HW247666   6.630   0.842   2.914 -1.2297 -1.0621 -0.9918
15409SOL     OW47667   6.451   7.401   3.063 -0.1880  0.5470  0.1910
15409SOL    HW147668   6.535   7.446   3.052  0.4914 -0.6993  0.1436
15409SOL    HW247669   6.454   7.365   3.151  0.3604 -1.4931 -0.5977
15410SOL     OW47670   3.490   3.816   4.696  0.1862 -0.7988 -0.1916
15410SOL    HW147671   3.546   3.740   4.680  1.2363 -0.1214  0.1454
15410SOL    HW247672   3.518   3.850   4.781  0.7467  0.7817 -0.9560
15411SOL     OW47673   2.564   1.090   0.584 -0.6010 -0.0302 -0.2613
15411SOL    HW147674   2.574   1.168   0.529  0.1151 -1.7070 -2.6560
15411SOL    HW247675   2.559   1.125   0.673  0.1795  2.7069 -1.1711
15412SOL     OW47676   7.256   7.099   4.868  0.1376 -0.0537 -0.4146
15412SOL    HW147677   7.305   7.179   4.888 -0.9175  0.8939 -1.4716
15412SOL    HW247678   7.252   7.096   4.773 -1.0314 -0.6225 -0.3653
15413SOL     OW47679   7.140   2.632   7.792 -0.2465  0.5966 -0.2777
15413SOL    HW147680   7.051   2.602   7.776 -0.3408  0.6042  0.2076
15413SOL    HW247681   7.194   2.585   7.728 -0.6354  0.8294 -0.7824
15414SOL     OW47682   3.335   2.783   0.429  0.1238  0.3277  0.0615
15414SOL    HW147683   3.348   2.839   0.505  1.0229 -1.5671  1.3706
15414SOL    HW247684   3.384   2.826   0.359  2.5498  0.1845  1.5530
15415SOL     OW47685   3.079   6.279   0.356  0.2330  0.2735  0.1377
15415SOL    HW147686   3.018   6.243   0.420  0.8727 -0.0368  0.5868
15415SOL    HW247687   3.139   6.332   0.408  1.1804 -0.5377 -0.0977
15416SOL     OW47688   1.980   3.504   3.171  0.3950 -0.2084  0.2195
15416SOL    HW147689   1.916   3.446   3.129  1.3962 -0.4567 -1.0528
15416SOL    HW247690   1.944   3.592   3.159  0.4901 -0.3058 -0.9111
15417SOL     OW47691   6.446   5.550   3.050  0.3254 -0.0086  0.0855
15417SOL    HW147692   6.472   5.597   3.129  0.3175  1.5195 -0.7739
15417SOL    HW247693   6.501   5.472   3.048  1.8243  1.0063  0.5119
15418SOL     OW47694   2.094   5.111  11.487 -0.6250 -0.2233  0.4550
15418SOL    HW147695   2.178   5.150  11.514  1.7533 -3.2099 -1.9790
15418SOL    HW247696   2.058   5.075  11.568  1.1145 -0.0704  1.3515
15419SOL     OW47697   3.906   4.169   6.854 -0.3319 -0.4799 -0.0393
15419SOL    HW147698   3.948   4.084   6.849  1.7261  0.3128  1.9826
15419SOL    HW247699   3.816   4.154   6.826  0.3620 -2.9876 -1.1279
15420SOL     OW47700   4.766   4.836  12.071  0.1124  0.3380 -0.2492
15420SOL    HW147701   4.835   4.855  12.134 -0.3226  0.6064  0.1535
15420SOL    HW247702   4.773   4.742  12.056 -1.5558 -0.3236  2.3848
15421SOL     OW47703   5.895   5.573   9.458 -0.0103  0.0676  0.0922
15421SOL    HW147704   5.903   5.477   9.454  1.3546  0.1313  0.4989
15421SOL    HW247705   5.972   5.600   9.509  0.6768  1.5221 -1.6381
15422SOL     OW47706   5.760   1.595   0.447 -0.1328  0.3010 -0.4084
15422SOL    HW147707   5.838   1.623   0.495  0.1867 -0.0010 -0.7476
15422SOL    HW247708   5.687   1.620   0.504  0.2639 -0.6292  0.5468
15423SOL     OW47709   0.547   0.612   9.211  0.1862 -0.6552 -0.2322
15423SOL    HW147710   0.614   0.676   9.188 -1.9737  1.9507  0.2362
15423SOL    HW247711   0.527   0.568   9.128  0.7160  0.3091 -0.8945
15424SOL     OW47712   5.834   3.423   6.856 -0.6587  0.0373 -0.2704
15424SOL    HW147713   5.755   3.389   6.812 -0.4494 -0.8631  0.0239
15424SOL    HW247714   5.821   3.518   6.859 -1.3739 -0.0303 -0.9221
15425SOL     OW47715   3.160   3.983   9.228  0.5309 -0.3273  1.1408
15425SOL    HW147716   3.189   4.018   9.144 -1.8773 -0.0718  0.3211
15425SOL    HW247717   3.209   3.902   9.239  1.2562 -0.1029 -0.2742
15426SOL     OW47718   2.460   4.284   0.549  0.0853  0.1039 -0.2587
15426SOL    HW147719   2.504   4.356   0.504  0.4038 -0.4553 -0.8563
15426SOL    HW247720   2.373   4.318   0.570 -0.2464  0.2232 -1.7311
15427SOL     OW47721   2.007   0.646   7.301  0.5124  0.1402 -0.3729
15427SOL    HW147722   1.920   0.682   7.281  0.1209  0.9953  2.3642
15427SOL    HW247723   1.993   0.552   7.305  0.1063  0.1307 -1.5511
15428SOL     OW47724   7.545   3.171   0.706 -0.4274 -0.4030  0.0886
15428SOL    HW147725   7.624   3.132   0.669 -0.7749 -1.9710  0.9309
15428SOL    HW247726   7.498   3.098   0.747 -1.3235  0.8264  1.3661
15429SOL     OW47727   0.549   6.210  10.719 -0.0080 -0.5849 -0.3744
15429SOL    HW147728   0.458   6.231  10.698  0.0543 -0.9186 -1.0009
15429SOL    HW247729   0.596   6.224  10.636  0.7484  0.9394  0.2719
15430SOL     OW47730   5.195   0.809   9.650  0.2080 -0.4390 -0.4108
15430SOL    HW147731   5.185   0.715   9.638 -0.3750 -0.4521  0.1261
15430SOL    HW247732   5.184   0.845   9.562 -1.1914 -0.7552 -0.3851
15431SOL     OW47733   6.898   6.755   7.360 -0.4507  0.0658 -0.2694
15431SOL    HW147734   6.872   6.840   7.396  1.8994  1.2043 -1.0137
15431SOL    HW247735   6.901   6.697   7.435  1.2416  1.5646  0.9155
15432SOL     OW47736   3.202   5.165   7.983  0.5223  0.2126  0.5203
15432SOL    HW147737   3.284   5.196   8.022  1.0247 -0.8199  0.3119
15432SOL    HW247738   3.230   5.111   7.910 -0.3329 -0.6687  0.8360
15433SOL     OW47739   5.652   7.021   2.339  0.4700  0.0802  0.2812
15433SOL    HW147740   5.735   7.052   2.376 -0.9251  3.0242  1.2807
15433SOL    HW247741   5.620   6.956   2.402  1.5717 -0.4302  0.3312
15434SOL     OW47742   7.106   5.112   9.154 -0.3770  0.0737 -0.0372
15434SOL    HW147743   7.199   5.089   9.160 -0.0844  0.9238 -0.9932
15434SOL    HW247744   7.099   5.196   9.200 -0.0335  1.5602 -2.4845
15435SOL     OW47745   2.212   1.269   1.256 -0.1722 -0.4733  0.4582
15435SOL    HW147746   2.143   1.324   1.292  0.4644  1.2284 -0.8360
15435SOL    HW247747   2.270   1.252   1.331 -0.3387  0.6888  0.8703
15436SOL     OW47748   3.118   1.790   4.384  0.0169  0.3402  0.4185
15436SOL    HW147749   3.069   1.716   4.349 -0.5298  0.4841  0.8631
15436SOL    HW247750   3.068   1.867   4.359  0.8361  0.6056 -0.4559
15437SOL     OW47751   4.177   1.912   6.648  0.2523  0.6364  0.2092
15437SOL    HW147752   4.186   1.951   6.561 -0.0872  0.0005 -0.1263
15437SOL    HW247753   4.086   1.929   6.672  0.4806  1.2421  0.6633
15438SOL     OW47754   3.001   6.917   7.797  0.6652  0.1620 -0.0122
15438SOL    HW147755   3.015   6.982   7.727 -1.2357  0.2158 -0.3931
15438SOL    HW247756   3.013   6.833   7.754  0.4520  0.2166 -0.1826
15439SOL     OW47757   7.391   4.638   7.995 -0.6797 -0.2265  0.4204
15439SOL    HW147758   7.300   4.665   8.007 -0.2380  1.5387  0.0215
15439SOL    HW247759   7.419   4.679   7.914  0.5482 -0.5709  0.6372
15440SOL     OW47760   2.122   1.165   9.952  0.4184 -0.1898  0.5306
15440SOL    HW147761   2.184   1.128   9.889  0.0854 -1.3126  0.8219
15440SOL    HW247762   2.156   1.252   9.972  0.7796  0.0147 -0.8440
15441SOL     OW47763   4.444   1.087   7.607 -0.1015  0.1081  0.6084
15441SOL    HW147764   4.488   1.025   7.548 -1.1555 -0.8257  0.7721
15441SOL    HW247765   4.514   1.122   7.662  0.6931 -0.0284 -0.2865
15442SOL     OW47766   2.089   2.071   8.092  0.0261 -0.2174 -0.0604
15442SOL    HW147767   2.111   1.979   8.106  1.5692  0.0379 -0.6123
15442SOL    HW247768   2.170   2.110   8.059 -0.9003  1.1108 -0.8521
15443SOL     OW47769   0.539   1.430   2.797 -0.0909  0.3057  0.6351
15443SOL    HW147770   0.571   1.413   2.709  0.7951 -0.3140  1.0619
15443SOL    HW247771   0.454   1.472   2.784 -0.5629 -0.9175 -0.5007
15444SOL     OW47772   6.707   5.805   0.609  0.1370  0.0633 -0.4143
15444SOL    HW147773   6.652   5.795   0.687  0.6215  3.2644  0.4856
15444SOL    HW247774   6.793   5.827   0.643  0.2326  2.0529 -1.7870
15445SOL     OW47775   0.221   3.232   0.174  0.5264 -0.1722  0.0025
15445SOL    HW147776   0.190   3.219   0.084  1.7670 -0.3658 -0.4096
15445SOL    HW247777   0.282   3.160   0.189 -0.8377 -1.0587  1.5764
15446SOL     OW47778   2.647   3.630   3.717  0.0376  0.5738  0.1971
15446SOL    HW147779   2.634   3.661   3.628 -0.4352  0.0471  0.0780
15446SOL    HW247780   2.711   3.559   3.710 -0.1495  0.3994  0.2520
15447SOL     OW47781   6.712   2.805   9.479 -0.0894 -0.5892  0.3129
15447SOL    HW147782   6.767   2.821   9.556  0.7384  0.6014 -0.4963
15447SOL    HW247783   6.753   2.731   9.434 -0.5867 -1.3019  1.0015
15448SOL     OW47784   4.269   7.579   6.142  0.5405 -0.1101  0.0755
15448SOL    HW147785   4.224   7.573   6.226  0.7774  0.4888  0.2484
15448SOL    HW247786   4.217   7.641   6.092 -0.2627 -1.3153 -0.6575
15449SOL     OW47787   3.669   4.931  11.787 -0.9040  0.2182 -0.0344
15449SOL    HW147788   3.696   4.957  11.875 -0.1155 -2.5962  0.6775
15449SOL    HW247789   3.721   4.985  11.729  0.9189  0.0051  1.3015
15450SOL     OW47790   2.867   2.731   7.059 -0.2158  0.1958 -0.3089
15450SOL    HW147791   2.849   2.814   7.015  0.0447 -0.0637 -0.9164
15450SOL    HW247792   2.918   2.680   6.996 -3.3223 -1.8211 -1.4300
15451SOL     OW47793   1.996   0.648   1.345  0.1284 -0.5849 -0.3985
15451SOL    HW147794   1.939   0.663   1.420 -0.4153 -0.5479 -0.8145
15451SOL    HW247795   1.949   0.584   1.291  1.7877 -2.8458  0.6884
15452SOL     OW47796   7.315   3.055  10.869  0.2902 -0.7807 -0.3947
15452SOL    HW147797   7.233   3.024  10.830  0.4100 -1.9136  0.2107
15452SOL    HW247798   7.332   3.138  10.826 -0.2669 -1.3640 -1.7879
15453SOL     OW47799   7.265   3.369   5.736 -0.7586  0.4772  0.4465
15453SOL    HW147800   7.217   3.345   5.815 -0.1265 -1.6528  0.2512
15453SOL    HW247801   7.349   3.325   5.744  0.4147  2.4487 -0.1844
15454SOL     OW47802   6.491   6.694   8.232 -0.2563  0.5584  0.0545
15454SOL    HW147803   6.497   6.714   8.138 -0.9314 -2.7345 -0.8105
15454SOL    HW247804   6.582   6.690   8.261  0.0383 -0.2077 -0.9227
15455SOL     OW47805   1.010   3.623   1.107 -0.2073 -0.1090 -0.4711
15455SOL    HW147806   1.002   3.638   1.012 -1.9668  1.4851 -0.1269
15455SOL    HW247807   1.009   3.711   1.145  2.8163 -0.5574  0.9546
15456SOL     OW47808   4.513   5.389   3.684 -0.6875 -0.4007 -0.1882
15456SOL    HW147809   4.427   5.425   3.659 -1.7725 -2.6931 -0.0016
15456SOL    HW247810   4.530   5.425   3.771 -1.5290 -0.0275 -0.1689
15457SOL     OW47811   5.670   2.461   6.380  0.6007 -0.1934  0.0288
15457SOL    HW147812   5.664   2.396   6.310  0.0428 -0.1663  0.0462
15457SOL    HW247813   5.590   2.449   6.431  1.0426 -0.2711  0.7154
15458SOL     OW47814   0.971   3.461   0.475  0.0490 -0.2020  0.0726
15458SOL    HW147815   1.004   3.377   0.506  1.6519 -0.0572 -1.1057
15458SOL    HW247816   0.941   3.443   0.386  0.0757  0.3948 -0.0617
15459SOL     OW47817   3.941   5.397   7.532 -0.3415  0.7226  0.4343
15459SOL    HW147818   3.856   5.413   7.490 -0.1417 -0.5850 -0.5320
15459SOL    HW247819   3.951   5.469   7.595 -2.3396  0.6899  0.8567
15460SOL     OW47820   6.041   2.950  11.974 -0.0033 -0.6423  0.0022
15460SOL    HW147821   6.062   2.987  11.888 -0.0193 -0.2281  0.1790
15460SOL    HW247822   5.969   3.004  12.007  0.5525 -0.2886  0.6371
15461SOL     OW47823   0.517   0.179   0.709  0.9154  0.3133 -0.7867
15461SOL    HW147824   0.460   0.111   0.673  0.1922  0.5724 -0.1527
15461SOL    HW247825   0.582   0.131   0.760 -0.9202  0.1556  1.5478
15462SOL     OW47826   4.626   6.533   9.313  0.0323 -0.1856 -0.4033
15462SOL    HW147827   4.537   6.513   9.284  0.1292  0.4691 -1.1693
15462SOL    HW247828   4.647   6.617   9.271  0.8076 -0.0600  0.2115
15463SOL     OW47829   2.759   3.960   8.771  0.8567 -0.1064 -0.1178
15463SOL    HW147830   2.666   3.979   8.780  0.9246  0.3544 -0.3539
15463SOL    HW247831   2.787   3.930   8.857  0.6630  0.5315  0.1739
15464SOL     OW47832   5.529   2.962  12.314  0.2224 -0.1695  0.6554
15464SOL    HW147833   5.541   2.999  12.401 -0.9358 -1.0567  1.2097
15464SOL    HW247834   5.448   2.912  12.319 -0.4015  0.5421 -1.2029
15465SOL     OW47835   0.383   5.933   3.766 -0.0203  0.4322 -0.1431
15465SOL    HW147836   0.446   6.003   3.750 -0.2836  0.7637  0.2669
15465SOL    HW247837   0.314   5.973   3.817 -0.9572  0.2677 -1.2307
15466SOL     OW47838   7.772   3.874   9.725 -0.4531 -0.7558 -0.9031
15466SOL    HW147839   7.784   3.788   9.765  0.0972 -0.3385 -0.1380
15466SOL    HW247840   7.715   3.858   9.650  0.4858 -1.9508 -1.3905
15467SOL     OW47841   5.320   5.108   0.673 -0.3204  0.2883  0.2540
15467SOL    HW147842   5.363   5.193   0.663  1.7995 -0.7574 -0.1774
15467SOL    HW247843   5.328   5.088   0.766  0.7081 -0.1589  0.0822
15468SOL     OW47844   3.046   2.733   7.462  0.8636 -0.8399 -0.8462
15468SOL    HW147845   2.967   2.681   7.472  1.0927 -1.0447 -0.0557
15468SOL    HW247846   3.037   2.775   7.376 -0.4240 -0.2964 -0.4651
15469SOL     OW47847   6.587   1.625   8.826 -0.8483 -0.1054 -0.1048
15469SOL    HW147848   6.498   1.656   8.811 -0.0627  1.2346 -2.5082
15469SOL    HW247849   6.640   1.668   8.758  1.7016 -0.6158  1.4046
15470SOL     OW47850   0.282   1.142   7.785  0.2248 -0.5498 -0.2972
15470SOL    HW147851   0.215   1.099   7.731  2.1050 -1.5613 -1.9379
15470SOL    HW247852   0.359   1.086   7.778  1.0483  0.1311  2.2317
15471SOL     OW47853   5.638   2.383   9.427 -0.5007 -0.4269  0.3003
15471SOL    HW147854   5.610   2.344   9.344 -1.4111  0.5599  0.1265
15471SOL    HW247855   5.687   2.313   9.470 -0.0704 -0.9799 -1.0235
15472SOL     OW47856   5.982   3.854   9.083  0.5192  0.1993  0.3575
15472SOL    HW147857   6.016   3.925   9.028  1.0305  0.2879  0.7786
15472SOL    HW247858   6.010   3.774   9.038 -1.1833  0.2219 -0.8250
15473SOL     OW47859   4.729   6.270   6.098 -0.2712 -0.7250  0.2674
15473SOL    HW147860   4.799   6.334   6.084 -1.5647  0.6902  0.1088
15473SOL    HW247861   4.721   6.224   6.014  1.1734 -1.6775  0.6084
15474SOL     OW47862   3.762   6.653   5.832  0.3777 -0.1339  0.2129
15474SOL    HW147863   3.785   6.745   5.826 -1.5533  0.3659 -0.0220
15474SOL    HW247864   3.670   6.649   5.808  0.0013 -1.9178  1.6955
15475SOL     OW47865   5.590   0.246   5.154  0.1190  0.3197 -0.5626
15475SOL    HW147866   5.642   0.193   5.093  0.0168 -1.5102  0.8217
15475SOL    HW247867   5.501   0.241   5.119  0.3758  1.0128 -1.3515
15476SOL     OW47868   1.882   5.157  11.975  0.5789 -0.0562  0.6172
15476SOL    HW147869   1.856   5.187  12.062  0.7950  0.4508  0.5128
15476SOL    HW247870   1.876   5.235  11.920  0.0852 -0.4548  0.0944
15477SOL     OW47871   4.058   0.196  10.114 -0.1339  0.1038 -0.3179
15477SOL    HW147872   4.115   0.271  10.098 -0.0088  0.4036  1.2858
15477SOL    HW247873   4.114   0.120  10.099  0.3265  0.3769 -0.0408
15478SOL     OW47874   6.421   0.793   7.968 -0.6790 -0.1653  0.1427
15478SOL    HW147875   6.430   0.863   8.033 -1.1752 -0.2332  0.2883
15478SOL    HW247876   6.511   0.770   7.944 -0.5147  1.7097 -1.2003
15479SOL     OW47877   4.892   1.385   0.789  0.1085 -0.3513 -0.1128
15479SOL    HW147878   4.828   1.315   0.795 -2.0032  1.5560  1.5865
15479SOL    HW247879   4.863   1.439   0.715  0.2817  0.0345  0.0923
15480SOL     OW47880   4.506   4.777   0.369 -0.3087 -0.4020 -0.2938
15480SOL    HW147881   4.507   4.871   0.389 -2.4164  0.0612 -2.0385
15480SOL    HW247882   4.528   4.772   0.276 -0.2693 -1.6446 -0.2283
15481SOL     OW47883   2.199   6.070  10.358 -0.2042 -0.1826  0.2410
15481SOL    HW147884   2.180   5.976  10.359  0.8473 -0.4471 -0.7233
15481SOL    HW247885   2.189   6.095  10.266 -2.5742  1.1586  0.8032
15482SOL     OW47886   1.563   3.568   3.201  0.2677  0.2226  0.2130
15482SOL    HW147887   1.584   3.570   3.107 -0.2297 -0.3828  0.0854
15482SOL    HW247888   1.477   3.610   3.207  0.4688  0.6065  0.4502
15483SOL     OW47889   7.450   1.999   8.953 -0.0834 -0.0445 -0.4686
15483SOL    HW147890   7.515   2.041   9.010  0.7872  1.3170 -2.3360
15483SOL    HW247891   7.369   2.002   9.003  1.1574 -1.4916  1.8003
15484SOL     OW47892   7.594   3.662   9.277  0.3271  0.0209  0.7939
15484SOL    HW147893   7.522   3.599   9.268 -0.2411  0.9287 -1.8048
15484SOL    HW247894   7.670   3.608   9.299 -0.5441 -1.3338  0.6014
15485SOL     OW47895   1.844   2.820   5.633  0.0310  0.3832 -0.3526
15485SOL    HW147896   1.900   2.831   5.710  1.6887  1.7675 -1.6918
15485SOL    HW247897   1.902   2.782   5.567 -1.0416  0.3472 -1.2932
15486SOL     OW47898   1.874   4.022   3.292 -0.3090 -0.0806 -0.7600
15486SOL    HW147899   1.831   4.008   3.208 -1.7720 -0.6416  0.0314
15486SOL    HW247900   1.943   3.956   3.296 -0.6169 -0.4384 -1.2756
15487SOL     OW47901   5.726   0.648   0.789  0.0816 -0.4037  0.1895
15487SOL    HW147902   5.705   0.589   0.861 -0.5165 -0.0033  0.3528
15487SOL    HW247903   5.797   0.703   0.821 -0.4359  0.0251  0.6140
15488SOL     OW47904   2.301   5.175   1.750 -0.3102 -0.2298 -0.4429
15488SOL    HW147905   2.305   5.102   1.812 -2.3199 -0.2242 -0.2260
15488SOL    HW247906   2.285   5.134   1.665  0.7381 -0.1481 -0.6823
15489SOL     OW47907   6.193   6.754  10.563  0.2999  0.0020  0.0838
15489SOL    HW147908   6.207   6.722  10.474  0.5668 -0.7381  0.3860
15489SOL    HW247909   6.113   6.806  10.558 -0.4068 -1.0924 -0.3283
15490SOL     OW47910   2.608   4.473   6.647 -0.1371  0.1910  0.5301
15490SOL    HW147911   2.537   4.426   6.602 -0.0776  0.5745  0.0232
15490SOL    HW247912   2.677   4.481   6.581  0.3473 -0.0991  0.9929
15491SOL     OW47913   0.652   1.932  10.585  0.1034  0.1104  0.6187
15491SOL    HW147914   0.740   1.924  10.622  1.1615  0.7917 -1.5686
15491SOL    HW247915   0.624   2.020  10.609  0.3999  0.2161  0.5856
15492SOL     OW47916   1.181   2.750   6.664  0.5214 -0.4686  0.1134
15492SOL    HW147917   1.193   2.763   6.570  2.4158  0.9107  0.4870
15492SOL    HW247918   1.168   2.838   6.698 -0.9125 -1.0204  1.0920
15493SOL     OW47919   6.159   4.042   1.180 -0.3772 -0.3994 -0.7543
15493SOL    HW147920   6.244   4.052   1.224 -0.9502 -1.7856  0.7586
15493SOL    HW247921   6.149   3.948   1.168 -1.5850 -0.2339 -1.1944
15494SOL     OW47922   4.737   1.476   9.385 -0.1142  0.3131 -0.1385
15494SOL    HW147923   4.783   1.549   9.427 -0.6206  0.3368  0.3914
15494SOL    HW247924   4.648   1.482   9.419  0.0138 -0.9993  0.5078
15495SOL     OW47925   3.727   1.867   2.003 -0.3526  0.0669  0.2121
15495SOL    HW147926   3.698   1.957   2.016 -1.5008 -0.0091 -1.4762
15495SOL    HW247927   3.748   1.862   1.910  0.5141 -1.1973  0.4473
15496SOL     OW47928   7.856   5.441   2.975 -0.7120 -0.0527  0.4336
15496SOL    HW147929   7.803   5.377   2.927  1.6234 -1.6345 -0.2132
15496SOL    HW247930   7.842   5.418   3.067 -1.7257  0.0802  0.3327
15497SOL     OW47931   6.854   1.769   7.822 -0.0258 -0.1614  0.1996
15497SOL    HW147932   6.890   1.857   7.811  0.2834 -0.6154 -3.3228
15497SOL    HW247933   6.931   1.713   7.830 -0.0122 -0.5238 -1.9262
15498SOL     OW47934   5.400   2.693   8.528  0.8052 -0.4759 -0.2692
15498SOL    HW147935   5.342   2.639   8.474  0.7679 -0.3805 -0.3244
15498SOL    HW247936   5.467   2.725   8.467 -0.2565  1.1326 -0.6592
15499SOL     OW47937   4.494   3.517  11.285 -0.1913 -0.5182  0.4346
15499SOL    HW147938   4.439   3.464  11.227 -1.0234  0.4962  0.2669
15499SOL    HW247939   4.584   3.497  11.257 -0.5192 -1.2274 -0.1508
15500SOL     OW47940   0.617   1.627  10.469  0.1822 -0.1933  0.2047
15500SOL    HW147941   0.695   1.570  10.468  0.2692 -0.1323 -2.4861
15500SOL    HW247942   0.652   1.715  10.459 -0.2026 -0.1191 -0.5148
15501SOL     OW47943   5.690   4.322  10.978 -0.3778  0.3024  0.3457
15501SOL    HW147944   5.739   4.401  10.953 -0.3359 -0.5082 -2.4468
15501SOL    HW247945   5.746   4.278  11.042  0.5029  1.5139  0.4535
15502SOL     OW47946   7.315   2.508   7.635 -0.5916  0.0683 -0.3084
15502SOL    HW147947   7.272   2.429   7.602 -1.4225  0.4792 -0.2434
15502SOL    HW247948   7.381   2.475   7.696 -0.2046 -0.6168 -1.0812
15503SOL     OW47949   7.765   5.581   4.178  0.2124  0.1482  0.7254
15503SOL    HW147950   7.675   5.613   4.168  1.0048  2.4506  0.3955
15503SOL    HW247951   7.805   5.640   4.241  1.0406 -1.9598  2.2996
15504SOL     OW47952   1.172   0.675   6.943 -0.0898  0.6208  0.3098
15504SOL    HW147953   1.092   0.688   6.892  1.4825  0.0114 -2.5113
15504SOL    HW247954   1.231   0.746   6.914  1.2516 -0.4165  0.3872
15505SOL     OW47955   2.223   1.288   5.316 -0.3038 -0.0957  0.2074
15505SOL    HW147956   2.254   1.365   5.364  0.3238  0.9319 -1.7360
15505SOL    HW247957   2.296   1.226   5.320 -0.1361  0.1046  0.2778
15506SOL     OW47958   4.647   5.981   1.742 -0.0151 -0.0307 -0.4156
15506SOL    HW147959   4.607   5.957   1.825 -0.1455 -1.5140 -0.8685
15506SOL    HW247960   4.741   5.987   1.761 -0.2709  2.7063  0.4768
15507SOL     OW47961   2.715   5.430   9.448 -0.5574 -0.0858  0.3348
15507SOL    HW147962   2.800   5.471   9.432 -1.0317  0.8801  0.2231
15507SOL    HW247963   2.667   5.440   9.365 -0.7493 -0.6994  0.3685
15508SOL     OW47964   3.664   3.988  12.319  0.4955 -0.0045  0.1433
15508SOL    HW147965   3.619   4.005  12.402 -0.6701  0.8496 -0.6379
15508SOL    HW247966   3.683   4.074  12.284 -2.0123 -0.1966 -2.0241
15509SOL     OW47967   3.774   5.990   8.830 -0.2875 -0.1532 -0.4508
15509SOL    HW147968   3.722   5.940   8.893  1.1263  0.6809  1.4937
15509SOL    HW247969   3.861   5.949   8.835 -0.5656 -1.3432 -3.4050
15510SOL     OW47970   6.058   2.786   9.950 -0.8656 -0.3009  0.3892
15510SOL    HW147971   6.115   2.862   9.939  1.3955 -1.6705  1.8997
15510SOL    HW247972   6.108   2.713   9.911 -1.8404 -1.4472  1.2106
15511SOL     OW47973   7.821   0.478  12.336  0.2504 -0.4896 -0.0869
15511SOL    HW147974   7.833   0.573  12.333  0.3196 -0.5169 -1.2694
15511SOL    HW247975   7.731   0.465  12.366  0.6658 -0.0998  1.4123
15512SOL     OW47976   3.572   4.699   3.825 -0.2359 -0.0837  0.0042
15512SOL    HW147977   3.497   4.728   3.877 -0.2878 -0.3735  0.0961
15512SOL    HW247978   3.546   4.715   3.734 -0.5043 -0.3910  0.0237
15513SOL     OW47979   1.332   1.370   1.666  0.2489 -0.0515  0.1704
15513SOL    HW147980   1.313   1.405   1.579  0.1552 -0.2481  0.1118
15513SOL    HW247981   1.282   1.426   1.725 -1.1149 -0.9951 -0.0289
15514SOL     OW47982   3.535   3.535   3.953  0.8836 -0.0553 -0.0183
15514SOL    HW147983   3.463   3.475   3.933 -1.4351  2.5988 -0.3512
15514SOL    HW247984   3.537   3.540   4.048  1.3481 -0.9038  0.0234
15515SOL     OW47985   7.097   5.435   7.687 -0.2955  0.3288 -0.7934
15515SOL    HW147986   7.191   5.447   7.704 -0.4810  1.3179 -0.3489
15515SOL    HW247987   7.081   5.480   7.604 -0.3821  0.1851 -0.8553
15516SOL     OW47988   4.952   5.167   5.730  0.2717 -0.6653  0.2905
15516SOL    HW147989   5.041   5.154   5.762 -0.6728 -1.6337  2.8049
15516SOL    HW247990   4.912   5.080   5.736 -1.6348  0.2463  2.0069
15517SOL     OW47991   5.980   5.205   7.711  0.1156 -0.1773  0.7851
15517SOL    HW147992   5.914   5.138   7.725  0.1269  0.0284  1.9846
15517SOL    HW247993   5.934   5.287   7.730  0.5408  0.0126  1.0026
15518SOL     OW47994   5.175   0.770   2.738 -0.3582  0.0793 -0.0848
15518SOL    HW147995   5.170   0.805   2.826 -2.1361  1.0731 -0.5468
15518SOL    HW247996   5.257   0.806   2.703 -0.3518  0.8367  0.6738
15519SOL     OW47997   6.554   6.179  11.457  0.2730  0.3208  0.6489
15519SOL    HW147998   6.623   6.184  11.391 -0.6860 -0.1004 -0.4030
15519SOL    HW247999   6.545   6.269  11.489  0.0678  0.7139 -0.4926
15520SOL     OW48000   6.155   6.262   2.345 -0.2629 -0.5999 -0.0560
15520SOL    HW148001   6.064   6.266   2.316 -0.4478 -0.7027  0.4843
15520SOL    HW248002   6.200   6.213   2.276 -0.2628  0.8966 -1.1585
15521SOL     OW48003   2.660   2.226   7.940 -0.1101 -0.6114  0.5136
15521SOL    HW148004   2.696   2.221   8.028 -1.5078  1.2146  1.2742
15521SOL    HW248005   2.565   2.218   7.952 -0.2901 -0.9197 -0.8892
15522SOL     OW48006   3.113   5.143   6.595 -0.1470  0.4257 -0.3136
15522SOL    HW148007   3.201   5.180   6.605  0.1874 -0.5635  0.6692
15522SOL    HW248008   3.116   5.060   6.644 -1.9792  0.9644  0.8302
15523SOL     OW48009   6.739   7.332   1.274 -0.0204 -0.1615 -0.0687
15523SOL    HW148010   6.797   7.288   1.211  0.2044 -1.9712  1.2928
15523SOL    HW248011   6.709   7.261   1.332 -1.6679  1.1294  0.7495
15524SOL     OW48012   0.001   6.968   4.892 -0.6823  0.3444 -0.5160
15524SOL    HW148013  -0.007   6.877   4.863  1.1561 -0.7420  2.1029
15524SOL    HW248014  -0.088   7.003   4.886 -1.3921 -1.5341 -1.7222
15525SOL     OW48015   5.017   7.021   6.190  0.0567  0.1493  0.1102
15525SOL    HW148016   5.065   7.079   6.248 -2.1648  1.1281  1.0797
15525SOL    HW248017   5.047   7.044   6.102  1.0684  0.9582  0.6526
15526SOL     OW48018   3.636   7.564   1.589  0.1564 -0.4719  0.1893
15526SOL    HW148019   3.637   7.510   1.668  1.3474 -2.2832 -1.0059
15526SOL    HW248020   3.718   7.545   1.545 -0.1204  1.1153 -1.1149
15527SOL     OW48021   2.987   3.596   2.219 -0.5902 -0.1400 -0.5792
15527SOL    HW148022   3.016   3.662   2.156  0.6546  0.6551  0.7516
15527SOL    HW248023   2.921   3.641   2.272  0.7364  0.3006  0.7561
15528SOL     OW48024   2.743   2.633   2.853 -0.0209  0.0672  0.5348
15528SOL    HW148025   2.823   2.647   2.903 -0.0092  0.9692  0.2812
15528SOL    HW248026   2.695   2.716   2.861  0.6919  0.8274 -2.2298
15529SOL     OW48027   2.499   7.806   5.217  0.0914 -0.0234 -0.0047
15529SOL    HW148028   2.502   7.739   5.285  2.1877 -1.1917 -1.1630
15529SOL    HW248029   2.414   7.793   5.175 -0.6834 -0.1292  1.4969
15530SOL     OW48030   6.705   3.749   9.707  0.4416  0.4006 -0.2150
15530SOL    HW148031   6.643   3.691   9.750  1.0673  0.4432  0.7711
15530SOL    HW248032   6.726   3.704   9.625  1.8028 -1.4041  1.0434
15531SOL     OW48033   7.589   0.872   2.710 -0.1673 -0.1396  0.4618
15531SOL    HW148034   7.609   0.803   2.647 -1.6610 -0.6113  0.4674
15531SOL    HW248035   7.607   0.833   2.796 -0.0787 -0.1889  0.4204
15532SOL     OW48036   3.661   1.078   9.997  0.5527 -0.2613  0.1532
15532SOL    HW148037   3.669   1.169   9.970  1.6018 -0.0369  1.1339
15532SOL    HW248038   3.707   1.074  10.081  1.4212 -1.9029 -0.3611
15533SOL     OW48039   4.430   4.031   4.559 -0.1810  0.2095 -0.0082
15533SOL    HW148040   4.391   4.063   4.478 -1.0773 -1.7515 -0.4151
15533SOL    HW248041   4.357   4.030   4.621  0.3996  1.2667  0.7103
15534SOL     OW48042   5.420   7.040  12.156 -0.4773 -0.1951  0.1294
15534SOL    HW148043   5.442   6.954  12.193  1.0007  0.1942  0.2171
15534SOL    HW248044   5.352   7.021  12.091 -0.1404 -1.4429  0.1030
15535SOL     OW48045   4.276   6.713   1.180  0.2248 -0.1306 -0.2316
15535SOL    HW148046   4.311   6.662   1.107 -2.5480  0.3217 -2.0396
15535SOL    HW248047   4.218   6.653   1.226 -0.0857  0.3039 -0.0429
15536SOL     OW48048   1.809   2.401  11.464 -0.3379 -0.9022 -0.5575
15536SOL    HW148049   1.811   2.382  11.558 -0.2947  2.6047  0.2726
15536SOL    HW248050   1.902   2.401  11.439 -0.0619  1.2923  0.2302
15537SOL     OW48051   5.841   2.502  12.366  0.1803 -0.3257  0.1289
15537SOL    HW148052   5.751   2.480  12.391 -0.4241 -0.2459 -1.7865
15537SOL    HW248053   5.849   2.595  12.387 -0.0002 -0.4529  0.7856
15538SOL     OW48054   7.173   0.528   4.725  0.0303 -0.0525  0.7637
15538SOL    HW148055   7.220   0.555   4.646  2.1443  0.8119  2.2015
15538SOL    HW248056   7.122   0.605   4.750 -0.4469 -0.2434  0.3893
15539SOL     OW48057   6.249   2.541   4.269 -0.1658  0.3132 -0.1217
15539SOL    HW148058   6.252   2.634   4.290 -1.4806  0.3193  0.1213
15539SOL    HW248059   6.306   2.531   4.193 -0.3829  1.3916 -0.4340
15540SOL     OW48060   4.419   4.486   5.534 -0.4814 -0.0675  0.2099
15540SOL    HW148061   4.374   4.561   5.574 -0.8912 -0.2126  0.0248
15540SOL    HW248062   4.356   4.451   5.471 -0.1384 -0.3258  0.0096
15541SOL     OW48063   5.754   3.209   2.165  0.0739  0.1254  0.3691
15541SOL    HW148064   5.679   3.242   2.116  0.3025  0.5792  0.3202
15541SOL    HW248065   5.726   3.210   2.256 -0.4168 -0.8883  0.2479
15542SOL     OW48066   4.727   2.332   6.283  0.1612 -0.4004 -0.3634
15542SOL    HW148067   4.788   2.379   6.227  0.3260  1.4690  1.2676
15542SOL    HW248068   4.775   2.318   6.365 -0.9017 -0.7495  0.2199
15543SOL     OW48069   5.170   2.393   8.849 -0.3822 -0.1739  0.2342
15543SOL    HW148070   5.145   2.478   8.811 -0.8786  0.0888  1.1287
15543SOL    HW248071   5.240   2.414   8.910 -0.6925 -0.3562  0.6608
15544SOL     OW48072   5.528   4.508   9.076  0.0467  0.0326  0.2660
15544SOL    HW148073   5.464   4.570   9.041  0.0854  0.3389  0.7267
15544SOL    HW248074   5.546   4.449   9.003  0.3033  0.8043 -0.3128
15545SOL     OW48075   3.120   4.339   9.134 -0.4034 -0.1534 -0.2950
15545SOL    HW148076   3.059   4.306   9.200 -1.2873  0.2344 -0.8927
15545SOL    HW248077   3.064   4.366   9.061  0.3100  2.0666 -0.0919
15546SOL     OW48078   5.883   2.866   4.688  0.1329  0.1595 -0.2380
15546SOL    HW148079   5.789   2.869   4.709  0.4528  1.3611  1.1619
15546SOL    HW248080   5.922   2.820   4.763  0.5424 -1.6661 -1.4867
15547SOL     OW48081   6.072   7.320  11.541 -0.6156 -0.2311  0.4833
15547SOL    HW148082   6.058   7.227  11.523 -1.1316 -0.0728  0.0303
15547SOL    HW248083   6.107   7.356  11.459  1.2363 -0.3485  1.1785
15548SOL     OW48084   6.102   6.153   2.885 -0.2933  0.2814 -0.6403
15548SOL    HW148085   6.183   6.103   2.877 -0.7477 -0.2395 -2.2550
15548SOL    HW248086   6.116   6.208   2.962  1.1680 -0.5654 -0.2638
15549SOL     OW48087   7.851   2.560  12.340  0.5115  0.6502 -0.5931
15549SOL    HW148088   7.898   2.624  12.286  1.0062 -1.7708 -3.3090
15549SOL    HW248089   7.784   2.611  12.386  2.7851  3.5013 -0.2143
15550SOL     OW48090   5.996   0.861  10.989 -0.5786 -0.2530 -0.3930
15550SOL    HW148091   5.939   0.924  11.032 -1.1938  0.1477 -1.7461
15550SOL    HW248092   6.008   0.895  10.901  2.5874  0.2121  0.0762
15551SOL     OW48093   5.608   1.515   0.907 -0.5555 -0.0883 -0.2498
15551SOL    HW148094   5.635   1.548   0.993 -0.4160 -1.2206  0.1585
15551SOL    HW248095   5.595   1.421   0.920 -3.3339  0.1347 -0.7767
15552SOL     OW48096   3.228   0.223   9.842 -0.3602 -0.5618  0.6616
15552SOL    HW148097   3.289   0.254   9.775 -0.2207 -0.2629  0.9230
15552SOL    HW248098   3.187   0.303   9.875 -2.4064 -0.8734 -0.9198
15553SOL     OW48099   6.308   6.249   7.016  0.5809  0.2457 -0.3908
15553SOL    HW148100   6.398   6.219   7.003  0.4996 -0.5623  0.7881
15553SOL    HW248101   6.258   6.205   6.947  1.0399  0.5047 -0.8958
15554SOL     OW48102   0.518   3.397  11.978  0.7448 -0.1677 -0.2413
15554SOL    HW148103   0.559   3.469  11.930  2.2303 -0.6387  0.2814
15554SOL    HW248104   0.590   3.339  12.003 -0.2756 -1.2227  0.4009
15555SOL     OW48105   3.722   5.712   0.967 -0.0230  0.3982 -0.0608
15555SOL    HW148106   3.628   5.701   0.956 -0.2259  1.5115  0.4149
15555SOL    HW248107   3.734   5.724   1.061  0.5681  0.5032 -0.1448
15556SOL     OW48108   5.364   1.623   8.440  0.0915  0.0630 -0.5086
15556SOL    HW148109   5.306   1.699   8.438  0.5960  0.5750  1.7158
15556SOL    HW248110   5.309   1.552   8.474 -0.0899 -0.3223 -1.5692
15557SOL     OW48111   6.196   4.279  12.382 -0.2732 -0.4803 -0.3080
15557SOL    HW148112   6.183   4.237  12.297  0.3516 -0.8306 -0.2347
15557SOL    HW248113   6.160   4.217  12.446  1.7777 -1.5159 -0.0916
15558SOL     OW48114   1.721   6.867   4.231  0.6218  0.4212  0.1377
15558SOL    HW148115   1.633   6.832   4.243  0.4722  1.4314  2.6010
15558SOL    HW248116   1.712   6.961   4.248  2.0440  0.6686 -0.3122
15559SOL     OW48117   5.964   6.507   6.787  0.0873 -0.1826 -0.4725
15559SOL    HW148118   5.896   6.571   6.811 -0.9790 -0.6586 -2.1062
15559SOL    HW248119   6.041   6.537   6.835 -1.3803  0.0404  1.9349
15560SOL     OW48120   5.303   2.950   6.054 -0.1384  0.2834 -0.1857
15560SOL    HW148121   5.360   2.921   6.125  1.8885  1.5175 -1.1996
15560SOL    HW248122   5.282   3.041   6.077 -0.1969  0.4026 -0.7031
15561SOL     OW48123   4.993   3.116  12.043  0.1785 -0.3142 -0.8700
15561SOL    HW148124   5.059   3.069  12.093 -0.0659 -0.9567 -1.1412
15561SOL    HW248125   5.031   3.203  12.029  0.7586 -0.5211 -0.6087
15562SOL     OW48126   3.091   0.485   1.221  0.0892  0.3866 -0.1255
15562SOL    HW148127   3.006   0.442   1.216  0.8374 -1.1651 -0.0885
15562SOL    HW248128   3.076   0.562   1.275 -1.1117 -0.3216  0.5996
15563SOL     OW48129   2.194   0.159   6.421 -0.2846  0.1893 -0.1310
15563SOL    HW148130   2.239   0.155   6.506 -1.5352 -1.2235  0.5024
15563SOL    HW248131   2.236   0.233   6.376  1.4672  0.0180  1.0909
15564SOL     OW48132   2.513   3.692   0.928  0.8830 -0.0484  0.0107
15564SOL    HW148133   2.513   3.715   1.021  0.7599 -0.1726  0.0396
15564SOL    HW248134   2.474   3.605   0.924 -2.7482  1.4246 -0.5299
15565SOL     OW48135   0.910   2.569   4.469  0.8852 -0.0126 -0.0358
15565SOL    HW148136   0.826   2.612   4.485  1.2082  0.6800 -0.1637
15565SOL    HW248137   0.938   2.538   4.555 -0.2669 -1.7009 -0.2414
15566SOL     OW48138   2.760   2.299   5.302 -0.3556  0.3100 -0.1523
15566SOL    HW148139   2.739   2.377   5.353 -2.4654 -0.3506  0.0873
15566SOL    HW248140   2.675   2.263   5.276  0.6037 -0.7497 -2.0648
15567SOL     OW48141   5.610   7.661   2.417 -0.1873  0.0230  0.4727
15567SOL    HW148142   5.540   7.675   2.353 -0.0542  0.1004  0.3448
15567SOL    HW248143   5.671   7.733   2.403  0.4464 -0.6174 -0.1163
15568SOL     OW48144   0.766   1.526   8.533  0.2491 -0.0473  0.2642
15568SOL    HW148145   0.697   1.579   8.493 -0.0178 -0.9179 -0.4547
15568SOL    HW248146   0.722   1.479   8.603  0.6454  1.2157  1.4133
15569SOL     OW48147   0.655   0.541  11.473 -0.3167  0.5195 -0.4306
15569SOL    HW148148   0.711   0.593  11.530  2.0909 -1.0389 -1.2388
15569SOL    HW248149   0.710   0.520  11.398 -1.9215 -1.2879 -1.1812
15570SOL     OW48150   2.480   3.950   4.775 -0.0055  0.3586 -0.6066
15570SOL    HW148151   2.465   3.856   4.768  1.5956  0.0751 -0.7471
15570SOL    HW248152   2.398   3.990   4.746 -0.8804 -0.9785 -0.0765
15571SOL     OW48153   0.545   0.374   3.862  0.3150 -0.2496  0.5600
15571SOL    HW148154   0.568   0.447   3.803  0.6364 -0.4067  0.4854
15571SOL    HW248155   0.613   0.377   3.930  1.7812 -1.9322 -0.7176
15572SOL     OW48156   1.777   7.858   4.901  0.8237  0.0443  0.1336
15572SOL    HW148157   1.779   7.919   4.828  0.6641 -0.3842 -0.2292
15572SOL    HW248158   1.825   7.903   4.971  3.6547 -0.7137 -1.1690
15573SOL     OW48159   7.534   0.271   5.436  0.1853 -0.0707  0.3949
15573SOL    HW148160   7.615   0.262   5.385  0.2332 -0.4650  0.5411
15573SOL    HW248161   7.559   0.325   5.511  0.3472 -0.3092  0.5133
15574SOL     OW48162   6.701   5.281   8.318  0.8367  0.5977 -0.0327
15574SOL    HW148163   6.714   5.192   8.287  0.8037 -0.6610  3.1634
15574SOL    HW248164   6.789   5.312   8.341  0.7091  0.8939  0.0701
15575SOL     OW48165   3.679   6.312   6.528  0.2321  0.2785  0.2111
15575SOL    HW148166   3.759   6.263   6.512 -0.8270 -1.2478 -0.5819
15575SOL    HW248167   3.668   6.310   6.623  1.1212  0.5405  0.3331
15576SOL     OW48168   0.091   1.902   7.801  0.8259  0.5346 -0.3824
15576SOL    HW148169   0.123   1.838   7.865 -0.4669  0.7453  0.5094
15576SOL    HW248170   0.167   1.922   7.747  1.2093 -2.0038 -0.9027
15577SOL     OW48171   1.065   6.962   0.901 -0.1562 -0.5501  0.2460
15577SOL    HW148172   0.985   7.015   0.906  0.9493  1.1413  1.0456
15577SOL    HW248173   1.037   6.873   0.923 -1.4396  0.4109  2.8705
15578SOL     OW48174   3.399   7.590   6.635 -0.3026  0.3113 -0.0513
15578SOL    HW148175   3.447   7.507   6.640  0.7917  0.9205 -0.1076
15578SOL    HW248176   3.347   7.583   6.555  0.5550  0.0728 -0.6029
15579SOL     OW48177   0.224   1.078   5.065  0.1820  0.1034 -0.0162
15579SOL    HW148178   0.212   1.063   5.159  1.6616 -0.2774  0.1387
15579SOL    HW248179   0.152   1.031   5.024  0.4425 -1.1090  0.8545
15580SOL     OW48180   1.180   0.073   6.516 -0.3316 -0.1669 -0.2856
15580SOL    HW148181   1.160   0.027   6.598  1.3816 -0.9308 -0.2413
15580SOL    HW248182   1.258   0.125   6.537 -2.2471  2.9626 -0.3044
15581SOL     OW48183   4.040   7.688   7.321  0.4403  0.1984  0.2207
15581SOL    HW148184   4.113   7.726   7.371  1.0792  1.8783 -1.8396
15581SOL    HW248185   4.010   7.760   7.265 -3.5862 -0.0883  1.7050
15582SOL     OW48186   1.377   1.939   6.577 -0.0359 -0.5563  0.0404
15582SOL    HW148187   1.353   2.021   6.534  0.3722  0.3865  1.5370
15582SOL    HW248188   1.294   1.902   6.607 -0.0455  0.4853  1.3643
15583SOL     OW48189   7.119   5.171   4.416 -0.1289 -0.3563 -0.1120
15583SOL    HW148190   7.127   5.255   4.370 -2.0242 -0.9214 -1.6038
15583SOL    HW248191   7.024   5.154   4.417  0.1220 -1.8669  1.3229
15584SOL     OW48192   7.538   3.641  10.792  0.1213 -0.6791  0.2690
15584SOL    HW148193   7.600   3.703  10.752 -0.5688 -1.0500 -1.4516
15584SOL    HW248194   7.485   3.610  10.719 -1.1627 -1.4593  1.4947
15585SOL     OW48195   5.992   3.613   1.257 -0.1290  0.0633 -0.1907
15585SOL    HW148196   6.036   3.530   1.244 -0.9105 -0.2024 -1.2884
15585SOL    HW248197   6.026   3.669   1.187 -0.1103  0.4568  0.1302
15586SOL     OW48198   1.724   7.681  11.824  0.4486 -0.0775 -0.3233
15586SOL    HW148199   1.748   7.591  11.807  1.3319  0.1459 -0.2841
15586SOL    HW248200   1.629   7.684  11.810  0.7703 -0.4110 -2.9434
15587SOL     OW48201   3.938   7.462   1.183  0.2348  0.3050  0.7424
15587SOL    HW148202   3.985   7.513   1.118 -0.4802 -1.1119 -0.9553
15587SOL    HW248203   3.846   7.470   1.159  0.0280 -0.9238  1.0555
15588SOL     OW48204   6.081   5.043   4.360 -0.0731 -0.5508  0.3431
15588SOL    HW148205   6.137   4.979   4.316  1.5284  0.2734  1.0876
15588SOL    HW248206   6.115   5.128   4.332  0.2278 -0.0186  2.1966
15589SOL     OW48207   6.984   2.506   0.334  0.0063  0.1591  0.3082
15589SOL    HW148208   6.898   2.467   0.319  1.5269 -2.5448 -2.3301
15589SOL    HW248209   6.989   2.578   0.271 -0.8248  1.3926  1.5784
15590SOL     OW48210   5.292   6.468   0.682 -0.0410  0.5707  0.3923
15590SOL    HW148211   5.341   6.520   0.746  0.1850  0.4477  0.3185
15590SOL    HW248212   5.211   6.517   0.669 -0.8425 -0.2220  2.0211
15591SOL     OW48213   5.935   2.211  12.214  0.3189 -0.5548  0.2344
15591SOL    HW148214   5.935   2.243  12.123  1.0748  0.0835  0.4424
15591SOL    HW248215   5.979   2.127  12.209  0.9430 -0.2297  0.0886
15592SOL     OW48216   5.100   5.390   4.207  0.1505  0.6916  0.5186
15592SOL    HW148217   5.174   5.349   4.164  0.4491 -0.6536  2.1993
15592SOL    HW248218   5.050   5.318   4.244 -2.0235  1.5641 -0.5248
15593SOL     OW48219   3.921   1.473   3.767  0.0675  0.2454 -0.0596
15593SOL    HW148220   3.899   1.560   3.733 -0.0250  0.2407 -0.0133
15593SOL    HW248221   3.882   1.472   3.855 -0.6805 -0.1568 -0.3872
15594SOL     OW48222   3.417   2.492   6.638 -0.2362 -0.2438  0.2495
15594SOL    HW148223   3.398   2.585   6.623 -1.0834 -0.3955  0.3875
15594SOL    HW248224   3.461   2.490   6.723 -1.0178 -0.0640  0.6646
15595SOL     OW48225   6.896   4.479   9.093  0.2229  0.4918 -0.2535
15595SOL    HW148226   6.975   4.481   9.040  1.2000 -0.8157  1.0689
15595SOL    HW248227   6.847   4.403   9.061 -0.4255  1.1927 -0.9498
15596SOL     OW48228   4.174   6.562   0.444  0.2288  0.0408  0.2065
15596SOL    HW148229   4.082   6.581   0.466  0.3115  1.3761 -0.4807
15596SOL    HW248230   4.169   6.505   0.368 -0.0317 -0.9592  0.9624
15597SOL     OW48231   3.406   6.832   3.430  0.0212  0.4653 -0.0888
15597SOL    HW148232   3.399   6.771   3.356  1.3826  1.0447 -0.7194
15597SOL    HW248233   3.317   6.836   3.465  0.2865 -4.2293  1.9173
15598SOL     OW48234   3.481   7.808   6.766 -0.2883  0.5573  0.3980
15598SOL    HW148235   3.522   7.773   6.846  0.0454  0.0205 -0.0022
15598SOL    HW248236   3.467   7.731   6.711  1.1573  1.1401 -0.8270
15599SOL     OW48237   7.526   6.322   1.220  0.1505 -0.1818 -0.7059
15599SOL    HW148238   7.471   6.282   1.153 -0.1118  0.8432 -1.1239
15599SOL    HW248239   7.586   6.379   1.172  1.4076 -1.0384 -0.2307
15600SOL     OW48240   6.055   6.448   3.912 -0.2754 -0.4506  0.6023
15600SOL    HW148241   5.995   6.490   3.973 -0.5796 -0.1418  0.0952
15600SOL    HW248242   6.091   6.519   3.860 -0.1873 -0.7338  0.2712
15601SOL     OW48243   2.904   0.226  12.362 -0.2757 -0.4193  0.3979
15601SOL    HW148244   2.931   0.282  12.289  0.7592 -0.1714  0.9575
15601SOL    HW248245   2.842   0.164  12.322 -0.8706  0.6405 -0.3778
15602SOL     OW48246   6.627   6.682   7.961  0.0174 -0.0257  0.2851
15602SOL    HW148247   6.636   6.774   7.937 -0.0945 -0.6727 -2.6592
15602SOL    HW248248   6.600   6.639   7.880  1.0828 -2.8205  1.2875
15603SOL     OW48249   3.074   6.931   9.647 -0.0392  0.1689  0.6344
15603SOL    HW148250   3.091   7.023   9.623 -0.4473  0.3693  1.0889
15603SOL    HW248251   3.068   6.932   9.743  0.5153 -0.4335  0.6772
15604SOL     OW48252   2.115   5.522   2.789 -0.7453  0.0718 -0.1138
15604SOL    HW148253   2.141   5.554   2.703 -0.0692 -0.7085 -0.2168
15604SOL    HW248254   2.186   5.549   2.848 -1.0766  0.3747  0.1524
15605SOL     OW48255   3.825   5.901   8.519 -0.3870  0.2198  0.0302
15605SOL    HW148256   3.903   5.946   8.486 -0.7527  1.0072  0.2269
15605SOL    HW248257   3.813   5.935   8.607  1.0281 -2.4243  1.3636
15606SOL     OW48258   2.798   1.990   6.952 -0.8729 -0.1431  0.0139
15606SOL    HW148259   2.782   1.986   6.857 -0.5327  0.8335 -0.0954
15606SOL    HW248260   2.848   1.911   6.971  1.1544  0.7997 -1.0660
15607SOL     OW48261   5.892   6.804   1.281 -0.0091 -0.4614 -0.2682
15607SOL    HW148262   5.941   6.722   1.287  0.6274 -0.0562  0.1456
15607SOL    HW248263   5.856   6.817   1.369 -0.6953 -0.6464 -0.5127
15608SOL     OW48264   1.143   0.621   0.619 -0.4609  0.1290 -0.2168
15608SOL    HW148265   1.214   0.559   0.635 -0.7458 -0.0018  0.6185
15608SOL    HW248266   1.096   0.626   0.703  0.8123  3.0802  0.4684
15609SOL     OW48267   4.198   6.342   6.598 -0.1028  0.1116 -0.2293
15609SOL    HW148268   4.153   6.413   6.644 -0.0437 -1.0927  1.8188
15609SOL    HW248269   4.128   6.296   6.551 -0.4395  0.3578  0.0248
15610SOL     OW48270   2.885   0.420   4.109  0.5081  0.5584 -0.0452
15610SOL    HW148271   2.920   0.334   4.130 -0.5652  0.5248  1.7460
15610SOL    HW248272   2.841   0.408   4.025  3.0504  0.1684 -1.4324
15611SOL     OW48273   4.688   5.657   5.213  0.2742  0.1071  0.0067
15611SOL    HW148274   4.638   5.693   5.139 -0.7673 -0.5791  0.3599
15611SOL    HW248275   4.691   5.563   5.196  0.5774  0.0240  0.5188
15612SOL     OW48276   4.669   3.100   5.730  0.5289 -0.5332  0.6643
15612SOL    HW148277   4.616   3.137   5.660  1.2043 -2.8342 -1.2128
15612SOL    HW248278   4.644   3.149   5.808 -0.9395  1.5292 -0.9905
15613SOL     OW48279   7.030   4.188   4.142  0.0798  0.2150  0.3107
15613SOL    HW148280   6.941   4.160   4.160 -0.1725  0.7541 -0.0569
15613SOL    HW248281   7.085   4.114   4.167 -0.3576  0.3607  1.7981
15614SOL     OW48282   7.309   4.742   9.375 -0.1067  0.8875 -0.0330
15614SOL    HW148283   7.275   4.766   9.288  0.1972  0.4436 -0.2800
15614SOL    HW248284   7.240   4.689   9.414  0.8431 -1.2831 -1.1284
15615SOL     OW48285   5.776   0.857   5.684 -0.1313  0.0813 -0.4696
15615SOL    HW148286   5.689   0.817   5.695  0.8938 -1.8086  1.9478
15615SOL    HW248287   5.798   0.842   5.592 -1.2920 -1.8839 -0.4962
15616SOL     OW48288   5.732   3.668   8.795 -0.4277 -0.1300 -0.6010
15616SOL    HW148289   5.705   3.622   8.875 -0.8070  1.4219  0.2076
15616SOL    HW248290   5.827   3.658   8.793 -0.3559  0.2407  0.3342
15617SOL     OW48291   0.882   6.859   6.345  0.1389  0.6362 -0.1422
15617SOL    HW148292   0.819   6.788   6.331 -1.6426  2.4227 -1.7948
15617SOL    HW248293   0.862   6.892   6.432  0.2624 -0.1574  0.1985
15618SOL     OW48294   4.269   5.147   2.373 -0.3594  0.0905  0.6495
15618SOL    HW148295   4.236   5.058   2.363  0.3769 -0.3664  2.0448
15618SOL    HW248296   4.264   5.184   2.285 -0.3103 -1.4610 -0.0391
15619SOL     OW48297   0.034   4.202   8.326  0.2649 -0.1831 -0.1324
15619SOL    HW148298   0.106   4.142   8.344  0.1907  0.1569  1.4419
15619SOL    HW248299   0.012   4.240   8.412 -0.6351  1.0116 -0.8593
15620SOL     OW48300   3.425   6.303   3.250  0.3911 -0.4927  0.1899
15620SOL    HW148301   3.500   6.350   3.214 -0.3021  0.2963 -0.2687
15620SOL    HW248302   3.397   6.356   3.325  0.5265 -0.9943  0.6011
15621SOL     OW48303   0.873   5.198   8.447 -0.0805 -0.3700  0.4944
15621SOL    HW148304   0.885   5.234   8.535 -3.6003  1.8897  0.2571
15621SOL    HW248305   0.806   5.130   8.458 -0.5624 -0.0578 -0.4229
15622SOL     OW48306   6.625   2.356   1.978 -0.0048 -0.0642  0.7811
15622SOL    HW148307   6.573   2.277   1.994 -0.6183  0.2747  0.5098
15622SOL    HW248308   6.715   2.330   1.997 -0.0885 -1.0714 -0.1015
15623SOL     OW48309   1.186   7.088  11.277  0.0583  0.1360  0.1063
15623SOL    HW148310   1.119   7.045  11.223  1.5858  0.9152 -2.5957
15623SOL    HW248311   1.260   7.027  11.276  0.7894  1.0062 -0.3586
15624SOL     OW48312   0.932   2.583   6.759  0.4078 -0.8294 -0.1381
15624SOL    HW148313   0.949   2.542   6.674  0.8498 -2.1653  0.5584
15624SOL    HW248314   1.006   2.643   6.771 -0.2047  0.1675 -1.1385
15625SOL     OW48315   7.147   7.701   9.093  0.4128 -0.4683 -0.2771
15625SOL    HW148316   7.215   7.712   9.160  0.3334 -0.3724 -0.2106
15625SOL    HW248317   7.085   7.772   9.110 -1.0336 -2.0088  1.2742
15626SOL     OW48318   0.926   1.631  10.311  0.4072 -0.5360  0.4103
15626SOL    HW148319   0.879   1.547  10.312 -0.5018 -0.0463  1.5285
15626SOL    HW248320   0.858   1.695  10.288  0.8664  0.0119  0.5746
15627SOL     OW48321   2.709   0.371   0.571  0.2602 -0.2495  0.0655
15627SOL    HW148322   2.637   0.308   0.573 -0.5534  0.6341 -0.5482
15627SOL    HW248323   2.681   0.438   0.509  1.9283 -0.2430 -0.7643
15628SOL     OW48324   3.178   1.498   7.090  0.0397  0.4476 -0.2358
15628SOL    HW148325   3.118   1.481   7.162 -2.7349 -0.3549 -2.5267
15628SOL    HW248326   3.172   1.593   7.075 -1.7983  0.2014 -1.2806
15629SOL     OW48327   5.793   3.379  10.181 -0.2970  0.9354  0.2176
15629SOL    HW148328   5.732   3.323  10.229 -1.4086  2.5121  0.7347
15629SOL    HW248329   5.865   3.393  10.242  0.7449 -1.0722 -0.4536
15630SOL     OW48330   2.313   2.703   5.421 -0.3210 -0.0264 -0.0195
15630SOL    HW148331   2.332   2.752   5.341 -1.0019  0.2487 -0.0124
15630SOL    HW248332   2.398   2.666   5.446  0.1072  0.7457 -0.2886
15631SOL     OW48333   1.639   2.914   5.916  0.2010  0.5127 -0.0701
15631SOL    HW148334   1.652   2.820   5.925 -1.2079  0.1314 -1.3759
15631SOL    HW248335   1.659   2.932   5.824 -0.8223  1.2185 -0.1777
15632SOL     OW48336   4.402   0.242   0.044  0.1235  0.0595 -0.0129
15632SOL    HW148337   4.396   0.156   0.084 -0.7420 -0.4284 -1.1388
15632SOL    HW248338   4.489   0.274   0.069 -0.0337 -0.5830  1.4586
15633SOL     OW48339   6.762   0.655   5.199  0.1608 -0.4453 -0.2598
15633SOL    HW148340   6.690   0.595   5.218  0.0317 -0.0681  0.5194
15633SOL    HW248341   6.827   0.637   5.268  0.2797  0.0404 -0.2384
15634SOL     OW48342   6.985   0.825   8.397  0.2765  0.0582  0.1566
15634SOL    HW148343   7.030   0.741   8.395  1.3782  0.6400 -1.1823
15634SOL    HW248344   7.013   0.866   8.479  0.6481 -0.4040  0.2609
15635SOL     OW48345   4.566   2.935   4.675  0.3224 -0.0516  0.3476
15635SOL    HW148346   4.559   2.927   4.771 -2.9555  1.0790  0.3353
15635SOL    HW248347   4.604   3.022   4.661  1.7298 -0.6036  0.5632
15636SOL     OW48348   4.147   1.523   6.947  0.1997  0.1735 -0.6669
15636SOL    HW148349   4.137   1.463   6.873 -1.0057 -0.3137 -0.1430
15636SOL    HW248350   4.058   1.556   6.962  1.0608  3.7433 -2.2507
15637SOL     OW48351   1.802   4.222   9.468  0.1942  0.4263  0.1277
15637SOL    HW148352   1.865   4.153   9.451 -0.9625 -1.0360  1.4237
15637SOL    HW248353   1.768   4.202   9.555 -3.8592 -0.3751 -1.4115
15638SOL     OW48354   6.151   4.635   9.443  0.0910  0.8529  0.6752
15638SOL    HW148355   6.180   4.613   9.532  1.3527 -0.2940  0.0215
15638SOL    HW248356   6.068   4.588   9.433  0.4066  0.2299  0.9320
15639SOL     OW48357   4.548   6.460  11.787 -0.0108 -0.7130  0.5857
15639SOL    HW148358   4.542   6.367  11.807 -0.1243 -0.6776  0.7126
15639SOL    HW248359   4.482   6.502  11.842 -1.2159 -0.7577 -0.7588
15640SOL     OW48360   0.601   3.815   8.090 -0.1131  0.3481 -0.1266
15640SOL    HW148361   0.684   3.848   8.055  0.3606 -0.5492  0.1146
15640SOL    HW248362   0.541   3.889   8.083  0.6730  0.9757 -0.4181
15641SOL     OW48363   7.306   7.890   5.876 -0.2844  0.1730  0.7752
15641SOL    HW148364   7.289   7.960   5.814 -1.8944 -0.5670  0.3145
15641SOL    HW248365   7.284   7.928   5.961 -2.3334 -0.0523  0.4151
15642SOL     OW48366   1.088   7.483   5.167 -0.2338  0.3729 -0.0901
15642SOL    HW148367   1.184   7.482   5.162 -0.2496 -0.4741 -0.5039
15642SOL    HW248368   1.061   7.409   5.113 -1.0478 -0.5254  1.4691
15643SOL     OW48369   5.288   2.325   1.104 -0.1263 -0.2594  0.9384
15643SOL    HW148370   5.342   2.319   1.183  0.4090 -2.0782  0.4810
15643SOL    HW248371   5.208   2.369   1.132  0.3015 -0.3453  2.3455
15644SOL     OW48372   4.116   4.478   8.943  0.1677  0.1109 -0.2206
15644SOL    HW148373   4.197   4.426   8.944  0.1611 -0.0689  3.3524
15644SOL    HW248374   4.146   4.568   8.931  0.6743 -0.1698 -1.1467
15645SOL     OW48375   2.243   5.620  10.863 -0.0754 -0.6870  0.0768
15645SOL    HW148376   2.268   5.607  10.772  1.2861  0.4299  0.2629
15645SOL    HW248377   2.236   5.716  10.872 -1.8964 -0.8336  0.7264
15646SOL     OW48378   5.537   0.942  10.203 -0.4143 -0.1260  0.2882
15646SOL    HW148379   5.492   0.947  10.287 -0.9343 -0.0554  0.0049
15646SOL    HW248380   5.486   0.880  10.151 -0.0975 -0.1696  0.0212
15647SOL     OW48381   6.014   3.340   2.268 -0.0183  0.0202  0.4425
15647SOL    HW148382   5.953   3.278   2.228 -0.6152 -0.3308  1.8327
15647SOL    HW248383   6.055   3.290   2.339  0.4320  0.8442  0.7711
15648SOL     OW48384   6.731   5.023  10.993 -0.2917 -0.0179 -0.6133
15648SOL    HW148385   6.643   5.055  10.974 -0.3996 -0.1310 -0.2995
15648SOL    HW248386   6.788   5.080  10.942 -0.4592  0.9305  0.2269
15649SOL     OW48387   7.824   0.049   7.766 -0.7510  0.5100 -0.5326
15649SOL    HW148388   7.916   0.068   7.748 -0.6608  0.3625 -0.2383
15649SOL    HW248389   7.800   0.111   7.834 -1.1922  1.3065 -1.3875
15650SOL     OW48390   1.846   5.241   8.705 -0.8312  0.4373  0.1648
15650SOL    HW148391   1.882   5.222   8.792 -2.1180 -1.7272  0.3233
15650SOL    HW248392   1.893   5.318   8.675  1.2022 -0.0499  1.8762
15651SOL     OW48393   1.928   4.486  11.991 -0.3234  0.2319 -0.1856
15651SOL    HW148394   1.832   4.490  11.985 -0.3653 -1.9048 -2.1416
15651SOL    HW248395   1.959   4.524  11.909  0.7286  3.5119  1.5618
15652SOL     OW48396   6.166   6.338   6.066 -0.7608 -0.4000 -0.1290
15652SOL    HW148397   6.235   6.323   6.001 -0.5658  1.6789 -0.4826
15652SOL    HW248398   6.188   6.279   6.139  1.7320  0.5699 -0.0046
15653SOL     OW48399   4.795   5.554   2.746  0.2210 -0.5383 -0.3144
15653SOL    HW148400   4.874   5.593   2.709  1.0446 -0.3274  1.5650
15653SOL    HW248401   4.748   5.626   2.786 -0.1569 -0.8996 -0.0946
15654SOL     OW48402   2.245   1.152   9.367 -0.4083  0.6463 -0.2026
15654SOL    HW148403   2.198   1.074   9.399  0.4243  0.8135  1.5654
15654SOL    HW248404   2.218   1.222   9.426  0.3396  1.2559 -0.5697
15655SOL     OW48405   2.905   0.642   0.199 -0.5965 -0.0005  0.5615
15655SOL    HW148406   2.845   0.615   0.130 -0.1596  0.6501 -0.0839
15655SOL    HW248407   2.860   0.617   0.280 -0.0800 -2.9714  0.0443
15656SOL     OW48408   0.761   4.134   7.184 -0.3786  0.6209 -0.1900
15656SOL    HW148409   0.796   4.219   7.213 -1.7221  1.1369 -0.0167
15656SOL    HW248410   0.675   4.155   7.149 -0.4308 -0.5945 -0.8122
15657SOL     OW48411   6.116   0.640  10.688 -0.2573 -0.1863 -0.8696
15657SOL    HW148412   6.196   0.592  10.669  0.2265  0.7516 -1.2600
15657SOL    HW248413   6.128   0.725  10.646 -2.1323 -0.5767 -2.3335
15658SOL     OW48414   0.758   5.313   5.288  0.3032 -0.1034  0.0995
15658SOL    HW148415   0.772   5.226   5.250 -1.0220 -0.5509  0.5543
15658SOL    HW248416   0.816   5.371   5.240 -0.5752 -0.8232 -1.9179
15659SOL     OW48417   6.918   4.471   5.723  0.3888  0.0008  0.5875
15659SOL    HW148418   6.939   4.557   5.760 -1.2942  0.1349  1.3024
15659SOL    HW248419   6.936   4.480   5.630  1.3816  0.7466  0.8372
15660SOL     OW48420   7.139   2.856   1.635 -0.1773  0.1648 -0.0712
15660SOL    HW148421   7.194   2.912   1.690 -1.6446  0.5121  1.0926
15660SOL    HW248422   7.139   2.899   1.549  0.0266  1.0496  0.3668
15661SOL     OW48423   4.493   0.361   4.516  0.3330  0.5361  0.6206
15661SOL    HW148424   4.447   0.316   4.446 -0.0194  0.3265  0.9800
15661SOL    HW248425   4.433   0.429   4.545  0.9879  1.4580 -0.1268
15662SOL     OW48426   3.876   2.984   4.923 -0.1550 -0.1247 -0.0308
15662SOL    HW148427   3.910   3.008   5.010  0.2551  1.2495 -0.5350
15662SOL    HW248428   3.782   3.004   4.928 -0.3769 -1.2312  0.4714
15663SOL     OW48429   2.818   2.995   3.243 -0.4987 -0.0453 -0.4244
15663SOL    HW148430   2.814   2.900   3.233 -3.0959 -0.0534 -0.0723
15663SOL    HW248431   2.750   3.029   3.185  0.0201  1.5741 -0.1588
15664SOL     OW48432   1.239   4.305   8.671 -0.1096 -0.0123  0.7464
15664SOL    HW148433   1.244   4.339   8.760  2.0941  1.3150  0.2013
15664SOL    HW248434   1.330   4.302   8.641 -0.7170 -1.0834 -1.2343
15665SOL     OW48435   1.992   4.196   0.087 -0.2649  0.0832  0.1552
15665SOL    HW148436   2.077   4.174   0.125 -0.0834 -0.8189 -0.7437
15665SOL    HW248437   2.000   4.289   0.064  0.5147 -0.0208 -0.0225
15666SOL     OW48438   6.604   2.608   7.572  0.3144 -0.1290  0.2760
15666SOL    HW148439   6.620   2.697   7.539 -0.1515  0.6633  2.0173
15666SOL    HW248440   6.691   2.568   7.575  0.9329  1.2063  1.8447
15667SOL     OW48441   3.456   1.219   6.997 -0.5224 -0.4599  0.2361
15667SOL    HW148442   3.414   1.302   6.975 -0.1815 -0.4837 -0.5326
15667SOL    HW248443   3.409   1.154   6.944  0.5600 -0.4646 -0.7517
15668SOL     OW48444   6.968   3.321   7.949 -0.5615 -0.3643 -0.3562
15668SOL    HW148445   7.051   3.363   7.970 -0.5344 -0.6981  0.2379
15668SOL    HW248446   6.989   3.256   7.881 -0.1851 -1.0002  0.3545
15669SOL     OW48447   0.540   6.812   1.813 -0.5952  0.0154 -0.1436
15669SOL    HW148448   0.476   6.800   1.743 -0.4464  1.3180 -0.5231
15669SOL    HW248449   0.588   6.729   1.816 -0.6357 -0.0793 -1.5440
15670SOL     OW48450   1.862   4.219   1.182  0.4302 -0.3512 -0.1600
15670SOL    HW148451   1.775   4.209   1.220  0.5538 -0.1892  0.1700
15670SOL    HW248452   1.860   4.165   1.103  0.6795 -2.0326  0.9146
15671SOL     OW48453   6.160   2.214   8.097 -0.1890  0.1100  0.2566
15671SOL    HW148454   6.223   2.251   8.035 -0.2999  1.0574  0.6832
15671SOL    HW248455   6.096   2.284   8.110 -0.4513 -0.2646  1.0417
15672SOL     OW48456   1.761   2.556   1.167  0.0207 -0.4999  0.0172
15672SOL    HW148457   1.853   2.542   1.192  0.5668 -0.6603 -1.9165
15672SOL    HW248458   1.714   2.481   1.205  0.7089 -0.5476  0.8212
15673SOL     OW48459   4.590   4.979  11.699 -0.6486  0.2917 -0.1570
15673SOL    HW148460   4.541   5.026  11.766 -0.9275 -0.1711 -0.0332
15673SOL    HW248461   4.556   5.012  11.616 -0.0097  1.1725 -0.0808
15674SOL     OW48462   0.857   3.564   1.502  0.5726  0.5767 -0.1540
15674SOL    HW148463   0.777   3.585   1.454 -0.1823  0.4787  1.0124
15674SOL    HW248464   0.833   3.573   1.594  2.0410  1.0020  0.2185
15675SOL     OW48465   5.612   5.928   2.391  0.1946 -0.6798 -0.2886
15675SOL    HW148466   5.698   5.958   2.419  0.1712 -1.4306  0.6344
15675SOL    HW248467   5.593   5.979   2.312  2.0431 -1.4107 -1.2650
15676SOL     OW48468   7.658   5.042   7.014 -0.1376 -0.0674  0.5697
15676SOL    HW148469   7.712   5.121   7.004  0.1421 -0.4244 -1.0206
15676SOL    HW248470   7.720   4.969   7.004 -0.1817 -0.5568  3.1805
15677SOL     OW48471   0.660   4.381   0.516  0.0892  0.4708  0.0988
15677SOL    HW148472   0.704   4.296   0.515 -0.0671  0.3363 -2.3338
15677SOL    HW248473   0.623   4.388   0.604  1.6775 -1.1265  0.9543
15678SOL     OW48474   2.303   1.197  12.166  0.4928 -0.0184 -0.2007
15678SOL    HW148475   2.325   1.186  12.073  1.2889  0.1958 -0.0392
15678SOL    HW248476   2.217   1.156  12.174  0.5041 -0.2241 -0.9920
15679SOL     OW48477   5.835   0.566  11.473 -0.0738 -0.2563  0.2806
15679SOL    HW148478   5.766   0.500  11.483 -1.1982  0.9180  0.5783
15679SOL    HW248479   5.814   0.632  11.538  0.5484  0.7952 -0.5553
15680SOL     OW48480   3.126   1.173   1.409 -0.3951  0.2718 -0.1324
15680SOL    HW148481   3.144   1.088   1.449  0.2376  0.9395  1.0482
15680SOL    HW248482   3.208   1.197   1.367 -0.4194  0.5371 -0.0250
15681SOL     OW48483   2.619   1.454  11.311  0.3396 -0.2030 -0.6673
15681SOL    HW148484   2.532   1.487  11.285  0.2120 -0.3435 -0.4195
15681SOL    HW248485   2.655   1.416  11.231  0.5644  0.6968 -1.0064
15682SOL     OW48486   1.567   0.814   7.420  0.5398  0.7299  0.2751
15682SOL    HW148487   1.514   0.735   7.405  1.6137  0.4822 -3.0041
15682SOL    HW248488   1.529   0.879   7.361  1.6463  1.6943  0.5930
15683SOL     OW48489   4.807   1.166   2.215 -0.1606 -0.2278  0.8570
15683SOL    HW148490   4.845   1.205   2.294  0.1528 -2.8303  2.0990
15683SOL    HW248491   4.821   1.072   2.226  1.7447 -0.6422 -3.2778
15684SOL     OW48492   6.468   6.901   9.606  0.4300 -0.5585  0.1090
15684SOL    HW148493   6.376   6.882   9.588 -0.6661  3.1690  0.9143
15684SOL    HW248494   6.513   6.883   9.523 -1.5352  0.1926 -1.1975
15685SOL     OW48495   5.584   5.271   5.901  0.4647 -0.8293 -0.2184
15685SOL    HW148496   5.613   5.358   5.929  1.3742 -1.5567  1.1752
15685SOL    HW248497   5.490   5.272   5.913  0.7927 -1.1579  3.2092
15686SOL     OW48498   5.036   0.108   8.209 -0.0806 -0.4295  0.3401
15686SOL    HW148499   5.017   0.096   8.116  0.1189  1.3173  0.0476
15686SOL    HW248500   5.131   0.106   8.216 -0.0690  0.1082  0.3941
15687SOL     OW48501   6.943   7.282   0.507 -0.0039  0.3668 -0.4101
15687SOL    HW148502   6.867   7.235   0.475  0.1357 -1.2480  1.4281
15687SOL    HW248503   6.906   7.356   0.556 -0.2759  1.0651 -1.6226
15688SOL     OW48504   2.376   1.339   7.735 -0.4446 -0.2128 -0.2052
15688SOL    HW148505   2.438   1.393   7.783  1.7626 -2.6413 -0.0767
15688SOL    HW248506   2.376   1.375   7.646 -0.1766  0.8242  0.1994
15689SOL     OW48507   1.140   4.979   6.470 -0.5302 -0.5622 -0.3528
15689SOL    HW148508   1.217   4.922   6.472 -0.1617 -0.0890 -0.6697
15689SOL    HW248509   1.069   4.923   6.442 -1.1231 -1.9423  3.3469
15690SOL     OW48510   6.310   4.680  10.912 -0.5205 -0.6204  0.5697
15690SOL    HW148511   6.338   4.688  11.003 -2.0587 -1.4259  1.1359
15690SOL    HW248512   6.293   4.587  10.899 -1.1234 -0.4066 -0.2941
15691SOL     OW48513   1.782   2.397   4.190 -0.4379 -0.0738  0.2831
15691SOL    HW148514   1.705   2.356   4.150  0.9516  0.1456 -2.9345
15691SOL    HW248515   1.856   2.360   4.142  1.1098  3.5609 -0.4464
15692SOL     OW48516   5.852   2.410   0.514  0.5655 -0.6057 -0.3355
15692SOL    HW148517   5.761   2.382   0.518  0.7524 -1.2623 -0.6614
15692SOL    HW248518   5.859   2.478   0.581 -0.2969 -0.1647 -0.6827
15693SOL     OW48519   3.236   6.125  10.663 -0.1632  0.3946 -0.3307
15693SOL    HW148520   3.200   6.142  10.576 -0.9334 -0.8802 -0.2925
15693SOL    HW248521   3.302   6.193  10.676  0.7120 -0.0173 -2.3305
15694SOL     OW48522   7.706   0.118   6.512  0.0451  0.2981  0.0246
15694SOL    HW148523   7.642   0.172   6.558 -0.5539  1.0946 -1.6673
15694SOL    HW248524   7.759   0.080   6.582 -0.8511  1.3960  1.3684
15695SOL     OW48525   0.615   2.457   5.261  0.8620 -0.0728  0.6686
15695SOL    HW148526   0.530   2.468   5.217  0.2209 -0.5249  1.7451
15695SOL    HW248527   0.670   2.526   5.224 -0.9663  2.4662  2.3251
15696SOL     OW48528   0.561   3.268   4.531 -0.0576 -0.0129  0.0680
15696SOL    HW148529   0.534   3.277   4.440  1.7204 -1.3598 -0.6783
15696SOL    HW248530   0.655   3.286   4.529 -0.0405  0.2078  1.7039
15697SOL     OW48531   7.638   2.419   2.620  0.0230  0.1410  0.6465
15697SOL    HW148532   7.662   2.415   2.712  1.6434 -0.4460  0.2302
15697SOL    HW248533   7.646   2.330   2.588  1.6465  0.6724 -0.5519
15698SOL     OW48534   3.681   5.924   0.542 -0.4478 -0.8409 -0.0957
15698SOL    HW148535   3.769   5.945   0.511 -0.7938 -1.3397 -1.5031
15698SOL    HW248536   3.678   5.958   0.632  0.8694 -0.0138 -0.3383
15699SOL     OW48537   3.128   4.882  12.090  0.1986  0.0309  0.3424
15699SOL    HW148538   3.107   4.899  12.182 -2.4315  2.3848 -0.5339
15699SOL    HW248539   3.197   4.945  12.069  0.2612  0.0210  0.5157
15700SOL     OW48540   0.810   3.308   6.869  0.2771 -0.0639 -0.0894
15700SOL    HW148541   0.844   3.235   6.818  0.6811  0.8334 -1.1571
15700SOL    HW248542   0.863   3.309   6.949  0.7281 -0.5076 -0.3790
15701SOL     OW48543   7.145   5.345   5.905 -0.8161 -0.4743 -0.1013
15701SOL    HW148544   7.076   5.333   5.840 -0.9228 -0.3201 -0.0170
15701SOL    HW248545   7.128   5.431   5.944 -1.4026 -1.0178  0.8945
15702SOL     OW48546   5.115   1.686   8.799 -0.1453 -0.8707 -0.4679
15702SOL    HW148547   5.205   1.718   8.808 -0.4814  0.2785 -1.0657
15702SOL    HW248548   5.109   1.659   8.707 -0.4522 -0.7976 -0.4697
15703SOL     OW48549   5.613   5.021   6.384  0.7420 -0.0898 -0.3153
15703SOL    HW148550   5.644   5.108   6.360  0.5765 -0.1797 -0.8581
15703SOL    HW248551   5.521   5.019   6.359  0.5170 -0.1363  0.4728
15704SOL     OW48552   2.780   5.739   9.041  0.5743  0.0097  0.7056
15704SOL    HW148553   2.764   5.767   8.950 -0.7146  0.0451  0.9316
15704SOL    HW248554   2.850   5.797   9.071  0.0126  0.9817  0.1909
15705SOL     OW48555   3.407   2.346   7.521 -0.5014 -0.5941  0.1582
15705SOL    HW148556   3.323   2.392   7.527 -0.2095 -0.2035  1.6642
15705SOL    HW248557   3.465   2.408   7.477 -0.6526 -0.3139  0.3488
15706SOL     OW48558   4.780   7.469   3.596 -0.5353 -0.3936 -0.2751
15706SOL    HW148559   4.688   7.489   3.614 -0.5151  2.2669 -2.4417
15706SOL    HW248560   4.776   7.403   3.527 -0.9545  1.0665 -1.7223
15707SOL     OW48561   4.858   4.818   3.619  0.3663 -0.5546 -0.1708
15707SOL    HW148562   4.834   4.803   3.528 -0.3893 -0.6467  0.0325
15707SOL    HW248563   4.778   4.798   3.668  0.2531  1.0793  0.3734
15708SOL     OW48564   0.390   1.434   3.882 -0.2662 -0.3538  0.6576
15708SOL    HW148565   0.408   1.510   3.937 -1.3825 -0.6444  1.4485
15708SOL    HW248566   0.310   1.396   3.918  0.9624 -2.6875  1.1427
15709SOL     OW48567   1.711   3.790   7.407  0.1784  0.1355 -0.2156
15709SOL    HW148568   1.738   3.764   7.495 -1.2721  0.6602  0.4185
15709SOL    HW248569   1.792   3.793   7.357  0.9762 -0.6377  0.9796
15710SOL     OW48570   6.809   6.205   9.352 -0.4519 -0.0411 -0.2304
15710SOL    HW148571   6.863   6.270   9.397  1.1570 -0.4573 -1.4736
15710SOL    HW248572   6.796   6.136   9.417  4.0683 -1.9290 -0.9328
15711SOL     OW48573   2.954   6.786   9.873  0.1949  0.1313  0.1594
15711SOL    HW148574   3.013   6.731   9.821  0.5891 -0.0409  0.7801
15711SOL    HW248575   3.011   6.851   9.914  0.3514 -1.3638  2.5489
15712SOL     OW48576   2.071   7.791   0.313  0.2570  0.4372  0.2507
15712SOL    HW148577   1.978   7.796   0.335 -0.2848 -1.9908 -1.1260
15712SOL    HW248578   2.079   7.834   0.228  0.7288  1.9893  1.0392
15713SOL     OW48579   2.814   4.160   5.258 -0.0458 -0.0406 -0.1286
15713SOL    HW148580   2.794   4.254   5.259 -0.8700 -0.2102  0.6314
15713SOL    HW248581   2.735   4.120   5.223  0.2926 -0.4546 -0.4123
15714SOL     OW48582   1.768   1.763  10.836  0.0055 -0.1519 -0.8729
15714SOL    HW148583   1.791   1.795  10.749 -0.0727  1.6143 -0.2830
15714SOL    HW248584   1.851   1.762  10.884  0.2093 -1.9915 -1.1860
15715SOL     OW48585   5.378   2.092   7.168 -0.1471  0.0191  0.4251
15715SOL    HW148586   5.299   2.080   7.115  1.2936 -0.4533 -1.7659
15715SOL    HW248587   5.386   2.187   7.176 -1.1645  0.0679  1.0875
15716SOL     OW48588   4.196   4.366   1.612  0.7291 -0.3446  0.2372
15716SOL    HW148589   4.195   4.314   1.692  1.4357 -0.1291  0.3962
15716SOL    HW248590   4.251   4.316   1.551  1.1278  0.0348  0.2743
15717SOL     OW48591   5.750   1.682  11.915 -0.3719 -0.0363  0.1437
15717SOL    HW148592   5.659   1.686  11.884  0.1280  0.0835 -1.4290
15717SOL    HW248593   5.777   1.773  11.920 -0.0920 -0.1003 -0.1885
15718SOL     OW48594   1.260   0.816   0.790 -0.2758  0.5015  0.6303
15718SOL    HW148595   1.218   0.754   0.732  2.8286  0.6881 -2.1087
15718SOL    HW248596   1.243   0.783   0.878 -1.4814 -2.3247 -0.5619
15719SOL     OW48597   2.726   2.925   2.881 -0.0798 -0.2955  0.3164
15719SOL    HW148598   2.813   2.963   2.888  0.2280 -0.5032 -1.7653
15719SOL    HW248599   2.680   2.956   2.959  1.4541  0.8596  0.8078
15720SOL     OW48600   3.759   7.100   9.880  1.0445  0.0458 -0.0929
15720SOL    HW148601   3.707   7.142   9.949 -1.3204 -0.6546 -1.3269
15720SOL    HW248602   3.845   7.141   9.887 -0.0939  2.4923  1.0419
15721SOL     OW48603   3.473   2.288   0.353  0.7218 -0.9679  0.6850
15721SOL    HW148604   3.518   2.272   0.436  1.5101  0.0337  0.4657
15721SOL    HW248605   3.381   2.296   0.377  0.8199 -1.6320  1.3256
15722SOL     OW48606   6.065   7.867   0.450 -0.0120  0.0258 -0.0029
15722SOL    HW148607   5.971   7.881   0.464 -0.3683 -0.7833 -1.4090
15722SOL    HW248608   6.107   7.935   0.502 -1.3267 -0.3770  1.6923
15723SOL     OW48609   3.690   5.784  10.085  0.4433  0.4464  0.2802
15723SOL    HW148610   3.683   5.878  10.069  1.3857  0.6026  0.7538
15723SOL    HW248611   3.703   5.746   9.998  0.8815  0.8323  0.1744
15724SOL     OW48612   2.536   2.729   1.641  0.4652  0.5350  0.1731
15724SOL    HW148613   2.597   2.664   1.607  0.1916  1.1371 -1.5936
15724SOL    HW248614   2.561   2.741   1.733  0.6033 -1.9095  0.5059
15725SOL     OW48615   2.489   6.726   9.229  0.0362  0.3208  0.0394
15725SOL    HW148616   2.490   6.768   9.143  0.1284 -0.4753 -0.3512
15725SOL    HW248617   2.464   6.797   9.289 -0.9508  0.6722 -0.7538
15726SOL     OW48618   5.534   5.270   7.815 -0.0602 -0.1402  0.4460
15726SOL    HW148619   5.522   5.215   7.892 -0.2032 -1.8412 -0.7468
15726SOL    HW248620   5.497   5.355   7.840 -1.2665 -1.0261  1.7985
15727SOL     OW48621   0.556   2.205   2.794 -0.2273  0.0570  0.3113
15727SOL    HW148622   0.613   2.171   2.863 -0.2373  0.9015  0.7503
15727SOL    HW248623   0.614   2.255   2.737 -0.1202 -1.1051 -0.6323
15728SOL     OW48624   4.706   1.233   1.124 -0.1560  0.3074 -0.2065
15728SOL    HW148625   4.620   1.199   1.152 -0.4780  2.5770  1.9328
15728SOL    HW248626   4.686   1.319   1.087  1.2758  1.7688  2.1609
15729SOL     OW48627   7.456   2.828   9.817 -0.1995 -0.5608  0.5730
15729SOL    HW148628   7.534   2.839   9.871  0.9886 -0.5778 -1.0774
15729SOL    HW248629   7.403   2.906   9.836  2.6352  2.3535 -2.0826
15730SOL     OW48630   1.647   3.669   1.571  0.2586 -0.3421 -0.1878
15730SOL    HW148631   1.676   3.578   1.567 -0.1985 -0.4394 -1.6145
15730SOL    HW248632   1.720   3.719   1.534  0.9592  0.0175  1.5700
15731SOL     OW48633   0.681   1.150   2.873  0.2693 -0.4138 -0.7978
15731SOL    HW148634   0.754   1.212   2.876 -0.3653  0.3136  0.7137
15731SOL    HW248635   0.721   1.064   2.889  0.7097  0.0987  1.0999
15732SOL     OW48636   0.466   7.556   8.359 -0.0914  0.0526  0.1123
15732SOL    HW148637   0.466   7.471   8.314  0.8560 -0.8435  1.7268
15732SOL    HW248638   0.393   7.604   8.319 -0.0020 -1.1164 -1.5563
15733SOL     OW48639   3.276   4.094   1.669  0.0853  0.0183 -0.0726
15733SOL    HW148640   3.316   4.060   1.749  0.0891 -2.6753 -1.1189
15733SOL    HW248641   3.223   4.021   1.636  0.9151  0.6600 -3.0650
15734SOL     OW48642   3.865   2.232   1.098  0.3007  0.3391  0.6796
15734SOL    HW148643   3.959   2.243   1.113  0.3536 -0.0605  0.6641
15734SOL    HW248644   3.840   2.308   1.045  0.9010 -0.2340 -0.4818
15735SOL     OW48645   4.916   6.785   5.132 -0.1042  0.5305  0.3253
15735SOL    HW148646   4.878   6.860   5.178  0.0573  0.1040  1.1826
15735SOL    HW248647   4.876   6.787   5.045 -0.0509  1.6380  0.3140
15736SOL     OW48648   0.711   6.633   9.042 -0.1702  0.0251 -0.1638
15736SOL    HW148649   0.661   6.654   9.121  0.3663  0.2697  0.1098
15736SOL    HW248650   0.644   6.604   8.979 -0.5740 -0.4469  0.4655
15737SOL     OW48651   3.555   7.236  10.348  0.5978  0.3840  0.1284
15737SOL    HW148652   3.557   7.228  10.444  1.8960  0.4222  0.1293
15737SOL    HW248653   3.498   7.311  10.331 -1.1915 -0.7741  0.7578
15738SOL     OW48654   0.050   2.494   4.806 -0.0647 -0.3085 -0.0341
15738SOL    HW148655   0.029   2.405   4.836 -0.4236  0.3750  1.8515
15738SOL    HW248656  -0.031   2.525   4.766  0.0214 -0.7603 -0.5789
15739SOL     OW48657   2.468   7.238   7.352 -0.2313 -0.1891 -0.0953
15739SOL    HW148658   2.529   7.264   7.283  0.6008 -1.8700 -0.0470
15739SOL    HW248659   2.418   7.166   7.313 -0.1268 -0.7914  0.8633
15740SOL     OW48660   7.127   0.104   5.639  0.5552  0.3314  0.6216
15740SOL    HW148661   7.165   0.170   5.698  0.6491  1.5653 -0.7667
15740SOL    HW248662   7.160   0.128   5.552 -0.5912 -0.6872 -0.1221
15741SOL     OW48663   7.568   7.152   1.782 -0.3600 -0.0200 -0.4983
15741SOL    HW148664   7.590   7.081   1.721 -2.1744  0.7892 -2.2398
15741SOL    HW248665   7.475   7.167   1.767 -0.3702  1.6530  0.9997
15742SOL     OW48666   2.816   3.141   4.364 -0.1792  0.1520 -0.2773
15742SOL    HW148667   2.873   3.113   4.435 -1.6896  0.1093  0.9893
15742SOL    HW248668   2.741   3.182   4.408 -0.3334  1.7678 -1.9112
15743SOL     OW48669   2.474   7.891  10.198 -0.1871  0.2423 -0.0925
15743SOL    HW148670   2.418   7.927  10.267 -0.6117 -1.8731  0.7547
15743SOL    HW248671   2.561   7.891  10.236 -0.5719 -1.8571  0.9248
15744SOL     OW48672   4.172   2.015   4.967  0.3954  0.1445  0.0073
15744SOL    HW148673   4.134   1.972   5.043  0.2468 -0.0311 -0.1672
15744SOL    HW248674   4.262   1.982   4.963  1.4469  2.4309  1.9140
15745SOL     OW48675   0.320   2.049   6.539  0.4608  0.7030  0.6860
15745SOL    HW148676   0.303   2.086   6.626 -2.1319  3.3803 -0.7726
15745SOL    HW248677   0.249   1.985   6.527  2.1010 -1.3579  1.2689
15746SOL     OW48678   2.833   0.322  10.737  0.2606 -0.1635  0.5932
15746SOL    HW148679   2.879   0.239  10.727  0.7859  0.2880 -1.4674
15746SOL    HW248680   2.829   0.337  10.831  1.2899 -1.8885  0.9563
15747SOL     OW48681   6.595   4.490   3.330 -0.3543  0.5197 -0.0192
15747SOL    HW148682   6.574   4.536   3.412  0.0897 -0.4241  0.6371
15747SOL    HW248683   6.571   4.399   3.347 -1.1894  0.4725 -1.2941
15748SOL     OW48684   7.820   2.507   6.558  0.5877  0.1475 -0.6115
15748SOL    HW148685   7.874   2.582   6.582  1.5192 -0.5053 -0.6250
15748SOL    HW248686   7.847   2.485   6.469 -0.1735  0.2207 -0.8697
15749SOL     OW48687   0.360   6.919   6.005  0.3067  0.2856 -0.5019
15749SOL    HW148688   0.441   6.969   6.007  0.9231 -0.6581 -1.3228
15749SOL    HW248689   0.327   6.930   5.916 -2.1366  3.1871  0.5539
15750SOL     OW48690   6.587   7.529   0.023  0.1472  0.0021  0.2103
15750SOL    HW148691   6.513   7.587   0.043  0.8456  0.4844  1.4747
15750SOL    HW248692   6.556   7.442   0.049  0.0790  0.2298  0.9241
15751SOL     OW48693   0.166   2.389   1.573  0.3423  0.3086  0.1360
15751SOL    HW148694   0.215   2.340   1.640  1.2087 -1.1955 -1.5119
15751SOL    HW248695   0.079   2.349   1.574  0.0306  0.9792  1.0348
15752SOL     OW48696   3.992   2.170   3.095  0.3090 -0.1687  0.2165
15752SOL    HW148697   3.918   2.178   3.156  1.1578 -0.0769  1.2774
15752SOL    HW248698   4.028   2.083   3.114  1.0611  0.1819  0.4025
15753SOL     OW48699   1.285   5.392   7.569 -0.1101  0.1396 -0.2999
15753SOL    HW148700   1.337   5.462   7.608 -0.3837 -0.2247  0.7620
15753SOL    HW248701   1.268   5.331   7.642  1.9268 -2.1758 -1.6067
15754SOL     OW48702   1.094   5.002   1.363  0.5847 -0.2333  0.3649
15754SOL    HW148703   1.042   5.073   1.401 -0.0437 -0.1593 -0.6053
15754SOL    HW248704   1.097   5.023   1.270 -0.3619 -1.9430 -0.0825
15755SOL     OW48705   7.843   4.699  11.530 -0.5264  0.4739  0.6959
15755SOL    HW148706   7.824   4.647  11.452 -0.6237  0.2309  0.8782
15755SOL    HW248707   7.757   4.720  11.567 -0.4603 -0.6104  1.5088
15756SOL     OW48708   1.881   0.117   1.576 -0.0302 -0.1196  0.8137
15756SOL    HW148709   1.860   0.025   1.561 -0.8574  0.3366 -1.1537
15756SOL    HW248710   1.962   0.132   1.529 -0.4875  0.4000  0.1669
15757SOL     OW48711   7.041   2.135   9.667 -0.1023  0.4958 -0.0820
15757SOL    HW148712   7.024   2.204   9.731 -0.2411 -1.4357  2.1592
15757SOL    HW248713   6.955   2.097   9.649  0.1565 -0.1861  0.0888
15758SOL     OW48714   4.661   6.270   1.455  0.3916 -0.5374  0.3905
15758SOL    HW148715   4.646   6.286   1.548 -1.3748 -1.3863  0.3072
15758SOL    HW248716   4.726   6.200   1.452 -0.5533 -1.4670  1.0497
15759SOL     OW48717   3.186   0.204   3.986  0.3805 -0.4522 -0.0610
15759SOL    HW148718   3.211   0.290   4.020 -0.2934  1.1177 -3.1775
15759SOL    HW248719   3.106   0.181   4.034  0.8502  0.3591  1.1658
15760SOL     OW48720   6.798   4.348   2.434 -0.1558 -0.1196 -0.2216
15760SOL    HW148721   6.706   4.359   2.459 -0.3050  0.9588 -1.1780
15760SOL    HW248722   6.808   4.400   2.354  1.0396 -1.0509 -0.7158
15761SOL     OW48723   6.381   7.042   3.956  0.0319 -0.3708 -0.3454
15761SOL    HW148724   6.369   7.050   4.051 -0.6413  0.9372 -0.5233
15761SOL    HW248725   6.375   7.132   3.923  2.1334 -0.5802 -1.4341
15762SOL     OW48726   2.349   2.633   2.669 -0.3280  0.0471  0.0074
15762SOL    HW148727   2.347   2.546   2.709  1.7703 -0.9016 -1.7669
15762SOL    HW248728   2.312   2.621   2.582  0.9484  0.6470 -0.6554
15763SOL     OW48729   5.591   2.341   0.526  0.6682 -0.2404  0.1346
15763SOL    HW148730   5.513   2.397   0.533  0.2654 -0.9192  1.5832
15763SOL    HW248731   5.560   2.261   0.484  1.3000  0.6622 -2.1728
15764SOL     OW48732   4.290   5.434   8.774 -0.1196 -0.3630 -0.9913
15764SOL    HW148733   4.358   5.466   8.714  0.0611 -1.6544 -1.5148
15764SOL    HW248734   4.261   5.351   8.735 -0.7828 -0.6867  0.1431
15765SOL     OW48735   6.580   7.679   5.259  0.2661 -0.7191 -0.4859
15765SOL    HW148736   6.519   7.629   5.205 -1.1291 -0.2646  0.6150
15765SOL    HW248737   6.636   7.612   5.299 -0.9346 -1.3488  0.1982
15766SOL     OW48738   4.365   4.797   2.479  0.2320 -0.0372  0.3868
15766SOL    HW148739   4.333   4.745   2.553  1.5818  1.3461  2.0273
15766SOL    HW248740   4.286   4.839   2.444 -0.7089 -2.1691 -0.2216
15767SOL     OW48741   5.258   5.267   1.770 -0.5969  0.0551 -0.3668
15767SOL    HW148742   5.167   5.267   1.801 -1.9007  2.0898 -3.5351
15767SOL    HW248743   5.279   5.175   1.756 -2.0314 -0.4873  0.8385
15768SOL     OW48744   4.762   3.481   3.621 -0.3482  0.0061  0.7550
15768SOL    HW148745   4.721   3.549   3.568 -0.1907 -0.3521  0.1670
15768SOL    HW248746   4.856   3.487   3.600 -0.3173 -0.3120  0.7856
15769SOL     OW48747   1.067   1.925   9.076  0.4533  0.0314  0.4946
15769SOL    HW148748   0.974   1.910   9.058  0.9815 -1.4468 -1.2238
15769SOL    HW248749   1.067   1.966   9.163 -1.7173 -1.4302  1.2901
15770SOL     OW48750   3.522   4.303   3.629 -0.2156  0.1981 -0.0781
15770SOL    HW148751   3.595   4.338   3.578  1.0888  0.1612  1.6879
15770SOL    HW248752   3.460   4.375   3.634  0.2860  0.6711 -0.4904
15771SOL     OW48753   6.716   5.776   2.906  0.0426 -0.3756 -0.0963
15771SOL    HW148754   6.745   5.708   2.844  2.7518  0.5829 -0.0313
15771SOL    HW248755   6.694   5.851   2.851  3.7515  0.9504 -0.0863
15772SOL     OW48756   0.113   6.049   6.281  0.1105  0.3212  0.2484
15772SOL    HW148757   0.142   6.057   6.190  1.2821 -0.4790  0.5342
15772SOL    HW248758   0.018   6.035   6.275  0.3504 -0.9506 -0.9053
15773SOL     OW48759   2.290   6.419   7.447  0.0270 -0.3398  0.7079
15773SOL    HW148760   2.283   6.374   7.363  0.2348  0.1673  0.4175
15773SOL    HW248761   2.260   6.354   7.511  0.3059 -0.8907  0.2953
15774SOL     OW48762   5.094   1.872  10.650 -0.2308  0.4502  0.6768
15774SOL    HW148763   5.073   1.925  10.573  0.5307 -1.7458 -1.1730
15774SOL    HW248764   5.188   1.885  10.663 -0.0169 -0.4575  0.1458
15775SOL     OW48765   5.362   3.680   2.621 -0.8244  0.2023 -0.0644
15775SOL    HW148766   5.317   3.764   2.625 -0.1805  0.5958 -0.8162
15775SOL    HW248767   5.412   3.675   2.703 -0.2534  0.9070 -0.3662
15776SOL     OW48768   4.604   7.424   5.704 -0.7145 -0.4726 -0.3040
15776SOL    HW148769   4.543   7.471   5.760 -1.4444  0.7010 -1.9786
15776SOL    HW248770   4.646   7.361   5.761 -0.8690  1.1463  1.6930
15777SOL     OW48771   0.154   2.407   7.195 -0.7321  0.4794  0.2300
15777SOL    HW148772   0.106   2.343   7.248 -0.2820  0.0023  0.0696
15777SOL    HW248773   0.235   2.423   7.244 -0.3496  0.0965 -0.2761
15778SOL     OW48774   1.365   3.558  10.781  0.6111 -0.4705  0.1115
15778SOL    HW148775   1.357   3.473  10.737  1.6693 -0.6292  0.1813
15778SOL    HW248776   1.293   3.559  10.844 -0.9616 -0.2012 -1.6347
15779SOL     OW48777   5.386   1.980   6.611  0.0888 -0.4658 -0.2630
15779SOL    HW148778   5.393   1.977   6.515  1.0853 -0.4388 -0.1954
15779SOL    HW248779   5.473   1.959   6.642 -0.6143 -2.1708  0.6858
15780SOL     OW48780   0.242   7.677   2.543  0.2769  0.3532  0.1077
15780SOL    HW148781   0.301   7.663   2.469 -0.5583 -0.6557 -0.3975
15780SOL    HW248782   0.165   7.718   2.504  0.0446  0.3064  0.5101
15781SOL     OW48783   0.530   1.522  12.353  0.2403  0.2765  0.9213
15781SOL    HW148784   0.442   1.558  12.358  0.5144  1.1056  0.1548
15781SOL    HW248785   0.518   1.428  12.345 -0.6000  0.4198  0.3921
15782SOL     OW48786   3.733   1.504   5.700  0.4220 -0.4493  0.6229
15782SOL    HW148787   3.731   1.417   5.661  2.6674 -0.7067  0.9599
15782SOL    HW248788   3.649   1.543   5.676 -0.2732 -2.3760 -0.2648
15783SOL     OW48789   7.238   4.441   1.894 -0.5413 -0.7017  0.4342
15783SOL    HW148790   7.292   4.445   1.973 -1.7234  1.2020  1.2020
15783SOL    HW248791   7.277   4.371   1.842  1.9040 -0.2349  1.5075
15784SOL     OW48792   4.456   0.929   7.993  0.2128  0.2584  0.0621
15784SOL    HW148793   4.453   1.004   8.052 -1.0047  0.3821 -0.1226
15784SOL    HW248794   4.401   0.954   7.918  0.0246 -0.6923 -0.1434
15785SOL     OW48795   6.576   2.224   0.479 -0.1382  0.1630  0.0415
15785SOL    HW148796   6.488   2.217   0.516  0.2866  0.0532  1.0435
15785SOL    HW248797   6.623   2.147   0.512  0.3784  0.2791 -0.3914
15786SOL     OW48798   7.194   4.212  10.870  0.4374  0.4266  0.2776
15786SOL    HW148799   7.196   4.147  10.799 -0.1103  0.1466  0.5048
15786SOL    HW248800   7.250   4.174  10.938 -0.2674 -0.0577  0.6054
15787SOL     OW48801   0.400   5.349   1.502 -0.2844 -0.1590  0.0860
15787SOL    HW148802   0.449   5.395   1.434  0.6132 -1.9962 -0.5669
15787SOL    HW248803   0.308   5.373   1.486 -0.2585 -1.5724 -2.6568
15788SOL     OW48804   7.324   5.539   2.923  0.7172 -0.8849 -0.2881
15788SOL    HW148805   7.398   5.561   2.866 -0.0525  0.2823 -0.8786
15788SOL    HW248806   7.254   5.598   2.895  0.5433  0.3316  2.4248
15789SOL     OW48807   5.160   6.405   7.001 -0.1400 -0.0921  0.1826
15789SOL    HW148808   5.228   6.338   6.995 -0.8491 -0.9626  1.3979
15789SOL    HW248809   5.124   6.411   6.912  1.0757 -0.0709 -0.3262
15790SOL     OW48810   3.361   3.112   5.941 -0.0534 -0.0785 -0.0209
15790SOL    HW148811   3.405   3.165   5.876 -0.4641 -0.3530 -0.5365
15790SOL    HW248812   3.321   3.175   6.002 -0.8820  0.2255 -0.8559
15791SOL     OW48813   5.472   3.104   3.794  0.3755 -0.1536  0.1851
15791SOL    HW148814   5.395   3.161   3.795  0.3143 -0.1761 -1.0488
15791SOL    HW248815   5.470   3.058   3.878  0.3293  1.5250  1.1360
15792SOL     OW48816   1.270   5.989   3.003  0.4607  0.6591  0.0730
15792SOL    HW148817   1.307   5.974   3.089 -1.0168 -0.7821  0.5074
15792SOL    HW248818   1.298   5.915   2.950  0.6630  1.1010 -0.4584
15793SOL     OW48819   2.866   4.724   9.309  0.9281 -0.5133 -0.2786
15793SOL    HW148820   2.781   4.681   9.298  1.0920 -0.5794 -1.5135
15793SOL    HW248821   2.845   4.809   9.347  0.1345  0.0127 -1.7830
15794SOL     OW48822   4.575   0.726   3.382 -0.0330 -0.1069 -0.4098
15794SOL    HW148823   4.590   0.793   3.315  0.1329  2.9107  2.3511
15794SOL    HW248824   4.489   0.749   3.419  0.5279 -0.6796  1.3435
15795SOL     OW48825   6.150   2.506   1.032  0.1046  0.3354  0.5920
15795SOL    HW148826   6.213   2.473   0.968 -0.9059  0.5262 -0.5366
15795SOL    HW248827   6.204   2.545   1.100  1.2141  0.9769 -0.6054
15796SOL     OW48828   0.999   2.611   7.526 -0.1558  0.2180 -0.0277
15796SOL    HW148829   0.961   2.681   7.580 -1.9524 -1.4526  1.0060
15796SOL    HW248830   0.932   2.592   7.461  0.3761 -0.4515 -0.3934
15797SOL     OW48831   1.781   6.435   9.296  0.0950 -0.8390 -0.4416
15797SOL    HW148832   1.702   6.394   9.260 -0.7693  0.7075 -0.4375
15797SOL    HW248833   1.803   6.503   9.232 -0.4925  0.8574  1.0950
15798SOL     OW48834   1.211   6.356   5.689  0.3163  0.2061 -0.3190
15798SOL    HW148835   1.123   6.393   5.701 -0.4624 -0.3411 -3.5427
15798SOL    HW248836   1.196   6.261   5.681  1.2887  0.0384 -0.2412
15799SOL     OW48837   2.294   6.628  12.023 -0.0957 -0.2696 -0.1610
15799SOL    HW148838   2.287   6.555  11.961 -1.1118  0.2807 -0.7103
15799SOL    HW248839   2.343   6.695  11.975  1.1831 -0.6990  0.4785
15800SOL     OW48840   7.052   5.328   8.302  0.1616  0.3742  0.0426
15800SOL    HW148841   7.061   5.265   8.231 -0.7716  0.9895 -0.6344
15800SOL    HW248842   7.141   5.359   8.318  0.6024 -0.9622  0.2600
15801SOL     OW48843   3.734   0.309   5.449  0.0608  0.5413  0.1823
15801SOL    HW148844   3.756   0.229   5.498 -0.1803  1.8285  2.5525
15801SOL    HW248845   3.796   0.374   5.481  0.8933  1.1326 -2.4312
15802SOL     OW48846   6.117   3.242   4.197  0.2394 -0.0489  0.2456
15802SOL    HW148847   6.091   3.324   4.238  1.3061  0.6369 -0.4064
15802SOL    HW248848   6.193   3.265   4.143  1.6965 -1.7788  1.4189
15803SOL     OW48849   1.930   5.379   1.946  0.2891 -0.2674 -0.8497
15803SOL    HW148850   1.970   5.328   2.017 -1.1692  0.3565  0.4778
15803SOL    HW248851   1.988   5.454   1.934  0.2319 -0.0488  0.1437
15804SOL     OW48852   2.999   1.285   0.349 -0.0386 -0.0080  1.0629
15804SOL    HW148853   2.926   1.308   0.406  0.1305  0.7777  0.9821
15804SOL    HW248854   2.967   1.211   0.297 -0.6124  0.0381  1.3426
15805SOL     OW48855   1.200   7.462   6.448  0.5311  0.3367 -0.5392
15805SOL    HW148856   1.163   7.452   6.361  2.1801  0.6464 -1.3075
15805SOL    HW248857   1.291   7.486   6.433  1.1422 -0.6429  1.2610
15806SOL     OW48858   1.684   6.932   4.708 -0.6038  0.3174 -0.1931
15806SOL    HW148859   1.775   6.946   4.681  0.4795 -2.9080  1.2761
15806SOL    HW248860   1.666   7.004   4.768  0.7602  1.3033 -0.9001
15807SOL     OW48861   0.454   1.455   6.352  0.5440  0.2340  0.0189
15807SOL    HW148862   0.492   1.384   6.300 -2.2414 -2.1815  0.9882
15807SOL    HW248863   0.365   1.465   6.319 -0.7625 -0.2171  3.0222
15808SOL     OW48864   0.616   2.377  11.291 -0.4244 -0.3386  0.3645
15808SOL    HW148865   0.530   2.411  11.314 -0.2351  1.2052 -1.0233
15808SOL    HW248866   0.662   2.370  11.374 -1.6554 -0.5605  1.0549
15809SOL     OW48867   2.453   1.833   4.207 -0.4878  0.0689  0.3594
15809SOL    HW148868   2.488   1.822   4.296  0.9339  0.7552 -0.0871
15809SOL    HW248869   2.420   1.747   4.184 -0.9219 -0.1096  1.5711
15810SOL     OW48870   0.245   0.723   3.601 -0.0089 -0.3104 -0.7851
15810SOL    HW148871   0.236   0.632   3.630  0.8732  0.1631  1.0972
15810SOL    HW248872   0.332   0.727   3.561  1.6726  0.4851  2.6038
15811SOL     OW48873   1.097   4.440   9.925  0.2593  0.7021 -0.2965
15811SOL    HW148874   1.064   4.360   9.883  0.4632  0.0919  0.6579
15811SOL    HW248875   1.140   4.488   9.854 -0.3571  0.2336 -1.0053
15812SOL     OW48876   1.994   6.647   7.903  0.0409  0.0599  0.3201
15812SOL    HW148877   2.072   6.620   7.854 -1.1946 -2.5318 -0.4359
15812SOL    HW248878   1.929   6.664   7.835 -0.5258  0.5055  0.9736
15813SOL     OW48879   0.055   7.556   4.145  0.2789  0.5531 -0.6102
15813SOL    HW148880   0.083   7.587   4.231 -0.7357 -2.9909  1.1823
15813SOL    HW248881   0.094   7.469   4.137 -1.6434 -0.2192 -2.6258
15814SOL     OW48882   1.448   7.808   0.605 -0.0330 -0.3781 -0.2406
15814SOL    HW148883   1.454   7.714   0.585  0.7486 -1.3747  3.7160
15814SOL    HW248884   1.395   7.812   0.684 -1.8117  2.8542 -1.4094
15815SOL     OW48885   0.111   1.295   8.133  0.3663 -0.0666  0.4789
15815SOL    HW148886   0.179   1.228   8.146  1.7675  0.9543 -1.1392
15815SOL    HW248887   0.040   1.268   8.191  2.1759 -1.1320  2.3425
15816SOL     OW48888   0.127   7.474   9.792 -0.1036  0.2993 -0.1980
15816SOL    HW148889   0.166   7.498   9.707  1.8012 -1.7094  0.0088
15816SOL    HW248890   0.120   7.379   9.788 -1.0317  0.2746  1.4999
15817SOL     OW48891   7.697   5.864   7.710  0.0950 -0.5644  1.0543
15817SOL    HW148892   7.606   5.839   7.721 -0.2021  0.4587  1.0017
15817SOL    HW248893   7.725   5.893   7.796 -0.0432  0.4210  0.7783
15818SOL     OW48894   3.420   1.828   1.688 -0.4457  0.8893 -0.7625
15818SOL    HW148895   3.497   1.805   1.635  1.7395 -0.4375  2.6323
15818SOL    HW248896   3.387   1.744   1.720 -2.8707  1.5214 -1.3849
15819SOL     OW48897   4.357   7.158   0.432  0.7205 -0.8195  0.1025
15819SOL    HW148898   4.338   7.203   0.515 -0.1038  0.1036 -0.5739
15819SOL    HW248899   4.427   7.096   0.455 -0.2690 -1.4058  1.7518
15820SOL     OW48900   0.916   7.567   1.069 -0.1869  0.5677  0.4351
15820SOL    HW148901   0.935   7.659   1.088  2.1014  0.3504 -0.4374
15820SOL    HW248902   0.836   7.569   1.017  0.3398  2.1771 -0.3880
15821SOL     OW48903   6.122   1.787  11.913 -0.5530  0.1234 -0.0701
15821SOL    HW148904   6.183   1.862  11.916 -0.7701  0.3481 -0.9961
15821SOL    HW248905   6.035   1.827  11.912 -0.6514 -0.0287 -2.6696
15822SOL     OW48906   3.132   5.529   1.183  0.0124  0.0410  0.1006
15822SOL    HW148907   3.098   5.460   1.126 -1.9942  1.0485 -0.0119
15822SOL    HW248908   3.089   5.609   1.152  0.2699  0.9123  1.8591
15823SOL     OW48909   4.438   4.929   3.538  0.3062 -0.0751 -0.1987
15823SOL    HW148910   4.491   4.970   3.470  0.2277  0.7315  0.2030
15823SOL    HW248911   4.458   4.836   3.533  0.2199 -0.0365 -1.3830
15824SOL     OW48912   1.118   1.943   7.531  0.0536 -0.1431 -0.2923
15824SOL    HW148913   1.095   2.014   7.471 -0.7669 -0.7674 -0.7359
15824SOL    HW248914   1.210   1.958   7.552  0.2405  0.3346 -1.3755
15825SOL     OW48915   3.940   2.963   4.587 -0.2787  0.3005 -0.0281
15825SOL    HW148916   3.891   3.023   4.644  1.2995  0.3029  1.3767
15825SOL    HW248917   3.952   2.884   4.639  1.6672  0.5004 -0.1118
15826SOL     OW48918   4.171   6.639   0.838  0.3033 -0.3798 -0.2287
15826SOL    HW148919   4.131   6.573   0.780  1.2212 -4.3688  3.1642
15826SOL    HW248920   4.265   6.629   0.823  0.4620 -0.0922  0.5616
15827SOL     OW48921   2.311   1.910   7.921 -0.0680  0.0806  0.0386
15827SOL    HW148922   2.354   1.990   7.953  0.1323  0.4211 -1.0315
15827SOL    HW248923   2.280   1.934   7.834 -1.1136 -0.6372  0.2063
15828SOL     OW48924   2.695   2.842   2.198  0.0612  0.3275 -0.5000
15828SOL    HW148925   2.694   2.829   2.293 -3.9992 -0.1073 -0.4031
15828SOL    HW248926   2.623   2.788   2.166  1.2539  0.5037 -3.8903
15829SOL     OW48927   6.803   1.894  11.128  0.3527  0.0338  0.0907
15829SOL    HW148928   6.764   1.811  11.100  0.3176  0.3677 -0.9022
15829SOL    HW248929   6.809   1.887  11.223  0.3056 -1.0866  0.0262
15830SOL     OW48930   2.075   3.093   9.312  0.3504 -0.3289  0.3694
15830SOL    HW148931   1.985   3.127   9.306 -0.1749 -1.0049  3.2693
15830SOL    HW248932   2.077   3.019   9.251 -0.2850  1.0979 -1.4925
15831SOL     OW48933   2.533   3.589   6.633 -0.3002  0.1465 -0.2017
15831SOL    HW148934   2.502   3.499   6.644  0.6172 -0.3534 -1.4787
15831SOL    HW248935   2.453   3.640   6.619 -0.7239 -0.7446 -1.1407
15832SOL     OW48936   6.947   0.426   4.518  0.3500  0.2240 -0.1630
15832SOL    HW148937   6.880   0.361   4.498 -0.7975  1.0032  0.9949
15832SOL    HW248938   6.992   0.439   4.435 -1.9324  0.7795 -1.4199
15833SOL     OW48939   5.886   4.180   5.647  0.1172  0.4651 -0.5861
15833SOL    HW148940   5.950   4.109   5.655 -0.5152  0.0645  1.5495
15833SOL    HW248941   5.876   4.193   5.552  2.1748 -0.5061 -0.9882
15834SOL     OW48942   1.956   5.014   0.532  0.2444 -0.2154  0.7149
15834SOL    HW148943   1.894   5.087   0.530 -0.6320 -0.9381 -1.4183
15834SOL    HW248944   1.909   4.943   0.575 -0.2716 -0.6046 -0.4479
15835SOL     OW48945   2.318   7.533  11.654  0.0418 -0.8033 -0.3182
15835SOL    HW148946   2.387   7.500  11.596  1.4111 -0.7563  1.2185
15835SOL    HW248947   2.359   7.537  11.740 -0.9314  2.2134  0.1169
15836SOL     OW48948   2.249   4.208  10.940  0.8098  0.1798  0.5625
15836SOL    HW148949   2.181   4.233  11.003  1.0279  1.6051  0.2664
15836SOL    HW248950   2.326   4.258  10.967  0.8931  0.8559 -0.8302
15837SOL     OW48951   1.135   5.625   8.749  0.5688  0.3220  0.1110
15837SOL    HW148952   1.087   5.602   8.669 -1.7426  2.2644  0.8397
15837SOL    HW248953   1.194   5.695   8.723  1.4083 -0.5022 -0.2896
15838SOL     OW48954   6.293   6.768   6.359 -0.2103 -0.0412  0.0571
15838SOL    HW148955   6.232   6.815   6.416  0.5868  0.1118  0.8161
15838SOL    HW248956   6.361   6.833   6.339  0.5522 -0.6605  0.5750
15839SOL     OW48957   0.426   3.899  11.321 -0.0448 -0.2963 -0.0085
15839SOL    HW148958   0.357   3.957  11.354 -0.0574 -1.0753  1.4053
15839SOL    HW248959   0.416   3.903  11.226 -2.5952 -1.0170  0.1594
15840SOL     OW48960   7.113   4.169   2.214 -0.5091  0.4314  0.0923
15840SOL    HW148961   7.052   4.152   2.286  0.0597  0.1249  0.5023
15840SOL    HW248962   7.148   4.083   2.192 -0.3994  0.5781 -0.3020
15841SOL     OW48963   0.929   0.605   7.133  0.0513  0.6078  0.1724
15841SOL    HW148964   0.867   0.602   7.206 -1.7802  1.5454 -1.2427
15841SOL    HW248965   0.873   0.608   7.055  1.8851  1.7022 -1.1794
15842SOL     OW48966   5.682   7.291   4.423  0.4670  0.4697  0.2863
15842SOL    HW148967   5.735   7.341   4.485  0.7738  0.1252  0.3037
15842SOL    HW248968   5.727   7.300   4.339  1.2949 -0.8871  0.5480
15843SOL     OW48969   3.197   5.507   8.900 -0.1075  0.3294  0.2747
15843SOL    HW148970   3.204   5.572   8.830  0.9581  1.1448  1.0995
15843SOL    HW248971   3.141   5.548   8.966 -1.9578 -0.8390 -0.4866
15844SOL     OW48972   1.363   5.582   8.089 -0.0137 -0.3617  0.1208
15844SOL    HW148973   1.356   5.487   8.097  1.6199 -0.4734  0.4647
15844SOL    HW248974   1.305   5.616   8.157  0.3372 -1.1358  0.8177
15845SOL     OW48975   1.118   6.218   6.141 -0.4896  0.3397 -0.3391
15845SOL    HW148976   1.040   6.212   6.086 -0.6810  0.8057 -0.1322
15845SOL    HW248977   1.152   6.306   6.124 -1.3945  1.0876  1.3549
15846SOL     OW48978   1.530   0.984  10.725  0.2860  0.1890 -0.4808
15846SOL    HW148979   1.498   0.895  10.735  0.1802  0.2515 -0.2205
15846SOL    HW248980   1.558   0.991  10.634  0.7815 -0.2643 -0.3679
15847SOL     OW48981   4.583   6.442  10.422  0.1795 -0.4463  0.4596
15847SOL    HW148982   4.669   6.418  10.456  0.5587  0.2452  0.0008
15847SOL    HW248983   4.596   6.454  10.328 -0.0866  1.0694  0.5934
15848SOL     OW48984   1.940   6.857  11.381  0.3258 -0.0605  0.5666
15848SOL    HW148985   1.886   6.787  11.416  0.6617 -1.2597 -1.1833
15848SOL    HW248986   2.029   6.835  11.410  0.2058  0.7672  1.6663
15849SOL     OW48987   5.459   7.711   0.596  0.2232 -0.1338 -0.1125
15849SOL    HW148988   5.460   7.760   0.514 -0.2837  0.9496  0.5137
15849SOL    HW248989   5.382   7.655   0.590  1.1698 -1.4007 -1.1143
15850SOL     OW48990   2.725   0.460   3.856  0.0399  0.1643 -0.7038
15850SOL    HW148991   2.734   0.417   3.771 -1.1521  0.8497 -1.2030
15850SOL    HW248992   2.640   0.505   3.852 -0.0152  0.2618  0.8289
15851SOL     OW48993   0.969   2.209   3.163 -0.8135  0.5208  0.0193
15851SOL    HW148994   0.960   2.201   3.068  0.7650 -0.8883 -0.0686
15851SOL    HW248995   0.914   2.139   3.198  0.8335 -0.8612 -0.0317
15852SOL     OW48996   4.809   6.176  10.701 -0.1186 -0.1699 -0.6523
15852SOL    HW148997   4.860   6.207  10.627 -1.4309  0.7773 -1.1970
15852SOL    HW248998   4.792   6.254  10.753 -0.4118 -0.5872 -0.1039
15853SOL     OW48999   3.492   2.610   1.107  0.7187 -0.5366 -0.3478
15853SOL    HW149000   3.556   2.555   1.061  0.4925  0.0002 -1.3395
15853SOL    HW249001   3.455   2.665   1.038  0.5745  0.5007  0.5409
15854SOL     OW49002   1.664   0.925   9.350  0.1011 -0.1894  0.7668
15854SOL    HW149003   1.759   0.926   9.354  0.2270  0.6206 -1.4803
15854SOL    HW249004   1.643   0.849   9.295 -0.4935  0.3048  0.2979
15855SOL     OW49005   3.028   6.512   2.385 -0.3145 -0.5978 -0.3895
15855SOL    HW149006   3.079   6.442   2.426 -0.9317 -0.3078  0.9409
15855SOL    HW249007   2.969   6.466   2.325  0.6848 -1.0256 -1.0782
15856SOL     OW49008   5.466   3.010   8.719  0.5008  0.1767 -0.1609
15856SOL    HW149009   5.424   3.064   8.652  1.0240  1.7988  0.7451
15856SOL    HW249010   5.424   2.925   8.712 -1.6092  1.1904 -0.5256
15857SOL     OW49011   7.910   3.993   7.626 -0.1886 -0.3047 -0.4288
15857SOL    HW149012   7.874   3.953   7.547 -0.3154  0.9061 -1.0084
15857SOL    HW249013   7.919   4.085   7.603 -0.6719  0.1490  1.1354
15858SOL     OW49014   6.660   7.892  10.331  0.4804  0.2772  0.8790
15858SOL    HW149015   6.641   7.815  10.386 -1.1316 -1.0022 -1.2908
15858SOL    HW249016   6.598   7.958  10.362  1.1204  0.3594  2.0444
15859SOL     OW49017   0.113   2.354   5.131 -0.1300 -0.4232  0.2637
15859SOL    HW149018   0.052   2.373   5.201  0.5959  1.5541  0.4339
15859SOL    HW249019   0.059   2.320   5.060 -1.5457  1.7205  0.2309
15860SOL     OW49020   5.748   6.526   1.290 -0.3431 -0.6612 -0.2165
15860SOL    HW149021   5.769   6.513   1.198 -0.8643  1.3211 -0.6621
15860SOL    HW249022   5.826   6.567   1.327 -1.0986  1.0943 -0.4625
15861SOL     OW49023   5.354   0.770  10.055  0.2323  0.1584 -0.1506
15861SOL    HW149024   5.272   0.721  10.064 -1.4393  2.8065  0.0263
15861SOL    HW249025   5.342   0.823   9.976  1.1443  1.7293  0.7163
15862SOL     OW49026   5.056   0.776   1.821  0.5768 -0.0722 -0.4890
15862SOL    HW149027   5.014   0.858   1.796 -0.5625 -0.0204  1.3932
15862SOL    HW249028   5.131   0.802   1.874 -1.1962 -0.1431  2.2727
15863SOL     OW49029   7.606   5.776   3.021 -0.2042 -0.5063 -0.6571
15863SOL    HW149030   7.613   5.730   3.104 -1.5295 -0.5877 -0.5745
15863SOL    HW249031   7.542   5.845   3.037  0.1567  0.0125 -1.3781
15864SOL     OW49032   6.556   4.058   6.117  0.3074 -0.5103 -0.5284
15864SOL    HW149033   6.645   4.054   6.082  2.1284 -0.6243  3.5527
15864SOL    HW249034   6.515   3.977   6.088  2.4689 -1.7147 -0.3982
15865SOL     OW49035   2.000   4.828   1.597  0.0033  0.1006  0.4481
15865SOL    HW149036   2.058   4.904   1.590  0.6578 -0.3527  0.8285
15865SOL    HW249037   2.040   4.763   1.539 -0.2738 -0.1210  0.5067
15866SOL     OW49038   5.263   5.419   0.884 -0.1466  0.2185  0.2356
15866SOL    HW149039   5.205   5.466   0.824 -0.6465 -3.1449 -2.2554
15866SOL    HW249040   5.206   5.355   0.927  1.2591 -1.9907 -0.9711
15867SOL     OW49041   3.843   0.526  11.141  0.1740 -0.0122  0.6517
15867SOL    HW149042   3.882   0.441  11.120 -1.3512 -1.1242  2.0988
15867SOL    HW249043   3.750   0.509  11.151 -0.2131  1.8945  0.7631
15868SOL     OW49044   1.466   4.886   2.470  0.1782 -0.5416  0.2627
15868SOL    HW149045   1.418   4.921   2.544  1.7040  3.2360 -0.3025
15868SOL    HW249046   1.558   4.890   2.496  0.6825 -0.0971 -1.4148
15869SOL     OW49047   0.686   4.490   1.433  0.8797 -0.4957  0.1621
15869SOL    HW149048   0.612   4.469   1.376  0.3826 -0.0618  0.6381
15869SOL    HW249049   0.755   4.518   1.373  0.2649  0.2558 -0.2108
15870SOL     OW49050   0.235   0.777   6.080 -0.1899 -0.2019  0.1839
15870SOL    HW149051   0.274   0.716   6.017 -0.1982  1.2519 -1.2900
15870SOL    HW249052   0.159   0.813   6.035  0.1586  1.3462  0.7670
15871SOL     OW49053   7.901   1.418   7.907 -0.0568 -0.4718 -0.0595
15871SOL    HW149054   7.893   1.330   7.870 -0.9038 -0.2125 -0.4972
15871SOL    HW249055   7.925   1.403   7.998 -0.7778 -1.1776  0.0240
15872SOL     OW49056   0.471   6.743   5.594 -0.0579  0.4171 -0.3600
15872SOL    HW149057   0.534   6.807   5.561  0.8244  0.5472  1.4520
15872SOL    HW249058   0.398   6.796   5.626  0.6302  0.5465  1.0518
15873SOL     OW49059   7.560   4.335   8.610  0.0131 -0.6300 -0.0688
15873SOL    HW149060   7.481   4.303   8.568 -0.6679  2.6704 -1.6133
15873SOL    HW249061   7.544   4.325   8.704 -3.8993  3.0219 -0.0697
15874SOL     OW49062   0.340   4.882   4.676 -0.3196 -0.3344 -0.1685
15874SOL    HW149063   0.422   4.922   4.704 -0.3219 -1.7160  2.0734
15874SOL    HW249064   0.284   4.887   4.754 -1.1784 -2.3981 -0.5988
15875SOL     OW49065   2.710   3.532   7.795  0.3341  0.1601 -0.2030
15875SOL    HW149066   2.735   3.550   7.704 -0.2712  0.7364 -0.2662
15875SOL    HW249067   2.633   3.587   7.810  0.0902 -0.3509  0.4855
15876SOL     OW49068   6.499   0.812   8.297 -0.5386 -0.2356 -0.4395
15876SOL    HW149069   6.584   0.778   8.268 -0.2940  0.4907 -0.5889
15876SOL    HW249070   6.509   0.907   8.295 -0.9232 -0.1441  0.8308
15877SOL     OW49071   7.727   2.557  11.727  0.3872 -0.2395  0.0816
15877SOL    HW149072   7.718   2.507  11.646 -1.2602 -0.4513  0.3718
15877SOL    HW249073   7.796   2.621  11.708  0.3422 -0.5790 -1.3260
15878SOL     OW49074   6.276   6.591   0.051  0.5385 -0.6821  0.2785
15878SOL    HW149075   6.361   6.556   0.080  0.3497 -1.4865 -0.1246
15878SOL    HW249076   6.281   6.685   0.071  1.4712 -0.7456  0.3792
15879SOL     OW49077   7.713   3.418   1.447 -0.2218  0.2453 -0.6253
15879SOL    HW149078   7.806   3.436   1.463 -0.4489  1.2145 -0.2735
15879SOL    HW249079   7.708   3.323   1.438  0.8463  0.2000 -0.9379
15880SOL     OW49080   1.645   3.571   2.056  0.1567  0.3565 -0.2188
15880SOL    HW149081   1.696   3.652   2.050  0.4284  0.4438  2.0770
15880SOL    HW249082   1.665   3.524   1.975  1.6510  1.6535 -0.6668
15881SOL     OW49083   1.776   1.360  11.452 -0.3374  0.0666 -0.7426
15881SOL    HW149084   1.740   1.307  11.381  1.4095 -1.0354 -0.8660
15881SOL    HW249085   1.790   1.446  11.412 -1.5859  0.1406 -1.0448
15882SOL     OW49086   4.712   3.390   1.411 -0.1512  0.4607  0.0249
15882SOL    HW149087   4.775   3.404   1.340  0.7233  2.1425  1.0726
15882SOL    HW249088   4.746   3.314   1.458 -0.1413 -0.0016 -0.7199
15883SOL     OW49089   3.182   6.223   0.724  0.0660  0.0982  0.2711
15883SOL    HW149090   3.227   6.291   0.674  1.2054 -1.0302 -0.3101
15883SOL    HW249091   3.099   6.211   0.680  0.4632  0.1245 -0.4994
15884SOL     OW49092   4.099   3.101   5.087 -0.3769 -0.5262  0.0669
15884SOL    HW149093   4.099   3.006   5.080  1.7888 -0.4372 -4.0944
15884SOL    HW249094   4.181   3.128   5.046  0.5428  3.1598  3.6499
15885SOL     OW49095   0.249   2.020   4.343  0.3849  0.2782 -0.3206
15885SOL    HW149096   0.231   2.069   4.263 -2.2866 -1.0868 -0.6570
15885SOL    HW249097   0.211   2.072   4.413  1.3631  0.7131 -0.0867
15886SOL     OW49098   7.520   4.724   3.216 -0.0262 -0.0524 -0.0318
15886SOL    HW149099   7.482   4.765   3.294 -0.2565 -1.3968  0.6125
15886SOL    HW249100   7.447   4.675   3.177  0.2815 -0.0386 -0.6348
15887SOL     OW49101   0.934   7.654  10.594 -0.0470  0.5137 -0.0721
15887SOL    HW149102   0.980   7.730  10.559 -1.8052  1.2490 -0.8845
15887SOL    HW249103   0.911   7.602  10.517  1.9851 -1.4376  0.5104
15888SOL     OW49104   4.233   7.393   2.659 -0.1382  0.5134 -0.1466
15888SOL    HW149105   4.177   7.459   2.617 -0.6243 -0.5815 -1.2838
15888SOL    HW249106   4.175   7.318   2.673  0.2163  0.5381  1.7915
15889SOL     OW49107   5.265   4.903   6.183 -0.3487  0.0189  0.2625
15889SOL    HW149108   5.289   4.862   6.100  0.1618  0.3593  0.2353
15889SOL    HW249109   5.202   4.842   6.223 -0.7132 -0.0728 -0.4369
15890SOL     OW49110   7.211   0.587   4.315  0.2067 -0.5231  0.2855
15890SOL    HW149111   7.305   0.568   4.319  0.8806  0.9018 -3.8117
15890SOL    HW249112   7.170   0.503   4.294  0.3480 -1.3017  2.7955
15891SOL     OW49113   5.632   4.177   4.708  0.4905 -0.3612 -0.5741
15891SOL    HW149114   5.675   4.255   4.746 -0.3384 -1.3256  2.6636
15891SOL    HW249115   5.550   4.210   4.672  0.0838  0.3083  0.8892
15892SOL     OW49116   7.621   6.625   9.629  0.8242 -0.2723 -0.2958
15892SOL    HW149117   7.610   6.638   9.535 -0.6775  0.5654 -0.0310
15892SOL    HW249118   7.554   6.561   9.652 -0.3727  1.2460  0.5705
15893SOL     OW49119   2.717   2.952   8.434 -0.5410 -0.4808 -0.3412
15893SOL    HW149120   2.768   3.015   8.485  3.4944 -2.3979 -1.6195
15893SOL    HW249121   2.698   2.881   8.495 -1.0606 -0.1246 -0.0738
15894SOL     OW49122   1.148   1.508   6.600  0.5987 -0.5277 -0.5030
15894SOL    HW149123   1.067   1.527   6.647  1.0934  0.1574  0.0870
15894SOL    HW249124   1.150   1.572   6.529  0.9894 -0.0605 -0.0710
15895SOL     OW49125   4.743   0.458   9.790  0.2016  0.1047  0.1572
15895SOL    HW149126   4.836   0.453   9.811  0.0462 -0.0478  0.8353
15895SOL    HW249127   4.739   0.446   9.695  0.8990  0.4778  0.0755
15896SOL     OW49128   2.632   5.475   1.401  0.8526  0.1008  0.1789
15896SOL    HW149129   2.631   5.453   1.495 -1.3353  0.9021  0.4181
15896SOL    HW249130   2.541   5.500   1.382  1.5621  1.4056 -1.8161
15897SOL     OW49131   4.095   6.230   2.874  0.1324  0.2500  0.2036
15897SOL    HW149132   4.114   6.162   2.810 -0.7950  0.6373 -0.5077
15897SOL    HW249133   4.071   6.307   2.821  0.2438  0.8517  1.0015
15898SOL     OW49134   2.895   2.108   7.434  0.3456 -0.2016 -0.2234
15898SOL    HW149135   2.863   2.177   7.376  0.7035 -0.0837 -0.2874
15898SOL    HW249136   2.831   2.103   7.504 -1.0708 -1.5984 -1.5464
15899SOL     OW49137   5.790   6.956  12.164  0.3179 -0.2043  0.4192
15899SOL    HW149138   5.872   6.959  12.115  0.5235  2.3572  0.7899
15899SOL    HW249139   5.814   6.983  12.253 -0.8026 -0.1772  0.7313
15900SOL     OW49140   7.380   0.992   1.907  0.3150 -0.0319  0.1652
15900SOL    HW149141   7.456   0.934   1.916  0.4338 -0.2026 -1.5790
15900SOL    HW249142   7.413   1.067   1.858 -0.4529  0.2679  0.0988
15901SOL     OW49143   3.779   6.637  10.452  0.1198 -0.9478 -0.0737
15901SOL    HW149144   3.842   6.702  10.422 -0.4338 -0.0869  0.6181
15901SOL    HW249145   3.819   6.553  10.428  1.8547 -0.4512  0.9729
15902SOL     OW49146   6.162   6.188   7.217  0.3114 -0.5587  0.3869
15902SOL    HW149147   6.231   6.197   7.151 -0.3153  1.4014 -0.0739
15902SOL    HW249148   6.205   6.207   7.300  0.7932 -1.5902  0.3808
15903SOL     OW49149   0.264   5.937   9.324  0.4391  0.7339  0.5377
15903SOL    HW149150   0.185   5.989   9.341  0.6928  1.3098 -0.0055
15903SOL    HW249151   0.317   5.949   9.403  1.4848  3.1597 -0.4560
15904SOL     OW49152   1.430   3.940   9.322  0.3151 -0.8912  0.4817
15904SOL    HW149153   1.453   4.015   9.266 -1.1843  0.4194  1.5381
15904SOL    HW249154   1.348   3.908   9.287 -1.5110  0.9551  2.7324
15905SOL     OW49155   5.407   7.783   9.276 -0.4325  0.3646 -0.9525
15905SOL    HW149156   5.461   7.785   9.197  1.7621 -0.0679  0.4564
15905SOL    HW249157   5.449   7.719   9.333 -1.7267  0.9280  0.7497
15906SOL     OW49158   2.796   3.773   5.269  0.1065  0.0321  0.0508
15906SOL    HW149159   2.779   3.810   5.356  1.0340 -1.0618  0.7289
15906SOL    HW249160   2.863   3.706   5.284  0.8373  0.3349 -1.6284
15907SOL     OW49161   5.312   7.485  10.744 -0.2841 -0.1144  0.2038
15907SOL    HW149162   5.261   7.405  10.755 -0.4537 -0.0891 -0.3549
15907SOL    HW249163   5.372   7.465  10.671  0.1745  0.0187  0.5355
15908SOL     OW49164   3.393   0.437   3.811 -0.5876 -0.1260  0.8735
15908SOL    HW149165   3.411   0.353   3.767  0.6945  0.2566  0.6033
15908SOL    HW249166   3.350   0.490   3.744  0.3305  0.0674  0.4214
15909SOL     OW49167   1.810   5.781   7.927  0.4049  0.0873 -0.2239
15909SOL    HW149168   1.752   5.843   7.971  1.1801  1.2288 -0.7700
15909SOL    HW249169   1.893   5.827   7.919  0.4484 -0.2536 -2.4285
15910SOL     OW49170   7.365   1.321   9.214 -0.3743  0.2409  0.3367
15910SOL    HW149171   7.288   1.274   9.181 -1.1075  2.2570 -1.0767
15910SOL    HW249172   7.430   1.311   9.145  0.5460 -1.1242  1.3544
15911SOL     OW49173   3.512   2.907   9.806  0.3958  0.2202 -0.3701
15911SOL    HW149174   3.484   2.828   9.851  0.4038  0.3663 -0.1096
15911SOL    HW249175   3.432   2.946   9.771  0.3817  0.1453 -0.4203
15912SOL     OW49176   5.212   4.259   3.045 -0.3813  0.3069  0.1414
15912SOL    HW149177   5.230   4.196   3.115  0.0942  0.1536 -0.1186
15912SOL    HW249178   5.117   4.273   3.050 -0.8880 -2.0533 -1.1225
15913SOL     OW49179   6.535   1.275   6.463  0.6304 -0.2285  0.1740
15913SOL    HW149180   6.528   1.359   6.508  1.1858 -0.0325 -0.0889
15913SOL    HW249181   6.624   1.274   6.429  0.5566 -0.8340 -0.0096
15914SOL     OW49182   0.999   0.592  10.758 -0.0326 -0.5284 -0.0833
15914SOL    HW149183   0.979   0.683  10.782 -0.1167 -0.7584  0.7393
15914SOL    HW249184   1.090   0.580  10.784  0.4397 -0.2719 -1.4818
15915SOL     OW49185   4.442   6.463   2.736  0.0985  0.2487 -0.3598
15915SOL    HW149186   4.403   6.418   2.811  1.6574  0.9395  0.9214
15915SOL    HW249187   4.518   6.509   2.772 -0.2814  2.3012 -1.9628
15916SOL     OW49188   6.365   5.081   6.990  0.3217 -0.0136 -0.3216
15916SOL    HW149189   6.345   5.098   6.898 -0.2040 -0.0236 -0.2132
15916SOL    HW249190   6.376   4.986   6.995 -1.8194 -0.3077  0.0101
15917SOL     OW49191   0.252   6.939  11.873  0.1488 -0.1065 -0.0022
15917SOL    HW149192   0.226   7.022  11.912  0.3162  0.5911 -1.3323
15917SOL    HW249193   0.238   6.875  11.943  1.6559  1.2424  1.6423
15918SOL     OW49194   6.210   4.023  10.266 -0.4120 -0.4424  0.7886
15918SOL    HW149195   6.263   4.005  10.344 -0.4984 -1.0882  0.7022
15918SOL    HW249196   6.255   3.977  10.195  0.0521  0.7130  0.3159
15919SOL     OW49197   1.972   4.326   5.088 -0.2197 -0.2860 -0.5409
15919SOL    HW149198   1.956   4.394   5.152  0.4982 -2.0658  1.6520
15919SOL    HW249199   2.059   4.345   5.053 -0.6683  0.7626 -1.1171
15920SOL     OW49200   6.692   2.141  11.280 -0.3276  0.3475  0.1430
15920SOL    HW149201   6.606   2.145  11.237 -1.3113  0.2719  2.0113
15920SOL    HW249202   6.740   2.074  11.232 -0.6801  1.5259 -1.9827
15921SOL     OW49203   0.586   3.380   4.258 -0.0452 -0.0771 -0.8313
15921SOL    HW149204   0.509   3.427   4.227 -0.6643 -0.8044 -0.4329
15921SOL    HW249205   0.638   3.447   4.303 -1.5584 -0.0029  0.9209
15922SOL     OW49206   2.275   6.082   4.793 -0.8408 -0.6206  0.6507
15922SOL    HW149207   2.230   6.112   4.715  1.8291 -2.9509 -2.0497
15922SOL    HW249208   2.332   6.155   4.818 -1.8570  0.2122  0.6214
15923SOL     OW49209   4.683   2.014   5.679  0.1457 -0.3338 -0.2549
15923SOL    HW149210   4.690   1.981   5.769  0.9331 -0.8659 -0.5016
15923SOL    HW249211   4.772   2.010   5.645 -0.2970 -1.0788 -1.3891
15924SOL     OW49212   5.910   6.793   7.920 -0.5268  0.3953 -0.3794
15924SOL    HW149213   6.000   6.773   7.944 -0.7039  0.7445  0.6417
15924SOL    HW249214   5.872   6.832   7.999 -1.8872 -0.7292 -0.4360
15925SOL     OW49215   3.723   5.424   1.454  0.6740  0.0657  0.3714
15925SOL    HW149216   3.807   5.469   1.446  1.6104 -1.3521  1.7048
15925SOL    HW249217   3.744   5.332   1.441 -0.5736 -0.3756  1.3049
15926SOL     OW49218   2.908   4.663   4.602  0.3498  0.7202  0.0125
15926SOL    HW149219   2.958   4.744   4.606  2.8381 -0.7380  0.5769
15926SOL    HW249220   2.948   4.613   4.530  3.2578 -2.4933  3.4076
15927SOL     OW49221   5.588   6.048   2.776  0.1204 -0.1809 -0.2350
15927SOL    HW149222   5.571   5.959   2.807 -1.5337  0.2221  0.1438
15927SOL    HW249223   5.682   6.061   2.790  0.0656 -1.2375  1.3976
15928SOL     OW49224   1.138   0.668   6.209  0.2030 -0.1345  0.1209
15928SOL    HW149225   1.101   0.717   6.282 -2.6581 -2.6906  0.5693
15928SOL    HW249226   1.102   0.710   6.131 -2.0372 -1.2091  0.4915
15929SOL     OW49227   4.353   2.440   4.769 -0.8546 -0.3155 -0.0406
15929SOL    HW149228   4.328   2.507   4.832 -0.7797 -1.1012  0.8342
15929SOL    HW249229   4.283   2.375   4.773 -0.1363 -1.0867  0.2979
15930SOL     OW49230   2.238   6.871   1.102 -0.4459 -0.1004  0.3556
15930SOL    HW149231   2.332   6.885   1.090 -0.4402  0.9059  1.3569
15930SOL    HW249232   2.199   6.955   1.077 -1.2124 -0.9122 -1.2966
15931SOL     OW49233   6.237   6.880   0.709  0.5360 -0.3145  0.0871
15931SOL    HW149234   6.312   6.940   0.710 -0.6241  1.1696  0.1553
15931SOL    HW249235   6.188   6.902   0.788 -0.3715 -0.7613 -0.3437
15932SOL     OW49236   1.665   7.868   1.792 -0.0128 -0.1325 -0.3774
15932SOL    HW149237   1.606   7.794   1.778  1.2573 -1.4832  0.9589
15932SOL    HW249238   1.745   7.843   1.745  0.7009  0.0011  0.7264
15933SOL     OW49239   3.480   3.557  11.946  0.2661 -0.4119  0.7499
15933SOL    HW149240   3.388   3.535  11.927  0.6656 -1.5836  0.0615
15933SOL    HW249241   3.483   3.564  12.041 -1.2228  2.9737  0.7109
15934SOL     OW49242   4.617   5.187   9.464 -0.1667 -0.1702 -0.2484
15934SOL    HW149243   4.544   5.183   9.403  1.5763 -1.4598 -2.3892
15934SOL    HW249244   4.618   5.101   9.506 -0.9877  0.5029  1.2214
15935SOL     OW49245   7.912   6.910  10.905 -0.1204 -0.0021  0.6603
15935SOL    HW149246   7.858   6.930  10.828 -0.5688  1.4791  1.3072
15935SOL    HW249247   7.866   6.953  10.977  1.1148 -0.0431  1.4943
15936SOL     OW49248   1.610   7.698   1.130  0.7402 -0.5145 -0.3229
15936SOL    HW149249   1.636   7.790   1.121  0.7868 -0.4020  0.7974
15936SOL    HW249250   1.515   7.700   1.133  0.7325 -0.5308 -0.5350
15937SOL     OW49251   4.313   1.889   2.652 -0.2214  0.7998 -0.1223
15937SOL    HW149252   4.346   1.972   2.687 -1.8200  1.1634  0.6449
15937SOL    HW249253   4.285   1.841   2.729  2.2358 -1.2447 -0.3841
15938SOL     OW49254   3.086   1.024   3.345 -0.5804  0.0906 -0.1043
15938SOL    HW149255   3.158   0.998   3.287  0.4613  0.3370  1.0376
15938SOL    HW249256   3.127   1.038   3.430 -2.1398 -0.6916  0.8276
15939SOL     OW49257   7.342   0.309   3.646  0.3728 -0.0659  0.0945
15939SOL    HW149258   7.276   0.268   3.590  0.9328 -2.6528  1.1993
15939SOL    HW249259   7.409   0.340   3.585 -0.8675  0.7666 -0.8949
15940SOL     OW49260   0.855   2.915   7.209  0.2310 -0.1835  0.5002
15940SOL    HW149261   0.935   2.861   7.206 -0.6869 -1.6018  0.6408
15940SOL    HW249262   0.812   2.898   7.125  2.0155  3.8306 -1.5330
15941SOL     OW49263   4.470   5.672   7.640 -0.3190 -0.0926 -0.4303
15941SOL    HW149264   4.556   5.635   7.661  0.2665  0.3914 -1.8256
15941SOL    HW249265   4.482   5.766   7.652  0.5590  0.4534 -4.0854
15942SOL     OW49266   3.029   1.934  11.860 -0.0893 -0.0356  0.0353
15942SOL    HW149267   2.968   1.890  11.802 -0.4317 -0.4203  0.6723
15942SOL    HW249268   3.080   1.991  11.803 -0.0005 -0.8542 -0.7296
15943SOL     OW49269   5.270   4.774   1.704  0.1726 -0.4242 -0.4324
15943SOL    HW149270   5.247   4.821   1.624 -1.0797 -1.0339 -0.4535
15943SOL    HW249271   5.210   4.699   1.706  0.4484 -0.6355  0.8785
15944SOL     OW49272   0.247   5.149   0.289  0.2422  0.4690  0.2266
15944SOL    HW149273   0.305   5.080   0.321 -0.8622 -0.5769  0.0352
15944SOL    HW249274   0.220   5.120   0.202  0.5784  1.6659 -0.3071
15945SOL     OW49275   2.308   2.119   1.605  0.4471  0.0455  0.5035
15945SOL    HW149276   2.254   2.086   1.533 -1.1119  0.2616  1.5096
15945SOL    HW249277   2.259   2.194   1.638  2.1746  1.2350  0.4964
15946SOL     OW49278   2.602   2.975   6.502  0.4228 -0.3357  0.3333
15946SOL    HW149279   2.675   3.012   6.551  0.4458  0.0894 -0.0211
15946SOL    HW249280   2.524   3.014   6.541  0.4832  0.7847 -0.6015
15947SOL     OW49281   4.394   1.184   6.686 -0.2742  0.1126  0.1064
15947SOL    HW149282   4.319   1.150   6.735  1.0033 -1.4860  1.0531
15947SOL    HW249283   4.409   1.120   6.617 -0.1063  0.7087 -0.4177
15948SOL     OW49284   7.422   6.765   4.775  0.6770  0.0076  0.5047
15948SOL    HW149285   7.369   6.774   4.696 -1.1706  1.5857  1.8315
15948SOL    HW249286   7.503   6.811   4.756  0.7844 -0.7132 -0.8745
15949SOL     OW49287   6.728   5.670  12.149  0.0547 -1.1598  0.4417
15949SOL    HW149288   6.804   5.668  12.207 -0.7216  1.5012  1.7092
15949SOL    HW249289   6.764   5.665  12.061  2.0263  2.5482  0.8816
15950SOL     OW49290   4.012   1.938   3.927  0.0970 -0.0494  0.4747
15950SOL    HW149291   4.027   2.004   3.859 -0.0272 -0.1195  0.3795
15950SOL    HW249292   3.920   1.914   3.917  0.6661 -1.8806 -0.9796
15951SOL     OW49293   7.580   7.541   2.293  0.0554  0.4848  0.3920
15951SOL    HW149294   7.517   7.558   2.363  0.8353 -0.7687  1.4309
15951SOL    HW249295   7.632   7.467   2.324 -1.4541 -2.1542 -2.7482
15952SOL     OW49296   2.183   2.575   3.831  0.0800 -0.6146 -0.3678
15952SOL    HW149297   2.166   2.499   3.886 -1.5026  0.3720  0.5982
15952SOL    HW249298   2.101   2.588   3.783  0.3543  0.4168 -0.5812
15953SOL     OW49299   1.604   5.018   4.779  0.1303 -0.2777 -0.1775
15953SOL    HW149300   1.516   5.000   4.811 -0.0811 -1.6354 -1.4177
15953SOL    HW249301   1.645   5.068   4.849 -0.3809 -2.8289  2.1309
15954SOL     OW49302   5.354   5.147   0.065  0.1884 -0.1112 -0.5026
15954SOL    HW149303   5.369   5.054   0.048  0.5273 -0.1475 -0.0445
15954SOL    HW249304   5.322   5.182  -0.017 -1.0297 -0.8570 -0.3656
15955SOL     OW49305   7.558   0.601   6.426  0.5358 -0.6664 -0.4689
15955SOL    HW149306   7.602   0.657   6.362  0.3940  0.4471  0.3797
15955SOL    HW249307   7.472   0.584   6.388  0.6881 -0.5622 -0.8685
15956SOL     OW49308   4.202   7.387   0.628 -0.3167  0.1576 -0.1523
15956SOL    HW149309   4.158   7.329   0.566  0.5750 -0.4998 -0.1934
15956SOL    HW249310   4.177   7.475   0.601  0.4350 -0.0996 -1.7447
15957SOL     OW49311   6.182   5.283   4.604 -0.0798 -0.0573  0.0706
15957SOL    HW149312   6.218   5.359   4.651 -1.5288  0.0475  1.0866
15957SOL    HW249313   6.189   5.307   4.512  0.0566  1.0620  0.3486
15958SOL     OW49314   7.352   1.601   5.331 -0.1932  0.3092  0.0131
15958SOL    HW149315   7.398   1.678   5.362 -0.1115  1.0161 -1.7260
15958SOL    HW249316   7.413   1.529   5.345  0.9618  1.0398 -1.0849
15959SOL     OW49317   0.754   7.314  10.400 -0.3194 -0.2894  0.2622
15959SOL    HW149318   0.830   7.285  10.450  1.2714 -0.7264 -2.2685
15959SOL    HW249319   0.702   7.235  10.387  1.9204 -1.4347 -3.0618
15960SOL     OW49320   7.596   5.937  11.822 -0.0312 -0.1430  0.0967
15960SOL    HW149321   7.653   6.014  11.831 -3.3038  2.5384  0.1842
15960SOL    HW249322   7.654   5.866  11.796  3.3664  2.1282  0.8929
15961SOL     OW49323   0.132   0.153   7.759 -0.0707 -0.0667 -0.5468
15961SOL    HW149324   0.213   0.147   7.810 -0.8999 -0.8520  0.7639
15961SOL    HW249325   0.148   0.223   7.696  1.0056  1.0210  0.8566
15962SOL     OW49326   2.700   1.363   2.720  0.0590  0.3845 -0.1252
15962SOL    HW149327   2.751   1.420   2.662 -1.1844 -0.2736 -1.9498
15962SOL    HW249328   2.638   1.422   2.762  0.8657  0.8448  0.4490
15963SOL     OW49329   3.457   5.396   1.833  0.9602  0.2609 -0.1534
15963SOL    HW149330   3.444   5.340   1.909 -0.4166  0.9314  0.1284
15963SOL    HW249331   3.478   5.482   1.870 -0.0457  0.6708 -0.4994
15964SOL     OW49332   2.837   2.385   4.731 -0.0344  0.0348 -0.0098
15964SOL    HW149333   2.746   2.408   4.709  0.4757  1.3637 -0.8428
15964SOL    HW249334   2.859   2.314   4.670 -1.2608 -2.0626  1.8357
15965SOL     OW49335   4.376   5.461  10.317  0.0771 -0.5564  0.6575
15965SOL    HW149336   4.280   5.454  10.313  0.1471 -1.8370  0.8584
15965SOL    HW249337   4.391   5.542  10.365 -0.8899  0.3007 -0.4288
15966SOL     OW49338   2.307   6.753   8.746 -0.7272 -0.7192 -0.4072
15966SOL    HW149339   2.271   6.839   8.723 -0.3412 -0.6003 -0.5596
15966SOL    HW249340   2.230   6.696   8.752 -1.1176 -0.0944  0.9034
15967SOL     OW49341   6.814   7.014   0.855 -0.0947  0.8544 -0.3867
15967SOL    HW149342   6.815   7.036   0.761  0.2192 -1.2110 -0.9125
15967SOL    HW249343   6.729   7.044   0.886 -0.0756  1.8520 -1.2498
15968SOL     OW49344   5.027   7.157  12.064  0.2606  0.2809  1.0537
15968SOL    HW149345   5.024   7.093  11.993  1.6301 -1.0809  2.1692
15968SOL    HW249346   5.045   7.106  12.143  2.0380  2.0688  1.9073
15969SOL     OW49347   5.927   0.529   3.978 -0.0652 -0.0724 -0.3167
15969SOL    HW149348   5.833   0.545   3.965 -0.3510 -1.4247 -0.0674
15969SOL    HW249349   5.930   0.449   4.031  1.2460 -0.5575 -1.0809
15970SOL     OW49350   3.010   1.709   5.408 -0.4244  0.4686  0.5958
15970SOL    HW149351   3.070   1.689   5.480  0.2744  0.5535  0.0471
15970SOL    HW249352   2.934   1.652   5.423 -1.2157  1.9160  2.5253
15971SOL     OW49353   5.546   5.091   2.151 -0.3226  0.5737  0.1915
15971SOL    HW149354   5.588   5.139   2.222  1.2442  2.1142 -1.6557
15971SOL    HW249355   5.542   5.153   2.079 -3.4806 -0.3638 -0.6022
15972SOL     OW49356   7.367   1.582   1.917  0.5094  0.2814 -0.0152
15972SOL    HW149357   7.371   1.613   2.007 -0.4867  3.3248 -0.8872
15972SOL    HW249358   7.296   1.518   1.917 -0.2290  1.0553  1.1987
15973SOL     OW49359   6.679   7.507   8.106  0.4741  0.3235  0.0737
15973SOL    HW149360   6.666   7.478   8.015  1.0371  2.3165 -0.6910
15973SOL    HW249361   6.772   7.491   8.123  0.2994 -0.3540  0.4397
15974SOL     OW49362   0.681   0.080  11.088  0.0212  0.6413 -0.5121
15974SOL    HW149363   0.617   0.071  11.159 -0.7199  2.3382 -0.9180
15974SOL    HW249364   0.740   0.006  11.100  1.2350  1.9780  3.2199
15975SOL     OW49365   5.743   1.296   3.396 -0.0519  0.3656 -0.1908
15975SOL    HW149366   5.708   1.207   3.409 -0.6600  0.6938  0.5274
15975SOL    HW249367   5.667   1.346   3.365 -0.2132  1.0527  1.2191
15976SOL     OW49368   6.707   1.147  11.209  0.5468  0.3713 -0.6626
15976SOL    HW149369   6.676   1.059  11.188  2.3331 -0.5696  0.3825
15976SOL    HW249370   6.716   1.190  11.125 -0.7412 -0.2973 -1.1686
15977SOL     OW49371   7.916   1.152   1.377  0.0831  0.5485 -0.1367
15977SOL    HW149372   7.912   1.150   1.281 -0.1967 -0.2187 -0.1130
15977SOL    HW249373   7.868   1.074   1.405  2.5471 -0.8474  0.5549
15978SOL     OW49374   0.742   6.107   7.911 -0.4392 -0.3942 -0.0017
15978SOL    HW149375   0.716   6.022   7.876 -1.3948 -0.1149 -0.0112
15978SOL    HW249376   0.785   6.150   7.837 -1.1572 -0.3632 -0.4166
15979SOL     OW49377   0.155   4.594   1.104  0.0223 -0.3610 -0.3676
15979SOL    HW149378   0.112   4.680   1.109 -0.4771 -0.5386 -1.3497
15979SOL    HW249379   0.233   4.604   1.157  0.0926  0.7884 -0.6515
15980SOL     OW49380   4.155   4.625   9.346 -0.3383  0.3495 -0.1564
15980SOL    HW149381   4.152   4.688   9.274  0.3015  0.0968 -0.4091
15980SOL    HW249382   4.228   4.567   9.324 -1.0374 -0.6037 -0.0380
15981SOL     OW49383   5.758   5.922   8.811  0.2707 -0.0648 -0.3750
15981SOL    HW149384   5.750   5.975   8.890 -1.9704  0.2685 -0.7532
15981SOL    HW249385   5.821   5.854   8.833 -0.9076 -0.4767  1.9810
15982SOL     OW49386   4.824   7.274   5.345 -0.4426  0.0459 -0.3443
15982SOL    HW149387   4.731   7.278   5.366 -0.7648  1.6548 -1.8082
15982SOL    HW249388   4.867   7.323   5.414 -1.0486  1.9246 -1.2484
15983SOL     OW49389   3.163   4.252   4.352 -0.1629  0.2425  0.3889
15983SOL    HW149390   3.253   4.277   4.332 -0.2592  0.2563 -0.0430
15983SOL    HW249391   3.161   4.157   4.343 -0.7083  0.3886 -1.9096
15984SOL     OW49392   6.090   5.521   7.471 -0.3839 -0.0242 -0.5369
15984SOL    HW149393   6.021   5.564   7.521  0.5290 -0.9899  1.7044
15984SOL    HW249394   6.146   5.481   7.538  1.5069 -0.5332 -2.3277
15985SOL     OW49395   1.543   3.540   8.359  0.0109  0.1555 -0.2662
15985SOL    HW149396   1.448   3.540   8.351  0.0260  0.9883 -0.6211
15985SOL    HW249397   1.566   3.633   8.368  0.8204 -0.0029 -0.6000
15986SOL     OW49398   0.220   2.639  11.721 -0.1276 -0.1558 -0.0037
15986SOL    HW149399   0.283   2.697  11.679  1.5211 -1.1665  0.9829
15986SOL    HW249400   0.203   2.570  11.656  0.0379 -0.0573 -0.1515
15987SOL     OW49401   3.625   5.417   2.293  0.3322 -0.6668 -0.0004
15987SOL    HW149402   3.599   5.345   2.350 -2.7047  1.0136  1.0088
15987SOL    HW249403   3.660   5.484   2.352  2.0040 -0.7959 -0.7824
15988SOL     OW49404   1.473   0.089   8.164  0.4227 -0.1479  0.2722
15988SOL    HW149405   1.437   0.008   8.128 -0.0340  0.4410 -0.6363
15988SOL    HW249406   1.554   0.103   8.114  1.3896 -0.9016  1.5704
15989SOL     OW49407   4.498   4.776   4.753  0.0777 -0.0479 -0.2590
15989SOL    HW149408   4.431   4.729   4.802  0.3866  0.1578  0.3718
15989SOL    HW249409   4.581   4.737   4.783  0.2641  0.0208 -0.6837
15990SOL     OW49410   5.101   7.543   4.202  0.5403  0.5390 -0.0988
15990SOL    HW149411   5.187   7.555   4.241  0.5427  0.1699  0.0239
15990SOL    HW249412   5.098   7.450   4.179  0.0908  0.4953  0.1168
15991SOL     OW49413   0.813   2.206   4.784  0.1816  0.6289  0.2816
15991SOL    HW149414   0.782   2.128   4.738  0.6560 -0.1656  1.2740
15991SOL    HW249415   0.792   2.278   4.725  1.8479 -0.4427 -1.7532
15992SOL     OW49416   6.017   6.146  10.335 -0.0776  0.4573  0.0434
15992SOL    HW149417   5.987   6.062  10.299 -0.1483  0.7486 -0.5915
15992SOL    HW249418   6.027   6.130  10.429  1.1296 -0.6213 -0.2470
15993SOL     OW49419   4.397   2.922   5.139 -0.3555  0.0723 -0.1594
15993SOL    HW149420   4.353   2.974   5.071 -0.0242 -2.1513 -2.2143
15993SOL    HW249421   4.473   2.974   5.164 -1.0157  1.3859 -0.8084
15994SOL     OW49422   2.231   1.682  10.426 -0.4068 -0.4036  0.0336
15994SOL    HW149423   2.147   1.637  10.433 -0.4636 -0.3375 -0.2192
15994SOL    HW249424   2.212   1.773  10.446 -0.2037 -0.5716  1.0368
15995SOL     OW49425   3.922   6.410   3.293 -0.1301 -0.0379  0.1111
15995SOL    HW149426   3.884   6.356   3.363  0.0807  0.8486  0.9328
15995SOL    HW249427   3.945   6.492   3.336 -0.0616  0.5607 -1.0312
15996SOL     OW49428   1.544   0.265  12.193  0.5491 -0.5355  0.2024
15996SOL    HW149429   1.486   0.326  12.147  0.7040 -2.2635 -2.4631
15996SOL    HW249430   1.632   0.288  12.164  0.8939 -0.2375  1.4274
15997SOL     OW49431   6.678   7.524   1.639  0.2356  0.1041 -0.4861
15997SOL    HW149432   6.761   7.538   1.594 -0.3144 -1.2547 -2.0104
15997SOL    HW249433   6.617   7.584   1.595  0.4255  1.2837  0.7964
15998SOL     OW49434   1.424   2.920   3.200  0.5591 -0.2049 -0.5105
15998SOL    HW149435   1.449   2.916   3.292 -2.3273 -0.3953  0.3587
15998SOL    HW249436   1.495   2.875   3.154  0.9294 -2.2801  1.8753
15999SOL     OW49437   5.966   0.750   2.833 -0.0851  0.3494  0.0896
15999SOL    HW149438   5.923   0.725   2.915 -2.1900 -0.0034 -1.0468
15999SOL    HW249439   5.949   0.844   2.825 -3.1735 -0.2334 -1.6442
16000SOL     OW49440   2.468   4.393   6.961  0.2214 -0.1189  0.7838
16000SOL    HW149441   2.454   4.468   7.020 -1.4925  0.1824  0.0700
16000SOL    HW249442   2.558   4.402   6.932  1.1308 -0.2508  3.2880
16001SOL     OW49443   1.656   6.142   5.192 -0.0812 -0.1333 -0.2988
16001SOL    HW149444   1.649   6.168   5.100  1.3458  1.1214 -0.1031
16001SOL    HW249445   1.567   6.118   5.217 -0.6764  0.4336 -1.7505
16002SOL     OW49446   3.737   1.534   4.581  0.6206  0.3033  0.0076
16002SOL    HW149447   3.827   1.510   4.602  0.8736  1.7816  0.7719
16002SOL    HW249448   3.742   1.574   4.494  0.5169 -0.5410 -0.3983
16003SOL     OW49449   1.851   4.178  12.159  0.4430 -0.5367 -0.0235
16003SOL    HW149450   1.893   4.129  12.230 -2.4075 -1.1938  1.3721
16003SOL    HW249451   1.886   4.267  12.167  1.0902 -0.8917  1.4258
16004SOL     OW49452   3.051   3.668  10.019 -0.0626  0.8116  0.5626
16004SOL    HW149453   3.120   3.605  10.037 -0.6551 -0.3636 -1.0507
16004SOL    HW249454   3.097   3.747   9.990  0.6230  0.0552 -0.4637
16005SOL     OW49455   3.668   1.370   0.331 -0.6682 -0.1773  0.2976
16005SOL    HW149456   3.687   1.389   0.423  3.3804  1.6360 -0.6526
16005SOL    HW249457   3.647   1.455   0.293 -0.6540 -0.6225 -0.7442
16006SOL     OW49458   7.630   4.001   4.471  0.3241 -0.1288  0.1372
16006SOL    HW149459   7.580   3.989   4.390 -1.5654 -1.4221  1.4321
16006SOL    HW249460   7.658   3.913   4.496  1.1955  0.3012  0.7212
16007SOL     OW49461   3.878   1.274  12.094 -0.3054 -0.2007 -0.4890
16007SOL    HW149462   3.850   1.288  12.184 -0.3676  3.8530 -0.9475
16007SOL    HW249463   3.814   1.323  12.042  0.0604 -1.9612 -2.7426
16008SOL     OW49464   4.033   2.090   7.723 -0.6796 -0.5919 -0.3570
16008SOL    HW149465   3.997   2.176   7.744  1.0870  0.6196 -2.0053
16008SOL    HW249466   4.072   2.100   7.637  0.1343 -2.9025 -0.3313
16009SOL     OW49467   0.913   7.742   7.148  0.3502  0.2147  0.3573
16009SOL    HW149468   0.928   7.810   7.082 -0.6408  0.2898  0.1925
16009SOL    HW249469   0.992   7.688   7.145  1.2308  1.4438  0.6134
16010SOL     OW49470   3.999   4.682   3.805  0.3917 -0.0225 -0.0265
16010SOL    HW149471   3.994   4.594   3.841  1.8159 -0.2704 -0.4068
16010SOL    HW249472   4.058   4.729   3.864 -0.5737  0.7850  0.3417
16011SOL     OW49473   0.640   0.303   0.099 -0.6381 -0.0238  0.4038
16011SOL    HW149474   0.626   0.288   0.006 -0.2304  1.3083  0.0987
16011SOL    HW249475   0.680   0.222   0.131  1.3588  0.3141 -1.0695
16012SOL     OW49476   5.079   7.642   9.451 -0.1653  0.5455  0.3068
16012SOL    HW149477   5.138   7.573   9.420  0.0008  0.7829  0.0917
16012SOL    HW249478   5.093   7.715   9.391  0.9850  1.4279  1.5705
16013SOL     OW49479   0.392   3.952   6.175  0.4177  0.0561  0.1011
16013SOL    HW149480   0.323   3.903   6.221  0.9162  1.3258  2.3560
16013SOL    HW249481   0.346   3.999   6.106 -0.7001 -0.4798  0.4499
16014SOL     OW49482   1.543   0.972  11.965 -0.1318  0.1591 -0.3789
16014SOL    HW149483   1.542   0.890  12.016  1.0529 -0.5552 -1.4621
16014SOL    HW249484   1.616   0.962  11.905  1.3144  2.8553  0.7636
16015SOL     OW49485   4.034   2.661   0.105 -0.1337 -0.0908 -0.0954
16015SOL    HW149486   4.096   2.625   0.041  0.0143  2.0359 -1.2580
16015SOL    HW249487   4.065   2.630   0.189  1.6718 -0.2624 -0.7883
16016SOL     OW49488   4.885   0.649   1.399 -0.0692 -0.2235  0.0566
16016SOL    HW149489   4.890   0.740   1.372  0.8813  0.0797  1.1776
16016SOL    HW249490   4.884   0.599   1.317  0.4457  0.7435 -0.5453
16017SOL     OW49491   3.593   1.707   3.216 -0.2075 -0.3480  0.2432
16017SOL    HW149492   3.527   1.776   3.204  0.4019 -0.0625 -2.0608
16017SOL    HW249493   3.577   1.674   3.304 -1.8106  1.3859  0.6899
16018SOL     OW49494   7.631   7.684   7.314  0.1253  0.5186  0.1500
16018SOL    HW149495   7.610   7.593   7.292 -0.5732  0.9224 -0.8871
16018SOL    HW249496   7.725   7.692   7.297  0.3762 -0.2305  1.0859
16019SOL     OW49497   7.693   1.128   2.745  0.2463  0.1159  0.4323
16019SOL    HW149498   7.628   1.107   2.678  0.1816  1.8458 -0.0798
16019SOL    HW249499   7.768   1.072   2.723 -0.3386 -0.4738 -0.1321
16020SOL     OW49500   2.602   0.265   1.069  0.0711 -0.2085  0.1161
16020SOL    HW149501   2.629   0.308   0.987 -0.3031 -1.0673 -0.4714
16020SOL    HW249502   2.660   0.303   1.136 -0.0308  0.9522 -0.4334
16021SOL     OW49503   5.572   1.195   5.832  0.2893  0.1858  0.2931
16021SOL    HW149504   5.645   1.242   5.871  0.6944 -0.1487 -0.0436
16021SOL    HW249505   5.562   1.117   5.886 -0.8399  0.9887  1.2750
16022SOL     OW49506   3.119   0.965   1.612 -0.1309  0.2500 -0.2576
16022SOL    HW149507   3.069   0.942   1.690 -1.0261 -0.6584 -1.0640
16022SOL    HW249508   3.207   0.986   1.644 -0.0241 -1.6905  0.8150
16023SOL     OW49509   1.429   6.692  11.669 -0.0079  0.2679  0.1781
16023SOL    HW149510   1.514   6.690  11.711  0.1408 -0.4318 -0.1428
16023SOL    HW249511   1.382   6.764  11.712  0.1842 -0.3353  1.4304
16024SOL     OW49512   4.687   1.435   9.973  0.0655  0.5911  0.1546
16024SOL    HW149513   4.703   1.404   9.884 -0.4814 -0.6666  0.4681
16024SOL    HW249514   4.592   1.441   9.979 -0.0575 -1.4968  1.3024
16025SOL     OW49515   3.771   2.608   1.337 -0.0714  0.1855 -0.6694
16025SOL    HW149516   3.712   2.550   1.386 -0.1834  0.7662 -0.1006
16025SOL    HW249517   3.717   2.684   1.315  0.1461  0.1964 -1.1814
16026SOL     OW49518   4.676   4.062   8.678 -0.1138  0.5259 -0.1327
16026SOL    HW149519   4.767   4.093   8.677  0.8454 -2.0127  0.7121
16026SOL    HW249520   4.643   4.086   8.764  1.5283 -2.8932  1.6310
16027SOL     OW49521   4.448   2.084   2.794  0.1466  0.1880  0.4637
16027SOL    HW149522   4.417   2.052   2.879 -1.9885  1.1141  0.0762
16027SOL    HW249523   4.431   2.178   2.796  1.2458  0.4273 -0.5356
16028SOL     OW49524   2.981   0.423   0.406  0.1989 -0.3076 -0.4681
16028SOL    HW149525   2.979   0.340   0.360 -1.3939 -0.8298  0.4828
16028SOL    HW249526   2.903   0.423   0.461  1.1792  0.9803  1.0250
16029SOL     OW49527   4.355   6.559   8.860 -0.2839  0.0123  0.2182
16029SOL    HW149528   4.364   6.492   8.928 -1.0628  0.7154  1.0453
16029SOL    HW249529   4.442   6.598   8.852  0.2365 -1.2622 -0.4563
16030SOL     OW49530   2.761   2.762  10.457  0.3792  0.6073  0.5587
16030SOL    HW149531   2.672   2.726  10.451  0.3421  0.6856  0.6395
16030SOL    HW249532   2.772   2.813  10.376  0.1655  1.0120  0.7783
16031SOL     OW49533   1.496   1.587   8.057 -0.3190  0.1538  0.1237
16031SOL    HW149534   1.525   1.615   8.143  0.0472 -1.0262  0.4126
16031SOL    HW249535   1.406   1.557   8.070 -0.3031  0.0855  0.0828
16032SOL     OW49536   3.867   1.595   3.228 -0.1028 -0.3322 -0.3663
16032SOL    HW149537   3.791   1.625   3.179 -1.8167 -1.3309  1.5382
16032SOL    HW249538   3.848   1.504   3.250  1.5149 -0.5278  0.4134
16033SOL     OW49539   3.109   5.308   1.012 -0.2183 -0.4289  0.4468
16033SOL    HW149540   3.032   5.275   0.964  0.6552 -0.7944 -0.7375
16033SOL    HW249541   3.116   5.249   1.087 -0.7525 -0.7669  0.2446
16034SOL     OW49542   5.139   1.645  10.957  0.1670  0.3895 -0.3558
16034SOL    HW149543   5.176   1.733  10.952 -0.1932  0.5593 -0.0129
16034SOL    HW249544   5.049   1.655  10.927 -0.1875  0.3271  0.6535
16035SOL     OW49545   7.229   4.304   5.954 -0.2703  0.0266  0.1888
16035SOL    HW149546   7.220   4.264   6.040 -0.3432 -0.3145  0.0214
16035SOL    HW249547   7.141   4.304   5.918  0.0968 -1.9461 -0.8375
16036SOL     OW49548   5.368   7.711  10.854 -0.0082 -0.4375 -0.5956
16036SOL    HW149549   5.333   7.628  10.823 -1.8793 -0.1688  0.6111
16036SOL    HW249550   5.304   7.777  10.824  0.0258  0.2214  0.6999
16037SOL     OW49551   2.585   3.426   9.704 -0.0830  0.2153 -0.5198
16037SOL    HW149552   2.499   3.425   9.662  0.1808  0.4469 -1.0758
16037SOL    HW249553   2.569   3.464   9.790 -0.8601 -1.4568  0.1283
16038SOL     OW49554   0.434   3.224   0.849 -0.0519  0.0665 -0.2146
16038SOL    HW149555   0.380   3.227   0.770  1.2525 -0.1569 -1.1511
16038SOL    HW249556   0.373   3.204   0.920 -1.1881 -0.1169 -1.2204
16039SOL     OW49557   3.225   5.596   4.332 -0.4607 -0.1261  0.4405
16039SOL    HW149558   3.158   5.554   4.277  2.0137 -1.6296 -1.7065
16039SOL    HW249559   3.286   5.525   4.353  1.1464  1.4044  1.2161
16040SOL     OW49560   3.409   4.222   6.142  0.2533  0.2456  0.4448
16040SOL    HW149561   3.404   4.295   6.203  1.3356 -0.1799  1.0642
16040SOL    HW249562   3.404   4.263   6.055  1.5185  1.1347  0.7600
16041SOL     OW49563   1.748   7.223   2.445 -0.1363  0.4552 -0.7635
16041SOL    HW149564   1.724   7.313   2.468  0.4123  0.3147  0.4085
16041SOL    HW249565   1.834   7.210   2.485  0.4813 -0.1052 -2.1937
16042SOL     OW49566   4.681   2.177   0.083 -0.0477 -0.7297  0.5497
16042SOL    HW149567   4.713   2.267   0.090  1.7009 -1.2137 -0.5921
16042SOL    HW249568   4.644   2.171  -0.005  0.2957 -1.2429  0.4360
16043SOL     OW49569   1.874   6.595   2.993  0.2742 -0.1695 -0.2594
16043SOL    HW149570   1.785   6.578   2.961  0.6129  1.6094 -2.3555
16043SOL    HW249571   1.893   6.684   2.965  2.3487 -0.1175  1.1110
16044SOL     OW49572   7.711   0.150  10.585  0.2636 -0.5396 -0.0664
16044SOL    HW149573   7.701   0.069  10.536  0.0618 -1.1328  0.9164
16044SOL    HW249574   7.755   0.123  10.666 -0.2538  0.2427  0.4884
16045SOL     OW49575   3.567   4.792   3.578  0.4461  0.3954 -0.2138
16045SOL    HW149576   3.599   4.879   3.605 -0.9092  1.4448 -1.8103
16045SOL    HW249577   3.564   4.796   3.483 -0.8343 -0.9646 -0.2676
16046SOL     OW49578   1.113   1.108   7.188  0.0497  0.2071 -0.1552
16046SOL    HW149579   1.034   1.095   7.135 -2.0143  1.3099  2.4059
16046SOL    HW249580   1.135   1.201   7.175 -0.2579  0.3919  0.5834
16047SOL     OW49581   0.954   1.774   1.644  0.1264  0.6644  1.1482
16047SOL    HW149582   1.023   1.812   1.590 -0.7284  0.7266  0.0759
16047SOL    HW249583   0.875   1.823   1.621 -0.8137 -1.0838  0.4192
16048SOL     OW49584   7.338   2.957   7.125 -0.6748  0.8652 -0.3340
16048SOL    HW149585   7.345   2.873   7.168  0.1476  1.4668  0.7541
16048SOL    HW249586   7.248   2.986   7.142  0.0341  1.7717  2.3629
16049SOL     OW49587   6.541   5.806   1.226 -0.2142  0.2778  0.6132
16049SOL    HW149588   6.501   5.800   1.313 -1.0532 -0.2420  0.2006
16049SOL    HW249589   6.546   5.900   1.208 -1.4648  0.3530  0.5811
16050SOL     OW49590   0.862   5.225   9.133 -0.5042 -0.2890 -0.2355
16050SOL    HW149591   0.778   5.192   9.164  0.2006 -0.7412  1.2568
16050SOL    HW249592   0.865   5.315   9.165 -1.5627  0.6990 -2.6294
16051SOL     OW49593   1.324   2.958   3.777  0.2642  1.4165  0.2632
16051SOL    HW149594   1.413   2.994   3.775  0.2628  1.5937  1.8134
16051SOL    HW249595   1.267   3.034   3.772  0.2343  1.4569  1.0906
16052SOL     OW49596   0.232   3.189   1.030  0.3317 -0.5697  0.5732
16052SOL    HW149597   0.144   3.162   1.056 -1.0956  2.5351 -0.5626
16052SOL    HW249598   0.284   3.183   1.110 -1.1205 -1.5189  1.5015
16053SOL     OW49599   3.771   6.105   0.082 -0.3287 -0.1687  0.3509
16053SOL    HW149600   3.724   6.026   0.057 -2.5305  1.0955  0.2455
16053SOL    HW249601   3.818   6.132   0.003 -0.3396 -0.8377  0.1108
16054SOL     OW49602   0.180   3.827   6.327 -0.3116 -0.2178  0.4882
16054SOL    HW149603   0.087   3.843   6.309  0.2435  1.4387 -1.2147
16054SOL    HW249604   0.185   3.733   6.346 -2.2515 -0.4391  0.1029
16055SOL     OW49605   3.959   6.611   8.218 -0.3190 -0.4265  0.3643
16055SOL    HW149606   3.998   6.691   8.252  0.2988 -0.1990 -0.8245
16055SOL    HW249607   3.907   6.640   8.143  0.2121 -1.1756 -0.3084
16056SOL     OW49608   1.103   0.115   0.770  0.6214 -0.3373 -0.6946
16056SOL    HW149609   1.102   0.129   0.865 -2.1230 -0.0189 -0.6733
16056SOL    HW249610   1.145   0.030   0.759  0.7460 -0.5086  0.8472
16057SOL     OW49611   0.148   1.228   6.628  0.1947 -0.1700 -0.2686
16057SOL    HW149612   0.184   1.173   6.698  0.7968 -0.6822 -0.9780
16057SOL    HW249613   0.208   1.303   6.623 -0.2696  0.2566  0.2571
16058SOL     OW49614   5.943   3.821   5.834 -0.3524 -0.0094 -0.6111
16058SOL    HW149615   5.935   3.781   5.920 -0.9153  0.7795 -0.2852
16058SOL    HW249616   5.857   3.811   5.794 -0.0557 -0.4982 -1.1453
16059SOL     OW49617   3.768   3.391   5.020 -0.0452 -0.0202  0.0606
16059SOL    HW149618   3.698   3.423   4.963 -0.2235 -0.0981  0.2357
16059SOL    HW249619   3.737   3.305   5.050  0.4604 -0.3947 -0.4650
16060SOL     OW49620   5.045   7.089   3.723  0.1888  0.1104 -0.3303
16060SOL    HW149621   4.987   7.092   3.799 -0.1793 -0.0178 -0.6080
16060SOL    HW249622   5.122   7.041   3.754 -0.2400 -0.5191 -0.2247
16061SOL     OW49623   0.796   4.101  10.782  0.9196  0.0221  0.2061
16061SOL    HW149624   0.778   4.160  10.855  0.0945  0.1867 -0.1320
16061SOL    HW249625   0.779   4.152  10.704  1.6257 -0.2145 -0.1152
16062SOL     OW49626   6.202   6.775   1.694  0.0257  0.0334  0.3138
16062SOL    HW149627   6.271   6.758   1.629 -1.2852 -3.5919 -0.3658
16062SOL    HW249628   6.249   6.804   1.772  2.0850  0.1298 -0.8976
16063SOL     OW49629   3.872   7.660  10.956 -0.1274  0.3054  1.0474
16063SOL    HW149630   3.896   7.581  11.006 -0.3825  0.4844  1.4569
16063SOL    HW249631   3.862   7.629  10.866  0.2596 -0.0366  1.1207
16064SOL     OW49632   7.694   0.005   8.125  0.5666 -0.1334 -0.5309
16064SOL    HW149633   7.603  -0.025   8.131  0.1434  1.0262 -0.9061
16064SOL    HW249634   7.701   0.072   8.193  0.5343  1.2559 -1.8569
16065SOL     OW49635   5.013   7.763   9.878 -0.1137 -0.1732 -0.3579
16065SOL    HW149636   4.941   7.701   9.892  0.2313 -0.5576 -0.2695
16065SOL    HW249637   4.988   7.841   9.928 -1.4366  0.4695 -1.9273
16066SOL     OW49638   0.552   5.725   3.743 -0.6053 -0.3777  0.5166
16066SOL    HW149639   0.500   5.661   3.792  0.2433 -0.4535  1.3447
16066SOL    HW249640   0.502   5.807   3.750 -0.9163 -0.5853  0.7744
16067SOL     OW49641   2.201   6.713   4.270  0.4888 -0.1555  0.2321
16067SOL    HW149642   2.219   6.710   4.364  0.5526 -0.1281  0.2208
16067SOL    HW249643   2.123   6.768   4.262  0.6085  0.0179  0.2512
16068SOL     OW49644   6.756   5.555   4.324  0.2755  0.4483 -0.0694
16068SOL    HW149645   6.692   5.625   4.336 -3.7994 -2.3941 -2.7521
16068SOL    HW249646   6.769   5.520   4.411 -1.5341  1.4198  0.6600
16069SOL     OW49647   2.688   7.385   5.854  0.4699  0.0331 -0.1707
16069SOL    HW149648   2.754   7.455   5.848 -1.1643  1.6623 -0.1142
16069SOL    HW249649   2.670   7.363   5.763 -0.1571  0.8532 -0.2578
16070SOL     OW49650   4.251   6.395  11.004 -0.5332  0.0032  0.5792
16070SOL    HW149651   4.156   6.405  10.998 -0.5558 -0.3549  0.2842
16070SOL    HW249652   4.271   6.408  11.097 -0.8661  0.1033  0.6383
16071SOL     OW49653   0.971   2.047   6.908  0.3698  0.1599  0.3521
16071SOL    HW149654   0.882   2.063   6.942  0.3915  0.5757  0.2182
16071SOL    HW249655   1.003   2.134   6.885  1.1695  0.1226  1.2703
16072SOL     OW49656   4.185   4.225   2.623 -0.1886 -0.1136  0.6471
16072SOL    HW149657   4.197   4.229   2.718 -0.3245  0.8734  0.6345
16072SOL    HW249658   4.272   4.244   2.588 -0.1009 -0.6466  0.5687
16073SOL     OW49659   4.894   2.397   5.615 -0.1406 -0.0403  0.7288
16073SOL    HW149660   4.872   2.342   5.691  0.5615 -2.2472 -0.5781
16073SOL    HW249661   4.811   2.433   5.587 -0.4066  0.9018  2.5770
16074SOL     OW49662   4.763   6.935   5.577  0.2746 -0.1052 -0.3708
16074SOL    HW149663   4.777   6.860   5.520 -0.2177 -0.1948 -0.3824
16074SOL    HW249664   4.822   7.002   5.545 -0.4775  0.0788 -1.4216
16075SOL     OW49665   6.167   2.871   6.580 -0.4032 -0.4758  0.4922
16075SOL    HW149666   6.104   2.904   6.644 -0.1330  0.3426  0.3491
16075SOL    HW249667   6.199   2.949   6.535  0.1012 -0.9570 -0.0042
16076SOL     OW49668   3.521   0.603   0.628  0.1157  0.1381  0.3036
16076SOL    HW149669   3.508   0.509   0.618 -0.0086  0.1289  0.5356
16076SOL    HW249670   3.529   0.616   0.723 -2.5237  0.6939  0.5258
16077SOL     OW49671   3.123   0.453  11.010 -0.1264  0.1048  0.0525
16077SOL    HW149672   3.101   0.398  11.085  2.6193  0.1097  0.9830
16077SOL    HW249673   3.128   0.393  10.936 -1.0642 -0.1982  0.2249
16078SOL     OW49674   3.016   2.842   2.625 -0.0612  0.3807 -0.2279
16078SOL    HW149675   3.077   2.781   2.668  1.7792  1.7887 -0.6967
16078SOL    HW249676   3.005   2.913   2.689 -0.2415  0.7224 -0.6359
16079SOL     OW49677   4.556   6.332   8.932  0.1412 -0.4164 -0.0164
16079SOL    HW149678   4.642   6.366   8.959  0.5146 -0.6265 -0.9287
16079SOL    HW249679   4.564   6.316   8.838 -1.0575  0.0255 -0.2138
16080SOL     OW49680   3.373   0.318  10.264  0.9520  0.0477  0.3879
16080SOL    HW149681   3.318   0.296  10.339  0.6126  1.1285  0.4803
16080SOL    HW249682   3.446   0.257  10.268  0.4025 -0.5759  1.0021
16081SOL     OW49683   3.748   0.960   8.523  0.0546  0.3008 -0.1559
16081SOL    HW149684   3.839   0.933   8.528  1.0994  3.6155  1.7515
16081SOL    HW249685   3.738   0.997   8.436  0.2376 -0.7973 -0.6666
16082SOL     OW49686   4.667   7.319  10.487 -0.0970  0.0923 -0.6396
16082SOL    HW149687   4.611   7.374  10.543  0.7274  0.2790  0.0203
16082SOL    HW249688   4.754   7.327  10.526 -0.0108 -1.9510 -0.3215
16083SOL     OW49689   4.904   0.313   1.575  0.2656  0.2082 -0.0449
16083SOL    HW149690   4.876   0.404   1.580  0.8685  0.3343  1.9369
16083SOL    HW249691   4.837   0.264   1.622  0.8021 -0.1276  0.3964
16084SOL     OW49692   3.119   1.386   6.504 -0.1464  0.4134  0.2708
16084SOL    HW149693   3.132   1.305   6.553 -1.6896  1.1603  2.0413
16084SOL    HW249694   3.193   1.390   6.444 -0.5325 -2.7603 -0.5722
16085SOL     OW49695   1.241   3.294   2.134  0.8387 -0.4045  0.1005
16085SOL    HW149696   1.294   3.316   2.210  1.2523  0.8940 -0.5417
16085SOL    HW249697   1.210   3.205   2.152  2.3346 -0.7831  0.9866
16086SOL     OW49698   7.578   4.122   9.391  0.2234  0.0116 -0.8231
16086SOL    HW149699   7.559   4.128   9.297 -0.9734 -0.0548 -0.5994
16086SOL    HW249700   7.499   4.083   9.429  1.7772 -2.7151 -0.1648
16087SOL     OW49701   6.847   5.765   7.023  0.0381  0.0770  0.3828
16087SOL    HW149702   6.772   5.706   7.027  0.2378 -0.2130 -0.0453
16087SOL    HW249703   6.812   5.846   6.986  0.0603 -0.2712 -0.4194
16088SOL     OW49704   3.499   5.654   4.842 -0.4150  0.0479  0.0817
16088SOL    HW149705   3.420   5.618   4.881 -0.3477 -0.8917 -0.6241
16088SOL    HW249706   3.508   5.609   4.758  1.5073 -0.7447  0.6583
16089SOL     OW49707   2.280   5.201  10.777 -0.4689  0.2914 -0.0670
16089SOL    HW149708   2.213   5.209  10.844 -0.2985  1.0607  0.0269
16089SOL    HW249709   2.278   5.109  10.750  0.3272 -0.3406  1.8961
16090SOL     OW49710   7.865   4.942   5.129  0.3568 -0.5304  0.2496
16090SOL    HW149711   7.941   4.900   5.170  0.8355 -2.3343 -2.2208
16090SOL    HW249712   7.793   4.880   5.144  0.7165 -1.6556 -2.0854
16091SOL     OW49713   6.398   1.271   8.248  0.1659  0.0960 -0.0888
16091SOL    HW149714   6.422   1.207   8.314  1.4298 -0.5312 -1.1161
16091SOL    HW249715   6.406   1.356   8.293  2.8134 -0.1814  0.0956
16092SOL     OW49716   3.788   3.431   5.374 -0.0523 -0.2560 -0.2958
16092SOL    HW149717   3.731   3.360   5.401 -0.2996 -0.2637 -0.8141
16092SOL    HW249718   3.793   3.422   5.278  1.0889 -0.4652 -0.2339
16093SOL     OW49719   6.563   2.237   5.140 -0.0105  0.3549 -0.0590
16093SOL    HW149720   6.521   2.296   5.203  0.4483 -2.6239  3.3692
16093SOL    HW249721   6.509   2.159   5.141  1.6910 -0.9119 -1.1422
16094SOL     OW49722   1.122   1.757  12.019 -0.6459  0.1029 -0.0612
16094SOL    HW149723   1.083   1.754  12.107 -0.5395  0.9837  0.0236
16094SOL    HW249724   1.156   1.669  12.005  0.6139  0.3153  1.3900
16095SOL     OW49725   5.244   5.288   4.870  0.2294 -0.2220 -0.3955
16095SOL    HW149726   5.312   5.269   4.807 -0.1866  1.2903 -1.3510
16095SOL    HW249727   5.162   5.276   4.822 -0.1992 -1.7807  0.6662
16096SOL     OW49728   1.954   7.285   4.731  0.0524 -0.4348 -0.5271
16096SOL    HW149729   1.944   7.282   4.826  0.0380  0.3440 -0.4931
16096SOL    HW249730   1.953   7.194   4.703 -0.2613 -0.6524  0.1857
16097SOL     OW49731   7.362   3.987  11.701  0.4320  0.7037 -0.2689
16097SOL    HW149732   7.421   3.926  11.744  0.0822  0.8138  0.3754
16097SOL    HW249733   7.390   4.074  11.730  0.8165  0.8542 -1.0429
16098SOL     OW49734   7.017   5.883   6.487 -0.0756  0.4088  0.0431
16098SOL    HW149735   7.047   5.807   6.537  1.0718 -0.3840 -1.7395
16098SOL    HW249736   7.050   5.959   6.536  1.2343 -0.3457  0.3627
16099SOL     OW49737   5.996   1.068   2.815  0.0083 -0.3958 -0.3842
16099SOL    HW149738   6.044   1.139   2.858  0.9728 -1.2313 -0.0430
16099SOL    HW249739   5.923   1.112   2.772 -0.2645  0.6360  1.0398
16100SOL     OW49740   4.802   5.641  12.338  0.3043  0.7237  0.0050
16100SOL    HW149741   4.756   5.684  12.266  0.0485 -0.7499 -0.7611
16100SOL    HW249742   4.852   5.571  12.295 -2.3371 -2.3106  1.4883
16101SOL     OW49743   3.239   7.821   2.139 -0.4830  0.1923 -0.2723
16101SOL    HW149744   3.303   7.790   2.203 -0.0927  1.7783  0.1719
16101SOL    HW249745   3.154   7.809   2.182 -0.3466 -0.2185 -0.1108
16102SOL     OW49746   4.146   4.531   3.292  0.6948  0.0132 -0.3465
16102SOL    HW149747   4.129   4.444   3.255 -0.4095  0.3784 -0.7395
16102SOL    HW249748   4.095   4.532   3.373 -0.9925  1.0095 -1.3709
16103SOL     OW49749   4.702   5.240   3.144  0.6064  0.4157 -0.0361
16103SOL    HW149750   4.750   5.319   3.168  0.3010  0.6104 -0.0568
16103SOL    HW249751   4.768   5.170   3.144  0.7020  0.4825  0.9451
16104SOL     OW49752   6.209   1.802   2.795 -0.0542 -0.0446  0.0626
16104SOL    HW149753   6.190   1.893   2.819  0.6247  0.2468 -0.5001
16104SOL    HW249754   6.141   1.751   2.841 -0.8446  0.7917 -0.1436
16105SOL     OW49755   1.232   5.313  10.104 -0.0532 -0.4421  0.5411
16105SOL    HW149756   1.268   5.300  10.192  0.5734 -0.8194  0.2377
16105SOL    HW249757   1.309   5.331  10.050 -0.4809  0.1982  0.1472
16106SOL     OW49758   7.323   7.797   2.284  0.0958  0.4051  0.1107
16106SOL    HW149759   7.339   7.780   2.191 -0.2687  0.6449 -0.0003
16106SOL    HW249760   7.237   7.839   2.286 -0.1524 -0.1073  0.6063
16107SOL     OW49761   5.635   4.377   1.040  0.7043 -0.4794 -0.5125
16107SOL    HW149762   5.696   4.331   1.097  0.7110 -0.3334 -0.4002
16107SOL    HW249763   5.690   4.434   0.986  0.7874 -1.2970 -1.3184
16108SOL     OW49764   1.160   3.841  11.342 -0.0408 -0.6236 -0.6275
16108SOL    HW149765   1.148   3.930  11.308 -0.0841 -0.6836 -0.7698
16108SOL    HW249766   1.158   3.851  11.437 -0.6690 -0.5540 -0.6397
16109SOL     OW49767   0.336   7.491   3.446 -0.4633  0.2733  0.4824
16109SOL    HW149768   0.275   7.483   3.519 -1.6359  2.9420 -0.0690
16109SOL    HW249769   0.419   7.457   3.479 -0.8300  1.8389  3.2695
16110SOL     OW49770   1.427   0.300   1.340 -0.4534  0.6623  0.1419
16110SOL    HW149771   1.356   0.266   1.396 -0.4633 -1.0905 -0.8814
16110SOL    HW249772   1.505   0.256   1.371 -0.7981 -2.1858 -2.6101
16111SOL     OW49773   5.826   5.594   3.419 -0.4189  0.6791 -0.4615
16111SOL    HW149774   5.749   5.550   3.385 -0.9470 -0.7786  2.3254
16111SOL    HW249775   5.899   5.535   3.400 -0.5279  0.4556 -0.1979
16112SOL     OW49776   2.436   4.922  11.390 -0.9785  0.5398 -0.2428
16112SOL    HW149777   2.395   4.997  11.347 -0.9332  1.0823  0.6283
16112SOL    HW249778   2.490   4.960  11.459 -1.6355 -0.3135  0.7861
16113SOL     OW49779   0.935   1.624   6.729 -0.2496 -0.1691  0.6147
16113SOL    HW149780   0.926   1.685   6.656  0.2880 -0.8306 -0.0194
16113SOL    HW249781   0.873   1.656   6.794 -0.8111  0.3841 -0.1628
16114SOL     OW49782   7.252   4.940   6.860  0.4467 -0.1229  0.3434
16114SOL    HW149783   7.161   4.939   6.829  0.6139 -1.1678 -0.1624
16114SOL    HW249784   7.292   4.864   6.819  0.7700 -1.4460  2.8896
16115SOL     OW49785   4.233   7.315   8.939  0.4091  0.0732  0.5668
16115SOL    HW149786   4.149   7.275   8.917  0.3709  1.4489 -2.2550
16115SOL    HW249787   4.210   7.403   8.970  0.7888  0.4170 -0.1153
16116SOL     OW49788   6.370   6.334   5.830  0.3580  0.5560  0.0798
16116SOL    HW149789   6.408   6.422   5.827  0.2002  0.6163 -0.1351
16116SOL    HW249790   6.443   6.278   5.856  0.5325  0.7087 -0.0753
16117SOL     OW49791   3.449   7.504  10.356  0.4410 -0.1813  0.1435
16117SOL    HW149792   3.407   7.496  10.442 -1.5245  1.6088 -0.5797
16117SOL    HW249793   3.486   7.592  10.355 -1.3809  0.6379 -1.5404
16118SOL     OW49794   5.655   1.893   2.074 -0.5037 -0.0720 -0.5822
16118SOL    HW149795   5.645   1.953   2.148 -0.8950 -1.1546  0.2870
16118SOL    HW249796   5.749   1.883   2.064 -0.4420  0.4003 -0.5011
16119SOL     OW49797   7.728   4.608   8.287 -0.2410  0.4981  0.0046
16119SOL    HW149798   7.649   4.658   8.266 -0.2919  2.1265  3.3691
16119SOL    HW249799   7.794   4.641   8.227 -1.3709  1.3735 -0.7998
16120SOL     OW49800   7.680   4.275   0.898 -0.0993  0.0287  0.7200
16120SOL    HW149801   7.608   4.231   0.852  1.1495  0.5267 -1.9263
16120SOL    HW249802   7.662   4.368   0.886  1.2589  0.1536 -0.4992
16121SOL     OW49803   1.507   5.146   5.609  0.4296  0.6976 -0.9696
16121SOL    HW149804   1.546   5.185   5.688 -1.1204  0.6419 -0.1433
16121SOL    HW249805   1.428   5.102   5.640 -0.5077  1.1060 -2.6356
16122SOL     OW49806   4.505   5.868   1.231 -0.0299 -0.3192 -0.4917
16122SOL    HW149807   4.569   5.800   1.211  1.4763  1.4158 -1.8790
16122SOL    HW249808   4.529   5.899   1.319  0.5653 -0.2093 -0.6888
16123SOL     OW49809   4.595   5.920   7.626 -0.5053  0.3754  0.2819
16123SOL    HW149810   4.669   5.907   7.684  0.2614  0.5062 -0.6321
16123SOL    HW249811   4.555   6.002   7.656 -0.1465  0.4200  0.6453
16124SOL     OW49812   2.133   0.442   4.111 -0.2273  0.5564  0.6993
16124SOL    HW149813   2.086   0.403   4.038 -0.8835  0.4255  1.1782
16124SOL    HW249814   2.119   0.536   4.101  2.2736  0.8129 -1.0808
16125SOL     OW49815   7.205   3.846   3.759 -0.0489 -0.7370 -0.1220
16125SOL    HW149816   7.245   3.792   3.691  0.3449 -0.2853 -0.2589
16125SOL    HW249817   7.279   3.875   3.813 -0.3017 -0.6747  0.1935
16126SOL     OW49818   4.346   1.966   8.887 -0.2208  0.0165  0.5522
16126SOL    HW149819   4.311   2.045   8.930  0.8920  1.1710 -0.5720
16126SOL    HW249820   4.271   1.930   8.839 -0.5518  0.8532  0.4220
16127SOL     OW49821   0.633   2.009   3.476  0.5341 -0.3048  0.3285
16127SOL    HW149822   0.657   2.075   3.411 -1.6057  0.3346  0.1093
16127SOL    HW249823   0.581   1.945   3.428  0.0249 -0.5126  1.1349
16128SOL     OW49824   7.534   0.594   2.070 -0.1797  0.0653 -0.2669
16128SOL    HW149825   7.550   0.622   2.160 -0.0947  0.0839 -0.2877
16128SOL    HW249826   7.544   0.499   2.073  0.0912  0.0900 -0.3107
16129SOL     OW49827   3.095   3.436   3.919  0.4788 -0.1247  0.8364
16129SOL    HW149828   3.166   3.372   3.911  0.9491  0.6237 -1.7896
16129SOL    HW249829   3.136   3.520   3.898 -0.9209  0.4870  0.4396
16130SOL     OW49830   6.167   6.022  12.163  0.1821  0.0392 -0.4223
16130SOL    HW149831   6.260   6.045  12.156 -0.1512  1.3295 -0.8370
16130SOL    HW249832   6.129   6.050  12.080 -0.2739 -2.1328 -0.9953
16131SOL     OW49833   6.194   4.289   1.394  0.3631  0.5982  0.0938
16131SOL    HW149834   6.175   4.353   1.325  1.3104  0.2188 -0.5413
16131SOL    HW249835   6.111   4.279   1.441 -0.4229  0.5540 -1.2428
16132SOL     OW49836   6.041   1.519   3.149 -0.6035  0.5694  0.0685
16132SOL    HW149837   6.096   1.478   3.215 -1.8990 -0.3357  0.6292
16132SOL    HW249838   5.952   1.515   3.185 -1.1082  1.6763 -0.9442
16133SOL     OW49839   6.349   6.376  11.178  0.1556  0.2907  0.3327
16133SOL    HW149840   6.258   6.385  11.206  0.4560  0.7348  1.2299
16133SOL    HW249841   6.368   6.459  11.133  0.0453  0.0906 -0.0898
16134SOL     OW49842   0.244   5.996   4.227  0.4675 -0.7728  0.5387
16134SOL    HW149843   0.289   5.911   4.222  0.5226 -0.6792 -0.6182
16134SOL    HW249844   0.314   6.059   4.242  0.3797 -0.9645  1.8929
16135SOL     OW49845   1.485   1.959   2.362  0.2948 -0.6193 -0.6633
16135SOL    HW149846   1.572   1.985   2.394 -0.2306 -1.0439  1.1981
16135SOL    HW249847   1.504   1.899   2.290  1.6861 -3.0972  1.5671
16136SOL     OW49848   6.513   5.225   2.053  0.2880  0.2210  0.1150
16136SOL    HW149849   6.567   5.259   1.982  1.5718 -1.6230  0.1439
16136SOL    HW249850   6.538   5.133   2.061 -1.4966 -0.2170  1.4294
16137SOL     OW49851   4.946   1.974   5.610  0.6773 -0.4116  0.0950
16137SOL    HW149852   5.001   1.932   5.676  0.3415  0.5534  1.0096
16137SOL    HW249853   4.980   1.941   5.526  0.8667 -1.9427  0.7464
16138SOL     OW49854   7.515   5.280   4.731 -0.2891  0.0603 -0.2875
16138SOL    HW149855   7.433   5.264   4.683 -0.0489  0.4516 -0.8413
16138SOL    HW249856   7.550   5.360   4.692  1.4026 -1.2073 -1.5115
16139SOL     OW49857   3.203   0.994   5.813 -0.4391 -0.1496  0.9009
16139SOL    HW149858   3.136   0.974   5.747  1.3754 -3.8157 -0.0463
16139SOL    HW249859   3.193   0.926   5.879  0.1288  1.3803  2.6670
16140SOL     OW49860   5.283   0.065  11.288  0.2900  0.4524 -0.5075
16140SOL    HW149861   5.210   0.118  11.255 -0.6533 -0.2710  0.3530
16140SOL    HW249862   5.248  -0.024  11.292  1.8016 -0.2532 -1.7856
16141SOL     OW49863   5.744   4.274   3.635  0.4520 -0.4861 -0.1759
16141SOL    HW149864   5.827   4.307   3.671  0.0715  2.8807 -1.9576
16141SOL    HW249865   5.763   4.256   3.543 -0.8715  1.0049 -0.7921
16142SOL     OW49866   0.551   4.939  11.945  0.3261  0.4621  0.3486
16142SOL    HW149867   0.533   4.951  12.038 -0.7583  0.4788  0.1511
16142SOL    HW249868   0.494   5.002  11.901 -0.1546 -0.4428 -0.3778
16143SOL     OW49869   0.464   1.008   5.670  0.1404  0.2388  0.4317
16143SOL    HW149870   0.546   1.044   5.703  0.4502 -1.3367  1.4989
16143SOL    HW249871   0.489   0.962   5.590  0.5320 -1.1384  1.3122
16144SOL     OW49872   0.587   5.692  10.882  0.4074 -0.2140 -0.4235
16144SOL    HW149873   0.666   5.746  10.879  0.7224 -0.5333  1.1485
16144SOL    HW249874   0.619   5.606  10.912 -0.5654 -0.2816  0.4462
16145SOL     OW49875   4.885   3.245   1.809  0.0368  0.7704 -0.3652
16145SOL    HW149876   4.895   3.189   1.732  1.8034  0.2220  0.2178
16145SOL    HW249877   4.810   3.208   1.856  1.7853 -1.8989  0.5769
16146SOL     OW49878   2.577   6.270   2.436 -0.2064  0.5957  0.6563
16146SOL    HW149879   2.598   6.360   2.461  0.5669  0.6310 -0.0610
16146SOL    HW249880   2.620   6.216   2.503  1.0869  0.7118 -0.0472
16147SOL     OW49881   3.196   4.542   5.851 -0.0361  0.0116 -0.1355
16147SOL    HW149882   3.195   4.591   5.933 -1.2130 -0.6898  0.2930
16147SOL    HW249883   3.216   4.607   5.784  0.5004  0.6763  0.6401
16148SOL     OW49884   7.299   1.027  11.436  0.0427 -0.1574 -0.3737
16148SOL    HW149885   7.360   1.099  11.451 -0.8190  0.5399 -0.0673
16148SOL    HW249886   7.301   0.976  11.517 -0.4478  0.3882 -0.0109
16149SOL     OW49887   0.812   1.132   1.739  0.2984 -0.4905  0.0542
16149SOL    HW149888   0.851   1.091   1.816  0.0839 -0.3285  0.2470
16149SOL    HW249889   0.867   1.209   1.723  0.4339 -0.6069 -0.0460
16150SOL     OW49890   5.550   6.229   3.142  0.1093  0.3678 -0.2756
16150SOL    HW149891   5.533   6.138   3.168  1.0851  0.6769  1.6446
16150SOL    HW249892   5.490   6.245   3.070  0.0212 -1.8513 -0.7797
16151SOL     OW49893   4.538   6.728   0.130 -0.3610  0.6553 -1.1499
16151SOL    HW149894   4.452   6.751   0.094  0.3739  1.4340 -2.4576
16151SOL    HW249895   4.563   6.649   0.082 -1.5199 -1.2671  1.1798
16152SOL     OW49896   5.987   4.092   4.799 -0.8975 -0.0167  0.1145
16152SOL    HW149897   5.976   4.008   4.753 -0.3595 -0.8691  1.4723
16152SOL    HW249898   6.082   4.107   4.798 -1.0521  0.9729 -0.7711
16153SOL     OW49899   7.070   2.220   2.802 -0.0806  0.9618 -0.5520
16153SOL    HW149900   7.059   2.160   2.876 -2.1359  1.0543 -0.7356
16153SOL    HW249901   7.080   2.163   2.726  0.7673  0.8706 -0.3808
16154SOL     OW49902   4.485   6.257   7.148  0.4830 -0.0606  0.0611
16154SOL    HW149903   4.576   6.232   7.161  0.3478 -0.9601 -0.6679
16154SOL    HW249904   4.457   6.290   7.234  1.3180 -0.3212  0.4437
16155SOL     OW49905   5.227   2.356  11.557  0.2998 -0.3210 -0.4755
16155SOL    HW149906   5.293   2.368  11.489  0.4486  1.1009 -0.1104
16155SOL    HW249907   5.277   2.354  11.638 -0.0898  0.8256 -0.1910
16156SOL     OW49908   1.784   4.994   1.886 -0.0600  0.2442  0.3100
16156SOL    HW149909   1.856   5.048   1.918  0.2217  0.4862 -0.7014
16156SOL    HW249910   1.827   4.923   1.838 -0.4730  1.5454 -2.1573
16157SOL     OW49911   0.968   5.499   6.363 -0.2144 -0.7085  0.1458
16157SOL    HW149912   0.994   5.573   6.307 -1.8957 -0.5316 -0.4417
16157SOL    HW249913   1.042   5.488   6.423  0.4250  0.9160 -0.2867
16158SOL     OW49914   1.075   0.364   5.094  0.2911 -0.6361  0.1103
16158SOL    HW149915   1.104   0.303   5.161  0.0774  0.5084  1.2732
16158SOL    HW249916   1.038   0.438   5.142 -2.7607 -1.1041 -1.2357
16159SOL     OW49917   1.756   5.617   9.730  0.5430  0.7253 -0.5211
16159SOL    HW149918   1.773   5.644   9.820 -0.9287  0.3636 -0.1089
16159SOL    HW249919   1.680   5.558   9.736  1.2100 -0.3376 -1.8424
16160SOL     OW49920   7.588   0.029   0.817  0.2701  0.2843  0.4189
16160SOL    HW149921   7.580   0.091   0.890  0.0063  0.9283 -0.1451
16160SOL    HW249922   7.666   0.057   0.770 -0.4044  0.8350 -0.4169
16161SOL     OW49923   7.290   5.581  12.228  0.0940  0.2014  0.0914
16161SOL    HW149924   7.256   5.644  12.292 -1.5455 -0.3924 -0.1483
16161SOL    HW249925   7.353   5.632  12.176 -1.2159  1.7080 -0.1366
16162SOL     OW49926   0.141   5.477   3.786 -0.0467  0.0870 -0.0986
16162SOL    HW149927   0.184   5.556   3.754  2.1459 -0.9806  0.0021
16162SOL    HW249928   0.211   5.412   3.791 -1.9505 -2.2033 -1.1639
16163SOL     OW49929   3.030   2.541   5.973 -0.1402 -0.1821  0.0239
16163SOL    HW149930   2.936   2.552   5.958  0.1475  3.2679  0.0002
16163SOL    HW249931   3.036   2.508   6.063 -1.4334  2.3438  1.1563
16164SOL     OW49932   1.669   7.232   3.899  0.1234 -0.2393 -0.9053
16164SOL    HW149933   1.650   7.143   3.868  1.8904 -0.8450 -0.3804
16164SOL    HW249934   1.598   7.251   3.961 -0.6810 -0.9900 -1.5657
16165SOL     OW49935   0.585   7.092  11.162  0.0497  0.0762  0.1567
16165SOL    HW149936   0.646   7.023  11.138  0.0191  0.0277  0.2178
16165SOL    HW249937   0.531   7.054  11.231  2.2489  1.2486  2.7121
16166SOL     OW49938   1.458   5.972   8.290 -0.1625 -0.6623  0.1542
16166SOL    HW149939   1.542   5.981   8.336 -0.7414  0.1985  1.1115
16166SOL    HW249940   1.465   5.890   8.242  0.5748 -1.5000  1.6235
16167SOL     OW49941   0.099   1.640  11.487  0.1662 -0.1434 -0.0327
16167SOL    HW149942   0.065   1.564  11.440  0.9991 -2.3799  2.7273
16167SOL    HW249943   0.022   1.694  11.504 -0.6369 -0.9545 -0.9509
16168SOL     OW49944   7.003   7.336   3.325 -0.2881 -0.2718 -0.2349
16168SOL    HW149945   6.984   7.247   3.296 -0.5160 -0.6868  1.0970
16168SOL    HW249946   6.964   7.341   3.413 -0.5705  1.2501 -0.4136
16169SOL     OW49947   0.100   0.144   2.454  0.0096 -0.0946 -0.3730
16169SOL    HW149948   0.174   0.178   2.402  0.5965 -0.5809  0.1278
16169SOL    HW249949   0.099   0.198   2.532  1.4199 -1.6340  0.7806
16170SOL     OW49950   0.831   3.687   0.260 -0.0348 -0.0047  0.4028
16170SOL    HW149951   0.781   3.700   0.180 -1.1104  0.5659  1.1450
16170SOL    HW249952   0.807   3.598   0.289 -1.4870  0.6409  1.3080
16171SOL     OW49953   1.406   3.540   6.162  0.5505 -0.2852  0.0273
16171SOL    HW149954   1.346   3.519   6.091  1.0559 -0.2273 -0.4152
16171SOL    HW249955   1.373   3.622   6.198  1.1048  0.4129 -1.0353
16172SOL     OW49956   6.157   0.753   3.756 -0.0046  0.3418 -0.4154
16172SOL    HW149957   6.100   0.786   3.825  1.1499  0.9951  0.2607
16172SOL    HW249958   6.225   0.820   3.747 -0.5716  0.6753 -2.7862
16173SOL     OW49959   0.200   7.854  10.162  0.2656  0.2792 -0.0472
16173SOL    HW149960   0.207   7.839  10.257  0.2380  2.0289  0.2654
16173SOL    HW249961   0.108   7.834  10.141  0.1709  0.2622  0.3751
16174SOL     OW49962   4.473   5.075  11.110  0.0754  1.0416 -0.1987
16174SOL    HW149963   4.380   5.052  11.120  0.6500 -2.1688 -1.1579
16174SOL    HW249964   4.480   5.106  11.020 -0.0733  1.4388 -0.0765
16175SOL     OW49965   6.996   2.893   9.178  0.1888 -0.0255 -0.5299
16175SOL    HW149966   6.976   2.961   9.242  0.1651 -0.8304  0.3524
16175SOL    HW249967   6.910   2.863   9.147  0.1628 -0.2403 -0.2623
16176SOL     OW49968   5.283   7.469   9.364 -0.0772  0.1918  0.1454
16176SOL    HW149969   5.371   7.493   9.394 -0.1061  0.7503 -0.1980
16176SOL    HW249970   5.267   7.383   9.402  0.1206  0.6263  1.2313
16177SOL     OW49971   5.824   3.449   0.221 -0.3081 -0.2598  0.1259
16177SOL    HW149972   5.888   3.469   0.290 -0.1985 -0.3695  0.0572
16177SOL    HW249973   5.745   3.497   0.246  0.5510  1.8925 -1.0706
16178SOL     OW49974   4.178   6.099   9.862  0.4262 -0.1054 -0.2715
16178SOL    HW149975   4.163   6.184   9.902 -0.3203  0.3056 -1.3679
16178SOL    HW249976   4.207   6.043   9.934 -0.3793  0.7278  0.7336
16179SOL     OW49977   4.231   2.942   4.755  0.2388  0.3933 -0.3531
16179SOL    HW149978   4.202   3.016   4.701 -0.3884  1.0021  0.7705
16179SOL    HW249979   4.151   2.910   4.796  0.8279  0.6604  1.0656
16180SOL     OW49980   5.360   5.838   2.453  0.1918 -0.5364 -0.3621
16180SOL    HW149981   5.316   5.823   2.369 -0.3890  0.6913 -0.2960
16180SOL    HW249982   5.439   5.887   2.430  0.2910 -0.6378 -0.2394
16181SOL     OW49983   0.144   3.026  11.981  0.0655 -0.8025 -0.0446
16181SOL    HW149984   0.135   3.075  12.062  2.0327 -0.8381  0.2627
16181SOL    HW249985   0.080   2.955  11.987 -1.2942  0.4519  0.4786
16182SOL     OW49986   3.072   4.277   6.704  1.0064 -0.5105 -0.3890
16182SOL    HW149987   3.144   4.233   6.660  0.7816 -1.3550  0.0566
16182SOL    HW249988   2.996   4.260   6.649  0.9365 -0.6053 -0.2642
16183SOL     OW49989   5.026   5.594   6.577  0.2388  0.6381 -0.5308
16183SOL    HW149990   5.037   5.642   6.659  2.1935 -0.4254 -0.1143
16183SOL    HW249991   5.067   5.649   6.510  1.1622  0.2538 -0.2976
16184SOL     OW49992   0.855   0.702  11.984 -0.0542 -0.3126 -0.0459
16184SOL    HW149993   0.889   0.790  11.998  0.6455 -0.6541  0.4908
16184SOL    HW249994   0.920   0.645  12.026  0.8275 -1.2517 -2.5269
16185SOL     OW49995   0.309   2.249   8.238  0.2881  0.0708 -0.2379
16185SOL    HW149996   0.264   2.333   8.239 -0.8750 -0.5119 -0.9804
16185SOL    HW249997   0.372   2.257   8.166  0.9253  0.6472  0.3624
16186SOL     OW49998   4.903   1.819   1.738  0.5714 -0.1102  0.5645
16186SOL    HW149999   4.907   1.724   1.726  1.6380  0.1484 -1.5709
16186SOL    HW250000   4.990   1.850   1.713  0.2960  1.4337  1.4090
16187SOL     OW50001   5.462   3.010   5.704  0.6117  0.1869 -0.2911
16187SOL    HW150002   5.397   2.990   5.637  1.0345 -1.1971 -0.3042
16187SOL    HW250003   5.540   3.035   5.655  0.2672  1.3735 -0.2762
16188SOL     OW50004   7.503   2.562   6.274  0.1340  0.5278 -0.6320
16188SOL    HW150005   7.526   2.561   6.367  1.5516 -0.1625 -0.9587
16188SOL    HW250006   7.485   2.471   6.253 -1.2511  0.8212 -0.8110
16189SOL     OW50007   7.370   1.715   4.904 -0.3096 -0.1089  0.4547
16189SOL    HW150008   7.317   1.641   4.936 -0.0183 -0.3441  0.3904
16189SOL    HW250009   7.460   1.684   4.909 -0.1196  0.5086  1.1571
16190SOL     OW50010   1.843   5.645   8.745 -0.1066 -0.2146 -0.0118
16190SOL    HW150011   1.911   5.592   8.704 -0.4768 -0.2047 -0.6503
16190SOL    HW250012   1.848   5.730   8.700 -0.0623  0.0237  0.4380
16191SOL     OW50013   5.974   1.159   7.326  0.0089  0.4389  0.1165
16191SOL    HW150014   5.919   1.154   7.248  1.3852  2.2011 -1.0344
16191SOL    HW250015   6.064   1.161   7.293  0.6557  0.6578  1.7736
16192SOL     OW50016   1.946   1.209   4.830 -0.4998  0.4163  0.2594
16192SOL    HW150017   2.033   1.227   4.794 -0.5111 -0.4834 -0.2492
16192SOL    HW250018   1.956   1.218   4.924  0.3825 -0.5932  0.2760
16193SOL     OW50019   5.947   1.241  10.877 -0.2581 -0.8862  0.1345
16193SOL    HW150020   6.023   1.285  10.838  0.3305 -0.7280  1.4141
16193SOL    HW250021   5.927   1.170  10.817  0.6258 -0.6602 -0.4492
16194SOL     OW50022   5.526   4.007   7.095 -0.0349  0.1400 -0.5903
16194SOL    HW150023   5.466   4.005   7.169  1.7223  1.5158  0.9616
16194SOL    HW250024   5.569   3.922   7.097 -0.3366 -0.0095 -0.3451
16195SOL     OW50025   1.796   2.186  10.834  0.0726 -0.0423 -0.1272
16195SOL    HW150026   1.857   2.120  10.801  0.6577  0.9423 -1.0658
16195SOL    HW250027   1.724   2.186  10.771  0.4756  0.7993 -0.5947
16196SOL     OW50028   4.980   1.478   3.576  0.3622  0.3671 -0.5720
16196SOL    HW150029   4.918   1.550   3.566  0.1824  0.2822 -0.0963
16196SOL    HW250030   4.969   1.426   3.496  0.1098  0.5740 -0.6729
16197SOL     OW50031   3.717   6.805  11.873  0.1556  0.0373  0.5213
16197SOL    HW150032   3.629   6.781  11.902  0.2476 -1.3160 -0.2247
16197SOL    HW250033   3.755   6.723  11.841  0.9124  1.0029 -1.1761
16198SOL     OW50034   0.173   3.196   6.999 -0.0840  0.5222 -0.5793
16198SOL    HW150035   0.083   3.190   7.031 -0.6532  2.0285 -1.7908
16198SOL    HW250036   0.190   3.290   6.990  2.1283  0.3671  0.9374
16199SOL     OW50037   5.688   3.488   5.136 -0.1808  0.0982  0.5510
16199SOL    HW150038   5.646   3.572   5.118  0.2302 -0.1274 -1.8036
16199SOL    HW250039   5.657   3.430   5.066  1.7354 -0.8825  0.4250
16200SOL     OW50040   6.040   1.939   7.671  0.3194  0.3953 -0.0414
16200SOL    HW150041   6.018   1.956   7.580  2.4664  3.1848 -0.1709
16200SOL    HW250042   5.967   1.978   7.721  1.0386  2.5591 -0.5720
16201SOL     OW50043   3.135   2.672  10.611  0.4681  0.3595 -0.3345
16201SOL    HW150044   3.195   2.726  10.560  1.0215  0.0939  0.0272
16201SOL    HW250045   3.141   2.585  10.571 -0.4528  0.5581 -0.9448
16202SOL     OW50046   0.015   0.356   0.276 -0.4406 -0.0497  0.1016
16202SOL    HW150047   0.101   0.367   0.317 -0.4315 -1.9937  0.6752
16202SOL    HW250048   0.033   0.308   0.195 -0.8076  1.1539 -0.7290
16203SOL     OW50049   0.039   1.611   1.749 -0.1677  0.4520  0.7236
16203SOL    HW150050   0.055   1.634   1.840  0.3275 -0.5169  0.8935
16203SOL    HW250051   0.094   1.534   1.733  0.8635  1.4337 -0.8111
16204SOL     OW50052   0.176   5.365   8.030 -0.1140  0.5449 -0.1934
16204SOL    HW150053   0.182   5.287   7.974 -1.5581 -0.3186  0.7719
16204SOL    HW250054   0.260   5.367   8.076 -0.0927 -0.5507 -0.1384
16205SOL     OW50055   4.933   6.622   8.018 -0.1652 -0.1375  0.1036
16205SOL    HW150056   4.902   6.642   8.107 -0.0272  2.0028 -0.2806
16205SOL    HW250057   4.853   6.615   7.966 -0.1876  0.5560  0.0363
16206SOL     OW50058   0.251   3.967   1.331 -0.6507 -0.2716  0.3981
16206SOL    HW150059   0.169   4.013   1.314 -0.7548 -0.8364 -0.7184
16206SOL    HW250060   0.236   3.922   1.414 -0.8605  0.9684  1.0539
16207SOL     OW50061   1.482   4.278   3.721  0.3045  0.1803 -0.5254
16207SOL    HW150062   1.437   4.334   3.658 -0.6393 -2.4776 -2.3765
16207SOL    HW250063   1.574   4.283   3.697  0.1816  0.6504 -0.9091
16208SOL     OW50064   5.437   0.525   4.649  0.3026 -0.3798 -0.1113
16208SOL    HW150065   5.473   0.476   4.575  0.3450  1.0411 -1.0673
16208SOL    HW250066   5.420   0.612   4.614  1.9726  0.8936  1.9605
16209SOL     OW50067   6.561   6.217  10.179 -0.4701 -0.0595  0.2480
16209SOL    HW150068   6.491   6.200  10.242 -0.7325  0.5084  0.1156
16209SOL    HW250069   6.641   6.208  10.230 -0.4645 -3.1648 -0.1223
16210SOL     OW50070   2.140   7.067  10.383 -0.1834  0.2455 -0.6951
16210SOL    HW150071   2.208   7.133  10.373  0.1635  0.0222  0.1249
16210SOL    HW250072   2.061   7.108  10.349 -0.3094  1.6404  1.1797
16211SOL     OW50073   4.534   5.026   0.010 -0.1915 -0.4121  0.4149
16211SOL    HW150074   4.447   5.039  -0.026 -1.0020  0.5096  2.5326
16211SOL    HW250075   4.549   5.102   0.066  2.4795  0.0244 -0.7714
16212SOL     OW50076   3.119   7.826   4.023 -0.3645 -0.4914 -0.6796
16212SOL    HW150077   3.025   7.821   4.041 -0.1056 -0.8483  0.7354
16212SOL    HW250078   3.147   7.905   4.068 -0.0884 -0.0393 -1.6381
16213SOL     OW50079   0.161   3.514  12.258 -0.0778 -0.1151 -0.1116
16213SOL    HW150080   0.129   3.424  12.268 -0.4795 -0.0402 -0.6834
16213SOL    HW250081   0.256   3.505  12.250 -0.1648 -0.5378 -0.7248
16214SOL     OW50082   6.678   0.412   2.909  0.2328  0.0645 -0.0874
16214SOL    HW150083   6.717   0.484   2.860  3.2063 -0.4538  1.2788
16214SOL    HW250084   6.619   0.454   2.972 -0.2568  1.0385 -1.1733
16215SOL     OW50085   4.632   6.061   3.082 -0.0304  0.3213 -0.0161
16215SOL    HW150086   4.560   6.086   3.139 -0.7268  1.1240 -1.2073
16215SOL    HW250087   4.600   6.078   2.993  1.5039  0.3858 -0.5894
16216SOL     OW50088   3.873   5.114   8.208 -0.0138 -0.0056  0.1421
16216SOL    HW150089   3.785   5.136   8.238 -0.2922 -0.9004  0.0174
16216SOL    HW250090   3.901   5.191   8.159 -1.5865 -0.4829 -1.6610
16217SOL     OW50091   3.438   1.307   9.417  0.4779  0.0008 -0.7338
16217SOL    HW150092   3.388   1.295   9.498  1.8699 -2.3338 -0.1111
16217SOL    HW250093   3.530   1.305   9.445  0.9741  0.2334 -2.2609
16218SOL     OW50094   1.319   6.619   2.525  0.4253  0.3364 -0.3158
16218SOL    HW150095   1.238   6.588   2.484  0.3542 -0.8230  0.6491
16218SOL    HW250096   1.388   6.580   2.472  0.3982  1.9932 -1.6414
16219SOL     OW50097   4.447   2.416   7.046 -0.0436 -0.0418  0.4092
16219SOL    HW150098   4.353   2.407   7.030 -0.1918  1.2802  0.3654
16219SOL    HW250099   4.473   2.490   6.990  1.2239 -0.9872 -0.2965
16220SOL     OW50100   6.485   3.557   0.654  0.5284 -0.2838  0.4111
16220SOL    HW150101   6.419   3.605   0.704  3.1280  1.6497  2.2838
16220SOL    HW250102   6.498   3.475   0.703  1.0296  0.3255  1.3336
16221SOL     OW50103   2.655   2.816   5.335 -0.1416 -0.0919 -0.2394
16221SOL    HW150104   2.586   2.823   5.269 -0.7584  0.7460  0.4919
16221SOL    HW250105   2.619   2.856   5.413  0.4409 -1.4172  0.7525
16222SOL     OW50106   0.078   3.316   9.460 -0.0411  0.1672 -0.0900
16222SOL    HW150107   0.023   3.259   9.513  0.0786  0.7162  0.6475
16222SOL    HW250108   0.147   3.345   9.520  0.7972 -0.1585 -0.8818
16223SOL     OW50109   1.552   7.660  12.108 -0.1158 -0.3171  0.2727
16223SOL    HW150110   1.521   7.734  12.159  0.2358 -0.2056  0.3258
16223SOL    HW250111   1.570   7.696  12.021 -1.6490 -0.6980 -0.2383
16224SOL     OW50112   4.676   5.592   2.259 -0.5125 -0.3338  0.1798
16224SOL    HW150113   4.746   5.528   2.262  1.1117  1.3093 -0.9283
16224SOL    HW250114   4.687   5.644   2.339 -1.1455 -0.7042  0.5229
16225SOL     OW50115   5.234   5.583   8.775 -0.8143  0.0064  0.0702
16225SOL    HW150116   5.310   5.606   8.828  0.4852 -0.8691 -1.3329
16225SOL    HW250117   5.269   5.526   8.707 -2.9612 -1.5780  0.1904
16226SOL     OW50118   1.878   6.546   2.687  0.1273  0.0748  0.4082
16226SOL    HW150119   1.862   6.639   2.677  1.4837  0.2427 -0.5085
16226SOL    HW250120   1.864   6.528   2.780  0.3448  1.2898  0.6825
16227SOL     OW50121   6.041   5.786   2.353  0.2856  0.4020  0.2987
16227SOL    HW150122   6.134   5.767   2.340  0.1414 -0.3173  0.2601
16227SOL    HW250123   6.001   5.700   2.370 -0.3497  0.7174  0.4496
16228SOL     OW50124   0.630   5.339  12.162 -0.6569  0.3486  0.1353
16228SOL    HW150125   0.688   5.330  12.238  1.0903  2.9699 -0.7526
16228SOL    HW250126   0.585   5.254  12.156  0.9157 -0.7802  2.6114
16229SOL     OW50127   1.383   6.049   5.376 -0.5227  0.5260  0.1584
16229SOL    HW150128   1.448   6.069   5.443  1.6390  1.5749 -2.0915
16229SOL    HW250129   1.398   5.957   5.354 -0.9973  0.2818  0.8120
16230SOL     OW50130   6.415   5.670   7.919  0.0376  0.8338 -0.1061
16230SOL    HW150131   6.452   5.639   8.002  1.4670  0.7197 -0.7529
16230SOL    HW250132   6.380   5.591   7.877  1.1077  0.5464 -0.4825
16231SOL     OW50133   7.196   0.069   7.656  0.0944  0.0553  0.1490
16231SOL    HW150134   7.100   0.068   7.654  0.1038 -1.0315 -0.3747
16231SOL    HW250135   7.220   0.158   7.630 -0.7672  0.3749  0.4133
16232SOL     OW50136   0.073   0.215   0.057  0.8187 -0.5405  0.1860
16232SOL    HW150137   0.159   0.241   0.024  0.8623 -0.8058  0.0913
16232SOL    HW250138   0.021   0.197  -0.021  1.3708 -2.6503  0.2438
16233SOL     OW50139   0.001   6.221  11.352 -0.1843  0.4793 -0.1098
16233SOL    HW150140   0.020   6.187  11.265  0.1883  0.3687  0.0105
16233SOL    HW250141   0.009   6.316  11.344  0.9286  0.4101  0.0496
16234SOL     OW50142   2.700   7.564   3.454 -0.4236 -0.7964 -0.0200
16234SOL    HW150143   2.666   7.511   3.382 -1.4295  0.5719 -0.6118
16234SOL    HW250144   2.788   7.588   3.427  0.3297 -2.7294  0.5964
16235SOL     OW50145   1.907   4.753  10.191  0.5377 -0.4053  0.3795
16235SOL    HW150146   1.889   4.797  10.274  1.9743 -0.2165  0.6228
16235SOL    HW250147   1.821   4.731  10.156 -0.1095 -0.1245  1.7218
16236SOL     OW50148   6.477   2.734   4.782 -0.0653  0.2327 -0.0447
16236SOL    HW150149   6.403   2.790   4.803  0.6152  0.1122  3.1631
16236SOL    HW250150   6.554   2.784   4.810  0.6093 -1.8154  2.1694
16237SOL     OW50151   1.665   3.443   1.824  0.3140  0.0201  0.2424
16237SOL    HW150152   1.760   3.449   1.814  0.2625  0.7435  0.1155
16237SOL    HW250153   1.637   3.390   1.750  0.4147  1.5522 -0.9440
16238SOL     OW50154   7.051   1.319   9.307  0.1147 -0.6541 -0.0084
16238SOL    HW150155   7.003   1.370   9.373 -0.5927 -0.2415 -0.8219
16238SOL    HW250156   7.106   1.384   9.262  1.4383 -1.1092  0.8755
16239SOL     OW50157   4.716   6.118   5.369 -0.1269 -0.3936 -0.0875
16239SOL    HW150158   4.765   6.192   5.406  0.6542  0.2906 -2.2814
16239SOL    HW250159   4.685   6.151   5.284 -3.9641 -1.0007  0.8793
16240SOL     OW50160   2.483   3.674   8.051 -0.4989 -0.1072  0.1424
16240SOL    HW150161   2.411   3.709   8.103 -2.1639  0.5469 -2.4261
16240SOL    HW250162   2.471   3.579   8.052 -0.5611 -0.0938  0.8352
16241SOL     OW50163   0.078   4.403   7.950  0.2690 -0.6284 -0.2460
16241SOL    HW150164   0.056   4.321   7.993 -1.6035 -1.0045 -1.7525
16241SOL    HW250165   0.049   4.471   8.012  0.1944 -1.1163  0.2637
16242SOL     OW50166   2.171   0.945   4.177 -0.3849 -0.4517 -0.4185
16242SOL    HW150167   2.081   0.962   4.150 -0.9685  0.0895  1.7004
16242SOL    HW250168   2.213   1.031   4.174  0.0206 -0.6591 -1.1259
16243SOL     OW50169   1.974   0.383   9.676 -0.6199 -0.3141 -0.2380
16243SOL    HW150170   1.964   0.306   9.621 -2.0586 -1.1411  1.1022
16243SOL    HW250171   1.940   0.356   9.762  3.3032  0.2572  1.7102
16244SOL     OW50172   6.994   5.208   6.720 -0.0233 -0.3172 -0.2066
16244SOL    HW150173   7.015   5.120   6.690  2.0854  0.4609 -1.2360
16244SOL    HW250174   6.967   5.255   6.641  1.0796  0.5339 -0.1023
16245SOL     OW50175   3.229   0.622   1.701  0.1017 -0.2234 -0.0881
16245SOL    HW150176   3.198   0.697   1.752  1.5772  1.8502 -2.0533
16245SOL    HW250177   3.160   0.605   1.638 -1.1622 -1.9799  1.6399
16246SOL     OW50178   5.170   1.986   8.646  0.2003  0.5419  0.3396
16246SOL    HW150179   5.240   1.965   8.708 -1.6637  1.1402  2.7773
16246SOL    HW250180   5.186   2.078   8.622  0.7579  0.3972  0.1357
16247SOL     OW50181   4.609   1.361  11.883 -0.0269 -0.1050  0.2597
16247SOL    HW150182   4.526   1.349  11.929  0.8822  1.8134  2.6089
16247SOL    HW250183   4.593   1.435  11.825 -0.0904 -0.0320  0.3689
16248SOL     OW50184   7.778   6.011   8.714 -0.0087 -0.2869  0.4100
16248SOL    HW150185   7.793   6.103   8.735 -0.9660 -0.3581  1.4756
16248SOL    HW250186   7.847   5.989   8.651 -0.8056  1.6411 -1.2464
16249SOL     OW50187   7.801   5.239   7.929  0.6441 -0.3749 -0.0063
16249SOL    HW150188   7.796   5.288   8.011  0.3363 -0.7731  0.2197
16249SOL    HW250189   7.874   5.178   7.942  1.1477  0.1451 -0.3571
16250SOL     OW50190   7.723   6.764   8.191 -0.7351  0.2260 -0.7755
16250SOL    HW150191   7.711   6.842   8.245  1.5330 -1.1410  1.9669
16250SOL    HW250192   7.634   6.736   8.168 -1.7174  1.8828  0.7947
16251SOL     OW50193   1.413   5.631   3.158 -0.2037 -0.1228  0.4551
16251SOL    HW150194   1.494   5.582   3.146 -0.1817  0.0081  0.0586
16251SOL    HW250195   1.345   5.572   3.126 -0.3280 -0.4377  1.2605
16252SOL     OW50196   2.206   7.202   1.975 -0.0044  0.2752  0.6024
16252SOL    HW150197   2.226   7.142   1.903 -1.4521  0.5418 -0.0692
16252SOL    HW250198   2.219   7.290   1.938 -1.0150  0.4217  0.5542
16253SOL     OW50199   2.597   2.878   1.922 -0.3481  0.0303 -0.0169
16253SOL    HW150200   2.516   2.928   1.909  0.1004  0.9849  0.7022
16253SOL    HW250201   2.636   2.916   2.001  1.5105  0.5634 -1.1286
16254SOL     OW50202   2.832   0.668   2.627  0.0586 -0.4100 -0.1023
16254SOL    HW150203   2.917   0.665   2.583  0.1339  1.1813 -0.1212
16254SOL    HW250204   2.775   0.717   2.568 -0.1934  0.6372  0.9492
16255SOL     OW50205   6.829   7.090   7.713 -0.0685 -0.2811 -0.2187
16255SOL    HW150206   6.900   7.153   7.703 -0.1674 -0.5845 -4.5151
16255SOL    HW250207   6.868   7.018   7.762  2.1347  0.2470 -1.0754
16256SOL     OW50208   2.257   3.850   7.634  0.1848 -0.4337 -0.3914
16256SOL    HW150209   2.197   3.868   7.706  0.5254  0.3576 -0.2978
16256SOL    HW250210   2.337   3.897   7.656 -0.5136  1.9432 -2.4645
16257SOL     OW50211   2.470   4.358  11.016 -0.4375  0.0691  0.4467
16257SOL    HW150212   2.530   4.288  11.043  1.3613  0.3337 -2.4351
16257SOL    HW250213   2.513   4.438  11.044 -1.4058  0.1466  1.7784
16258SOL     OW50214   3.634   1.422   2.202  0.1906 -0.3984  0.0041
16258SOL    HW150215   3.728   1.422   2.183  0.0025  1.1415 -1.1595
16258SOL    HW250216   3.626   1.471   2.284  0.4000 -0.5092  0.0906
16259SOL     OW50217   0.910   0.146   1.581  0.1028 -0.0272  0.4050
16259SOL    HW150218   0.893   0.200   1.659 -0.1220 -0.9480  1.0092
16259SOL    HW250219   0.997   0.172   1.553  0.2760  0.1724  1.0928
16260SOL     OW50220   5.799   3.041   8.036  0.1937  0.1759 -0.4777
16260SOL    HW150221   5.746   3.105   8.083  0.7259 -0.0069  0.3975
16260SOL    HW250222   5.864   3.012   8.101  0.8874 -0.1461 -1.3023
16261SOL     OW50223   4.008   1.272   5.891 -0.2268  0.4685  0.6704
16261SOL    HW150224   3.943   1.326   5.936  0.2407  2.0926 -0.5501
16261SOL    HW250225   4.089   1.322   5.896  0.5423 -0.7264  0.6346
16262SOL     OW50226   0.067   1.368   1.555 -0.0061  0.0238 -0.1236
16262SOL    HW150227   0.148   1.329   1.587  0.7934  0.2414 -1.7419
16262SOL    HW250228   0.037   1.307   1.487 -0.5834  0.5166 -0.3182
16263SOL     OW50229   0.961   6.906  11.221 -0.2582  0.1660 -0.0603
16263SOL    HW150230   0.977   6.816  11.249  0.9865 -0.0849 -1.4518
16263SOL    HW250231   0.881   6.900  11.168  0.2194 -0.2647 -0.7456
16264SOL     OW50232   2.920   1.839   3.341  0.1695 -0.1641 -0.7050
16264SOL    HW150233   2.867   1.761   3.358  0.3724 -0.4779 -1.5211
16264SOL    HW250234   3.004   1.806   3.312  1.0907  0.3187  1.2209
16265SOL     OW50235   3.857   7.793   1.059  0.2354 -0.2062  0.4840
16265SOL    HW150236   3.942   7.768   1.096  0.3095 -1.5024 -0.4993
16265SOL    HW250237   3.861   7.764   0.968 -1.7163 -1.3841  0.7343
16266SOL     OW50238   2.319   5.095   7.890  0.3765  0.8470 -0.6360
16266SOL    HW150239   2.397   5.082   7.945 -0.6972 -0.6517  0.6241
16266SOL    HW250240   2.310   5.012   7.843 -0.9440  0.6788 -0.1079
16267SOL     OW50241   0.602   0.005  12.376 -0.3582 -0.0408  0.2413
16267SOL    HW150242   0.672   0.034  12.435 -1.0762  0.6384  0.7823
16267SOL    HW250243   0.568   0.086  12.338 -2.6652 -0.0569  2.0596
16268SOL     OW50244   2.339   0.390   5.277 -0.6559 -0.5775 -0.1127
16268SOL    HW150245   2.370   0.360   5.362  0.5620 -2.3880 -1.1341
16268SOL    HW250246   2.245   0.404   5.289 -0.3993 -0.1424  1.6820
16269SOL     OW50247   4.333   1.710   7.040  0.0204 -0.1773  0.3075
16269SOL    HW150248   4.269   1.646   7.010  1.7035 -1.7977 -0.0052
16269SOL    HW250249   4.287   1.760   7.107 -1.3528 -1.7584  0.6146
16270SOL     OW50250   2.882   7.399   4.503 -0.0689  0.3510 -0.1744
16270SOL    HW150251   2.860   7.322   4.555  0.5210 -0.9230 -1.7139
16270SOL    HW250252   2.807   7.412   4.446  0.4108  0.0024 -0.9094
16271SOL     OW50253   0.210   4.774  10.997 -0.2644 -0.1860 -0.2516
16271SOL    HW150254   0.188   4.823  10.918 -0.4841  0.4251  0.1773
16271SOL    HW250255   0.254   4.695  10.966 -2.6785 -1.2747 -1.1511
16272SOL     OW50256   3.237   0.561   0.618  0.0553  0.0397 -0.1200
16272SOL    HW150257   3.288   0.543   0.697  0.5907  1.7760 -0.0319
16272SOL    HW250258   3.176   0.630   0.644 -0.6034 -0.2248 -0.9173
16273SOL     OW50259   5.846   4.615   0.446 -0.3145  0.3372 -0.1987
16273SOL    HW150260   5.919   4.553   0.448 -0.2418  0.4388  0.4581
16273SOL    HW250261   5.768   4.562   0.458 -0.1562  0.5053  1.9024
16274SOL     OW50262   1.890   7.729   5.546  0.2112 -0.1946  0.2824
16274SOL    HW150263   1.806   7.731   5.500  0.7249  0.2065 -0.6596
16274SOL    HW250264   1.866   7.734   5.639 -0.8039 -0.0415  0.0281
16275SOL     OW50265   5.987   4.442   6.042 -0.3877  0.3533 -0.1613
16275SOL    HW150266   5.971   4.350   6.020 -0.1575  0.2100  0.2709
16275SOL    HW250267   5.905   4.486   6.019 -1.5273 -0.4006  2.1264
16276SOL     OW50268   1.510   2.708  10.607  0.5034  0.2438  0.0323
16276SOL    HW150269   1.418   2.695  10.584  0.1967 -0.1852  1.4122
16276SOL    HW250270   1.528   2.641  10.672  1.6799  0.6009  0.0892
16277SOL     OW50271   5.409   2.826   0.511  0.2316  0.6520 -0.4058
16277SOL    HW150272   5.402   2.901   0.570  0.3715  0.3035  0.0552
16277SOL    HW250273   5.356   2.851   0.435 -0.2975  0.9340  0.0454
16278SOL     OW50274   5.848   5.544   8.656  0.0001  0.0641  0.0339
16278SOL    HW150275   5.873   5.457   8.624  1.6062  0.8565 -1.0196
16278SOL    HW250276   5.820   5.530   8.746  0.1298 -1.5619 -0.1586
16279SOL     OW50277   4.340   6.794   9.212  0.2050  0.4576 -0.4088
16279SOL    HW150278   4.339   6.699   9.218  0.9008  0.5022  0.6691
16279SOL    HW250279   4.433   6.816   9.201  0.1323  1.0523  0.1334
16280SOL     OW50280   7.643   4.088  10.609 -0.1375  0.1392  0.0926
16280SOL    HW150281   7.710   4.155  10.596 -0.5836  0.6667  0.4949
16280SOL    HW250282   7.603   4.110  10.693 -1.4891  0.3978 -0.6068
16281SOL     OW50283   4.832   4.904  11.809  0.2964 -0.4046  1.1194
16281SOL    HW150284   4.819   4.897  11.904 -2.6403 -0.4250  0.8076
16281SOL    HW250285   4.748   4.935  11.776  1.2674 -0.3693 -1.5040
16282SOL     OW50286   6.078   6.508   1.343 -0.0003 -0.0461 -0.0311
16282SOL    HW150287   6.132   6.522   1.421  0.7725 -3.3407  0.1812
16282SOL    HW250288   6.141   6.509   1.270 -0.4073  0.8011 -0.3915
16283SOL     OW50289   0.776   3.585   3.949 -0.3461 -0.0066 -0.0211
16283SOL    HW150290   0.837   3.651   3.982 -1.2868  0.4997  0.7487
16283SOL    HW250291   0.710   3.635   3.900 -0.3797 -0.5067 -0.4984
16284SOL     OW50292   6.771   3.849   0.872  0.1692 -0.6162 -0.0613
16284SOL    HW150293   6.677   3.865   0.870  0.1621 -0.7321 -0.7943
16284SOL    HW250294   6.780   3.754   0.878  0.2432 -0.6032  0.0534
16285SOL     OW50295   4.607   3.160   9.921  0.0966  0.2351 -0.6355
16285SOL    HW150296   4.621   3.253   9.903  1.9994 -0.2554 -2.1001
16285SOL    HW250297   4.681   3.134   9.975  0.0070 -0.5895 -0.8865
16286SOL     OW50298   2.413   0.627   1.160  0.2331 -0.0092  0.1252
16286SOL    HW150299   2.428   0.563   1.230  0.5169  1.5545  1.5599
16286SOL    HW250300   2.428   0.711   1.201 -4.7021  1.4105 -0.3571
16287SOL     OW50301   7.667   3.208   7.927 -0.4423 -0.7727  0.1319
16287SOL    HW150302   7.652   3.250   7.842  1.0157  0.8881  0.6533
16287SOL    HW250303   7.629   3.121   7.917 -0.5758 -0.5137 -2.1255
16288SOL     OW50304   4.446   4.480   2.989  0.1049  0.0539  0.4792
16288SOL    HW150305   4.422   4.550   3.050 -0.2505 -0.7960  1.3192
16288SOL    HW250306   4.421   4.399   3.032 -1.1609 -0.5390 -1.2461
16289SOL     OW50307   6.064   6.417  11.176  0.9596 -0.5329  0.0400
16289SOL    HW150308   6.010   6.415  11.255 -2.4456 -1.2173 -2.0901
16289SOL    HW250309   6.063   6.327  11.144 -0.5016  0.2590 -2.3914
16290SOL     OW50310   0.776   6.926  11.733  0.3719  0.3013  0.0020
16290SOL    HW150311   0.807   6.930  11.824 -0.2611  2.4439  0.1891
16290SOL    HW250312   0.718   7.002  11.725  1.6169  1.0702 -2.6356
16291SOL     OW50313   3.745   0.526   9.467  0.0244  0.0956  0.2977
16291SOL    HW150314   3.733   0.563   9.555  1.5715  1.8414 -0.1803
16291SOL    HW250315   3.825   0.473   9.474 -0.1095 -0.1395  0.0579
16292SOL     OW50316   1.413   3.372   6.410  0.2651  0.1138 -0.2801
16292SOL    HW150317   1.441   3.440   6.471  0.4636  1.2249 -1.5540
16292SOL    HW250318   1.383   3.421   6.332 -3.0105 -1.0753  0.0675
16293SOL     OW50319   6.998   2.445   3.746 -0.3865  0.5799  0.0872
16293SOL    HW150320   7.074   2.390   3.765 -0.7984  0.4022  1.2959
16293SOL    HW250321   7.026   2.499   3.672  1.1252  0.9270  0.8645
16294SOL     OW50322   4.577   3.612   1.352 -0.0997 -0.4722 -0.2210
16294SOL    HW150323   4.531   3.665   1.418  2.3803  1.7956 -0.1586
16294SOL    HW250324   4.624   3.546   1.402 -1.3115 -1.2733 -0.0990
16295SOL     OW50325   6.181   6.285  10.849  0.0835  0.6581 -0.4252
16295SOL    HW150326   6.141   6.249  10.928  1.3107  0.8353  0.2971
16295SOL    HW250327   6.116   6.270  10.780 -0.8714  0.2158  0.5467
16296SOL     OW50328   3.622   0.534   6.285 -0.2327  0.3141  0.0489
16296SOL    HW150329   3.532   0.540   6.253 -0.0814 -1.8729 -0.9780
16296SOL    HW250330   3.676   0.569   6.214 -0.0469 -2.5682 -1.3858
16297SOL     OW50331   7.616   6.322   5.206 -0.5057  0.3253  0.4246
16297SOL    HW150332   7.553   6.345   5.274 -1.4127  0.5587 -0.4810
16297SOL    HW250333   7.683   6.391   5.211 -1.7933  1.6907 -0.4619
16298SOL     OW50334   7.752   5.763  12.048 -0.2716 -0.0094  0.4541
16298SOL    HW150335   7.803   5.809  12.114 -0.8995  1.6312 -0.1439
16298SOL    HW250336   7.670   5.812  12.042 -1.1242 -1.4260  0.0109
16299SOL     OW50337   0.365   1.703   6.781  0.0742  0.0126 -0.1166
16299SOL    HW150338   0.392   1.615   6.756  0.0468  0.0883 -0.4218
16299SOL    HW250339   0.431   1.731   6.844  0.3573 -0.0429 -0.3825
16300SOL     OW50340   6.403   6.856   8.800 -0.0732  0.1951 -0.0708
16300SOL    HW150341   6.453   6.867   8.719  1.4366  0.7684  0.8903
16300SOL    HW250342   6.433   6.772   8.835 -0.8658 -0.1454 -0.1933
16301SOL     OW50343   3.414   6.118  11.037 -0.0394 -0.0896  0.1789
16301SOL    HW150344   3.436   6.069  11.117  0.2299 -1.8233 -0.9221
16301SOL    HW250345   3.322   6.098  11.021 -0.1206  0.3431  0.0874
16302SOL     OW50346   5.113   3.099   5.124 -0.7433 -0.4006  0.6508
16302SOL    HW150347   5.180   3.151   5.168 -1.4327  0.8113  0.3168
16302SOL    HW250348   5.149   3.011   5.121  1.2873  0.3934 -0.4223
16303SOL     OW50349   5.634   5.003  11.822 -0.1912 -0.0768  0.0976
16303SOL    HW150350   5.671   5.066  11.884  0.6581 -0.9978  0.5451
16303SOL    HW250351   5.576   5.056  11.767 -0.7488  0.8229  1.4776
16304SOL     OW50352   1.499   7.702   6.611 -0.1716  0.0712 -0.1225
16304SOL    HW150353   1.563   7.634   6.591  0.0394  0.0652  0.5738
16304SOL    HW250354   1.548   7.768   6.660 -0.9556 -0.5015  1.4807
16305SOL     OW50355   1.790   0.708   6.802 -0.4807 -0.0271  0.0155
16305SOL    HW150356   1.741   0.660   6.869  0.7469  0.2010  1.1290
16305SOL    HW250357   1.791   0.649   6.727  1.0797 -1.8958  1.3704
16306SOL     OW50358   4.253   1.418   7.962  0.4214  0.0270  0.0537
16306SOL    HW150359   4.227   1.507   7.942  1.7619  0.4951  0.2842
16306SOL    HW250360   4.209   1.364   7.896 -0.3079  0.8606 -0.1512
16307SOL     OW50361   4.867   5.756   3.824  0.3359 -0.2700 -0.5183
16307SOL    HW150362   4.795   5.801   3.780  0.1912  0.5268  0.4896
16307SOL    HW250363   4.944   5.810   3.806  0.2965  0.0000  0.0820
16308SOL     OW50364   0.995   7.643  11.194  0.4986 -0.3271  0.1705
16308SOL    HW150365   0.982   7.643  11.289  0.2966 -1.2784  0.1508
16308SOL    HW250366   1.047   7.722  11.177 -2.7723  2.1026  0.5840
16309SOL     OW50367   3.410   2.287   2.677 -0.0164 -0.0464  0.2034
16309SOL    HW150368   3.471   2.277   2.750 -0.2107 -0.2839  0.3368
16309SOL    HW250369   3.329   2.318   2.718 -0.3712 -0.9376  0.2061
16310SOL     OW50370   1.785   7.841   3.338  0.6166 -0.3722 -0.2677
16310SOL    HW150371   1.774   7.755   3.379 -0.1788 -0.4539 -0.6460
16310SOL    HW250372   1.774   7.903   3.410 -0.3864 -0.5279 -0.2777
16311SOL     OW50373   6.123   4.073   0.186  0.0882  0.1519 -0.4072
16311SOL    HW150374   6.053   4.079   0.251  0.3303 -1.9466  0.1152
16311SOL    HW250375   6.202   4.102   0.232  0.5030 -2.5464  0.7260
16312SOL     OW50376   2.610   0.789  11.748  0.0845  0.6346  0.6932
16312SOL    HW150377   2.628   0.715  11.806  1.6568  0.6482  0.2741
16312SOL    HW250378   2.695   0.810  11.710 -0.4996  2.1240  0.1622
16313SOL     OW50379   3.643   2.821   6.009 -0.2355  0.0457  0.3561
16313SOL    HW150380   3.584   2.878   6.057 -0.1405 -0.3342  0.9239
16313SOL    HW250381   3.705   2.881   5.967 -0.4514  0.3887  0.5225
16314SOL     OW50382   4.084   6.842   0.988  0.5044  0.3294  0.3686
16314SOL    HW150383   4.100   6.780   0.916 -1.9405 -0.8023  0.7082
16314SOL    HW250384   4.158   6.828   1.047  2.8455  1.6063 -2.0222
16315SOL     OW50385   4.785   5.652   9.617  0.0114  0.2131 -0.4978
16315SOL    HW150386   4.766   5.578   9.675  1.1672 -0.2593 -0.6935
16315SOL    HW250387   4.795   5.726   9.676 -1.9960  0.4311 -0.3574
16316SOL     OW50388   3.645   1.732   1.555 -0.2039 -0.0200  0.1142
16316SOL    HW150389   3.662   1.702   1.466  1.1214 -1.5010  0.8101
16316SOL    HW250390   3.662   1.655   1.610 -0.0983  1.0919  1.7147
16317SOL     OW50391   6.304   2.891   0.985  0.2597  0.1843  0.1721
16317SOL    HW150392   6.346   2.827   1.042 -2.4938 -1.1749  0.8351
16317SOL    HW250393   6.267   2.955   1.044 -0.3761  0.2068 -0.2442
16318SOL     OW50394   3.135   7.859   2.664 -0.3406 -0.0491  0.3445
16318SOL    HW150395   3.174   7.935   2.708 -1.8542  0.9276  0.0715
16318SOL    HW250396   3.097   7.895   2.584 -0.3095 -1.2720 -0.2363
16319SOL     OW50397   5.469   2.133   0.436 -0.3437  0.0451 -0.4663
16319SOL    HW150398   5.467   2.172   0.348 -1.5161 -0.5180 -0.7043
16319SOL    HW250399   5.377   2.122   0.459 -0.0372 -0.9723  0.3217
16320SOL     OW50400   0.474   4.128   1.404 -0.1601 -0.4346 -0.1214
16320SOL    HW150401   0.398   4.072   1.387 -0.1731 -0.9311  1.4162
16320SOL    HW250402   0.499   4.109   1.495  0.8790  0.8323 -0.0994
16321SOL     OW50403   6.109   3.274   3.414 -0.3074  0.1614  0.1183
16321SOL    HW150404   6.181   3.328   3.448  1.0850 -2.1567  1.1139
16321SOL    HW250405   6.050   3.264   3.489  0.4705 -1.2759  0.5724
16322SOL     OW50406   6.439   4.440   9.494  0.8433 -0.0460  0.1198
16322SOL    HW150407   6.450   4.506   9.563  1.2529  0.8326 -0.7512
16322SOL    HW250408   6.390   4.485   9.426 -1.6836 -1.6247  0.7657
16323SOL     OW50409   5.301   7.462   2.454  0.2768 -0.1296  0.0701
16323SOL    HW150410   5.246   7.385   2.443  1.8452 -1.0937 -1.3321
16323SOL    HW250411   5.387   7.436   2.423  1.1804  1.8077  0.7656
16324SOL     OW50412   6.786   2.867   1.777 -0.3611 -0.6071  0.2520
16324SOL    HW150413   6.813   2.959   1.782 -0.9249 -0.3720 -0.7599
16324SOL    HW250414   6.864   2.821   1.746 -0.2781 -0.3688  0.1048
16325SOL     OW50415   4.428   1.310   0.805  0.2234  0.1064  0.7531
16325SOL    HW150416   4.389   1.348   0.726 -1.0812  0.6677  1.6372
16325SOL    HW250417   4.367   1.240   0.831  0.9524 -0.4758  0.9416
16326SOL     OW50418   3.605   4.412   3.051  0.3606 -0.0675 -0.2364
16326SOL    HW150419   3.521   4.369   3.069  0.7343 -0.8028 -0.2414
16326SOL    HW250420   3.666   4.341   3.034  1.0786  0.4525  0.1196
16327SOL     OW50421   5.877   1.914  11.586  0.0644  0.1429  0.1359
16327SOL    HW150422   5.859   1.906  11.492 -0.6813 -1.2518  0.3677
16327SOL    HW250423   5.946   1.849  11.602 -1.6079 -1.5252  0.9730
16328SOL     OW50424   3.069   4.691   2.997 -0.1816  0.0950 -0.5565
16328SOL    HW150425   3.089   4.678   3.090  1.4105 -1.3074 -1.0456
16328SOL    HW250426   3.109   4.776   2.976 -0.5617  0.4282  0.0129
16329SOL     OW50427   0.427   0.732   4.705  0.3808 -0.0617  0.6334
16329SOL    HW150428   0.492   0.697   4.643 -1.1253  0.5006 -1.3545
16329SOL    HW250429   0.477   0.794   4.758  1.9801 -1.4229  0.8155
16330SOL     OW50430   7.057   1.493   6.700 -0.0769 -0.2738 -0.3460
16330SOL    HW150431   7.118   1.433   6.743  1.8536  2.6351  1.3152
16330SOL    HW250432   7.086   1.580   6.728 -2.3103  1.5087 -3.1067
16331SOL     OW50433   0.209   5.597  10.788 -0.1289 -0.1186  0.3497
16331SOL    HW150434   0.181   5.546  10.712 -1.0568 -0.3180  0.8081
16331SOL    HW250435   0.155   5.564  10.860 -0.0910  0.8768  0.8486
16332SOL     OW50436   2.252   3.407   6.110  0.1965  0.1789  1.1646
16332SOL    HW150437   2.277   3.322   6.147  1.2649  0.2678  0.6660
16332SOL    HW250438   2.271   3.399   6.016 -0.9143  0.5339  0.8901
16333SOL     OW50439   5.293   6.088   9.179 -0.0131 -0.1700 -0.6562
16333SOL    HW150440   5.301   6.181   9.203 -0.3709 -0.3710  0.2827
16333SOL    HW250441   5.359   6.076   9.111  1.1764  0.4044  0.3445
16334SOL     OW50442   2.947   4.099   4.594  0.0990 -0.0741 -0.0857
16334SOL    HW150443   2.884   4.026   4.592  0.2335 -0.2486  1.0698
16334SOL    HW250444   3.025   4.062   4.636  0.9365  0.1844 -1.3505
16335SOL     OW50445   6.857   2.228   1.941 -0.0216  0.3735  0.1305
16335SOL    HW150446   6.913   2.303   1.922  1.3995 -0.7274 -0.2388
16335SOL    HW250447   6.905   2.178   2.006 -2.0276  0.9404  2.1582
16336SOL     OW50448   0.111   5.904   2.685  0.5361 -0.0768 -0.5484
16336SOL    HW150449   0.028   5.897   2.733 -0.5450 -1.0099 -2.4156
16336SOL    HW250450   0.177   5.870   2.746 -0.3272  1.2366  1.2038
16337SOL     OW50451   0.640   5.244  10.015  0.2897 -0.0337 -0.1522
16337SOL    HW150452   0.649   5.152  10.040 -0.1577  0.5683  2.5883
16337SOL    HW250453   0.584   5.281  10.083  2.0021  2.6765 -0.1101
16338SOL     OW50454   4.998   4.315   9.322 -0.3615 -0.3591 -0.4854
16338SOL    HW150455   4.946   4.378   9.273 -0.8475 -1.6243 -1.6565
16338SOL    HW250456   4.941   4.289   9.395 -1.2541 -1.3726 -1.4883
16339SOL     OW50457   0.268   2.659   4.866 -0.0170 -0.1206  0.0511
16339SOL    HW150458   0.244   2.741   4.823  1.9486  0.3272 -0.2888
16339SOL    HW250459   0.210   2.593   4.827 -0.9312  0.9238 -0.4075
16340SOL     OW50460   4.986   0.199   9.604 -0.7033  0.7666  0.4383
16340SOL    HW150461   5.072   0.211   9.643 -0.6086  0.3115  0.3791
16340SOL    HW250462   4.986   0.255   9.526 -1.1229  2.1766  1.4121
16341SOL     OW50463   0.511   6.663  10.067  0.3045 -0.1064 -0.1445
16341SOL    HW150464   0.422   6.675  10.036  0.2094 -1.0742 -0.2743
16341SOL    HW250465   0.541   6.751  10.090 -0.0676  0.4653 -1.7351
16342SOL     OW50466   6.227   0.170   7.197  0.6475  0.1410  0.0849
16342SOL    HW150467   6.286   0.121   7.255 -0.4209 -0.6033  0.5679
16342SOL    HW250468   6.246   0.136   7.110 -0.8713 -2.0541  0.5270
16343SOL     OW50469   3.406   6.650   7.727  0.4614 -0.2562  0.1059
16343SOL    HW150470   3.364   6.564   7.733 -0.5328  0.1877 -0.3577
16343SOL    HW250471   3.500   6.630   7.722  0.4654 -1.2171  2.6547
16344SOL     OW50472   1.338   6.778   8.038  0.1556 -0.2618 -0.0094
16344SOL    HW150473   1.343   6.694   8.083 -0.4313  0.4194  1.3980
16344SOL    HW250474   1.245   6.799   8.037  0.3988  1.0040  0.9243
16345SOL     OW50475   5.175   0.430  11.893  0.3581 -0.1036 -0.4156
16345SOL    HW150476   5.181   0.390  11.980  0.2682 -1.9383 -1.1972
16345SOL    HW250477   5.082   0.445  11.880  0.3802  0.2672 -0.1704
16346SOL     OW50478   3.629   1.558   2.447  0.5977 -0.0527  0.2217
16346SOL    HW150479   3.542   1.594   2.428  1.3370  1.9775  0.3731
16346SOL    HW250480   3.612   1.478   2.496 -1.1801  0.1124 -0.0564
16347SOL     OW50481   5.208   6.526   8.216 -0.1404 -0.2058 -0.2600
16347SOL    HW150482   5.148   6.460   8.249 -0.7212 -0.5391 -1.8686
16347SOL    HW250483   5.154   6.605   8.209 -0.5643 -0.5999 -2.0661
16348SOL     OW50484   6.272   1.109  11.705  0.1790  0.0202  0.1555
16348SOL    HW150485   6.335   1.082  11.772  0.3153  0.2497  0.1229
16348SOL    HW250486   6.326   1.140  11.632  0.0301 -0.4223 -0.1426
16349SOL     OW50487   0.570   0.581   0.126 -0.2239  0.1575  0.1148
16349SOL    HW150488   0.601   0.615   0.043 -1.9377  0.6952 -0.3370
16349SOL    HW250489   0.569   0.486   0.114  2.0204  0.0226  0.4732
16350SOL     OW50490   7.366   5.827   9.562 -0.0694 -0.2181  0.3137
16350SOL    HW150491   7.274   5.801   9.575 -0.0737 -0.5834 -0.3936
16350SOL    HW250492   7.414   5.779   9.630 -0.5188  0.8041  1.3799
16351SOL     OW50493   2.349   6.068   5.296  0.4289 -0.1614 -0.1488
16351SOL    HW150494   2.317   6.145   5.249 -1.1637 -0.9405 -0.3887
16351SOL    HW250495   2.312   6.077   5.384  1.5119  0.1021  0.3046
16352SOL     OW50496   2.311   4.548   7.586 -0.1470  0.4157 -0.0715
16352SOL    HW150497   2.225   4.508   7.593 -1.6690  3.5477  1.4813
16352SOL    HW250498   2.302   4.614   7.517  0.7293  1.2447  0.5618
16353SOL     OW50499   5.153   0.620   7.432  0.6149  0.0999 -0.4923
16353SOL    HW150500   5.147   0.713   7.451 -1.2839  0.0288 -0.5668
16353SOL    HW250501   5.110   0.577   7.506 -0.7796 -0.5551 -1.6488
16354SOL     OW50502   3.689   1.422   9.415  0.3184  0.4852  0.1136
16354SOL    HW150503   3.658   1.511   9.399 -0.4812  0.0286 -0.9873
16354SOL    HW250504   3.784   1.428   9.405  0.1414  0.9042 -1.6557
16355SOL     OW50505   3.964   6.033   6.231 -0.2036  0.1417 -0.4018
16355SOL    HW150506   3.874   6.006   6.248  0.3704 -1.1069  0.7670
16355SOL    HW250507   3.972   6.031   6.135 -1.1961 -0.4956 -0.4817
16356SOL     OW50508   4.222   7.695   2.312 -0.5046 -0.0587  0.0269
16356SOL    HW150509   4.198   7.785   2.332  1.9397  0.2555  2.0546
16356SOL    HW250510   4.197   7.646   2.390 -1.6719 -1.1636 -0.9954
16357SOL     OW50511   7.192   1.625   9.954 -0.3270 -0.1237 -0.1224
16357SOL    HW150512   7.165   1.665  10.037  1.1854 -0.2118  0.4387
16357SOL    HW250513   7.287   1.618   9.960 -0.3487 -1.8792 -1.0845
16358SOL     OW50514   7.487   2.777   5.824  0.0135  0.0124 -0.1697
16358SOL    HW150515   7.559   2.733   5.868  0.7250  0.0474 -1.2602
16358SOL    HW250516   7.465   2.719   5.750  2.3711  2.3389 -2.9223
16359SOL     OW50517   1.028   5.588  11.340 -0.3172 -0.1428 -0.1640
16359SOL    HW150518   1.084   5.552  11.271 -1.0776 -1.2339 -0.2421
16359SOL    HW250519   0.959   5.635  11.293 -0.9722 -1.0896 -0.1872
16360SOL     OW50520   3.588   5.288  10.929 -0.3661 -0.4181 -0.2817
16360SOL    HW150521   3.628   5.254  11.009 -0.3256 -4.5889 -1.8280
16360SOL    HW250522   3.663   5.308  10.873 -0.3951 -0.3474 -0.2943
16361SOL     OW50523   6.956   5.156  10.884  0.0565 -0.2994 -0.2775
16361SOL    HW150524   6.971   5.248  10.903 -0.5601 -0.3778  0.6488
16361SOL    HW250525   6.926   5.154  10.793 -1.3704  0.5687  0.1512
16362SOL     OW50526   6.256   5.630   9.279  0.5887 -0.3475  0.1055
16362SOL    HW150527   6.203   5.618   9.357  0.8027  1.0590  0.4928
16362SOL    HW250528   6.205   5.590   9.208 -0.8495  0.6527  0.5263
16363SOL     OW50529   1.048   0.026   4.549 -0.4952  0.1165 -0.2780
16363SOL    HW150530   1.110   0.094   4.524 -0.8294  0.9253  0.9603
16363SOL    HW250531   1.021   0.051   4.638 -0.7929 -1.5228  0.1118
16364SOL     OW50532   7.415   6.750   9.363 -0.2033  0.2212  0.0511
16364SOL    HW150533   7.428   6.797   9.446  3.1262 -1.3915  0.6085
16364SOL    HW250534   7.496   6.764   9.315 -1.3320 -0.4432 -2.1832
16365SOL     OW50535   6.371   2.073   3.583  0.3116  0.4862 -0.4494
16365SOL    HW150536   6.464   2.095   3.588  0.5453  0.3154 -2.9010
16365SOL    HW250537   6.353   2.025   3.663  2.4434  0.1400 -0.1326
16366SOL     OW50538   4.066   3.069   9.079 -0.1464 -0.3308  0.0344
16366SOL    HW150539   4.001   3.112   9.134 -0.3905 -0.1267 -0.4079
16366SOL    HW250540   4.018   3.047   8.999 -0.2940 -2.2924  0.6045
16367SOL     OW50541   3.337   1.178   0.224  0.3672 -0.2189  0.3072
16367SOL    HW150542   3.278   1.171   0.149 -0.4632  1.9161  0.7112
16367SOL    HW250543   3.423   1.190   0.185  0.0651  0.0316 -0.3017
16368SOL     OW50544   4.972   4.307   1.961 -0.3098  0.9176  0.3759
16368SOL    HW150545   4.952   4.398   1.985 -1.8754  0.9263 -0.7954
16368SOL    HW250546   4.919   4.291   1.883  2.7931  0.2012 -1.7878
16369SOL     OW50547   0.882   6.201   3.950  0.9008 -0.4702 -0.3755
16369SOL    HW150548   0.976   6.214   3.947  0.7420  0.5973 -1.7222
16369SOL    HW250549   0.862   6.149   3.872  0.3290 -0.4270 -0.2686
16370SOL     OW50550   4.603   7.172  12.190 -0.2168  0.7761 -0.2101
16370SOL    HW150551   4.589   7.264  12.211 -2.9449  1.0158 -2.4433
16370SOL    HW250552   4.560   7.124  12.260  2.0822  1.0690  1.5093
16371SOL     OW50553   6.326   4.926   1.951  0.2718 -0.1825 -0.4876
16371SOL    HW150554   6.414   4.903   1.920  0.1798  0.0109 -0.8934
16371SOL    HW250555   6.267   4.873   1.897  0.1143  0.1114 -0.6074
16372SOL     OW50556   0.087   6.580   3.695  0.0297 -0.0874  0.0193
16372SOL    HW150557   0.034   6.568   3.617 -0.9010  0.0567  0.6102
16372SOL    HW250558   0.030   6.628   3.755  0.3646 -1.0685  1.1556
16373SOL     OW50559   6.566   6.041  10.889 -0.5706 -0.1490  0.7452
16373SOL    HW150560   6.536   6.076  10.973 -1.5769  0.8294  0.0148
16373SOL    HW250561   6.616   5.962  10.912 -2.0796 -0.7599  2.1868
16374SOL     OW50562   2.997   7.847  12.166  0.0792 -0.0753 -0.6013
16374SOL    HW150563   3.069   7.908  12.149 -1.1972  1.3334 -1.1222
16374SOL    HW250564   2.940   7.854  12.090 -1.7532  0.5226  0.7550
16375SOL     OW50565   1.292   0.451   8.704 -0.3489 -0.3187  0.4322
16375SOL    HW150566   1.345   0.434   8.781 -0.5517 -1.0116  0.4312
16375SOL    HW250567   1.270   0.544   8.709 -0.2142 -0.3197  1.1126
16376SOL     OW50568   6.472   1.471   1.071 -0.0589 -0.1958  0.0833
16376SOL    HW150569   6.420   1.423   1.136  0.0033 -1.9024 -1.0399
16376SOL    HW250570   6.558   1.482   1.112 -0.9086  1.6634  1.5167
16377SOL     OW50571   0.676   1.558   5.453 -0.9202 -0.2859 -0.6557
16377SOL    HW150572   0.688   1.653   5.456  0.7992 -0.4897 -0.2594
16377SOL    HW250573   0.621   1.538   5.529 -0.4682  0.2836 -0.1751
16378SOL     OW50574   0.696   6.144   6.680  0.0852  0.7047  0.3365
16378SOL    HW150575   0.779   6.098   6.694 -0.5706 -0.8991 -0.7285
16378SOL    HW250576   0.668   6.117   6.593 -2.2576  0.0086  1.2209
16379SOL     OW50577   6.781   0.372   7.228 -0.3623 -0.3973  0.6027
16379SOL    HW150578   6.702   0.329   7.196  0.9428 -2.3663 -0.1295
16379SOL    HW250579   6.766   0.381   7.322 -2.3899  1.4463  0.2018
16380SOL     OW50580   0.153   2.529   3.410 -0.6974  0.2588 -0.6774
16380SOL    HW150581   0.148   2.510   3.504  0.0037 -0.4538 -0.7749
16380SOL    HW250582   0.068   2.501   3.375 -1.3911  1.5274 -0.1107
16381SOL     OW50583   4.913   7.665   9.083  0.2548 -0.8289 -0.3180
16381SOL    HW150584   4.872   7.628   9.161 -0.3633 -1.1076 -0.7642
16381SOL    HW250585   5.007   7.646   9.094  0.6880  2.0142  1.9121
16382SOL     OW50586   2.092   5.647   5.170 -0.2238  0.6367  0.5191
16382SOL    HW150587   2.077   5.739   5.192 -0.7503  0.5813  0.4085
16382SOL    HW250588   2.019   5.624   5.112  0.1666  0.2840  0.1603
16383SOL     OW50589   5.276   5.259  10.264  0.0490  0.7009 -0.0231
16383SOL    HW150590   5.286   5.179  10.315  0.6796  0.4047 -0.5982
16383SOL    HW250591   5.184   5.259  10.238  0.2683 -0.3734 -0.8812
16384SOL     OW50592   2.023   2.294  12.112  0.2939 -0.1429 -0.1342
16384SOL    HW150593   2.071   2.222  12.154  0.2883 -0.1189 -0.0871
16384SOL    HW250594   1.940   2.298  12.159  0.7214  0.5974  0.5746
16385SOL     OW50595   0.179   1.953  10.404  0.5821 -0.2940  0.4426
16385SOL    HW150596   0.147   2.039  10.431  0.6672 -0.4375  1.0073
16385SOL    HW250597   0.268   1.948  10.438  0.9018 -0.2521 -0.3616
16386SOL     OW50598   4.780   2.859   1.213  0.4674  0.9462  0.0155
16386SOL    HW150599   4.787   2.888   1.304  0.9012 -0.2431  0.3770
16386SOL    HW250600   4.727   2.927   1.170 -0.0026  1.3672  1.2181
16387SOL     OW50601   2.121   7.558   3.084  0.5286  0.4962  0.0498
16387SOL    HW150602   2.161   7.644   3.069  0.7664  1.0864  3.2107
16387SOL    HW250603   2.196   7.500   3.101  0.3188  0.8244  2.5551
16388SOL     OW50604   2.940   0.412  10.236 -0.0378  0.5263 -0.0868
16388SOL    HW150605   2.903   0.478  10.178 -0.3150  0.2972 -0.1739
16388SOL    HW250606   2.936   0.451  10.323 -1.6800  0.0228  0.1060
16389SOL     OW50607   7.602   7.340   0.956  0.7196 -0.2936 -0.4823
16389SOL    HW150608   7.693   7.315   0.969  0.9525  0.6568 -0.2258
16389SOL    HW250609   7.584   7.403   1.026 -0.5282 -1.4318  0.2820
16390SOL     OW50610   3.340   3.778   6.126 -0.3637 -0.4233  0.0286
16390SOL    HW150611   3.306   3.716   6.062 -0.1990  1.2584 -1.8179
16390SOL    HW250612   3.272   3.846   6.132 -1.6669 -1.7963  3.8089
16391SOL     OW50613   5.865   6.778   6.581  0.1054 -0.3395  0.1187
16391SOL    HW150614   5.903   6.864   6.596 -1.8957  0.5666  0.3884
16391SOL    HW250615   5.819   6.758   6.663  0.2223 -1.4971 -0.0863
16392SOL     OW50616   6.847   3.477  11.835  0.0702 -0.1045 -0.3944
16392SOL    HW150617   6.924   3.508  11.882  2.2728 -2.0232 -2.4466
16392SOL    HW250618   6.845   3.531  11.756  1.3345 -2.0987 -1.8827
16393SOL     OW50619   3.185   2.001   3.376 -0.2135 -0.0482 -0.6246
16393SOL    HW150620   3.275   1.972   3.390  0.1254  1.1040 -0.2735
16393SOL    HW250621   3.191   2.065   3.305 -1.0164 -1.1687 -1.7634
16394SOL     OW50622   6.395   6.511   2.412 -0.2349 -0.0209 -0.0017
16394SOL    HW150623   6.480   6.468   2.405  0.3225  1.2350 -1.6181
16394SOL    HW250624   6.364   6.517   2.322 -2.1150 -0.5636  0.5783
16395SOL     OW50625   2.471   7.432   2.794  0.1504  0.0148 -0.0631
16395SOL    HW150626   2.410   7.505   2.782  1.7330  1.4923  0.5535
16395SOL    HW250627   2.530   7.437   2.720 -0.3693 -1.3601 -0.6091
16396SOL     OW50628   3.850   1.927   2.247 -0.7857  0.3813  0.3637
16396SOL    HW150629   3.761   1.958   2.264 -1.2596 -1.0376  0.5793
16396SOL    HW250630   3.838   1.850   2.192  0.2818 -0.1048  0.7912
16397SOL     OW50631   1.133   2.234  10.719  0.0017  0.3769 -0.4621
16397SOL    HW150632   1.188   2.309  10.698  0.2413  0.1566 -0.6357
16397SOL    HW250633   1.125   2.186  10.636 -0.6150  0.5126 -0.4807
16398SOL     OW50634   5.589   2.803  11.099 -0.3541 -0.7270 -0.2744
16398SOL    HW150635   5.541   2.722  11.114 -3.2189  0.9163  0.0661
16398SOL    HW250636   5.522   2.867  11.074  1.9477  1.2447 -1.9319
16399SOL     OW50637   7.247   4.158   6.197 -0.4510 -0.2665 -0.2368
16399SOL    HW150638   7.270   4.228   6.257  0.8720  0.6888 -1.7761
16399SOL    HW250639   7.302   4.085   6.223  0.5254  0.3209 -0.5985
16400SOL     OW50640   2.307   1.572   4.021  0.5805 -0.4536 -0.6670
16400SOL    HW150641   2.268   1.595   4.105  2.1547  0.4919 -0.1572
16400SOL    HW250642   2.262   1.628   3.957  0.9110  0.4628 -0.1173
16401SOL     OW50643   4.220   7.528  10.951  0.0648  0.6570 -0.2895
16401SOL    HW150644   4.280   7.536  10.877 -0.0729 -0.3436 -0.5224
16401SOL    HW250645   4.187   7.439  10.946 -0.2890  0.7134  0.7238
16402SOL     OW50646   4.968   2.663   4.918 -0.3821 -0.0602  0.2907
16402SOL    HW150647   5.057   2.638   4.942 -0.6923 -1.4163  0.1089
16402SOL    HW250648   4.972   2.758   4.905  1.3878 -0.2719 -1.1467
16403SOL     OW50649   6.058   0.696   4.962  0.2473  0.1920 -0.3018
16403SOL    HW150650   6.129   0.696   4.899  2.4344  0.7554  2.0233
16403SOL    HW250651   6.070   0.776   5.013 -0.1368 -1.1864  2.1535
16404SOL     OW50652   4.297   3.093   7.253  0.4706  0.3421 -0.1396
16404SOL    HW150653   4.325   3.011   7.295  0.8388 -0.0074 -1.0362
16404SOL    HW250654   4.209   3.109   7.288  0.8071  0.1318  0.8446
16405SOL     OW50655   7.482   0.872  11.919  0.3096 -0.3246  0.0741
16405SOL    HW150656   7.549   0.940  11.926  0.9477 -0.9132 -0.1058
16405SOL    HW250657   7.420   0.891  11.989  2.4719 -1.7000  2.5081
16406SOL     OW50658   7.252   1.215   8.323 -0.8159  0.2673 -0.5902
16406SOL    HW150659   7.264   1.146   8.389  0.5012  0.7725 -0.2689
16406SOL    HW250660   7.292   1.292   8.362  0.2260  0.5138 -2.0955
16407SOL     OW50661   7.271   2.560   2.014 -0.4249 -0.6688  0.3769
16407SOL    HW150662   7.252   2.530   2.103  1.1944 -3.5037 -0.1159
16407SOL    HW250663   7.313   2.485   1.972  0.6646  1.2358 -2.1826
16408SOL     OW50664   4.390   3.159   9.231 -0.1736 -0.0583 -0.1869
16408SOL    HW150665   4.484   3.152   9.212 -0.1341  0.8351 -0.3715
16408SOL    HW250666   4.386   3.208   9.313 -0.4911  0.3532 -0.4453
16409SOL     OW50667   7.571   1.587   6.512  0.1740  0.9277 -0.3579
16409SOL    HW150668   7.664   1.585   6.536  0.0073 -0.1336  0.2875
16409SOL    HW250669   7.565   1.531   6.435  0.1823  1.5989 -0.8485
16410SOL     OW50670   4.149   4.098  11.311  0.1699 -0.3834 -0.1169
16410SOL    HW150671   4.216   4.166  11.322 -0.5218  0.1784  0.8088
16410SOL    HW250672   4.099   4.126  11.233 -0.3927  0.4421  0.5158
16411SOL     OW50673   0.307   1.696   2.530  0.2019  0.0643 -0.1558
16411SOL    HW150674   0.318   1.602   2.513 -1.3364 -0.3253  0.7444
16411SOL    HW250675   0.310   1.736   2.443  2.7341 -0.5605 -0.4163
16412SOL     OW50676   4.174   4.910   2.307 -0.3747 -0.0228 -0.1521
16412SOL    HW150677   4.179   4.889   2.214 -0.2269 -2.1286  0.2644
16412SOL    HW250678   4.083   4.893   2.331  0.2417 -2.7458  0.6757
16413SOL     OW50679   5.801   6.138   4.256 -0.6970 -0.5418  0.4629
16413SOL    HW150680   5.718   6.118   4.299 -0.8544 -2.6689 -0.6581
16413SOL    HW250681   5.782   6.131   4.162  0.3401  0.8246  0.1209
16414SOL     OW50682   2.784   2.425   0.708 -0.5202  0.2774  0.2021
16414SOL    HW150683   2.832   2.438   0.790 -0.4358 -0.9028  0.3653
16414SOL    HW250684   2.809   2.337   0.680 -0.1838  0.8483 -1.3509
16415SOL     OW50685   7.029   7.792  10.455 -0.3124  0.6751  0.2478
16415SOL    HW150686   7.056   7.854  10.387  0.8217 -0.4650 -0.3967
16415SOL    HW250687   6.936   7.779  10.440 -0.2107  0.9335 -0.6750
16416SOL     OW50688   4.503   6.039  10.571  0.1346 -0.7157  0.5477
16416SOL    HW150689   4.496   6.066  10.479 -1.5449  1.0499  1.1197
16416SOL    HW250690   4.528   6.119  10.617  0.4371 -1.4495  1.6956
16417SOL     OW50691   7.535   6.325   4.255  0.4134  0.0215 -0.4067
16417SOL    HW150692   7.531   6.405   4.202  0.7276  0.2701 -0.0599
16417SOL    HW250693   7.491   6.349   4.337  0.6906 -0.0973 -0.2239
16418SOL     OW50694   2.911   3.765   4.378 -0.0023  0.0747  0.3551
16418SOL    HW150695   2.901   3.688   4.433  0.6760 -1.5002 -1.5988
16418SOL    HW250696   2.831   3.769   4.326 -0.7559  1.6984  1.5750
16419SOL     OW50697   5.685   0.603   3.835  0.2657  1.0147 -0.3611
16419SOL    HW150698   5.590   0.596   3.839  0.3182  0.9223  1.3242
16419SOL    HW250699   5.704   0.693   3.861  0.6873  0.6430  0.6673
16420SOL     OW50700   3.758   2.011   0.961  0.0405  0.1335  0.3002
16420SOL    HW150701   3.840   1.995   0.913 -0.0093  2.6574 -0.7674
16420SOL    HW250702   3.783   2.069   1.033 -0.6824  0.1613  0.5366
16421SOL     OW50703   1.032   7.442   1.278  0.1276  0.2997  0.4900
16421SOL    HW150704   1.122   7.466   1.255 -0.3059  2.4662  0.8155
16421SOL    HW250705   0.979   7.476   1.207 -0.4836 -0.7808  0.4091
16422SOL     OW50706   6.361   2.157   8.410  0.4048 -0.0443  0.4792
16422SOL    HW150707   6.405   2.134   8.328 -1.4600 -3.6712  0.2874
16422SOL    HW250708   6.372   2.080   8.465 -0.2870  1.4395  2.8201
16423SOL     OW50709   1.458   3.964  12.357  0.0022 -0.0898 -0.1248
16423SOL    HW150710   1.440   4.050  12.396  2.1455 -0.0780  1.0138
16423SOL    HW250711   1.372   3.925  12.345 -0.9537  1.5683  0.8502
16424SOL     OW50712   6.320   0.002   8.340  0.4142  0.0932 -0.7465
16424SOL    HW150713   6.331   0.090   8.305 -0.6989  0.6097  0.1102
16424SOL    HW250714   6.327   0.014   8.435  0.4668 -0.7697 -0.6404
16425SOL     OW50715   2.545   4.066   8.439  0.2214 -0.0844 -0.3896
16425SOL    HW150716   2.538   3.974   8.463  0.9805 -0.0043  0.1762
16425SOL    HW250717   2.483   4.110   8.498 -0.2976 -0.2489 -0.8046
16426SOL     OW50718   7.830   5.162  11.721  0.4074 -0.3246 -0.2355
16426SOL    HW150719   7.751   5.132  11.765 -0.7010  0.3771 -1.6945
16426SOL    HW250720   7.848   5.095  11.655 -0.0482  0.4015 -1.1268
16427SOL     OW50721   7.374   6.627  12.299  0.3845  0.3127 -0.3393
16427SOL    HW150722   7.299   6.685  12.308  0.5893  0.3092  1.7269
16427SOL    HW250723   7.360   6.557  12.363  0.8567 -1.1834 -1.7713
16428SOL     OW50724   2.736   3.178   7.689  0.3621 -0.6767  0.2987
16428SOL    HW150725   2.774   3.252   7.738 -0.0590  1.3874 -2.2635
16428SOL    HW250726   2.649   3.210   7.663 -0.0913 -2.3539 -0.3358
16429SOL     OW50727   7.867   2.248  11.096  0.5240 -0.3355 -0.4464
16429SOL    HW150728   7.801   2.278  11.158  0.5346  0.1053 -0.6458
16429SOL    HW250729   7.920   2.185  11.146  2.3586  2.1062  0.9558
16430SOL     OW50730   6.400   1.274   7.983 -0.2414 -0.2021 -0.5922
16430SOL    HW150731   6.367   1.185   7.970  0.2024 -0.5309  0.4320
16430SOL    HW250732   6.418   1.280   8.077 -0.6103  1.0969 -0.5827
16431SOL     OW50733   1.594   4.481   8.362 -0.5496  0.2625 -0.5130
16431SOL    HW150734   1.655   4.407   8.357 -0.1163  0.5492  0.3047
16431SOL    HW250735   1.529   4.463   8.295 -1.0187 -1.4038  0.3271
16432SOL     OW50736   4.525   4.538   6.585  0.1063  0.1583  0.2355
16432SOL    HW150737   4.600   4.478   6.587  0.1322  0.2242  1.4407
16432SOL    HW250738   4.521   4.576   6.672 -0.4328  1.2895 -0.2554
16433SOL     OW50739   4.227   5.046  10.106  0.2752 -0.0907  0.0235
16433SOL    HW150740   4.227   5.029  10.012 -3.0479  2.1977 -0.5622
16433SOL    HW250741   4.307   5.097  10.122  0.4159  0.2855 -1.7265
16434SOL     OW50742   3.070   4.868   6.121 -0.8895 -0.2031  0.5249
16434SOL    HW150743   3.004   4.878   6.052  2.3733  0.9738 -2.7311
16434SOL    HW250744   3.075   4.955   6.162 -0.2484  0.2033 -0.3849
16435SOL     OW50745   3.567   1.446   3.129  0.0461  0.3276  0.9173
16435SOL    HW150746   3.477   1.427   3.153  0.2280 -0.8980  0.7030
16435SOL    HW250747   3.573   1.542   3.130 -1.6309  0.4896 -0.4969
16436SOL     OW50748   1.152   3.040   6.708 -0.0598 -0.5112  0.1166
16436SOL    HW150749   1.135   3.116   6.762  0.4769  0.2288 -0.7258
16436SOL    HW250750   1.185   3.076   6.625 -0.0856 -1.6376 -0.4051
16437SOL     OW50751   2.565   7.614   6.654  0.4082  0.0778  0.3959
16437SOL    HW150752   2.562   7.671   6.730  0.4358  1.2515 -0.4568
16437SOL    HW250753   2.639   7.555   6.670  1.7243  1.6602  0.3413
16438SOL     OW50754   1.330   7.357   5.087  0.2706 -0.1267  0.9642
16438SOL    HW150755   1.292   7.274   5.115  1.2535 -0.6965  0.6637
16438SOL    HW250756   1.412   7.363   5.137  1.1103 -0.2503 -0.3588
16439SOL     OW50757   3.719   1.299   2.934 -0.0049 -0.0362 -0.7507
16439SOL    HW150758   3.652   1.353   2.975  1.7633  0.5312  1.6467
16439SOL    HW250759   3.698   1.210   2.963 -0.1786  0.0364 -0.6492
16440SOL     OW50760   4.158   0.780   7.983  0.5630 -0.4161  0.3848
16440SOL    HW150761   4.191   0.870   7.989 -0.6138  0.1552 -0.9417
16440SOL    HW250762   4.232   0.725   8.008  1.0753  0.9326  1.9782
16441SOL     OW50763   3.916   1.995   0.599  0.3009 -0.6540 -0.0872
16441SOL    HW150764   3.857   1.997   0.523  1.0292 -0.0309 -0.6452
16441SOL    HW250765   3.857   1.999   0.675 -0.3424  1.2474 -0.6307
16442SOL     OW50766   5.877   2.792   9.140  0.3113 -0.4409  0.0064
16442SOL    HW150767   5.809   2.832   9.194 -0.4050  0.3788 -1.4413
16442SOL    HW250768   5.851   2.700   9.133 -0.4209 -0.2294 -0.1707
16443SOL     OW50769   4.684   1.806   6.662 -0.1232  0.1514  0.7323
16443SOL    HW150770   4.619   1.773   6.724 -1.9659  0.0886 -1.1388
16443SOL    HW250771   4.634   1.832   6.585  2.0935 -0.1877 -0.9449
16444SOL     OW50772   5.801   3.119   4.076  0.0893  0.5446 -0.8333
16444SOL    HW150773   5.845   3.040   4.109  0.1941  1.1872  0.6055
16444SOL    HW250774   5.739   3.143   4.144  0.2137  1.8458 -1.1559
16445SOL     OW50775   2.577   1.635   6.915 -0.5173 -0.2696  0.2941
16445SOL    HW150776   2.636   1.606   6.846  0.9484 -2.3554  2.2574
16445SOL    HW250777   2.633   1.687   6.973 -1.4049  0.3687  0.5955
16446SOL     OW50778   7.724   3.468  10.911 -0.2762  0.0939  0.2266
16446SOL    HW150779   7.663   3.530  10.872 -1.0278 -0.3895  0.6106
16446SOL    HW250780   7.791   3.455  10.844  0.2340  1.7688  0.3675
16447SOL     OW50781   4.227   0.867  10.603  0.1606  0.5815 -0.1843
16447SOL    HW150782   4.273   0.930  10.547  1.0105  0.5424  0.4587
16447SOL    HW250783   4.289   0.796  10.615 -0.5443 -0.0723 -0.3408
16448SOL     OW50784   0.173   5.170   3.920  0.2378  0.5124 -0.5547
16448SOL    HW150785   0.120   5.137   3.993 -0.5199  1.0110 -0.8744
16448SOL    HW250786   0.259   5.187   3.959  0.8527 -2.2969 -0.4662
16449SOL     OW50787   7.672   4.031   1.961 -0.2085  0.1552  0.6338
16449SOL    HW150788   7.722   4.103   1.925  0.6384 -2.1964 -3.4696
16449SOL    HW250789   7.583   4.046   1.930 -0.3688  0.2064  1.1083
16450SOL     OW50790   0.531   7.806   6.135  0.4321  0.1942  0.3141
16450SOL    HW150791   0.502   7.890   6.171  1.4445  0.5364  0.3391
16450SOL    HW250792   0.463   7.784   6.070  0.0139  0.8891  0.5011
16451SOL     OW50793   1.420   3.590   1.757 -0.0202 -0.7507 -0.2457
16451SOL    HW150794   1.513   3.566   1.764  0.2770  0.5353  0.4265
16451SOL    HW250795   1.398   3.628   1.842 -0.7722  0.2803 -0.8827
16452SOL     OW50796   5.640   5.628   9.618 -0.5134  0.3867  0.0480
16452SOL    HW150797   5.700   5.655   9.548 -2.7406  0.3089 -2.0122
16452SOL    HW250798   5.695   5.624   9.696  2.6727 -1.7299 -2.0487
16453SOL     OW50799   5.863   0.386   3.402  0.5623  0.2578 -0.0659
16453SOL    HW150800   5.781   0.338   3.396  1.1270 -0.6098 -1.0237
16453SOL    HW250801   5.855   0.436   3.484 -2.0111  2.2752 -1.3801
16454SOL     OW50802   7.762   1.420  11.022 -0.5515  0.1135 -0.0090
16454SOL    HW150803   7.769   1.434  10.928  0.4792  1.9527  0.2857
16454SOL    HW250804   7.810   1.339  11.038  0.7904  0.7040 -0.8765
16455SOL     OW50805   6.563   6.288   9.720 -0.2333 -0.1940  0.3901
16455SOL    HW150806   6.524   6.210   9.681 -2.9370  0.9885  0.4924
16455SOL    HW250807   6.567   6.351   9.648 -0.8213  0.4643  0.9067
16456SOL     OW50808   6.041   2.533   2.073 -0.3382 -0.1047 -0.1084
16456SOL    HW150809   6.002   2.445   2.073  0.4730 -0.4845 -1.2825
16456SOL    HW250810   5.968   2.591   2.094 -0.8811 -1.0534  0.7279
16457SOL     OW50811   4.851   4.004   7.325 -0.0137  0.6789  0.5438
16457SOL    HW150812   4.843   4.026   7.417  0.1271  1.9024  0.2804
16457SOL    HW250813   4.828   4.084   7.279  1.1242  0.4671 -0.4601
16458SOL     OW50814   6.239   4.320   6.821  0.6062  0.0228 -0.2119
16458SOL    HW150815   6.279   4.362   6.897 -0.5583  2.5203 -0.8521
16458SOL    HW250816   6.294   4.348   6.747 -0.0506  0.2326 -0.6294
16459SOL     OW50817   6.731   2.613   5.640  0.3507  0.2083 -0.1421
16459SOL    HW150818   6.696   2.693   5.681  0.7629 -0.6039  1.9387
16459SOL    HW250819   6.795   2.645   5.577  0.0136  1.5566  0.1454
16460SOL     OW50820   7.453   4.450   2.562 -0.3434  0.5146 -0.4143
16460SOL    HW150821   7.548   4.448   2.549 -0.3360 -0.6694 -0.2844
16460SOL    HW250822   7.418   4.403   2.487 -0.8410  1.1078 -0.5535
16461SOL     OW50823   1.479   4.655   7.240 -0.3928  0.3164 -0.6470
16461SOL    HW150824   1.548   4.706   7.196  0.9563 -0.7453  0.1772
16461SOL    HW250825   1.504   4.656   7.333 -0.7979 -1.1371 -0.5055
16462SOL     OW50826   5.669   3.934  11.292  0.0147  0.3949  0.9020
16462SOL    HW150827   5.592   3.941  11.235 -1.3206 -0.4345  2.4973
16462SOL    HW250828   5.669   3.843  11.321  1.5398  0.4222  1.0557
16463SOL     OW50829   2.598   5.903  12.360 -0.4394 -0.3281 -0.7793
16463SOL    HW150830   2.689   5.922  12.383 -0.5671  0.3980 -0.8745
16463SOL    HW250831   2.591   5.808  12.370  0.1182 -0.3015 -0.0137
16464SOL     OW50832   1.285   1.069   7.929  0.0652 -0.0470  0.2052
16464SOL    HW150833   1.265   0.977   7.943 -0.9279  0.2322  0.6793
16464SOL    HW250834   1.267   1.084   7.836  1.4941 -0.6181 -0.2019
16465SOL     OW50835   0.220   2.386   1.851 -0.2260 -0.4454 -0.1285
16465SOL    HW150836   0.147   2.447   1.851  0.5420  0.5445 -1.4088
16465SOL    HW250837   0.252   2.385   1.941 -1.9493 -1.1072  0.5047
16466SOL     OW50838   5.183   2.771   6.436  0.0503  0.1852  0.3355
16466SOL    HW150839   5.124   2.709   6.480  0.3450 -0.1232  0.2978
16466SOL    HW250840   5.245   2.715   6.389  0.4293  0.5128  0.4500
16467SOL     OW50841   5.970   0.941   1.441 -0.6968  0.3080  0.2654
16467SOL    HW150842   6.023   0.968   1.366  3.1797 -3.6510  1.1877
16467SOL    HW250843   5.916   0.869   1.407 -1.0832  0.3899  0.6917
16468SOL     OW50844   2.391   3.772  11.898 -0.2627  0.4194  0.1396
16468SOL    HW150845   2.413   3.812  11.813 -0.7906 -1.5179 -0.9616
16468SOL    HW250846   2.471   3.725  11.923 -0.5768 -0.1996 -0.0092
16469SOL     OW50847   3.602   0.273   6.320 -0.1198 -0.4229  0.4107
16469SOL    HW150848   3.626   0.365   6.310 -0.2500 -0.4253  0.0518
16469SOL    HW250849   3.592   0.241   6.230 -2.3713 -0.1897  0.5354
16470SOL     OW50850   0.096   7.218   6.316 -0.0021 -0.2693  0.0155
16470SOL    HW150851   0.116   7.311   6.307  0.0866 -0.4030 -1.5815
16470SOL    HW250852   0.000   7.215   6.324 -0.1162 -0.0716 -1.0466
16471SOL     OW50853   4.739   1.273   4.560 -0.5172  0.2209  0.1223
16471SOL    HW150854   4.702   1.207   4.618 -1.2521  2.2825  2.1696
16471SOL    HW250855   4.698   1.257   4.475 -1.3088 -1.3979  0.7730
16472SOL     OW50856   3.495   5.245   1.557 -0.0541 -0.1252 -0.3551
16472SOL    HW150857   3.504   5.193   1.637  0.6128 -0.7214 -0.8054
16472SOL    HW250858   3.579   5.235   1.512 -0.1725  0.7734 -0.7952
16473SOL     OW50859   5.266   5.038   2.312  0.0719 -0.5046  0.6416
16473SOL    HW150860   5.259   5.117   2.258 -1.5126 -0.8398  0.3081
16473SOL    HW250861   5.297   4.970   2.251  2.2008 -0.0271  1.0976
16474SOL     OW50862   6.494   7.305   1.715  0.2908  0.1288  0.1140
16474SOL    HW150863   6.415   7.356   1.733 -0.7463 -0.5497 -2.1310
16474SOL    HW250864   6.566   7.367   1.727 -0.7140  1.3053  0.2995
16475SOL     OW50865   3.756   7.065   9.491 -0.0102 -0.1632 -0.4623
16475SOL    HW150866   3.750   7.028   9.403  0.1971 -0.9408 -0.1565
16475SOL    HW250867   3.709   7.148   9.485 -3.3544 -1.8554 -0.4088
16476SOL     OW50868   5.698   7.302   3.340 -0.1980  0.1894  0.0484
16476SOL    HW150869   5.621   7.351   3.312 -0.4448 -0.0047  0.3694
16476SOL    HW250870   5.731   7.351   3.416  0.2928  0.5502 -0.3895
16477SOL     OW50871   4.110   7.151   2.666  0.4757 -0.0110 -0.2441
16477SOL    HW150872   4.016   7.158   2.652  0.2803 -0.0309  0.9004
16477SOL    HW250873   4.122   7.064   2.704  0.7394  0.5494  1.0142
16478SOL     OW50874   0.373   0.932   0.052 -0.0525 -0.6244 -0.3702
16478SOL    HW150875   0.398   0.853   0.003 -1.2478 -1.9999  1.1605
16478SOL    HW250876   0.316   0.980  -0.008  3.4303  0.9938 -2.7144
16479SOL     OW50877   4.117   5.571  11.535 -0.1825 -0.0223  0.1781
16479SOL    HW150878   4.140   5.653  11.577  0.0071  0.1858 -0.3211
16479SOL    HW250879   4.130   5.504  11.603 -0.5592  0.3813  0.6486
16480SOL     OW50880   3.776   4.643   9.360 -0.1056 -0.2464 -0.1580
16480SOL    HW150881   3.767   4.549   9.377 -2.0960 -0.1327 -0.2958
16480SOL    HW250882   3.700   4.682   9.404  0.5636  1.2743 -0.3114
16481SOL     OW50883   4.973   7.006   1.824 -0.3444  0.1826  0.1950
16481SOL    HW150884   5.042   6.940   1.832  0.7943  1.3298  0.1656
16481SOL    HW250885   4.954   7.032   1.915  1.5184  2.0609  0.1444
16482SOL     OW50886   6.400   2.967   6.268  0.4477  0.4594 -0.0717
16482SOL    HW150887   6.452   3.040   6.303 -0.1991  0.4862  0.8800
16482SOL    HW250888   6.458   2.891   6.274  0.7967  0.7126 -0.1746
16483SOL     OW50889   6.753   1.086   6.840 -0.1410 -0.4482 -0.4064
16483SOL    HW150890   6.771   1.160   6.897  0.7326 -2.2350  1.8115
16483SOL    HW250891   6.673   1.047   6.874  0.1578 -1.3128 -0.6553
16484SOL     OW50892   4.455   4.396   1.157  0.4028  0.3928 -0.1463
16484SOL    HW150893   4.474   4.480   1.198  1.2970  0.9914 -1.6828
16484SOL    HW250894   4.465   4.332   1.227  0.9360  1.4452  0.7776
16485SOL     OW50895   2.159   0.018   5.690 -0.8020 -0.0646 -0.1761
16485SOL    HW150896   2.196   0.035   5.604 -0.2657 -0.7049 -0.0805
16485SOL    HW250897   2.133  -0.074   5.687 -1.5624  0.1414  0.0622
16486SOL     OW50898   4.942   4.336   6.827  0.1997  0.2236  0.3695
16486SOL    HW150899   4.935   4.367   6.918 -0.5939  0.6715  0.1595
16486SOL    HW250900   4.879   4.265   6.820  1.4282 -0.9329  0.6119
16487SOL     OW50901   2.889   2.041   5.122 -0.9040  0.0580  0.2934
16487SOL    HW150902   2.942   1.966   5.095  1.5824  0.7676  2.7368
16487SOL    HW250903   2.810   2.002   5.161 -0.5003 -1.1829 -0.0792
16488SOL     OW50904   4.270   2.135  11.731  0.1591 -0.5817 -0.1344
16488SOL    HW150905   4.233   2.222  11.742  2.7178  0.7794 -1.3101
16488SOL    HW250906   4.260   2.093  11.816 -1.3543  0.7520  0.3870
16489SOL     OW50907   0.254   7.773  10.412  0.2585 -0.1726  0.4358
16489SOL    HW150908   0.276   7.681  10.399 -1.0185 -0.8360  2.4717
16489SOL    HW250909   0.295   7.797  10.495 -0.5188  0.6878  0.5962
16490SOL     OW50910   7.211   1.789   5.962 -0.2423 -0.4478 -0.4762
16490SOL    HW150911   7.152   1.828   6.027  0.7007  1.0624 -0.4593
16490SOL    HW250912   7.168   1.708   5.936 -2.2298  0.5003 -0.3534
16491SOL     OW50913   7.540   4.858  10.464  0.9597  0.0597  0.1062
16491SOL    HW150914   7.533   4.922  10.392 -0.3759  0.1966  0.3324
16491SOL    HW250915   7.501   4.778  10.429 -0.4656  0.3678  0.9383
16492SOL     OW50916   2.626   4.522   9.315  0.0160  0.3589  0.2271
16492SOL    HW150917   2.609   4.606   9.358 -2.3447 -1.2416  2.6766
16492SOL    HW250918   2.561   4.462   9.351  1.3288 -2.4825 -1.7348
16493SOL     OW50919   7.251   5.621   8.128  0.2266  0.1095 -0.1970
16493SOL    HW150920   7.301   5.562   8.073  0.8435  0.5164 -0.0901
16493SOL    HW250921   7.245   5.576   8.213 -2.2728 -1.3385 -1.0371
16494SOL     OW50922   1.598   0.446   6.229  0.4353 -0.1034  0.0295
16494SOL    HW150923   1.604   0.540   6.242  1.2975 -0.1270 -0.1315
16494SOL    HW250924   1.597   0.409   6.317  2.2989 -0.0532  0.1017
16495SOL     OW50925   1.837   1.444   6.974  0.6486 -0.7826  0.6049
16495SOL    HW150926   1.808   1.396   7.052  0.1807 -1.0807  0.2537
16495SOL    HW250927   1.792   1.528   6.979  3.2352  0.6182  2.4459
16496SOL     OW50928   4.727   0.463   2.101  0.1670 -0.0039 -0.0358
16496SOL    HW150929   4.675   0.410   2.161  1.0157 -0.0551  0.6932
16496SOL    HW250930   4.800   0.495   2.155  0.5638  0.5446 -0.8704
16497SOL     OW50931   1.645   2.872   7.803 -0.0438 -0.1348  0.1176
16497SOL    HW150932   1.736   2.873   7.774  0.4845 -0.6531  1.6381
16497SOL    HW250933   1.630   2.781   7.831 -0.5135  0.3095  1.3788
16498SOL     OW50934   6.547   4.582   9.078 -0.4041 -0.0367  0.4375
16498SOL    HW150935   6.511   4.495   9.092 -1.4645  0.6591  2.4506
16498SOL    HW250936   6.623   4.587   9.136 -0.2753  0.3348  0.2393
16499SOL     OW50937   6.592   2.309  10.280 -0.2993  0.2459 -0.0175
16499SOL    HW150938   6.637   2.372  10.224 -0.6431 -0.2266 -0.8441
16499SOL    HW250939   6.588   2.229  10.228 -2.0340  0.2601  0.0609
16500SOL     OW50940   2.837   4.461   4.985 -0.0063 -0.7532 -0.4145
16500SOL    HW150941   2.840   4.384   4.928  0.6472 -0.4393 -0.8181
16500SOL    HW250942   2.925   4.499   4.979 -0.7939  1.0563 -1.7076
16501SOL     OW50943   2.068   6.677   5.378  0.5620 -0.4851 -0.0210
16501SOL    HW150944   2.162   6.666   5.394 -0.0500 -2.3452  3.3696
16501SOL    HW250945   2.049   6.766   5.407  0.9799 -0.8367  1.4022
16502SOL     OW50946   7.526   4.528   1.384  0.0994  0.1504 -0.2275
16502SOL    HW150947   7.470   4.601   1.359 -0.5881 -0.2479  0.1127
16502SOL    HW250948   7.605   4.539   1.331 -0.7128  0.1497 -1.5001
16503SOL     OW50949   6.469   4.759   1.337  0.3380 -0.3642 -0.0238
16503SOL    HW150950   6.530   4.802   1.396 -0.3825 -0.3582  0.7347
16503SOL    HW250951   6.466   4.816   1.260 -0.1327  0.6257  0.7058
16504SOL     OW50952   6.821   3.539   3.984 -0.0982  0.1742  0.2813
16504SOL    HW150953   6.897   3.481   3.979  1.3903  1.9165  1.4311
16504SOL    HW250954   6.840   3.609   3.921 -0.9043  0.4766  0.3641
16505SOL     OW50955   0.244   0.014   7.508  0.1026 -0.4430  0.1500
16505SOL    HW150956   0.323   0.030   7.456  0.1655  2.3489  0.9523
16505SOL    HW250957   0.179  -0.014   7.444  0.9267  0.1863 -0.9920
16506SOL     OW50958   6.791   6.153   4.745  0.1447 -0.1174  0.2608
16506SOL    HW150959   6.845   6.200   4.810 -1.9488  2.4545  0.2978
16506SOL    HW250960   6.713   6.207   4.736 -1.0064 -2.0346 -2.1770
16507SOL     OW50961   0.840   5.383   2.881  0.2916  0.4011 -0.3675
16507SOL    HW150962   0.887   5.353   2.804 -1.2504  1.1454 -1.6737
16507SOL    HW250963   0.907   5.398   2.947  1.6763 -0.0770 -1.6289
16508SOL     OW50964   2.242   2.023   3.826 -0.4299 -0.6535 -0.1913
16508SOL    HW150965   2.322   1.972   3.844 -1.2302 -1.3643  1.5315
16508SOL    HW250966   2.181   1.998   3.895 -2.0883  0.0662 -1.3292
16509SOL     OW50967   3.043   4.790   1.441 -0.1502 -0.6620  0.4786
16509SOL    HW150968   3.026   4.827   1.355 -2.0893 -1.1446  0.5964
16509SOL    HW250969   2.961   4.748   1.465 -0.2889  1.0111  3.3616
16510SOL     OW50970   2.480   2.412  10.544  0.1751 -0.5949  0.1286
16510SOL    HW150971   2.470   2.400  10.450  0.4385  1.3257 -0.1830
16510SOL    HW250972   2.574   2.423  10.557  0.0738 -0.0780  0.4833
16511SOL     OW50973   5.509   7.818   5.604 -0.4272  0.5803  0.0393
16511SOL    HW150974   5.603   7.819   5.585  0.2719  1.7088  3.0897
16511SOL    HW250975   5.470   7.869   5.533  1.6484  2.5797  0.2176
16512SOL     OW50976   3.732   2.655  10.026 -0.4244  0.3814 -0.5106
16512SOL    HW150977   3.754   2.581   9.970  0.0154 -0.6834  1.0046
16512SOL    HW250978   3.640   2.674  10.006 -0.5130 -0.5180 -0.9942
16513SOL     OW50979   0.015   1.639   5.778 -0.1884 -0.0820 -0.0034
16513SOL    HW150980  -0.040   1.563   5.796 -1.4951  0.9505  0.5651
16513SOL    HW250981   0.010   1.649   5.682  0.2128 -0.8548 -0.1126
16514SOL     OW50982   1.109   4.586   1.210 -0.2356 -0.7915  0.5267
16514SOL    HW150983   1.092   4.671   1.250 -0.1123 -0.5964  0.1623
16514SOL    HW250984   1.025   4.540   1.215 -0.1495 -0.8851  1.2805
16515SOL     OW50985   2.965   2.708  11.687 -0.4341  0.4836  0.1822
16515SOL    HW150986   2.974   2.672  11.599 -3.0055  1.4015 -0.5679
16515SOL    HW250987   3.000   2.797  11.681 -1.1722  0.7658 -0.1334
16516SOL     OW50988   6.957   3.215  10.661 -0.5407 -0.1425  0.1141
16516SOL    HW150989   7.006   3.217  10.743  1.3801 -1.2242 -0.9315
16516SOL    HW250990   7.013   3.166  10.601 -1.9299  0.5152 -1.8211
16517SOL     OW50991   1.617   2.712  12.274  0.0427 -0.6240 -0.2100
16517SOL    HW150992   1.706   2.728  12.241  0.7269  0.5184  1.9798
16517SOL    HW250993   1.595   2.792  12.322 -1.3454 -1.6984  1.0183
16518SOL     OW50994   3.079   1.429   8.360 -0.7940  0.2486  0.8840
16518SOL    HW150995   3.006   1.489   8.373  0.1553  1.5667  0.3589
16518SOL    HW250996   3.154   1.474   8.400  0.0316 -0.3687  0.0703
16519SOL     OW50997   0.621   2.221   4.263  0.0064  0.3603 -0.2117
16519SOL    HW150998   0.659   2.170   4.335 -2.3816  0.1148  0.9847
16519SOL    HW250999   0.634   2.166   4.186  1.7564  0.1692  0.1858
16520SOL     OW51000   5.014   4.022   1.775 -0.1259 -0.5110  0.5783
16520SOL    HW151001   4.922   3.997   1.765 -0.3604  0.1203  1.0764
16520SOL    HW251002   5.063   3.951   1.735 -0.7905 -1.3847  1.2812
16521SOL     OW51003   1.501   0.347  11.610 -0.2589  0.0635  0.4614
16521SOL    HW151004   1.412   0.344  11.574 -0.4618  0.9905  0.8566
16521SOL    HW251005   1.543   0.268  11.577 -0.8829  0.1745 -0.6423
16522SOL     OW51006   6.089   4.685   3.335 -0.4381  0.1097  0.1392
16522SOL    HW151007   6.014   4.720   3.288 -0.8485 -1.1148 -0.1292
16522SOL    HW251008   6.053   4.650   3.416 -0.1204 -0.2318  0.1375
16523SOL     OW51009   7.303   3.140   6.495  0.2469  0.1882 -0.3838
16523SOL    HW151010   7.219   3.157   6.452  1.4255  0.8602 -2.6010
16523SOL    HW251011   7.358   3.213   6.468  1.4984 -0.1190  1.2103
16524SOL     OW51012   1.387   2.199   8.746 -0.2629  0.6925  0.8152
16524SOL    HW151013   1.339   2.154   8.816  0.0203  0.0916  0.6341
16524SOL    HW251014   1.364   2.151   8.666 -2.2857  2.6693  0.1099
16525SOL     OW51015   2.512   4.957   8.590  0.2919  0.6353 -0.9044
16525SOL    HW151016   2.536   4.891   8.524  0.4080  0.4078 -0.6361
16525SOL    HW251017   2.492   5.035   8.539  1.2622  0.7295 -1.1687
16526SOL     OW51018   1.222   5.995  12.365  0.2133 -0.5575 -0.0720
16526SOL    HW151019   1.309   6.035  12.370  0.1474 -0.0561 -2.1246
16526SOL    HW251020   1.162   6.065  12.390  0.3765 -0.9885  1.6409
16527SOL     OW51021   0.562   3.175   6.597  0.5230 -0.1616  0.5972
16527SOL    HW151022   0.569   3.268   6.621 -1.7885  0.2239  0.1164
16527SOL    HW251023   0.526   3.133   6.675  0.3252 -0.3897  0.3856
16528SOL     OW51024   2.009   6.913   2.379  0.3321 -0.1493 -0.0289
16528SOL    HW151025   2.028   6.849   2.310  0.4278  2.0588 -2.2251
16528SOL    HW251026   2.064   6.988   2.356 -1.5044  1.5824  1.0140
16529SOL     OW51027   4.834   1.804   2.864 -0.3834  0.6775 -0.0911
16529SOL    HW151028   4.851   1.746   2.938 -0.9592  0.9435  0.2564
16529SOL    HW251029   4.848   1.892   2.899 -0.5632  0.8006 -0.3291
16530SOL     OW51030   6.555   7.019   1.930 -0.1231 -0.6698 -0.2545
16530SOL    HW151031   6.626   7.047   1.988 -0.5286 -1.5401  0.6814
16530SOL    HW251032   6.600   6.973   1.859  0.2000 -2.7300  1.2002
16531SOL     OW51033   0.613   4.459  10.413 -0.6705  0.2033  0.1880
16531SOL    HW151034   0.596   4.541  10.366 -0.8092  0.6505  1.0016
16531SOL    HW251035   0.540   4.402  10.388  0.4257 -0.3773 -1.8934
16532SOL     OW51036   0.459   6.314   1.641 -0.9210 -0.3569 -0.3917
16532SOL    HW151037   0.459   6.346   1.551 -1.3049  1.1333  0.1020
16532SOL    HW251038   0.410   6.381   1.690  0.5809 -0.3263  1.1875
16533SOL     OW51039   0.932   6.193   8.856  0.9481  0.1604 -0.1096
16533SOL    HW151040   0.923   6.249   8.778  0.8202  1.8919  1.0875
16533SOL    HW251041   1.022   6.209   8.886  0.6185  0.4475  0.7587
16534SOL     OW51042   1.665   6.126   3.521  0.4812  0.0108  0.0125
16534SOL    HW151043   1.717   6.055   3.561 -0.8397 -0.3327  1.2110
16534SOL    HW251044   1.610   6.082   3.456 -0.0154 -0.0057  0.4380
16535SOL     OW51045   6.336   4.623   8.780 -0.5937 -0.1045  0.3755
16535SOL    HW151046   6.275   4.665   8.842 -1.7310 -0.4181 -0.5081
16535SOL    HW251047   6.318   4.530   8.790 -0.8371 -0.1502 -0.4754
16536SOL     OW51048   4.327   7.025   6.084 -0.1978 -0.0209 -0.5280
16536SOL    HW151049   4.339   6.977   6.166 -0.1526 -1.6258 -1.4365
16536SOL    HW251050   4.259   7.090   6.104 -0.1682 -0.3670  0.7847
16537SOL     OW51051   6.468   3.422  11.897 -0.5573  0.6632 -0.4587
16537SOL    HW151052   6.520   3.342  11.898  1.2697  1.7989  0.1001
16537SOL    HW251053   6.478   3.458  11.985 -2.5507  0.8113 -0.2450
16538SOL     OW51054   1.473   2.755   1.635 -0.0480 -0.1864 -1.0671
16538SOL    HW151055   1.533   2.681   1.624  0.0075 -0.1732 -0.8570
16538SOL    HW251056   1.389   2.722   1.603 -0.7117 -1.2885  1.5244
16539SOL     OW51057   4.427   5.809   3.136  0.2209  0.0874 -0.0951
16539SOL    HW151058   4.425   5.853   3.051 -0.2414 -0.6428 -0.4776
16539SOL    HW251059   4.363   5.738   3.127  0.5354 -0.3045  0.6985
16540SOL     OW51060   5.205   0.398   4.742 -0.0393 -0.5527 -0.3000
16540SOL    HW151061   5.273   0.439   4.688 -1.2672  0.4637 -1.1505
16540SOL    HW251062   5.239   0.311   4.762  2.7291  0.8392  1.6847
16541SOL     OW51063   5.761   7.354   9.676  0.0236 -0.1965 -0.2078
16541SOL    HW151064   5.668   7.366   9.693  0.4008 -0.0697  2.0706
16541SOL    HW251065   5.805   7.384   9.756  2.0022 -0.5641 -1.0832
16542SOL     OW51066   1.120   2.090   5.470 -0.5672 -0.2249 -0.1721
16542SOL    HW151067   1.140   2.178   5.440 -2.3360  0.2727  0.0342
16542SOL    HW251068   1.070   2.051   5.399 -0.6377 -0.7194  0.1427
16543SOL     OW51069   1.054   6.019   4.308 -0.1175 -0.0434  0.0103
16543SOL    HW151070   0.976   5.986   4.353  0.3007  0.6224  1.2846
16543SOL    HW251071   1.049   6.114   4.319  0.2417  0.0960 -0.9667
16544SOL     OW51072   5.890   2.347  11.420  0.2212  0.0557 -0.1148
16544SOL    HW151073   5.904   2.411  11.490  0.3300  1.9268 -1.7617
16544SOL    HW251074   5.800   2.362  11.392  0.7276  0.6139 -1.5486
16545SOL     OW51075   3.539   7.905   2.475  0.5027 -0.0337  0.4802
16545SOL    HW151076   3.480   7.980   2.467  0.7896  0.0840 -0.8605
16545SOL    HW251077   3.617   7.932   2.427  0.7788 -1.0179  0.3591
16546SOL     OW51078   6.319   0.384   5.973  0.5800 -0.2611 -0.1593
16546SOL    HW151079   6.284   0.449   6.034  1.0171  0.9196 -1.1181
16546SOL    HW251080   6.351   0.436   5.899  2.0644 -1.4909 -0.4160
16547SOL     OW51081   3.662   6.617   0.079  0.3626 -0.3313  0.1625
16547SOL    HW151082   3.573   6.652   0.074  1.2927  2.4081  0.5944
16547SOL    HW251083   3.660   6.556   0.153 -0.5713  1.8918  2.0972
16548SOL     OW51084   1.895   1.214   2.259  0.4514  0.1747 -0.3537
16548SOL    HW151085   1.852   1.298   2.247  0.8263  0.6050  1.1268
16548SOL    HW251086   1.871   1.187   2.348  1.5715 -0.5625 -0.2569
16549SOL     OW51087   0.669   5.812   6.820  0.5451  0.2267  0.4266
16549SOL    HW151088   0.630   5.868   6.887 -0.3553  1.0148 -0.7024
16549SOL    HW251089   0.758   5.847   6.809  0.8685 -0.2161  1.5235
16550SOL     OW51090   0.730   6.649   1.318  0.2678  1.0466 -0.3560
16550SOL    HW151091   0.710   6.741   1.299  0.2731  0.8997 -1.1265
16550SOL    HW251092   0.740   6.609   1.231  0.7716  0.4302 -0.0206
16551SOL     OW51093   3.099   1.438   5.127  0.0146 -0.3540 -0.3947
16551SOL    HW151094   3.121   1.530   5.140  0.3731 -0.1950 -1.9219
16551SOL    HW251095   3.017   1.425   5.173 -0.9012  1.1618 -1.5386
16552SOL     OW51096   4.945   7.135   7.645 -0.2431  0.0174  0.4503
16552SOL    HW151097   4.890   7.061   7.672 -0.9908 -0.2181 -1.5149
16552SOL    HW251098   4.882   7.201   7.617  0.4489  0.2242 -0.6653
16553SOL     OW51099   5.777   2.028  10.861  0.3085  0.1844 -0.6112
16553SOL    HW151100   5.697   2.067  10.826 -0.3230  1.5706  2.1252
16553SOL    HW251101   5.846   2.058  10.802 -0.9090  0.7044 -1.8204
16554SOL     OW51102   2.041   1.883  11.970  0.0936  0.4135 -0.2888
16554SOL    HW151103   2.010   1.912  11.885  1.6528  3.8744  0.1567
16554SOL    HW251104   1.962   1.872  12.022 -0.7512  1.4094 -1.3099
16555SOL     OW51105   1.576   5.932   0.396 -0.3833  0.4977 -0.1985
16555SOL    HW151106   1.508   5.999   0.386 -0.7977 -0.0246 -0.9640
16555SOL    HW251107   1.559   5.870   0.325  1.3866  0.7766 -0.9174
16556SOL     OW51108   1.702   6.657   4.830  0.1231  0.0334 -0.3588
16556SOL    HW151109   1.708   6.739   4.781 -2.5750  0.5845  0.0560
16556SOL    HW251110   1.649   6.600   4.774  0.2695 -0.7098  0.2493
16557SOL     OW51111   1.779   0.348   1.708  0.2807 -0.7504  0.3964
16557SOL    HW151112   1.818   0.280   1.652 -2.2461 -0.8723 -1.3441
16557SOL    HW251113   1.777   0.426   1.652 -0.6661 -0.3893  0.9243
16558SOL     OW51114   4.729   6.976   8.078  0.2854  0.1658 -0.1038
16558SOL    HW151115   4.691   7.000   8.162 -1.4157 -1.0961 -0.4582
16558SOL    HW251116   4.686   7.033   8.014  0.9274  0.5169 -0.2346
16559SOL     OW51117   6.213   4.875   8.500 -0.0207  0.8441  0.2755
16559SOL    HW151118   6.221   4.922   8.417  0.1354  0.8996  0.3214
16559SOL    HW251119   6.158   4.931   8.554 -0.7800  0.4324 -0.0603
16560SOL     OW51120   0.346   3.347   6.504 -0.6464 -0.1209 -0.3224
16560SOL    HW151121   0.368   3.360   6.596 -0.9587  0.4566 -0.3261
16560SOL    HW251122   0.406   3.278   6.475  0.4070  0.6374 -0.0441
16561SOL     OW51123   6.750   0.239   9.975 -0.0377 -0.2859 -0.5697
16561SOL    HW151124   6.780   0.236   9.884  1.9407  1.1186 -0.0293
16561SOL    HW251125   6.828   0.221  10.027 -0.7296  0.7309  0.8986
16562SOL     OW51126   6.931   6.331   1.328 -0.1907  0.0199  0.1840
16562SOL    HW151127   6.977   6.363   1.251  1.5838 -0.6990  0.8882
16562SOL    HW251128   6.896   6.245   1.302 -1.7877  0.8641 -0.5658
16563SOL     OW51129   2.866   4.010   6.338 -0.4310  0.2317 -0.0302
16563SOL    HW151130   2.867   3.916   6.356 -1.1538  0.1957 -0.1432
16563SOL    HW251131   2.847   4.016   6.245 -0.5503  0.4920  0.0099
16564SOL     OW51132   3.878   6.433   5.776  0.1290 -0.3652  0.2015
16564SOL    HW151133   3.844   6.382   5.849 -2.5142 -0.4914 -1.0058
16564SOL    HW251134   3.848   6.522   5.794  1.3455  0.0452  0.3150
16565SOL     OW51135   1.125   3.415  12.081 -0.1036 -0.2359  0.0343
16565SOL    HW151136   1.158   3.441  12.167  0.7239  0.1132 -0.3696
16565SOL    HW251137   1.105   3.498  12.037 -0.7691 -0.4210 -0.0185
16566SOL     OW51138   1.645   4.034  10.547 -0.0107 -0.0979  0.0362
16566SOL    HW151139   1.658   4.086  10.626 -1.0607 -0.4717  0.4632
16566SOL    HW251140   1.620   4.098  10.480  1.3925  0.2926 -0.1625
16567SOL     OW51141   1.017   5.313  11.447  0.3134 -0.0444  0.1846
16567SOL    HW151142   1.023   5.383  11.512  1.3906  0.2281 -0.1912
16567SOL    HW251143   1.066   5.346  11.372  0.3591 -0.9776 -0.2055
16568SOL     OW51144   4.811   7.765  12.054  0.9612  0.6177  0.2343
16568SOL    HW151145   4.850   7.818  12.124 -0.3295  1.5792  0.2651
16568SOL    HW251146   4.823   7.819  11.975  0.4954  0.5143  0.0940
16569SOL     OW51147   0.944   6.923   0.456  0.1426  0.4711 -0.5517
16569SOL    HW151148   0.980   6.896   0.371 -1.2989 -1.2678 -0.6674
16569SOL    HW251149   0.972   6.855   0.516 -1.1573  0.2243 -0.2135
16570SOL     OW51150   5.889   7.837  11.991  0.4586 -0.1028  0.0310
16570SOL    HW151151   5.931   7.792  11.918 -0.4161 -0.0964 -0.4972
16570SOL    HW251152   5.834   7.770  12.032  0.6400 -0.0040  0.4506
16571SOL     OW51153   7.773   2.143  11.714 -0.6024  0.1629 -0.3293
16571SOL    HW151154   7.689   2.098  11.716 -0.2368 -0.5420 -0.5512
16571SOL    HW251155   7.788   2.172  11.804 -1.6886  1.4487 -0.5358
16572SOL     OW51156   1.340   0.138   9.851 -0.3167 -0.2215  0.0147
16572SOL    HW151157   1.363   0.097   9.935 -0.6824  0.2737  0.3607
16572SOL    HW251158   1.300   0.067   9.800  2.4858 -1.3289 -0.8743
16573SOL     OW51159   5.790   7.800   8.989  0.0792 -0.2104  0.1029
16573SOL    HW151160   5.757   7.837   9.071  2.3602  0.0006  1.0116
16573SOL    HW251161   5.804   7.707   9.010  0.2520 -0.2523 -0.1998
16574SOL     OW51162   1.472   7.377  11.824  0.0359  0.1481 -0.0869
16574SOL    HW151163   1.405   7.416  11.880 -0.9047 -1.0791 -0.3261
16574SOL    HW251164   1.524   7.323  11.883 -0.4435 -0.4879 -0.2339
16575SOL     OW51165   2.267   1.646  10.153 -0.0822 -0.4229 -0.3312
16575SOL    HW151166   2.294   1.662  10.244  0.3263 -1.7320 -0.2021
16575SOL    HW251167   2.288   1.728  10.107 -0.6271  0.3842  0.8118
16576SOL     OW51168   6.954   6.370   6.711 -0.1610 -0.2677 -0.3700
16576SOL    HW151169   7.001   6.385   6.793 -2.2350  0.7013  0.7147
16576SOL    HW251170   6.862   6.362   6.737 -0.6237 -2.2835 -2.3818
16577SOL     OW51171   5.083   4.081   2.376 -0.3509  0.0068 -0.1243
16577SOL    HW151172   5.106   3.991   2.353 -0.5228  0.5917 -2.9674
16577SOL    HW251173   4.987   4.083   2.369 -0.3077  0.5202 -0.6342
16578SOL     OW51174   5.334   3.692   9.160 -0.4859 -0.3548 -0.3830
16578SOL    HW151175   5.371   3.742   9.087  0.8653  0.1520  0.5956
16578SOL    HW251176   5.247   3.730   9.173 -0.0836  0.7056 -0.6495
16579SOL     OW51177   0.044   6.091  10.633  0.5053  0.2993 -0.1181
16579SOL    HW151178   0.075   6.146  10.560 -1.3403  0.1146 -1.0910
16579SOL    HW251179  -0.036   6.050  10.600  1.1784 -2.0863  1.0040
16580SOL     OW51180   3.144   1.377   5.470 -0.4246 -0.4902 -0.0372
16580SOL    HW151181   3.121   1.285   5.474 -0.7227 -0.5104 -1.5464
16580SOL    HW251182   3.073   1.418   5.420  0.8368  0.1202 -1.4221
16581SOL     OW51183   4.445   2.448   6.123 -0.3389 -0.0796  0.3873
16581SOL    HW151184   4.531   2.410   6.140 -0.6115 -0.7447  0.3381
16581SOL    HW251185   4.386   2.372   6.120 -0.1983 -0.2817 -4.5904
16582SOL     OW51186   0.237   3.076   2.879  0.1496 -0.0456  0.0824
16582SOL    HW151187   0.287   3.157   2.885  1.3166 -0.6523 -1.1389
16582SOL    HW251188   0.268   3.024   2.953  1.3626 -0.4112 -0.6525
16583SOL     OW51189   5.862   0.124  10.855  0.5448 -0.2233  0.0609
16583SOL    HW151190   5.885   0.201  10.801 -0.3293 -1.1086 -1.6622
16583SOL    HW251191   5.846   0.055  10.791 -0.5310 -1.3485  1.4956
16584SOL     OW51192   4.084   5.502  11.946 -0.0228  0.3746 -0.2553
16584SOL    HW151193   4.175   5.498  11.975  0.1704  1.3549 -0.6774
16584SOL    HW251194   4.085   5.463  11.859 -0.4408 -1.7308  0.6283
16585SOL     OW51195   0.890   0.957  12.248 -1.0133  0.7437  0.1917
16585SOL    HW151196   0.833   1.014  12.299  0.9457  2.0588  0.9761
16585SOL    HW251197   0.959   1.014  12.215 -0.4030 -0.7093 -1.1953
16586SOL     OW51198   1.358   5.661   0.788  0.4226  0.9327  0.6536
16586SOL    HW151199   1.272   5.623   0.769  1.6338 -1.1080 -1.3836
16586SOL    HW251200   1.341   5.754   0.800 -2.1930  0.4397  1.5253
16587SOL     OW51201   5.146   2.162   9.079  0.1379 -0.0742  0.5058
16587SOL    HW151202   5.142   2.250   9.117 -0.1126 -0.3732  1.1805
16587SOL    HW251203   5.234   2.156   9.041 -0.3986  1.0696 -1.0375
16588SOL     OW51204   6.485   5.645  10.358  0.6964  0.6082  0.3511
16588SOL    HW151205   6.570   5.603  10.372  0.9130  1.2081  0.8871
16588SOL    HW251206   6.421   5.576  10.374  1.0442  0.4629  1.1785
16589SOL     OW51207   7.358   7.608   3.603 -0.0145  0.0748  0.8821
16589SOL    HW151208   7.405   7.674   3.655  0.4148  0.5007 -0.0119
16589SOL    HW251209   7.415   7.593   3.528  0.4005 -2.1208  1.5693
16590SOL     OW51210   4.968   3.381   5.638 -0.2015  0.0997  0.2407
16590SOL    HW151211   4.957   3.314   5.570 -0.5963  1.0118 -0.6309
16590SOL    HW251212   4.879   3.412   5.654  0.0970  1.2540 -0.2562
16591SOL     OW51213   1.914   1.987   4.221  0.2049  0.0622 -0.0428
16591SOL    HW151214   1.921   1.893   4.235 -0.4709  0.0630  0.3171
16591SOL    HW251215   1.937   2.026   4.305 -0.6475  0.1803  0.1376
16592SOL     OW51216   5.865   3.959   4.065  0.1270  0.2110  0.1394
16592SOL    HW151217   5.827   3.947   3.978 -1.1735 -0.5832  0.7773
16592SOL    HW251218   5.808   3.907   4.123  0.0190  1.9512  1.6801
16593SOL     OW51219   2.562   3.178   5.508  0.3891 -0.0996 -0.1812
16593SOL    HW151220   2.645   3.216   5.539 -0.5618  0.4999  1.7841
16593SOL    HW251221   2.563   3.088   5.542  0.2657 -0.1120 -0.2114
16594SOL     OW51222   1.643   0.843   8.437 -0.0470 -0.2788  0.1993
16594SOL    HW151223   1.607   0.926   8.467  0.7249  0.9383 -2.0330
16594SOL    HW251224   1.705   0.818   8.506 -0.6910  0.7041  1.1697
16595SOL     OW51225   7.075   2.713   9.760 -0.0758  0.2576  0.3575
16595SOL    HW151226   7.066   2.760   9.843 -0.1285 -1.1595  1.1834
16595SOL    HW251227   6.993   2.665   9.751 -0.3764  0.9797 -0.9083
16596SOL     OW51228   6.246   5.423   8.784  0.3100  0.7131  0.5345
16596SOL    HW151229   6.180   5.483   8.820 -1.2586  0.3490 -1.5780
16596SOL    HW251230   6.299   5.477   8.726  0.0697  0.4377  0.0548
16597SOL     OW51231   7.730   7.034   1.092  0.3581 -0.0284 -0.3928
16597SOL    HW151232   7.792   6.962   1.074 -0.2891 -0.1366 -2.3984
16597SOL    HW251233   7.766   7.109   1.045  0.3030  0.6245  0.5744
16598SOL     OW51234   4.594   0.676   9.847  0.8871  0.1854  0.0946
16598SOL    HW151235   4.503   0.667   9.875  1.2371 -0.4430  1.0990
16598SOL    HW251236   4.624   0.587   9.834  0.8496  0.4493 -2.0458
16599SOL     OW51237   7.685   7.182   2.275  0.2930 -0.3005  0.3748
16599SOL    HW151238   7.741   7.249   2.239  0.6676 -0.6557  0.2855
16599SOL    HW251239   7.614   7.173   2.212  0.0298  0.2853  0.5834
16600SOL     OW51240   7.519   5.771   6.031 -0.8643  0.3837  0.0051
16600SOL    HW151241   7.499   5.790   6.123  0.3479 -0.6839  0.5132
16600SOL    HW251242   7.521   5.857   5.990 -2.0050  0.8399  0.8443
16601SOL     OW51243   1.147   3.687  12.000  0.3712  0.0588  0.2812
16601SOL    HW151244   1.145   3.673  11.906  0.9771  0.2678  0.2376
16601SOL    HW251245   1.066   3.734  12.019  0.3025  0.1166 -0.1508
16602SOL     OW51246   5.527   5.915   1.212 -0.5220  0.0146 -0.7294
16602SOL    HW151247   5.619   5.940   1.219 -0.7517  0.4918  1.5360
16602SOL    HW251248   5.528   5.826   1.179  0.9293 -0.7765  1.2543
16603SOL     OW51249   6.427   0.664   1.068 -0.2821 -0.1737  0.4674
16603SOL    HW151250   6.453   0.573   1.059 -0.4828 -0.2000  0.1611
16603SOL    HW251251   6.341   0.670   1.026  0.3807  0.4733 -0.8847
16604SOL     OW51252   2.575   5.021   7.596  0.0560  0.3935  0.1815
16604SOL    HW151253   2.557   5.008   7.503  0.6349  0.7309  0.0201
16604SOL    HW251254   2.667   5.048   7.599 -0.4161  2.0109  0.7122
16605SOL     OW51255   7.188   2.641   2.816 -0.1198  0.0042 -0.1811
16605SOL    HW151256   7.106   2.627   2.768 -0.2885 -0.4368  0.2372
16605SOL    HW251257   7.244   2.568   2.790  0.0792  0.2082 -0.3292
16606SOL     OW51258   3.357   7.842   9.882  0.0999  0.5815  0.5144
16606SOL    HW151259   3.450   7.845   9.862 -0.2177  0.8289 -0.9894
16606SOL    HW251260   3.344   7.757   9.923  1.0405  0.7152  1.1308
16607SOL     OW51261   1.212   0.661  11.850 -0.1830  0.2064  0.0539
16607SOL    HW151262   1.218   0.633  11.759 -0.6663 -0.2252  0.1525
16607SOL    HW251263   1.203   0.756  11.845  1.5437  0.3931 -0.2813
16608SOL     OW51264   2.038   0.806   6.873 -0.3562 -0.3417 -0.3791
16608SOL    HW151265   1.947   0.778   6.868 -0.4586  0.0767 -0.8849
16608SOL    HW251266   2.035   0.900   6.889 -0.0078 -0.4545  0.4040
16609SOL     OW51267   2.642   5.740  11.584  0.5223  0.5038  0.1247
16609SOL    HW151268   2.584   5.812  11.609 -0.5366 -0.4595  0.5631
16609SOL    HW251269   2.592   5.661  11.606  2.0178 -0.3678  0.5204
16610SOL     OW51270   6.144   3.510   4.736 -0.1430  0.0397  0.0199
16610SOL    HW151271   6.091   3.507   4.656  0.0717  0.5024 -0.1431
16610SOL    HW251272   6.092   3.463   4.801 -0.6474  0.2967 -0.1956
16611SOL     OW51273   2.435   5.122   3.291 -0.1188 -0.0713  0.3489
16611SOL    HW151274   2.364   5.168   3.248 -0.5585 -1.0302  0.0116
16611SOL    HW251275   2.402   5.101   3.378  0.4184  1.0245  0.8413
16612SOL     OW51276   6.217   3.028   2.639  0.1705  0.8771 -0.0949
16612SOL    HW151277   6.131   3.007   2.676  0.3209  1.2315  0.4739
16612SOL    HW251278   6.267   3.059   2.714  1.0829 -0.1886 -0.2480
16613SOL     OW51279   4.879   7.648   1.906 -0.0312 -0.0466 -0.8950
16613SOL    HW151280   4.971   7.639   1.931  0.1893  1.6114 -0.9933
16613SOL    HW251281   4.874   7.605   1.820  0.5327 -0.6258 -0.6426
16614SOL     OW51282   3.791   1.507  11.503 -0.1083  0.0900  0.2496
16614SOL    HW151283   3.740   1.478  11.427 -1.9024  1.2220  0.9302
16614SOL    HW251284   3.775   1.441  11.570  0.3002 -0.1692  0.0924
16615SOL     OW51285   2.976   7.883   7.290 -0.3507 -0.6320 -0.1287
16615SOL    HW151286   3.058   7.844   7.258 -1.1133 -1.9180 -0.6002
16615SOL    HW251287   2.907   7.833   7.245 -1.3958  0.7722 -0.1454
16616SOL     OW51288   2.146   1.397  10.114 -0.1972 -0.7961  0.5472
16616SOL    HW151289   2.211   1.466  10.114  1.4609 -2.2775  1.2146
16616SOL    HW251290   2.143   1.367  10.205  2.4396 -4.4502 -0.3149
16617SOL     OW51291   4.895   5.852   1.843  0.1800 -0.1094  0.3398
16617SOL    HW151292   4.989   5.833   1.842  0.4829  1.1277  2.0576
16617SOL    HW251293   4.857   5.781   1.895 -0.4129 -2.5238 -3.0069
16618SOL     OW51294   6.563   5.747   2.237 -0.3861 -0.0351  0.1822
16618SOL    HW151295   6.504   5.767   2.309 -1.8414 -1.3634 -0.5804
16618SOL    HW251296   6.545   5.655   2.216 -0.0049  0.3064 -1.8508
16619SOL     OW51297   6.113   5.308   0.548 -0.1892 -0.1069 -0.1200
16619SOL    HW151298   6.115   5.347   0.460  0.0607  1.3414  0.4870
16619SOL    HW251299   6.154   5.374   0.604  0.2304 -1.2646  0.9951
16620SOL     OW51300   7.784   5.693   4.730  0.7648 -0.2985 -0.1080
16620SOL    HW151301   7.861   5.711   4.677  0.9735 -2.1176 -0.4651
16620SOL    HW251302   7.815   5.700   4.821  1.3131 -0.8677 -0.2496
16621SOL     OW51303   7.611   2.057   2.701  0.6057 -0.2332  0.3033
16621SOL    HW151304   7.576   2.110   2.773 -0.9245 -0.0921 -0.5027
16621SOL    HW251305   7.534   2.019   2.660  1.3744  0.3328 -1.7652
16622SOL     OW51306   2.602   4.685  10.251 -0.0719  0.0501 -0.5122
16622SOL    HW151307   2.554   4.620  10.302  1.1214 -1.0106 -0.6745
16622SOL    HW251308   2.601   4.651  10.161 -0.1914  0.7149 -0.7669
16623SOL     OW51309   3.226   7.515   0.438 -0.2701 -0.1185  0.2176
16623SOL    HW151310   3.250   7.467   0.518 -0.6423  0.4308  0.6591
16623SOL    HW251311   3.299   7.575   0.424 -1.0923  1.1890  1.2739
16624SOL     OW51312   7.823   1.422   4.691  0.1005  0.0984  0.3954
16624SOL    HW151313   7.766   1.396   4.618 -1.0826  1.9808  0.5846
16624SOL    HW251314   7.905   1.447   4.649 -0.7510  1.7018 -0.4019
16625SOL     OW51315   5.701   2.031   5.687 -0.3106  0.4599  0.8242
16625SOL    HW151316   5.742   2.022   5.773  1.3566 -1.6194 -0.1209
16625SOL    HW251317   5.634   1.963   5.686  0.9472 -0.7974 -0.1792
16626SOL     OW51318   1.279   2.334   1.152 -0.1837  0.0100 -0.3420
16626SOL    HW151319   1.313   2.326   1.063 -0.2364 -2.5320 -0.2044
16626SOL    HW251320   1.352   2.368   1.203  0.7117 -0.9963 -0.9009
16627SOL     OW51321   3.228   3.368  11.596  0.2491 -0.3491 -0.3455
16627SOL    HW151322   3.167   3.337  11.529 -1.1538  1.0865  0.1992
16627SOL    HW251323   3.224   3.301  11.665 -0.7556 -0.2536 -0.2994
16628SOL     OW51324   4.630   3.584   7.651 -0.0614  0.2029 -0.3770
16628SOL    HW151325   4.657   3.600   7.560  0.0668  0.7523 -0.2399
16628SOL    HW251326   4.541   3.620   7.656  0.2213  0.8636 -0.0735
16629SOL     OW51327   1.968   3.313   3.995  0.1012  0.0084 -0.1526
16629SOL    HW151328   2.024   3.388   3.977  2.9834 -2.2750 -1.4910
16629SOL    HW251329   1.980   3.296   4.089 -2.1113  2.1943  0.6552
16630SOL     OW51330   4.839   6.685   0.714 -0.1568  0.1129 -0.2566
16630SOL    HW151331   4.863   6.776   0.728  0.4704 -0.3224  1.7677
16630SOL    HW251332   4.854   6.670   0.620  4.8028  0.7062  0.1947
16631SOL     OW51333   7.535   1.127   3.933  0.4307 -0.4095 -0.1585
16631SOL    HW151334   7.491   1.098   4.013  0.8988  1.0630  0.6830
16631SOL    HW251335   7.467   1.171   3.882  0.2845 -0.7281 -0.2372
16632SOL     OW51336   1.909   6.994   1.528  0.0471  0.2932  0.0522
16632SOL    HW151337   1.949   6.952   1.452 -0.0400  0.8951 -0.3320
16632SOL    HW251338   1.969   7.065   1.551  0.2444 -0.0885  0.7564
16633SOL     OW51339   7.022   6.508   9.960 -0.4568  0.0958 -0.3842
16633SOL    HW151340   6.980   6.517   9.875 -0.1334  0.0302 -0.5568
16633SOL    HW251341   6.977   6.435  10.001  0.4456 -0.9593 -1.1764
16634SOL     OW51342   2.952   6.869   2.913  0.4757 -0.0970  0.1254
16634SOL    HW151343   2.875   6.817   2.936  1.5509 -1.3830  1.0497
16634SOL    HW251344   2.958   6.935   2.982 -0.0290  0.2747 -0.1848
16635SOL     OW51345   6.132   4.728   2.701  0.3343  0.2708 -0.6323
16635SOL    HW151346   6.140   4.651   2.646 -0.0953 -0.5605  0.4269
16635SOL    HW251347   6.038   4.748   2.702  0.1406 -0.5131  0.7737
16636SOL     OW51348   2.462   5.904   9.710 -0.0506 -0.1031  0.3735
16636SOL    HW151349   2.437   5.908   9.802 -0.0905 -1.1028  0.4146
16636SOL    HW251350   2.410   5.832   9.674 -0.3169  0.5201 -0.5214
16637SOL     OW51351   1.695   1.937   8.364 -0.2913 -0.5357  0.1844
16637SOL    HW151352   1.714   1.977   8.279 -0.0088 -0.4413  0.2911
16637SOL    HW251353   1.769   1.878   8.380  0.2846  0.3471  0.9244
16638SOL     OW51354   2.483   7.897   0.900  0.0925 -0.0371 -0.0445
16638SOL    HW151355   2.412   7.835   0.884 -0.1532 -0.3711  2.1454
16638SOL    HW251356   2.525   7.907   0.814 -2.0190 -0.5128 -1.2051
16639SOL     OW51357   7.045   0.803   0.297 -0.0877 -0.2130 -0.2047
16639SOL    HW151358   7.061   0.879   0.242  1.5454 -1.3851 -1.4676
16639SOL    HW251359   6.986   0.834   0.365 -1.7035  1.4637 -2.2422
16640SOL     OW51360   2.823   7.445   8.632  0.1669  0.1719  0.3241
16640SOL    HW151361   2.849   7.525   8.679 -0.3619 -1.3388  3.4842
16640SOL    HW251362   2.905   7.399   8.615  0.3173  0.3863  0.4706
16641SOL     OW51363   5.326   3.612  10.655 -0.3085  0.1373 -0.4800
16641SOL    HW151364   5.366   3.610  10.741 -1.6406  0.9574  0.1920
16641SOL    HW251365   5.300   3.521  10.638 -1.1954  0.1720  0.5676
16642SOL     OW51366   5.111   2.828   9.062 -0.3254  0.3038  0.2174
16642SOL    HW151367   5.030   2.877   9.046 -0.5051 -0.5852 -2.0078
16642SOL    HW251368   5.117   2.821   9.157 -2.8687  0.3988  0.4461
16643SOL     OW51369   7.887   2.326   2.983 -0.0442 -0.1275 -0.1312
16643SOL    HW151370   7.885   2.243   2.934 -3.2724  0.8842 -2.0081
16643SOL    HW251371   7.967   2.369   2.953 -1.0882 -0.2371 -3.5500
16644SOL     OW51372   5.712   6.392  11.011 -0.1453 -0.1695 -0.1368
16644SOL    HW151373   5.682   6.339  11.085 -0.4459 -0.4257 -0.4401
16644SOL    HW251374   5.748   6.328  10.949  2.4972  0.2037  0.8495
16645SOL     OW51375   4.157   6.532   1.334 -0.1115  0.3646 -0.1231
16645SOL    HW151376   4.197   6.468   1.275  1.7243  1.8324 -0.5810
16645SOL    HW251377   4.120   6.479   1.405  1.2062 -1.2175 -0.5460
16646SOL     OW51378   3.550   4.786   9.411  0.0801  0.3462 -0.0299
16646SOL    HW151379   3.592   4.800   9.497  1.3038 -0.1587 -0.5172
16646SOL    HW251380   3.530   4.874   9.380 -0.0255  0.5568  0.6116
16647SOL     OW51381   4.773   7.058  10.458  0.0881 -0.0363 -0.2805
16647SOL    HW151382   4.774   7.013  10.374 -1.8403  0.1341 -0.4245
16647SOL    HW251383   4.744   7.147  10.438  0.9737  0.4257  0.3931
16648SOL     OW51384   0.387   5.440   4.543 -0.0724  0.2966  0.9653
16648SOL    HW151385   0.420   5.406   4.626  2.3776 -1.7510 -0.7215
16648SOL    HW251386   0.386   5.535   4.555  2.5093  0.2153  2.6005
16649SOL     OW51387   5.741   3.029   6.300 -0.1317  0.0467 -0.4391
16649SOL    HW151388   5.733   3.002   6.391 -1.4719  0.1553 -0.4922
16649SOL    HW251389   5.689   2.965   6.252 -0.7766  0.9110 -0.9259
16650SOL     OW51390   3.152   2.068   9.421  0.1584  0.2154  0.8578
16650SOL    HW151391   3.127   2.014   9.347  1.8548 -0.5061  0.7714
16650SOL    HW251392   3.106   2.029   9.496  1.0185 -1.1365  0.7255
16651SOL     OW51393   5.627   0.993   8.800 -0.5738  0.4173 -0.4426
16651SOL    HW151394   5.712   1.023   8.768  0.7690 -1.7936  0.8437
16651SOL    HW251395   5.628   1.013   8.893 -0.2645 -1.9941  0.1386
16652SOL     OW51396   1.064   7.075   3.224 -0.0310 -0.2745 -0.2963
16652SOL    HW151397   1.014   7.143   3.269  1.1587  0.7408 -0.4642
16652SOL    HW251398   1.093   7.016   3.294  0.6421  0.5294  0.1205
16653SOL     OW51399   5.180   1.526   9.011  0.4495  0.3263  0.2464
16653SOL    HW151400   5.134   1.585   8.951  0.7058 -0.4368 -0.7209
16653SOL    HW251401   5.271   1.528   8.982  0.8296  0.9159  1.4139
16654SOL     OW51402   3.028   6.919   5.497  0.5341 -0.2756  0.3814
16654SOL    HW151403   2.961   6.955   5.439  0.0846  0.2597  1.2251
16654SOL    HW251404   3.085   6.993   5.517  1.4467 -0.7464 -0.4011
16655SOL     OW51405   1.413   2.365   4.555 -0.0332  0.2631  0.0799
16655SOL    HW151406   1.385   2.275   4.540 -1.7227  0.5946  1.0361
16655SOL    HW251407   1.438   2.368   4.647  1.6652  0.4005 -0.3417
16656SOL     OW51408   5.411   1.030   5.437 -0.7680  0.0074 -0.6654
16656SOL    HW151409   5.403   1.059   5.346 -1.7099  1.5049 -0.1396
16656SOL    HW251410   5.465   1.097   5.479 -0.0097 -0.8746 -0.1740
16657SOL     OW51411   7.212   7.362   8.984 -0.6461  0.3759 -0.1201
16657SOL    HW151412   7.277   7.385   8.918 -1.0224  0.7626 -0.3590
16657SOL    HW251413   7.263   7.324   9.055 -0.2183  0.1477 -0.5446
16658SOL     OW51414   5.411   5.734   0.323  0.0259 -0.1367  0.1896
16658SOL    HW151415   5.316   5.744   0.330 -0.3486 -1.9148 -1.4521
16658SOL    HW251416   5.427   5.642   0.342  1.6364  0.3905  1.7456
16659SOL     OW51417   3.368   7.562   3.145 -0.1205 -0.4647 -0.3087
16659SOL    HW151418   3.443   7.509   3.119 -0.4763 -1.5503  0.8143
16659SOL    HW251419   3.352   7.619   3.070  1.6839 -0.3528 -0.6607
16660SOL     OW51420   0.026   2.297  12.221 -0.0227 -0.4439 -0.6391
16660SOL    HW151421  -0.009   2.379  12.256  0.7524 -0.3556 -0.0578
16660SOL    HW251422   0.097   2.324  12.163  0.7334 -0.7248  0.1360
16661SOL     OW51423   3.998   1.467   1.401  0.5142  0.3419 -0.3443
16661SOL    HW151424   4.007   1.376   1.372  1.1350  0.7741 -1.5768
16661SOL    HW251425   3.904   1.482   1.404  0.2834 -1.1136  2.4863
16662SOL     OW51426   5.234   2.411  11.211  0.2002  0.1540 -0.0808
16662SOL    HW151427   5.329   2.416  11.224  0.1682  1.2627 -0.1587
16662SOL    HW251428   5.198   2.471  11.277 -0.3594  0.6895 -0.8562
16663SOL     OW51429   2.887   7.224   1.485 -0.3593  0.1550  0.3238
16663SOL    HW151430   2.913   7.168   1.413 -1.0112 -1.4415  1.2910
16663SOL    HW251431   2.827   7.288   1.446 -0.1917 -0.2808 -0.6501
16664SOL     OW51432   0.055   2.438   9.129  0.0415  0.6862 -0.4834
16664SOL    HW151433   0.119   2.462   9.061  0.1975  2.6793  0.2947
16664SOL    HW251434   0.108   2.397   9.198 -0.0138 -0.6430 -1.1977
16665SOL     OW51435   6.573   6.423   8.171  0.2043 -0.3830 -0.6093
16665SOL    HW151436   6.610   6.508   8.146  1.7890 -0.3552  1.5119
16665SOL    HW251437   6.489   6.444   8.211  0.3836  0.1466 -0.4982
16666SOL     OW51438   2.333   0.270   1.257  0.4297  0.0337 -0.6548
16666SOL    HW151439   2.383   0.341   1.299 -0.2621 -0.0010  0.2588
16666SOL    HW251440   2.269   0.315   1.203 -0.7954  0.1673  0.8413
16667SOL     OW51441   6.125   4.522   9.703 -0.7057 -0.5053  0.4682
16667SOL    HW151442   6.037   4.559   9.707 -1.2263 -1.6034 -0.1755
16667SOL    HW251443   6.149   4.506   9.794 -1.4742 -0.8592  0.6194
16668SOL     OW51444   3.424   3.532   5.908  0.3694 -0.0921  0.4208
16668SOL    HW151445   3.408   3.458   5.851  0.7196 -1.5208  2.0899
16668SOL    HW251446   3.336   3.564   5.931  0.2237  0.1928 -0.4959
16669SOL     OW51447   4.241   1.217   4.082 -0.6235  0.2742 -0.4340
16669SOL    HW151448   4.161   1.267   4.068  0.1197  1.1526 -1.7776
16669SOL    HW251449   4.283   1.216   3.996  1.3780  0.8331  0.4965
16670SOL     OW51450   5.870   4.092   0.353 -0.3832 -0.1817  0.4239
16670SOL    HW151451   5.825   4.007   0.350  0.4519 -0.6153 -0.9731
16670SOL    HW251452   5.810   4.153   0.311  0.0817 -0.6744 -1.0453
16671SOL     OW51453   0.359   0.752  10.804 -0.0821  0.6305  0.2683
16671SOL    HW151454   0.450   0.724  10.814 -0.4148 -0.0492  1.5575
16671SOL    HW251455   0.360   0.844  10.830  0.4419  0.9974 -0.9485
16672SOL     OW51456   3.475   4.164  11.498  0.0798  0.3979 -0.0625
16672SOL    HW151457   3.406   4.156  11.432 -0.5750 -1.6575  0.8100
16672SOL    HW251458   3.494   4.074  11.525 -0.5233  1.1501  3.3881
16673SOL     OW51459   1.124   3.882   3.792 -0.1721 -0.3365  0.3404
16673SOL    HW151460   1.038   3.906   3.827  0.2693  0.6404  0.7993
16673SOL    HW251461   1.123   3.786   3.789 -1.1669 -0.3445  0.6104
16674SOL     OW51462   5.383   6.950   2.103  0.0913  0.1439  0.7547
16674SOL    HW151463   5.436   7.021   2.140  1.1394 -0.1505 -0.1190
16674SOL    HW251464   5.329   6.993   2.036  0.4865  0.1862  0.4550
16675SOL     OW51465   6.073   6.056   6.058  0.4473  0.6043 -0.2572
16675SOL    HW151466   6.011   6.085   5.991  0.2857  0.8116 -0.0169
16675SOL    HW251467   6.054   5.963   6.070 -0.8103  0.9819  0.8687
16676SOL     OW51468   0.923   3.255   5.766 -0.1114 -0.1350 -0.5201
16676SOL    HW151469   0.884   3.292   5.686 -0.5834  1.5603  0.4363
16676SOL    HW251470   0.999   3.206   5.735  0.9301  2.1438 -1.8842
16677SOL     OW51471   0.380   3.176   3.758 -0.4425 -0.0152  0.3840
16677SOL    HW151472   0.395   3.254   3.812 -0.5453 -0.9827  1.8773
16677SOL    HW251473   0.467   3.138   3.746 -0.4522  0.0511  0.1164
16678SOL     OW51474   1.544   2.013   0.133  0.3038  0.2590  0.4916
16678SOL    HW151475   1.553   1.961   0.053 -2.7761  0.6161 -0.1971
16678SOL    HW251476   1.509   1.952   0.197  0.2621  0.6000  0.7935
16679SOL     OW51477   1.398   0.471  11.981  0.3755  0.1337 -0.0963
16679SOL    HW151478   1.319   0.512  11.945 -0.3635 -0.4145  0.8505
16679SOL    HW251479   1.443   0.542  12.027 -0.6799  0.0240  1.1701
16680SOL     OW51480   5.116   1.803   3.539  0.3896 -0.0176 -0.3310
16680SOL    HW151481   5.164   1.752   3.605 -0.3878 -2.5229 -1.5879
16680SOL    HW251482   5.185   1.847   3.489  1.1741 -0.8155  0.0231
16681SOL     OW51483   7.253   1.370   9.664  0.5458 -0.2809 -0.4842
16681SOL    HW151484   7.254   1.279   9.634  1.2080 -0.7647  0.9509
16681SOL    HW251485   7.166   1.382   9.702  1.0524 -0.8617  0.8963
16682SOL     OW51486   6.235   4.458   2.108 -0.3229  0.1830  0.1896
16682SOL    HW151487   6.151   4.454   2.154 -1.0042 -0.4520 -1.0511
16682SOL    HW251488   6.213   4.441   2.017  1.0542  0.9176 -0.3075
16683SOL     OW51489   3.936   7.289   5.638  0.1984  0.8427  0.2491
16683SOL    HW151490   3.942   7.379   5.608  0.9044  0.4781 -0.7288
16683SOL    HW251491   3.967   7.236   5.565 -0.5631 -0.2279  0.6653
16684SOL     OW51492   5.655   2.989  11.614  0.2133 -0.7526 -0.7194
16684SOL    HW151493   5.572   2.957  11.651 -0.6493  0.9741 -1.0504
16684SOL    HW251494   5.720   2.925  11.642 -0.5852 -0.2499  2.7267
16685SOL     OW51495   3.566   5.120  10.481 -0.1258  0.0466  0.4757
16685SOL    HW151496   3.642   5.089  10.531  0.1277 -1.6071 -0.8419
16685SOL    HW251497   3.583   5.213  10.467  1.0912 -0.0457  1.1758
16686SOL     OW51498   4.006   0.802   9.480 -0.2930  0.4766  0.8517
16686SOL    HW151499   4.052   0.742   9.538 -0.7518 -0.9314 -0.1934
16686SOL    HW251500   3.974   0.748   9.408  0.7246  2.2298 -1.0363
16687SOL     OW51501   4.576   6.578   0.511  0.9466  0.2949  0.8373
16687SOL    HW151502   4.506   6.537   0.460 -0.3017  1.5418  1.4792
16687SOL    HW251503   4.653   6.524   0.494  0.4016  0.2070 -1.7339
16688SOL     OW51504   2.609   5.845   8.406  0.3770 -0.3972 -0.1265
16688SOL    HW151505   2.562   5.762   8.417  1.8817 -1.4617 -1.2918
16688SOL    HW251506   2.690   5.833   8.454  0.8327  0.2014 -0.7378
16689SOL     OW51507   1.396   0.569   9.546  0.2253  0.4840 -0.1582
16689SOL    HW151508   1.472   0.627   9.551  0.9620 -0.5198  0.5175
16689SOL    HW251509   1.339   0.599   9.617  1.6983 -1.0885  1.8165
16690SOL     OW51510   1.297   5.049   3.428 -0.0703  0.1756 -0.1987
16690SOL    HW151511   1.336   4.982   3.372  1.7592  1.4239 -0.5207
16690SOL    HW251512   1.318   5.021   3.517  1.4937  0.7352 -0.3620
16691SOL     OW51513   7.081   4.087   9.623  0.4597 -0.0931  0.2556
16691SOL    HW151514   7.004   4.143   9.632  0.8599  0.3565  0.9743
16691SOL    HW251515   7.051   4.001   9.650 -0.5270 -0.5958 -2.1229
16692SOL     OW51516   7.915   5.773  10.247 -0.5120  0.0073 -0.1047
16692SOL    HW151517   7.941   5.692  10.204  2.8570  0.9149 -0.0592
16692SOL    HW251518   7.959   5.770  10.332 -4.0403 -0.0654  1.9522
16693SOL     OW51519   2.760   3.538   9.148 -0.3711  0.1941 -0.1757
16693SOL    HW151520   2.734   3.510   9.235 -0.6851 -0.1486 -0.3757
16693SOL    HW251521   2.837   3.593   9.162  0.1383 -0.6086  0.2331
16694SOL     OW51522   4.464   3.203   2.967 -0.2158 -0.0119 -0.2634
16694SOL    HW151523   4.429   3.121   3.000  0.0200  0.4566  1.2399
16694SOL    HW251524   4.559   3.193   2.973 -0.1840  0.8114  1.2088
16695SOL     OW51525   0.310   2.220  11.996  0.2619 -0.1262  0.1268
16695SOL    HW151526   0.278   2.309  11.985 -1.0894 -0.7168 -0.9182
16695SOL    HW251527   0.329   2.213  12.090  1.0620  1.4465  0.1216
16696SOL     OW51528   7.198   6.067   5.206 -0.0617 -0.4952  0.1069
16696SOL    HW151529   7.192   6.021   5.122 -0.7003  4.3165 -2.9096
16696SOL    HW251530   7.150   6.012   5.268  0.6324 -4.4477 -2.5265
16697SOL     OW51531   0.077   0.727   6.319 -0.2283  0.3405 -0.7456
16697SOL    HW151532   0.135   0.764   6.253  0.2199  1.8304  0.4322
16697SOL    HW251533  -0.011   0.741   6.285  0.0308 -0.5145 -1.8223
16698SOL     OW51534   7.338   0.853   7.960 -0.2690 -0.2035  0.1858
16698SOL    HW151535   7.365   0.838   8.050 -0.1244 -0.5173  0.0936
16698SOL    HW251536   7.305   0.943   7.958 -0.0568 -0.1212  0.4961
16699SOL     OW51537   6.512   5.505   6.307  0.5793  0.2938  0.2130
16699SOL    HW151538   6.560   5.464   6.379 -0.2382  0.9281  1.1442
16699SOL    HW251539   6.542   5.596   6.307  0.3124  0.3829 -0.0266
16700SOL     OW51540   2.058   0.730   6.459 -0.1220  0.6736  0.1371
16700SOL    HW151541   2.042   0.657   6.399 -2.4271  0.3395  1.0387
16700SOL    HW251542   2.085   0.688   6.541 -0.8636  0.8390  0.4769
16701SOL     OW51543   5.492   1.445   7.960  0.2404 -0.2490 -0.1760
16701SOL    HW151544   5.401   1.414   7.952 -0.3606  1.4311 -0.1655
16701SOL    HW251545   5.488   1.515   8.025  1.0950  1.5345 -1.9553
16702SOL     OW51546   0.496   4.346  10.752 -0.0316  0.9092  0.1831
16702SOL    HW151547   0.454   4.424  10.788  0.2944  0.9498  0.4913
16702SOL    HW251548   0.584   4.375  10.728  0.0878  0.6412  0.2866
16703SOL     OW51549   4.843   3.444   6.117  0.1375  0.1586  0.4804
16703SOL    HW151550   4.821   3.537   6.120  2.0227  0.6712 -0.0557
16703SOL    HW251551   4.871   3.429   6.027 -1.3393 -1.2585  0.2170
16704SOL     OW51552   3.262   4.094   7.010 -0.0412 -0.2795  0.0900
16704SOL    HW151553   3.175   4.059   7.030 -0.3887 -0.4103 -1.5084
16704SOL    HW251554   3.255   4.188   7.026  0.1096 -0.5386  1.8202
16705SOL     OW51555   5.068   1.197   3.757  0.2939 -0.4542 -0.1111
16705SOL    HW151556   5.102   1.145   3.830 -2.6506 -1.7895  0.4431
16705SOL    HW251557   5.069   1.137   3.682 -0.8737 -0.5821 -0.0445
16706SOL     OW51558   4.436   7.554  10.779  0.1891  0.1695  0.1880
16706SOL    HW151559   4.493   7.479  10.765 -0.3085 -0.2470  0.4018
16706SOL    HW251560   4.497   7.627  10.796  0.6565 -0.6194  2.2006
16707SOL     OW51561   5.716   0.470   1.059 -0.0247  0.1959  0.1733
16707SOL    HW151562   5.749   0.381   1.064 -2.2225 -0.8582 -1.9004
16707SOL    HW251563   5.635   0.470   1.111 -1.1815  0.3110 -1.5386
16708SOL     OW51564   4.127   1.533   3.600  0.6767  0.2165 -0.5182
16708SOL    HW151565   4.038   1.522   3.631  1.2642 -0.6738  0.9455
16708SOL    HW251566   4.118   1.578   3.516 -1.1328  0.0793 -0.4270
16709SOL     OW51567   0.137   6.516   7.484 -0.3646  0.1738  0.2192
16709SOL    HW151568   0.057   6.567   7.497 -0.6950 -0.3160  0.1455
16709SOL    HW251569   0.106   6.429   7.460  0.1930 -0.0511  0.2993
16710SOL     OW51570   6.803   4.833   7.372 -0.5428 -0.3450  0.6534
16710SOL    HW151571   6.883   4.805   7.328 -2.0241  1.1632 -3.4560
16710SOL    HW251572   6.814   4.927   7.386 -1.1076 -0.3535  1.2060
16711SOL     OW51573   5.223   1.859   8.357  0.0548  0.5683  0.2740
16711SOL    HW151574   5.256   1.929   8.301  1.5109  1.9774  2.7147
16711SOL    HW251575   5.159   1.901   8.415 -1.6163 -0.8919 -0.4198
16712SOL     OW51576   6.632   1.513  11.693  0.5452  0.4522 -0.0054
16712SOL    HW151577   6.631   1.513  11.597  0.7206 -0.3855 -0.0166
16712SOL    HW251578   6.543   1.537  11.718  0.7044  1.4883 -0.3619
16713SOL     OW51579   0.083   3.774  10.232  0.2474 -0.6901 -0.1567
16713SOL    HW151580   0.175   3.749  10.235 -0.1972 -2.4147  1.8467
16713SOL    HW251581   0.036   3.695  10.260 -1.6677  0.8571  1.2824
16714SOL     OW51582   0.139   2.233   1.125 -0.1573 -0.0319  0.5135
16714SOL    HW151583   0.194   2.276   1.059  1.2811  0.9828  2.2714
16714SOL    HW251584   0.054   2.224   1.083  0.2648  1.9854 -0.9417
16715SOL     OW51585   3.446   6.015   6.405  0.4403  0.3384 -0.2644
16715SOL    HW151586   3.417   5.935   6.448  0.3515 -0.0908 -1.1026
16715SOL    HW251587   3.519   5.987   6.350  0.6264  0.8990 -0.3116
16716SOL     OW51588   0.311   6.905   4.607  0.3330 -0.2939  0.2087
16716SOL    HW151589   0.323   6.984   4.659  1.0234 -0.0105 -0.3682
16716SOL    HW251590   0.218   6.906   4.584 -0.1926 -0.8637  2.1011
16717SOL     OW51591   4.720   3.874   4.138  0.0646  0.0541  0.9008
16717SOL    HW151592   4.663   3.799   4.122  1.4825 -0.9905  0.5247
16717SOL    HW251593   4.750   3.862   4.228  0.8334 -0.2408  0.6177
16718SOL     OW51594   4.937   6.944   2.106 -0.3854  0.0488  0.0498
16718SOL    HW151595   4.927   6.959   2.200 -1.2481  1.0146 -0.1791
16718SOL    HW251596   4.971   6.855   2.099 -0.3621 -0.0490  1.2684
16719SOL     OW51597   3.605   3.792  12.126 -1.0381 -0.0013 -0.2470
16719SOL    HW151598   3.620   3.858  12.194 -1.5268 -0.3690  0.2307
16719SOL    HW251599   3.514   3.765  12.140 -0.2419 -2.3003  0.9478
16720SOL     OW51600   3.044   4.761   0.838 -0.1501 -0.1540 -0.4208
16720SOL    HW151601   3.076   4.724   0.921 -0.3548  0.9005  0.1469
16720SOL    HW251602   2.957   4.724   0.827 -0.0829 -0.3751 -0.2117
16721SOL     OW51603   1.899   0.429   6.414  1.0002  0.5427 -0.4949
16721SOL    HW151604   1.850   0.493   6.466  0.2123  1.1028 -1.8944
16721SOL    HW251605   1.926   0.363   6.478 -0.4293  0.9053  0.5332
16722SOL     OW51606   6.697   4.397   3.922 -0.6215 -0.1669 -0.6746
16722SOL    HW151607   6.620   4.375   3.869 -1.4995  1.0937  0.0498
16722SOL    HW251608   6.662   4.417   4.008  0.4368  1.1755 -0.5354
16723SOL     OW51609   5.186   1.455   5.377 -0.9427  0.4671  0.0353
16723SOL    HW151610   5.271   1.478   5.416 -0.1281 -1.0767 -0.7188
16723SOL    HW251611   5.196   1.475   5.284 -1.8831  1.4997  0.1409
16724SOL     OW51612   2.726   2.651   1.091  0.6585 -0.3051  0.2449
16724SOL    HW151613   2.692   2.562   1.084  1.1164 -0.5867  1.3888
16724SOL    HW251614   2.813   2.647   1.052  0.7709 -0.4169  0.5050
16725SOL     OW51615   2.320   6.936   6.669 -0.0767 -0.1704  0.3212
16725SOL    HW151616   2.383   6.931   6.597 -0.8698 -2.1516 -0.2988
16725SOL    HW251617   2.330   7.025   6.703  3.0092 -0.3681  0.2251
16726SOL     OW51618   0.693   1.916   3.724 -0.3933 -0.1547  0.6252
16726SOL    HW151619   0.682   1.947   3.634 -2.1267 -2.5151 -0.0439
16726SOL    HW251620   0.787   1.925   3.740 -0.0075  0.1448 -1.4907
16727SOL     OW51621   5.902   4.598   8.961 -0.0570 -0.3262  0.5128
16727SOL    HW151622   5.922   4.510   8.994 -1.4516 -0.5278  0.8926
16727SOL    HW251623   5.901   4.588   8.866  2.5085 -0.0744  0.3894
16728SOL     OW51624   1.930   5.659   0.161 -0.5878  0.4560 -0.1361
16728SOL    HW151625   1.875   5.606   0.103 -1.7703  1.6913 -0.1875
16728SOL    HW251626   1.875   5.675   0.238  0.3488  0.2731  0.5847
16729SOL     OW51627   6.744   6.971   7.448  0.2333 -0.4041 -0.0629
16729SOL    HW151628   6.715   7.038   7.386  1.3903 -0.4662 -0.7113
16729SOL    HW251629   6.769   7.019   7.526 -1.0337 -0.3016  0.3006
16730SOL     OW51630   2.094   6.635   0.162 -0.0767  0.1466 -0.5110
16730SOL    HW151631   2.058   6.552   0.195 -1.3094  0.7722 -0.2329
16730SOL    HW251632   2.022   6.674   0.112  0.8449  0.5557 -1.5597
16731SOL     OW51633   2.479   5.753   2.765 -0.1558 -0.3720  0.9873
16731SOL    HW151634   2.463   5.671   2.719  2.0185 -0.3810  0.1262
16731SOL    HW251635   2.396   5.801   2.758 -0.3909 -0.9770 -1.7576
16732SOL     OW51636   1.593   1.799   9.309  0.6792 -0.5162 -0.5737
16732SOL    HW151637   1.620   1.797   9.401  0.5517 -0.1387 -0.5262
16732SOL    HW251638   1.538   1.722   9.299 -0.5353  0.2380  0.0643
16733SOL     OW51639   1.902   7.605   2.299  0.3899 -0.0364 -0.8979
16733SOL    HW151640   1.969   7.541   2.326 -0.1735 -0.7514 -1.1577
16733SOL    HW251641   1.819   7.560   2.314  0.0206  0.1609 -2.2501
16734SOL     OW51642   3.270   4.730   3.417  0.6205 -0.2079  0.3573
16734SOL    HW151643   3.322   4.792   3.365  2.2400 -0.7330  1.2726
16734SOL    HW251644   3.319   4.648   3.413 -0.6402 -0.9960  0.5162
16735SOL     OW51645   7.342   6.925   0.097  0.3539 -0.0985  0.3142
16735SOL    HW151646   7.356   6.984   0.023 -1.3898 -1.1203 -0.8917
16735SOL    HW251647   7.373   6.840   0.067 -1.0432 -0.6832  0.4556
16736SOL     OW51648   7.282   5.084  11.040 -0.1591 -0.4201 -0.0285
16736SOL    HW151649   7.269   5.052  11.129 -0.5859 -0.8200 -0.2306
16736SOL    HW251650   7.203   5.056  10.993 -0.9617  1.6149 -0.0202
16737SOL     OW51651   0.646   0.204  10.226  0.4300 -0.1535 -0.2386
16737SOL    HW151652   0.701   0.131  10.199 -0.3504 -0.6443 -0.5470
16737SOL    HW251653   0.559   0.182  10.192 -0.1432  0.1945  0.9731
16738SOL     OW51654   7.208   0.686   4.062 -0.0635 -0.1937  0.0096
16738SOL    HW151655   7.197   0.670   4.156 -0.4909 -2.7260 -0.3941
16738SOL    HW251656   7.120   0.711   4.032  0.0469  0.4985  0.2390
16739SOL     OW51657   4.482   7.143  10.888  0.0938  0.4392  0.0351
16739SOL    HW151658   4.482   7.047  10.895  0.0396  0.5371  1.7507
16739SOL    HW251659   4.420   7.172  10.955 -1.0464  1.6455 -1.4726
16740SOL     OW51660   7.730   4.327   8.133 -0.7509  0.2567  0.0172
16740SOL    HW151661   7.759   4.237   8.147 -1.3784  0.1579  0.7446
16740SOL    HW251662   7.801   4.381   8.167 -0.6748  0.0354  0.2058
16741SOL     OW51663   6.431   6.573   9.701  0.5397 -0.4583 -0.6248
16741SOL    HW151664   6.342   6.559   9.733  0.2731  2.0358 -0.0491
16741SOL    HW251665   6.432   6.536   9.613 -1.1357 -0.3553 -0.7069
16742SOL     OW51666   2.316   5.032   6.462 -0.1149  0.6175  0.0281
16742SOL    HW151667   2.378   5.087   6.510 -0.4837 -0.8334  2.3738
16742SOL    HW251668   2.231   5.074   6.476 -0.5635 -0.9411  2.7613
16743SOL     OW51669   2.042   5.911   7.868  0.3155 -0.3675 -0.1004
16743SOL    HW151670   2.103   5.861   7.814  0.6719 -2.1324  1.8164
16743SOL    HW251671   2.097   5.954   7.934 -0.2683  0.4051 -0.0906
16744SOL     OW51672   3.635   6.790   2.672 -0.2006  0.3512 -0.1790
16744SOL    HW151673   3.661   6.819   2.585  0.7243 -0.6849 -0.2599
16744SOL    HW251674   3.649   6.866   2.728  0.2215  0.6915 -0.7406
16745SOL     OW51675   4.496   4.435   0.636  0.5601  0.0174 -0.8416
16745SOL    HW151676   4.560   4.498   0.668 -0.0674  0.7916 -1.0764
16745SOL    HW251677   4.461   4.394   0.715  1.2070 -0.2814 -0.7029
16746SOL     OW51678   6.925   3.007   2.905  0.0260  0.0638 -0.4785
16746SOL    HW151679   6.850   3.022   2.847 -0.2341 -2.1182 -0.7860
16746SOL    HW251680   6.916   2.916   2.932  0.8222  0.6683  2.0431
16747SOL     OW51681   6.187   2.572   9.860  0.1754 -0.6643  0.5594
16747SOL    HW151682   6.211   2.484   9.890 -0.7848 -1.6453 -1.3354
16747SOL    HW251683   6.208   2.571   9.766 -1.6510  0.4391  0.0893
16748SOL     OW51684   2.809   0.676   9.715 -0.0870  0.0859 -0.0750
16748SOL    HW151685   2.790   0.615   9.786 -0.9509  0.5908  0.1327
16748SOL    HW251686   2.752   0.751   9.731  1.4280  1.2562  0.0587
16749SOL     OW51687   6.521   7.506   9.262 -0.2511 -0.2677  0.0477
16749SOL    HW151688   6.475   7.577   9.217  1.4696  1.6444  1.1037
16749SOL    HW251689   6.477   7.427   9.234 -1.8050  1.1531 -1.7930
16750SOL     OW51690   4.418   0.307   9.272 -0.2110 -0.5207 -0.0234
16750SOL    HW151691   4.439   0.380   9.215 -0.0381 -1.0961 -0.7191
16750SOL    HW251692   4.471   0.234   9.238  1.1779 -0.4795  1.8848
16751SOL     OW51693   6.656   2.623   3.095  0.0967  0.2083 -0.4161
16751SOL    HW151694   6.614   2.586   3.173 -0.5745  0.1552 -0.7965
16751SOL    HW251695   6.688   2.709   3.122  0.9257 -0.2944  0.2449
16752SOL     OW51696   3.968   0.917  10.962 -0.1008 -0.0085 -0.5518
16752SOL    HW151697   3.876   0.935  10.942 -0.0369  0.6788 -0.2547
16752SOL    HW251698   4.003   0.877  10.882 -0.4172  0.5972 -0.9984
16753SOL     OW51699   2.378   7.143   6.221  0.5634 -0.1227 -0.5218
16753SOL    HW151700   2.328   7.076   6.175 -0.8771  2.4224 -2.9972
16753SOL    HW251701   2.469   7.117   6.208  0.1186 -3.1517  1.3286
16754SOL     OW51702   7.654   3.314   6.687 -0.0073 -0.3700 -0.7816
16754SOL    HW151703   7.584   3.378   6.672  1.4979  1.1916 -1.4987
16754SOL    HW251704   7.659   3.306   6.782 -0.6458  0.1068 -0.7004
16755SOL     OW51705   7.797   2.426   1.506 -0.6410  0.0216  0.0196
16755SOL    HW151706   7.830   2.456   1.421 -0.8847 -1.2850 -0.5555
16755SOL    HW251707   7.825   2.335   1.512 -1.1925 -0.0952  1.0582
16756SOL     OW51708   4.390   0.164   7.918 -0.1355 -0.2699  0.3687
16756SOL    HW151709   4.391   0.259   7.927 -0.4986 -0.4482  3.4635
16756SOL    HW251710   4.476   0.136   7.952 -0.0703 -1.0648 -0.4123
16757SOL     OW51711   5.939   6.376   8.113  0.3401 -0.2812  0.0776
16757SOL    HW151712   5.938   6.459   8.160 -1.8504 -0.0137 -0.3190
16757SOL    HW251713   5.903   6.397   8.026  0.7720 -1.4513 -0.4112
16758SOL     OW51714   5.448   0.236   6.571  0.3151 -0.1894 -0.1078
16758SOL    HW151715   5.510   0.308   6.584 -0.2271  0.1800  0.4971
16758SOL    HW251716   5.363   0.275   6.592 -0.3293 -0.2636 -2.3299
16759SOL     OW51717   1.136   0.417   7.288  0.7624 -0.5955 -0.1011
16759SOL    HW151718   1.079   0.342   7.301  0.1099 -0.0517  0.1900
16759SOL    HW251719   1.203   0.408   7.356  0.5276 -0.7648  0.1090
16760SOL     OW51720   1.323   2.111   4.554  0.0975 -0.4557 -0.5893
16760SOL    HW151721   1.347   2.065   4.635 -0.5738  1.5105  0.8014
16760SOL    HW251722   1.229   2.122   4.560  0.3157  1.6477 -0.5320
16761SOL     OW51723   3.508   2.663  11.086 -0.3739 -0.4335 -0.2546
16761SOL    HW151724   3.567   2.738  11.095 -0.3057 -0.4339 -0.6794
16761SOL    HW251725   3.506   2.646  10.992 -0.9915 -0.4813 -0.2355
16762SOL     OW51726   6.943   6.737  10.983  0.1135 -0.5304  0.0009
16762SOL    HW151727   6.879   6.700  10.921  1.4690 -0.2220 -1.6479
16762SOL    HW251728   7.006   6.666  10.998  0.2775 -0.3128  0.3532
16763SOL     OW51729   2.642   4.689   4.714  0.0005 -0.4578  0.2072
16763SOL    HW151730   2.643   4.710   4.808  0.1144  4.5047 -0.6726
16763SOL    HW251731   2.734   4.678   4.691  0.0651 -0.4633  0.4586
16764SOL     OW51732   5.600   3.883  10.876  0.0022  0.2329  0.1800
16764SOL    HW151733   5.554   3.921  10.801  1.1540  1.2639 -0.0352
16764SOL    HW251734   5.586   3.947  10.946  2.7910  1.6901 -0.4467
16765SOL     OW51735   1.136   0.183  10.546  0.2241  0.3347 -0.0480
16765SOL    HW151736   1.190   0.201  10.623 -1.1680  2.7974  0.4569
16765SOL    HW251737   1.074   0.256  10.543 -1.5651 -1.1525 -1.9331
16766SOL     OW51738   3.500   6.613   5.671  0.5272 -0.0172 -0.1251
16766SOL    HW151739   3.540   6.694   5.638 -0.7639  0.8378  0.3189
16766SOL    HW251740   3.407   6.634   5.677 -0.0908 -2.1048 -1.6122
16767SOL     OW51741   5.612   5.434   5.030 -0.0208  0.0825  0.3074
16767SOL    HW151742   5.603   5.371   5.102 -1.3417  1.7542  1.6959
16767SOL    HW251743   5.689   5.486   5.054 -0.3925  0.5671  0.4666
16768SOL     OW51744   5.065   1.634   2.085  0.4507  0.2866  0.4738
16768SOL    HW151745   5.136   1.692   2.113  0.3160  0.4749  0.4308
16768SOL    HW251746   5.090   1.606   1.997 -0.8202  2.5349 -0.7106
16769SOL     OW51747   0.176   4.722   3.982 -0.8885  0.2781 -0.7006
16769SOL    HW151748   0.243   4.713   3.914  0.7041  1.9216  0.5558
16769SOL    HW251749   0.167   4.816   3.994  0.1137  0.1002  2.4439
16770SOL     OW51750   6.191   0.266   9.217  0.1162  0.4671  0.0692
16770SOL    HW151751   6.275   0.299   9.251  0.3315  2.8723 -2.4817
16770SOL    HW251752   6.214   0.217   9.139 -0.6792 -1.5684  1.0479
16771SOL     OW51753   2.090   1.027   8.102 -0.2171  0.0397 -0.3503
16771SOL    HW151754   2.074   1.045   8.010 -1.2434  0.7560 -0.0490
16771SOL    HW251755   2.123   1.110   8.137  0.1844 -0.2314 -0.0662
16772SOL     OW51756   7.067   0.588   5.917  0.7331 -0.6183  0.1125
16772SOL    HW151757   6.983   0.631   5.900  0.8318  0.2699  1.7206
16772SOL    HW251758   7.043   0.497   5.938  0.2001 -0.4511  0.2444
16773SOL     OW51759   7.420   7.820   9.563 -0.0099  0.5097  0.1843
16773SOL    HW151760   7.362   7.852   9.632  1.4091  1.8041  0.8364
16773SOL    HW251761   7.508   7.835   9.596  0.7441 -1.5628 -0.7101
16774SOL     OW51762   5.396   3.629   1.670  0.0123 -0.2690 -0.0748
16774SOL    HW151763   5.427   3.649   1.582  0.7585 -0.5556  0.1174
16774SOL    HW251764   5.382   3.714   1.711 -0.3463 -0.1343 -0.4667
16775SOL     OW51765   2.756   5.963   5.826 -0.1884 -0.1266  0.4915
16775SOL    HW151766   2.781   6.014   5.903 -1.9683  0.9335  0.4369
16775SOL    HW251767   2.683   5.909   5.857  0.0945 -0.8469 -0.0817
16776SOL     OW51768   4.341   1.346   7.113 -0.5366  0.5390 -0.1141
16776SOL    HW151769   4.301   1.400   7.045 -2.4640 -2.0417 -1.1978
16776SOL    HW251770   4.394   1.282   7.064  1.0332  0.8600  1.0764
16777SOL     OW51771   5.465   2.970   4.250 -0.0858  0.3544  0.0544
16777SOL    HW151772   5.514   3.052   4.247  1.2490 -0.4501 -0.9706
16777SOL    HW251773   5.431   2.960   4.161 -1.2358  0.3580  0.4763
16778SOL     OW51774   7.761   1.146   8.005  0.3917 -0.1614 -0.1922
16778SOL    HW151775   7.693   1.104   7.953  1.0774 -1.1772 -0.3001
16778SOL    HW251776   7.832   1.162   7.944  0.8422 -0.5221  0.2207
16779SOL     OW51777   4.897   1.028   4.470  0.3398 -1.0354 -0.7371
16779SOL    HW151778   4.956   1.104   4.474 -1.6603  0.5405  1.4268
16779SOL    HW251779   4.904   0.988   4.557 -2.6418  0.0240  0.1304
16780SOL     OW51780   3.361   5.997   3.850  0.6026  0.1162 -0.1551
16780SOL    HW151781   3.274   6.037   3.842  0.8203  0.7727  0.6325
16780SOL    HW251782   3.418   6.055   3.800  1.2182  1.8366  2.3311
16781SOL     OW51783   6.809   4.658   3.938  0.0419  0.0651  0.7494
16781SOL    HW151784   6.722   4.671   3.901  1.0655  0.5891 -1.6761
16781SOL    HW251785   6.812   4.564   3.958 -0.9075 -0.0674  0.3487
16782SOL     OW51786   6.085   2.894  10.443 -0.4359  0.3683 -0.2735
16782SOL    HW151787   6.144   2.834  10.487  0.5773 -0.2965 -2.4350
16782SOL    HW251788   6.125   2.981  10.457 -0.8341  0.3575  1.1444
16783SOL     OW51789   7.226   0.365   1.298  0.0471 -0.1328  0.2523
16783SOL    HW151790   7.195   0.455   1.302  2.1298  0.6371  0.0031
16783SOL    HW251791   7.153   0.316   1.260 -1.2848  1.3393  0.8196
16784SOL     OW51792   5.426   6.916   5.531  0.3637 -0.0279  0.2698
16784SOL    HW151793   5.458   7.002   5.561  0.6545 -0.8335  2.5062
16784SOL    HW251794   5.468   6.903   5.446 -1.6577  3.0813 -1.3923
16785SOL     OW51795   6.666   1.922   9.064 -0.0729 -0.1892 -0.0374
16785SOL    HW151796   6.728   1.852   9.044 -0.2542  0.0136 -1.4450
16785SOL    HW251797   6.684   1.944   9.155  0.3551 -1.6858  0.2764
16786SOL     OW51798   6.319   7.801  10.249 -0.6642  0.3723  0.1661
16786SOL    HW151799   6.317   7.829  10.158  0.0308  0.6194  0.2147
16786SOL    HW251800   6.245   7.846  10.290 -2.2011 -1.2627 -0.6744
16787SOL     OW51801   6.630   1.268  10.868  1.0699 -0.4690 -0.1874
16787SOL    HW151802   6.606   1.189  10.917  0.8572 -0.4067 -0.1878
16787SOL    HW251803   6.643   1.237  10.778  0.3087 -0.4015 -0.3366
16788SOL     OW51804   5.019   3.440   3.386  0.0155  0.2762 -0.0026
16788SOL    HW151805   4.960   3.393   3.327  1.7701  0.2840 -1.8850
16788SOL    HW251806   5.032   3.525   3.342  2.6693 -0.3389 -0.5549
16789SOL     OW51807   2.608   6.389   2.806 -0.5965  0.1481  0.4273
16789SOL    HW151808   2.623   6.441   2.727  1.9303  0.7246  1.2002
16789SOL    HW251809   2.609   6.454   2.877  1.3228 -0.7512  1.2841
16790SOL     OW51810   4.990   0.592  12.147  0.1619 -0.5896 -0.2522
16790SOL    HW151811   5.073   0.636  12.128  0.7427 -1.8528 -0.7126
16790SOL    HW251812   4.949   0.580  12.061 -1.7450  2.2558  0.0903
16791SOL     OW51813   3.480   7.800   7.720  0.6441  0.3547 -0.2728
16791SOL    HW151814   3.494   7.844   7.804  1.8795 -0.6058  0.0538
16791SOL    HW251815   3.568   7.780   7.689  0.1477 -2.2185 -0.2205
16792SOL     OW51816   6.961   2.598   3.288 -0.1456 -0.0218  0.1745
16792SOL    HW151817   6.945   2.566   3.199  0.2885 -0.6937  0.3332
16792SOL    HW251818   6.992   2.688   3.275 -3.2085  1.1116 -0.1786
16793SOL     OW51819   2.865   1.171   5.920 -0.2936 -0.6316  0.0589
16793SOL    HW151820   2.822   1.165   6.005  1.4917 -2.2092  0.9098
16793SOL    HW251821   2.941   1.227   5.935  0.9269 -2.2017 -0.0603
16794SOL     OW51822   4.941   5.436   8.660 -1.1818  0.1565  0.3002
16794SOL    HW151823   4.860   5.384   8.655 -0.9543 -0.2157  0.5235
16794SOL    HW251824   4.910   5.527   8.657 -1.4678  0.0569 -2.4550
16795SOL     OW51825   2.459   3.303  10.733 -0.4877  0.1283  0.1744
16795SOL    HW151826   2.543   3.329  10.696 -0.3353  1.1921  1.2156
16795SOL    HW251827   2.481   3.263  10.817 -1.0185  0.2615  0.3804
16796SOL     OW51828   0.233   3.861   3.689 -0.1849  0.6927 -0.6744
16796SOL    HW151829   0.235   3.923   3.616  1.0710  0.1200 -1.1424
16796SOL    HW251830   0.281   3.785   3.658 -0.4856  0.0374  0.4055
16797SOL     OW51831   2.513   5.821   7.580 -0.0992 -0.6234  0.3090
16797SOL    HW151832   2.514   5.804   7.486  0.8638  1.6572 -0.1521
16797SOL    HW251833   2.423   5.847   7.600 -0.1281 -0.3739 -0.1381
16798SOL     OW51834   4.193   3.919   7.891 -0.2719  0.5064 -0.7415
16798SOL    HW151835   4.231   3.844   7.937 -0.6415 -2.0973 -4.3167
16798SOL    HW251836   4.112   3.937   7.938  0.6982 -0.1072  1.2795
16799SOL     OW51837   4.385   2.374   6.732 -0.2965  0.2195 -0.4227
16799SOL    HW151838   4.454   2.440   6.724  0.8625 -0.8415  0.3638
16799SOL    HW251839   4.304   2.422   6.719  0.5682  1.5900 -0.9575
16800SOL     OW51840   0.956   6.785   4.971 -0.0075  0.1471 -0.6988
16800SOL    HW151841   0.966   6.872   5.010 -0.5541 -0.1527  0.1459
16800SOL    HW251842   1.045   6.750   4.967  0.0049 -0.0759  0.9444
16801SOL     OW51843   5.294   1.798   2.977 -0.0884 -0.0754 -0.0777
16801SOL    HW151844   5.325   1.811   2.887  0.1464  1.3775  0.1927
16801SOL    HW251845   5.250   1.880   2.999  0.2587 -0.2430  1.2947
16802SOL     OW51846   0.249   4.193  10.127 -0.6492  0.4873  0.0205
16802SOL    HW151847   0.177   4.206  10.065 -0.1154  0.8286 -0.5443
16802SOL    HW251848   0.206   4.174  10.211 -1.5169  3.6965  0.4318
16803SOL     OW51849   1.504   4.095   9.635  0.6786  0.0043 -0.5138
16803SOL    HW151850   1.471   4.184   9.652  0.1596 -0.1958 -0.4725
16803SOL    HW251851   1.598   4.101   9.655  0.2871  0.0322  1.5210
16804SOL     OW51852   6.392   5.004   2.255  0.2159  0.1758  0.0272
16804SOL    HW151853   6.488   5.008   2.261  0.2647  0.8386 -0.8355
16804SOL    HW251854   6.375   4.922   2.209  0.2971 -0.5251  1.2259
16805SOL     OW51855   2.737   6.716   4.757 -0.5568  0.2241  0.0063
16805SOL    HW151856   2.773   6.710   4.669  0.4208  0.1186  0.3948
16805SOL    HW251857   2.724   6.809   4.772  1.5344  0.4791  0.5912
16806SOL     OW51858   4.071   1.398   6.696 -0.3611 -0.6962 -0.0032
16806SOL    HW151859   4.038   1.472   6.645 -3.0051 -2.1548 -0.6169
16806SOL    HW251860   4.043   1.321   6.647 -0.5303 -2.1438  2.2290
16807SOL     OW51861   3.493   4.891   2.892 -0.4042 -0.3158  0.3643
16807SOL    HW151862   3.532   4.979   2.886 -1.0726  0.2005  2.5518
16807SOL    HW251863   3.557   4.834   2.850  1.6558  0.7982  1.7699
16808SOL     OW51864   4.443   0.951   6.548 -0.2211  0.0179 -0.0505
16808SOL    HW151865   4.428   0.872   6.600 -0.0597 -1.1764 -1.7389
16808SOL    HW251866   4.389   0.939   6.470  1.5442  0.4745 -1.4039
16809SOL     OW51867   3.699   0.625   6.819 -0.2882  0.6736  0.6340
16809SOL    HW151868   3.677   0.641   6.727  0.6078  0.3544  0.3464
16809SOL    HW251869   3.783   0.669   6.831 -0.4590  0.8154  1.3378
16810SOL     OW51870   6.837   2.067   4.346 -0.1137  0.0885  0.0581
16810SOL    HW151871   6.835   2.115   4.264 -0.4061 -0.1052 -0.0486
16810SOL    HW251872   6.865   2.132   4.411 -0.5596  0.4184 -0.0749
16811SOL     OW51873   6.270   0.191   7.547  0.2065  0.0345 -0.1808
16811SOL    HW151874   6.262   0.115   7.490  1.4749 -0.3464  0.1117
16811SOL    HW251875   6.361   0.190   7.576 -0.4796 -0.0866  2.2363
16812SOL     OW51876   2.342   4.418   3.504  0.2468  0.1034 -0.6512
16812SOL    HW151877   2.282   4.449   3.435 -0.9060 -0.2707  0.1572
16812SOL    HW251878   2.398   4.494   3.523 -1.4211  1.2069  0.1189
16813SOL     OW51879   3.434   4.135   3.422 -0.0156  0.2816  0.0306
16813SOL    HW151880   3.446   4.197   3.495  0.2315  1.2283 -0.7970
16813SOL    HW251881   3.428   4.049   3.465  1.8105  0.6131  1.0758
16814SOL     OW51882   0.068   5.967   8.460  0.4962 -0.2723  0.2285
16814SOL    HW151883   0.143   5.919   8.494 -0.1458 -0.9927  0.6595
16814SOL    HW251884   0.099   6.057   8.452  1.3512 -0.5265  0.5577
16815SOL     OW51885   7.634   5.491   1.480 -0.0347  0.6434  0.3821
16815SOL    HW151886   7.545   5.526   1.467 -0.3253 -0.0764  0.3867
16815SOL    HW251887   7.690   5.568   1.478 -0.4875  0.9735 -1.1348
16816SOL     OW51888   6.861   4.036   8.114 -0.2050 -0.0783  0.1692
16816SOL    HW151889   6.945   4.043   8.160 -0.2832 -0.9387  0.4533
16816SOL    HW251890   6.805   4.101   8.156  1.0524  2.4015 -1.7265
16817SOL     OW51891   6.866   7.248   3.560 -0.4933  0.3609  0.0056
16817SOL    HW151892   6.891   7.156   3.571  0.6729  0.4293 -1.6651
16817SOL    HW251893   6.900   7.292   3.638 -0.0872 -0.4473  0.2899
16818SOL     OW51894   5.786   4.335   8.748  0.0257  0.2577  0.1569
16818SOL    HW151895   5.799   4.344   8.653 -1.6152  0.2274 -0.0936
16818SOL    HW251896   5.846   4.264   8.773  1.1789  0.8907 -0.6685
16819SOL     OW51897   3.326   4.419   1.500 -0.3596 -0.2922 -0.0739
16819SOL    HW151898   3.320   4.514   1.493  0.2737 -0.2985 -0.8604
16819SOL    HW251899   3.353   4.403   1.591 -3.0628  0.1203  0.8961
16820SOL     OW51900   3.945   6.435   9.545 -0.0831 -0.3907  0.3130
16820SOL    HW151901   3.868   6.414   9.598 -0.7014 -1.5275 -0.9807
16820SOL    HW251902   3.914   6.499   9.482  0.2046 -0.3482  0.2111
16821SOL     OW51903   7.148   1.112   7.951 -0.0225  0.1377  0.2523
16821SOL    HW151904   7.071   1.074   7.910 -1.7315  0.5046  2.9172
16821SOL    HW251905   7.196   1.154   7.879 -2.4422  0.1787 -1.4281
16822SOL     OW51906   2.966   1.614  11.091 -0.2018 -0.2670 -0.1942
16822SOL    HW151907   2.875   1.600  11.064  0.3134 -2.5030 -1.0032
16822SOL    HW251908   2.974   1.567  11.174  0.4835 -1.1543 -0.7391
16823SOL     OW51909   6.803   6.244  10.307 -0.0020 -0.1228  0.6277
16823SOL    HW151910   6.828   6.166  10.357 -0.9492  1.0727  3.1491
16823SOL    HW251911   6.873   6.307  10.324  0.2539 -0.0584 -0.5663
16824SOL     OW51912   7.466   2.109   2.934 -0.0878  0.3932 -0.1368
16824SOL    HW151913   7.424   2.035   2.891 -0.0704  1.1499 -1.5098
16824SOL    HW251914   7.439   2.101   3.026  0.5245 -1.7005 -0.0989
16825SOL     OW51915   3.095   2.415  10.457  0.2766  0.3208 -0.3008
16825SOL    HW151916   3.031   2.344  10.457 -0.9465  1.3550  0.9742
16825SOL    HW251917   3.085   2.457  10.372  0.2145 -0.3546 -0.6268
16826SOL     OW51918   3.283   0.072   8.385  0.1395  0.0969 -0.5083
16826SOL    HW151919   3.276   0.143   8.448 -0.3883 -0.0670 -0.3767
16826SOL    HW251920   3.211   0.087   8.324  0.0247 -0.3264 -0.4791
16827SOL     OW51921   1.508   1.266   0.169  0.4274 -0.4051 -0.5594
16827SOL    HW151922   1.541   1.324   0.237 -0.8552  0.8091 -0.9317
16827SOL    HW251923   1.458   1.199   0.216 -2.3248  1.6531 -0.3262
16828SOL     OW51924   6.386   5.581   8.613 -0.2506 -0.0180 -0.8077
16828SOL    HW151925   6.477   5.553   8.622 -0.2491 -0.5276 -2.1773
16828SOL    HW251926   6.392   5.675   8.593 -0.0670  0.1062 -0.1841
16829SOL     OW51927   1.102   6.712   6.200 -0.1180 -0.2595  0.6631
16829SOL    HW151928   1.050   6.785   6.234  0.4324  0.8039 -0.6767
16829SOL    HW251929   1.191   6.747   6.192  0.1128 -0.9982 -0.2002
16830SOL     OW51930   6.304   2.743   0.748 -1.0577  0.2417 -0.1009
16830SOL    HW151931   6.310   2.800   0.825  0.0118 -0.4563  0.3479
16830SOL    HW251932   6.331   2.657   0.779 -0.0332  0.0669 -1.3800
16831SOL     OW51933   6.002   4.047  11.378 -0.1678 -0.0642  0.5166
16831SOL    HW151934   5.947   4.017  11.307  1.0604 -1.2363  0.0186
16831SOL    HW251935   6.014   3.970  11.434  1.7386 -0.1642  0.0652
16832SOL     OW51936   6.234   1.334  10.806 -0.1719 -0.0919  0.4896
16832SOL    HW151937   6.291   1.334  10.729 -0.1678 -2.7574  0.4163
16832SOL    HW251938   6.266   1.407  10.859  1.9463 -0.1946 -0.5373
16833SOL     OW51939   5.804   0.229   1.168  0.3445  0.0538 -0.2639
16833SOL    HW151940   5.786   0.137   1.190  0.1198 -0.1691 -1.3300
16833SOL    HW251941   5.899   0.237   1.174  0.4065 -0.3722 -0.5903
16834SOL     OW51942   2.072   0.296   8.877  0.1896 -0.3171  0.3349
16834SOL    HW151943   2.119   0.374   8.907  0.1042  0.0689 -0.4752
16834SOL    HW251944   2.030   0.261   8.955  1.0675 -0.1404  0.8963
16835SOL     OW51945   3.691   1.936   0.017  0.0612 -0.2639 -0.6468
16835SOL    HW151946   3.702   1.990   0.096  1.4843  0.8647 -1.5514
16835SOL    HW251947   3.758   1.869   0.024  0.1882 -0.1640 -0.8804
16836SOL     OW51948   7.039   2.919   4.187  0.0792 -0.1133 -0.2855
16836SOL    HW151949   6.989   2.855   4.135 -1.4477  1.0092 -0.2787
16836SOL    HW251950   7.118   2.935   4.135  0.1539 -1.4628 -0.6320
16837SOL     OW51951   2.079   7.179   7.060 -0.5913 -0.1239  0.2381
16837SOL    HW151952   2.057   7.272   7.073  1.7994  0.6164 -0.4244
16837SOL    HW251953   2.001   7.142   7.017 -1.1111  1.9216 -0.7339
16838SOL     OW51954   4.092   1.040   9.547  0.0567  0.5296  0.5198
16838SOL    HW151955   4.037   0.968   9.517 -0.6704  1.0333  0.6192
16838SOL    HW251956   4.032   1.098   9.594  0.2586  2.1055 -1.0705
16839SOL     OW51957   0.441   1.483  10.770 -0.5298  0.1719  0.5965
16839SOL    HW151958   0.471   1.397  10.797 -0.9506 -0.2489 -0.2353
16839SOL    HW251959   0.475   1.543  10.837  0.2142 -0.5631  0.8887
16840SOL     OW51960   2.597   0.283   6.398 -0.0412  0.3443 -0.1289
16840SOL    HW151961   2.525   0.312   6.455 -0.2257 -0.0852 -0.1370
16840SOL    HW251962   2.667   0.260   6.459 -0.0933  0.2761 -0.0942
16841SOL     OW51963   4.882   4.098   2.739 -0.0850  0.6806 -0.1203
16841SOL    HW151964   4.879   4.074   2.647  0.8217  0.8041 -0.1948
16841SOL    HW251965   4.812   4.047   2.780 -0.0583  0.1160 -0.7664
16842SOL     OW51966   4.170   6.991   9.171  0.3869  0.1679 -0.5078
16842SOL    HW151967   4.222   6.915   9.196 -1.5239 -0.9103  0.3886
16842SOL    HW251968   4.232   7.064   9.171  1.5535 -0.7020  2.3653
16843SOL     OW51969   1.695   4.915   4.362  0.0546  0.3273 -0.2425
16843SOL    HW151970   1.702   4.983   4.429 -2.5404 -1.0427  1.6190
16843SOL    HW251971   1.634   4.952   4.297 -0.2488  0.3394  0.0436
16844SOL     OW51972   5.765   6.146   8.156  0.4552 -0.4524 -0.2273
16844SOL    HW151973   5.796   6.236   8.161  0.0476 -0.3173 -0.1409
16844SOL    HW251974   5.833   6.100   8.107  0.3242  0.0531 -0.9050
16845SOL     OW51975   6.507   4.270   9.767 -0.4499 -0.2634  0.2808
16845SOL    HW151976   6.424   4.223   9.757 -0.6195  0.0499  0.2206
16845SOL    HW251977   6.526   4.305   9.680 -0.4849  0.0455  0.3951
16846SOL     OW51978   7.075   1.427   4.009  0.0462  0.5284  0.3085
16846SOL    HW151979   7.003   1.475   3.967 -0.0878 -0.7392 -0.9808
16846SOL    HW251980   7.047   1.418   4.100  0.2225  3.1289  0.6921
16847SOL     OW51981   3.689   7.725   6.132  0.0590  0.0178 -0.3179
16847SOL    HW151982   3.610   7.699   6.179  0.8117 -0.7877  0.5515
16847SOL    HW251983   3.666   7.717   6.039 -0.1135 -2.8379 -0.1225
16848SOL     OW51984   2.847   5.884   6.814 -0.1409  0.0035 -0.4267
16848SOL    HW151985   2.832   5.880   6.720  0.1436  0.0188 -0.4714
16848SOL    HW251986   2.923   5.940   6.825  0.2937 -0.6090 -0.2360
16849SOL     OW51987   0.006   3.552   7.154  0.9104 -0.2919 -0.0447
16849SOL    HW151988  -0.060   3.606   7.197  1.0877 -0.5613  0.5813
16849SOL    HW251989   0.089   3.588   7.184  1.0456 -0.2235 -0.4942
16850SOL     OW51990   7.495   3.357   7.364 -0.0897 -0.0184 -0.3565
16850SOL    HW151991   7.529   3.396   7.445 -3.1358  0.5962  0.7726
16850SOL    HW251992   7.406   3.391   7.356 -1.6107 -3.6652 -1.4199
16851SOL     OW51993   6.933   0.613   1.951 -0.3445 -0.0744 -0.3780
16851SOL    HW151994   6.943   0.678   2.020 -1.7951 -2.3242  2.1751
16851SOL    HW251995   6.843   0.580   1.962  0.0953 -2.0240 -1.9609
16852SOL     OW51996   5.415   3.951   7.339  0.0236  0.2478 -0.3493
16852SOL    HW151997   5.461   3.947   7.423 -0.6839  0.9194  0.0822
16852SOL    HW251998   5.331   3.992   7.360 -0.5989 -0.5559 -1.1983
16853SOL     OW51999   5.029   6.106   6.870  0.0379 -0.1318 -0.5861
16853SOL    HW152000   5.104   6.133   6.818  0.8997  2.4152  1.7201
16853SOL    HW252001   4.959   6.165   6.843  0.3790  0.9322  0.7085
16854SOL     OW52002   7.664   2.206   7.993 -0.1173  0.0151 -0.1671
16854SOL    HW152003   7.747   2.251   8.012 -1.1278  0.8419  2.8717
16854SOL    HW252004   7.618   2.266   7.934  0.6219  0.5249 -0.2475
16855SOL     OW52005   6.139   3.833  11.521 -0.1789  0.3235 -0.0107
16855SOL    HW152006   6.102   3.748  11.497 -0.9988 -0.1459  2.5923
16855SOL    HW252007   6.227   3.813  11.553 -0.2148  0.4921  0.1980
16856SOL     OW52008   2.423   5.898   7.026 -0.2195 -0.2875  0.2661
16856SOL    HW152009   2.391   5.919   6.938 -0.8792 -1.9911  0.0682
16856SOL    HW252010   2.515   5.921   7.023 -0.2055 -0.3982 -0.9135
16857SOL     OW52011   3.814   0.314  10.855  0.0906  0.0428 -0.0555
16857SOL    HW152012   3.725   0.303  10.890  0.7578  1.2831  2.2111
16857SOL    HW252013   3.804   0.377  10.784 -0.4927  3.1141  2.5129
16858SOL     OW52014   0.466   2.147  10.947  0.3477  0.0466 -0.5236
16858SOL    HW152015   0.412   2.191  11.012 -1.5335  1.6985 -3.0171
16858SOL    HW252016   0.410   2.078  10.912  0.9177 -0.1124 -1.1530
16859SOL     OW52017   5.907   1.212   2.001 -0.2590 -0.2214 -0.1065
16859SOL    HW152018   5.951   1.290   2.035 -0.4051  0.2507 -0.9670
16859SOL    HW252019   5.912   1.148   2.072 -1.1213  0.9422  1.0482
16860SOL     OW52020   3.439   3.399  12.179  0.0657 -0.1729 -0.2723
16860SOL    HW152021   3.471   3.391  12.269  0.0593  3.0992  0.1272
16860SOL    HW252022   3.352   3.438  12.188  0.4500  1.0892 -1.6965
16861SOL     OW52023   7.881   1.989   7.041  0.1733  0.2354  0.2865
16861SOL    HW152024   7.833   2.025   7.115  0.1842  0.2536  0.2845
16861SOL    HW252025   7.929   2.063   7.005 -0.8225  0.4946 -0.5202
16862SOL     OW52026   1.260   2.618  10.307  0.1484  0.4992 -0.0642
16862SOL    HW152027   1.236   2.578  10.224  1.3919 -0.4230 -0.0070
16862SOL    HW252028   1.273   2.710  10.287 -1.5798  0.6921 -0.4496
16863SOL     OW52029   5.353   5.500   7.738 -0.1516 -0.0571  0.6055
16863SOL    HW152030   5.270   5.517   7.783 -1.5653  0.5393 -2.0760
16863SOL    HW252031   5.371   5.579   7.688  0.9975 -0.9327 -0.4310
16864SOL     OW52032   4.317   3.502   7.421  0.3319  0.4871  0.6834
16864SOL    HW152033   4.289   3.517   7.331  0.6207  0.7348  0.6328
16864SOL    HW252034   4.354   3.586   7.449  0.2975  0.3956  1.0135
16865SOL     OW52035   1.072   5.196  12.297 -0.1874  0.2350 -0.1637
16865SOL    HW152036   1.050   5.142  12.221  0.3154 -0.7921  0.4037
16865SOL    HW252037   1.167   5.198  12.298 -0.1455 -0.8698  1.1686
16866SOL     OW52038   0.800   4.296   9.043 -0.2789 -0.1140 -0.3475
16866SOL    HW152039   0.830   4.206   9.054 -1.3611 -0.2860  1.6063
16866SOL    HW252040   0.767   4.322   9.130 -0.5124  1.9714 -0.9933
16867SOL     OW52041   4.393   5.521   6.574  0.3384  0.7522  0.0811
16867SOL    HW152042   4.346   5.536   6.492  0.6055  1.0208 -0.0257
16867SOL    HW252043   4.324   5.511   6.640  0.1364  1.7862  0.0401
16868SOL     OW52044   7.240   4.503   2.289  0.4594 -0.0121  0.5994
16868SOL    HW152045   7.299   4.428   2.303 -1.3231 -1.5370  0.3371
16868SOL    HW252046   7.266   4.538   2.204  0.9825 -0.6664  0.4772
16869SOL     OW52047   4.452   6.999   8.359  0.2038  0.6982  0.0583
16869SOL    HW152048   4.433   6.992   8.265  1.2367 -1.9615 -0.0211
16869SOL    HW252049   4.535   7.047   8.363  0.9645 -0.5131 -0.5391
16870SOL     OW52050   3.633   0.660   6.541 -0.4251 -0.3656 -0.2106
16870SOL    HW152051   3.637   0.749   6.506  0.9303 -0.2543  0.1998
16870SOL    HW252052   3.611   0.606   6.465  3.7807 -0.3187 -1.7181
16871SOL     OW52053   4.580   7.397   5.445  0.0429 -0.3602 -0.0444
16871SOL    HW152054   4.578   7.414   5.539  1.0105  0.3086 -0.1321
16871SOL    HW252055   4.552   7.305   5.437 -1.1146 -0.1063  0.7879
16872SOL     OW52056   2.060   6.985   9.444  0.4313 -0.7859 -0.0430
16872SOL    HW152057   1.968   7.009   9.434  0.5566 -0.6328 -0.9472
16872SOL    HW252058   2.106   7.039   9.380  1.1712 -0.7526  0.5001
16873SOL     OW52059   2.379   2.523   8.702 -0.2362  0.1212  0.2946
16873SOL    HW152060   2.382   2.606   8.749  0.0917  0.8830 -1.0261
16873SOL    HW252061   2.444   2.533   8.632  0.7187 -1.7192  0.8536
16874SOL     OW52062   7.862   2.241   0.965  0.3426 -0.5823  0.1240
16874SOL    HW152063   7.896   2.225   0.877  2.4162 -0.7525  0.9040
16874SOL    HW252064   7.855   2.337   0.970  0.0752 -0.5768 -0.2547
16875SOL     OW52065   5.905   5.777   1.401 -0.1924  0.3972 -0.2709
16875SOL    HW152066   5.987   5.822   1.423 -0.6124  0.3518  1.5360
16875SOL    HW252067   5.884   5.726   1.479 -2.7845  1.6269 -0.0610
16876SOL     OW52068   1.616   3.066   2.293 -0.4688  0.1231 -0.0761
16876SOL    HW152069   1.538   3.036   2.340 -0.9103  2.0779  0.5246
16876SOL    HW252070   1.584   3.138   2.239  0.7588  0.2913 -0.5965
16877SOL     OW52071   6.348   7.667   9.108  0.3134 -0.1907 -0.0463
16877SOL    HW152072   6.257   7.639   9.106 -0.0683  1.0091  0.2223
16877SOL    HW252073   6.347   7.753   9.150  1.6920 -0.6214  0.9610
16878SOL     OW52074   6.399   0.445  10.397 -0.0160  0.1240 -0.6783
16878SOL    HW152075   6.440   0.359  10.387  0.0374 -0.0532  0.8769
16878SOL    HW252076   6.472   0.507  10.397 -0.0795  0.2329 -2.1874
16879SOL     OW52077   3.748   1.707  10.973  1.4375 -0.6944  0.0877
16879SOL    HW152078   3.750   1.718  11.068 -1.7584  2.6093 -0.0090
16879SOL    HW252079   3.753   1.612  10.959  0.1473 -1.4233  3.6711
16880SOL     OW52080   2.047   5.759   3.131  0.2151  0.4619 -0.2251
16880SOL    HW152081   1.987   5.712   3.189  0.8661 -1.7246 -1.1934
16880SOL    HW252082   2.008   5.845   3.120 -2.4110 -0.6529 -0.2770
16881SOL     OW52083   7.285   0.526   3.001 -0.4900 -0.1465 -0.5910
16881SOL    HW152084   7.286   0.456   2.935  1.5743  0.4870 -1.3152
16881SOL    HW252085   7.295   0.607   2.951  1.4974  0.3356  0.4422
16882SOL     OW52086   2.767   5.779   3.091 -0.2673  0.3356  0.3176
16882SOL    HW152087   2.787   5.804   3.001 -0.8096  0.9769  0.3648
16882SOL    HW252088   2.703   5.707   3.083 -1.5616  1.4560  0.1705
16883SOL     OW52089   3.198   4.721   5.191 -0.1495 -0.1400 -0.1261
16883SOL    HW152090   3.222   4.659   5.260 -0.7458 -0.9644 -0.6395
16883SOL    HW252091   3.130   4.776   5.230  0.8241  0.6210  0.5374
16884SOL     OW52092   5.297   6.392   5.206 -0.1334  0.3374 -0.4383
16884SOL    HW152093   5.239   6.466   5.222  0.7946  1.0755 -0.4678
16884SOL    HW252094   5.288   6.373   5.113  0.3424  1.0189 -0.6233
16885SOL     OW52095   6.654   6.952   1.699  0.6585 -0.1659 -0.4579
16885SOL    HW152096   6.724   6.900   1.739  0.4128 -0.5579 -0.5346
16885SOL    HW252097   6.642   6.912   1.613  0.9041  0.4149 -0.7683
16886SOL     OW52098   7.411   7.777   3.157 -0.1823  0.0125  0.2862
16886SOL    HW152099   7.488   7.723   3.175 -1.0570 -1.1070  0.8670
16886SOL    HW252100   7.382   7.807   3.244 -0.2778  0.5919  0.0578
16887SOL     OW52101   0.370   3.489   0.172 -0.0914 -0.2140  0.1134
16887SOL    HW152102   0.423   3.416   0.138 -1.4382 -0.5255 -1.4645
16887SOL    HW252103   0.285   3.450   0.190 -0.0715  0.4508  1.8236
16888SOL     OW52104   7.603   5.509   4.582  0.4349  0.5587 -0.0587
16888SOL    HW152105   7.575   5.572   4.515 -0.9273  0.6481  0.5592
16888SOL    HW252106   7.669   5.556   4.633  0.6463  0.8871 -0.6199
16889SOL     OW52107   5.448   6.546  10.250 -0.1588 -0.3426  0.2218
16889SOL    HW152108   5.424   6.624  10.300 -2.5008 -1.0975  0.4043
16889SOL    HW252109   5.537   6.525  10.279  0.3833  2.0089  0.4341
16890SOL     OW52110   6.549   1.381   6.835  0.5676 -0.0208  0.1774
16890SOL    HW152111   6.633   1.386   6.790  1.3953  0.2374  1.6866
16890SOL    HW252112   6.567   1.334   6.916 -0.4567  1.2051  1.1581
16891SOL     OW52113   0.944   4.860   6.282  0.7226 -0.2793 -0.1199
16891SOL    HW152114   0.874   4.902   6.331 -0.1642 -1.3397 -0.4358
16891SOL    HW252115   0.945   4.907   6.198  0.2843 -0.3545 -0.1708
16892SOL     OW52116   3.644   2.164   0.573  0.3507 -0.1661  0.1468
16892SOL    HW152117   3.654   2.102   0.501 -1.0549  0.0202 -0.2240
16892SOL    HW252118   3.573   2.128   0.627  0.9003  0.0676  1.0603
16893SOL     OW52119   0.240   7.265  10.515 -0.1591 -0.0834 -0.5286
16893SOL    HW152120   0.328   7.280  10.482  0.7406 -1.5018  1.1088
16893SOL    HW252121   0.249   7.264  10.610 -2.0741  0.3897 -0.2858
16894SOL     OW52122   5.544   5.980   0.416  1.1006 -0.1803 -0.1295
16894SOL    HW152123   5.466   5.933   0.387  0.8321 -0.4162  0.9615
16894SOL    HW252124   5.616   5.936   0.371  0.7795 -1.1867  0.3236
16895SOL     OW52125   3.164   3.169   4.976 -0.0596  0.5788 -0.4317
16895SOL    HW152126   3.257   3.175   4.956  0.5659 -0.2809  1.9099
16895SOL    HW252127   3.134   3.260   4.980  0.5377  0.8508 -1.6651
16896SOL     OW52128   0.996   6.265   5.086  1.1687  0.3551  0.4411
16896SOL    HW152129   0.990   6.270   5.181  1.2908  0.6165  0.4364
16896SOL    HW252130   1.006   6.172   5.067  0.1877  0.2114  0.6201
16897SOL     OW52131   0.626   1.692   6.460 -0.2012  0.0506  0.1681
16897SOL    HW152132   0.609   1.618   6.518 -0.6740 -1.2258 -1.5312
16897SOL    HW252133   0.718   1.712   6.472  0.1861 -1.4781 -0.0619
16898SOL     OW52134   3.731   7.464  10.287  0.4289  0.1790 -0.2465
16898SOL    HW152135   3.637   7.453  10.303  0.3135  0.4348 -0.7292
16898SOL    HW252136   3.766   7.375  10.295  0.3447  0.2439  1.1160
16899SOL     OW52137   3.699   3.559   0.005 -0.1977  0.1389  0.1428
16899SOL    HW152138   3.669   3.627   0.066  0.2114 -0.2004  0.7277
16899SOL    HW252139   3.618   3.527  -0.036 -0.3284  1.5481 -0.7691
16900SOL     OW52140   4.285   1.596  10.031 -0.1155  0.2407  0.6167
16900SOL    HW152141   4.230   1.660  10.077 -1.7762 -0.1130 -0.7523
16900SOL    HW252142   4.299   1.634   9.945  0.4044 -0.4362  0.3956
16901SOL     OW52143   5.977   7.405   3.490 -0.0869 -0.2682 -0.6533
16901SOL    HW152144   6.033   7.368   3.558 -0.7367 -0.3528 -0.1604
16901SOL    HW252145   5.894   7.424   3.534 -0.1925  0.5918 -1.1932
16902SOL     OW52146   7.805   0.754   1.776  0.5450  0.2966 -0.1251
16902SOL    HW152147   7.858   0.828   1.746  0.1539  0.3532 -0.6970
16902SOL    HW252148   7.732   0.751   1.714  0.5067 -0.5049 -0.0431
16903SOL     OW52149   2.184   6.690   6.522  0.0972 -0.6066 -0.4931
16903SOL    HW152150   2.209   6.779   6.497  1.0729 -0.2959  1.3507
16903SOL    HW252151   2.098   6.676   6.482  0.3086  0.8340 -1.5144
16904SOL     OW52152   5.381   0.005  10.228  0.4064  0.3701  0.1818
16904SOL    HW152153   5.296   0.030  10.190  0.1257  2.1839  1.8536
16904SOL    HW252154   5.444   0.023  10.159 -0.2561  2.0327 -0.0332
16905SOL     OW52155   1.913   1.489   2.515 -0.1394  0.1783  0.4634
16905SOL    HW152156   1.865   1.570   2.499  1.1356  1.1557  1.3933
16905SOL    HW252157   1.898   1.471   2.608  0.9182  0.2586  0.6585
16906SOL     OW52158   6.686   1.858   1.044  0.1772 -0.5101 -0.1895
16906SOL    HW152159   6.746   1.850   1.118 -1.5305  1.1715  1.5172
16906SOL    HW252160   6.720   1.931   0.992 -1.2375  1.7724  1.8369
16907SOL     OW52161   6.385   6.974   9.084  0.1530 -0.1301  0.2873
16907SOL    HW152162   6.472   6.989   9.120  0.4342  1.8339 -1.0679
16907SOL    HW252163   6.400   6.959   8.991 -0.9569  0.1050  0.0612
16908SOL     OW52164   5.581   3.239  11.221  0.3355 -0.2580 -0.4886
16908SOL    HW152165   5.588   3.334  11.209  0.8001 -0.0323  1.2932
16908SOL    HW252166   5.672   3.210  11.229  0.2068 -0.1193  3.5423
16909SOL     OW52167   1.389   5.393   0.316 -0.2824 -0.0949  0.1696
16909SOL    HW152168   1.417   5.405   0.407  1.9284 -1.8227 -0.1868
16909SOL    HW252169   1.471   5.384   0.267 -1.4388  0.0440 -1.8878
16910SOL     OW52170   7.849   3.871   1.615  0.1840 -0.1114 -0.1714
16910SOL    HW152171   7.896   3.838   1.691  0.5742  0.3271 -0.2207
16910SOL    HW252172   7.872   3.964   1.610 -1.8123  0.4822  0.6447
16911SOL     OW52173   4.896   1.163  11.361 -0.2856 -0.6368  0.1680
16911SOL    HW152174   4.810   1.205  11.355 -0.3234 -0.8079 -0.5749
16911SOL    HW252175   4.893   1.115  11.444 -0.5762  0.0754  0.5825
16912SOL     OW52176   5.636   1.333   3.714 -0.3761 -0.2409  0.2197
16912SOL    HW152177   5.705   1.294   3.660  0.6221  0.3536  1.0272
16912SOL    HW252178   5.653   1.300   3.802  0.1640  1.5260  0.8242
16913SOL     OW52179   7.535   0.496   5.113 -0.3498  0.3250  0.2420
16913SOL    HW152180   7.617   0.544   5.099 -1.0339  1.7496  0.9291
16913SOL    HW252181   7.505   0.474   5.025  0.3483  0.5055 -0.0546
16914SOL     OW52182   2.403   4.466   7.826 -0.5214 -0.3555 -0.1505
16914SOL    HW152183   2.394   4.522   7.749  1.0063  0.2615  0.0763
16914SOL    HW252184   2.497   4.447   7.831 -0.2453  1.2446  2.6458
16915SOL     OW52185   5.013   5.556   8.971  0.3710  0.0040  0.2225
16915SOL    HW152186   5.079   5.561   8.902  0.2551  0.5795  0.1460
16915SOL    HW252187   4.999   5.462   8.984  1.6224 -0.1329  0.6563
16916SOL     OW52188   2.170   3.441   5.486 -0.1862  0.2263  0.4027
16916SOL    HW152189   2.251   3.400   5.454 -1.3807 -1.4676 -0.6311
16916SOL    HW252190   2.127   3.474   5.407 -0.5292  1.1196  0.9423
16917SOL     OW52191   0.583   7.483  10.760 -0.0331 -0.5904  0.0985
16917SOL    HW152192   0.662   7.521  10.723 -1.5785  1.2922 -1.4857
16917SOL    HW252193   0.614   7.426  10.830  2.6709  0.5087 -0.1001
16918SOL     OW52194   4.234   0.435   7.950  0.2506  1.0354  0.2853
16918SOL    HW152195   4.144   0.402   7.953  0.2988  0.9829  1.6884
16918SOL    HW252196   4.259   0.445   8.041  0.9664  3.0019 -0.0740
16919SOL     OW52197   6.949   3.648   1.719 -0.2451 -0.0322 -0.2428
16919SOL    HW152198   6.940   3.576   1.781 -1.2957 -0.1159 -0.4751
16919SOL    HW252199   6.923   3.726   1.769 -0.3918 -0.0019 -0.3648
16920SOL     OW52200   3.567   7.610   4.425  0.2570  0.3295 -0.0049
16920SOL    HW152201   3.545   7.518   4.410  1.4709  0.2586 -1.6003
16920SOL    HW252202   3.657   7.619   4.394  0.2401  2.0230  0.3292
16921SOL     OW52203   4.758   0.954   3.990 -0.0114  0.8720  0.0399
16921SOL    HW152204   4.686   0.945   4.051 -1.0131 -0.1511 -1.2415
16921SOL    HW252205   4.733   1.028   3.934 -0.8917 -0.4534 -1.4086
16922SOL     OW52206   2.561   5.804   0.369 -0.1608  0.0412  0.3376
16922SOL    HW152207   2.528   5.719   0.342 -2.8482  0.9734  0.3927
16922SOL    HW252208   2.651   5.787   0.397 -0.4293 -2.6518 -0.1601
16923SOL     OW52209   0.541   7.041   2.865 -0.3286 -0.4091  0.4412
16923SOL    HW152210   0.542   6.995   2.781 -2.4817 -0.1673  0.2293
16923SOL    HW252211   0.569   6.975   2.929 -0.5200 -1.1535 -0.2245
16924SOL     OW52212   7.006   5.973   6.229 -0.0089  0.1206 -0.2734
16924SOL    HW152213   6.949   6.048   6.221  0.2834  0.3545 -0.1794
16924SOL    HW252214   7.003   5.948   6.321  2.0738  1.7711  0.3292
16925SOL     OW52215   6.155   7.887   4.300 -0.5062 -0.7496  0.8513
16925SOL    HW152216   6.182   7.804   4.339  1.3407 -0.3534  0.4649
16925SOL    HW252217   6.073   7.866   4.254 -0.3199 -2.2302  1.1520
16926SOL     OW52218   7.058   1.978   2.627  0.2560 -0.0411 -0.1492
16926SOL    HW152219   7.046   1.921   2.551  0.3505  0.2113 -0.3494
16926SOL    HW252220   6.983   1.957   2.684 -0.8586  1.1019 -1.1335
16927SOL     OW52221   2.101   4.153   6.299  0.1530  0.2859  0.0606
16927SOL    HW152222   2.101   4.058   6.284 -0.0488  0.6118 -2.4445
16927SOL    HW252223   2.008   4.177   6.297  0.2315  0.6076  0.2286
16928SOL     OW52224   4.640   5.838   2.469  0.4895  0.0052  0.8837
16928SOL    HW152225   4.570   5.821   2.406 -0.3108 -0.8078  1.9571
16928SOL    HW252226   4.659   5.931   2.458 -0.8212  0.2642  0.6041
16929SOL     OW52227   6.178   4.680   5.453  0.2073 -0.0459 -0.1102
16929SOL    HW152228   6.256   4.641   5.414  0.6691  1.2208 -0.5261
16929SOL    HW252229   6.210   4.762   5.492 -0.6784 -0.1647  0.8977
16930SOL     OW52230   2.555   1.998   7.082 -0.4407  0.1136  0.2957
16930SOL    HW152231   2.636   2.010   7.032 -0.6017  0.4701  0.1161
16930SOL    HW252232   2.556   1.906   7.107 -0.0121  0.0993  0.2357
16931SOL     OW52233   7.372   3.609   0.044 -0.5661 -0.1582  0.7280
16931SOL    HW152234   7.325   3.625  -0.037  1.1419  0.9420 -0.0966
16931SOL    HW252235   7.325   3.536   0.085 -0.9338 -1.3714 -1.6844
16932SOL     OW52236   3.113   4.354   5.621 -0.1675 -0.3209  0.1220
16932SOL    HW152237   3.037   4.298   5.636  0.2913 -1.0511 -0.2429
16932SOL    HW252238   3.115   4.412   5.697  0.3935 -1.9883  1.4348
16933SOL     OW52239   2.366   0.912   0.249  0.5950 -0.2238 -0.4640
16933SOL    HW152240   2.414   0.990   0.276 -0.2586  0.1102  0.1521
16933SOL    HW252241   2.276   0.943   0.235  0.4053 -0.9558 -0.9570
16934SOL     OW52242   6.577   6.048   1.453  0.8749  0.0594 -0.1366
16934SOL    HW152243   6.587   5.957   1.483  0.1769 -1.0802 -3.0418
16934SOL    HW252244   6.667   6.081   1.447  1.1559 -0.5466  0.5913
16935SOL     OW52245   7.664   5.034   1.934  0.1998 -0.3299  0.1624
16935SOL    HW152246   7.711   5.049   1.852  2.3287  1.4509  1.5794
16935SOL    HW252247   7.601   4.965   1.914 -0.6960  1.2808 -3.4370
16936SOL     OW52248   3.285   4.021  12.118 -0.0792  0.0633  0.3219
16936SOL    HW152249   3.366   4.065  12.092 -0.2884  0.6836  0.6837
16936SOL    HW252250   3.246   3.992  12.035  0.4881 -0.1964  0.1450
16937SOL     OW52251   0.712   7.778  10.766 -0.0884 -0.2601  0.1685
16937SOL    HW152252   0.705   7.708  10.831 -1.4462 -0.8370 -0.5563
16937SOL    HW252253   0.792   7.758  10.717 -0.2178 -1.0549  0.2678
16938SOL     OW52254   6.810   1.765   6.015  0.4114  0.3016 -0.2276
16938SOL    HW152255   6.809   1.814   6.098  0.5059  2.1447 -1.2765
16938SOL    HW252256   6.802   1.673   6.042  1.0567  0.8005  1.8605
16939SOL     OW52257   3.679   0.270   9.316 -0.1535  0.4091  0.0465
16939SOL    HW152258   3.740   0.229   9.255 -0.0101  1.1011 -0.2905
16939SOL    HW252259   3.735   0.315   9.379 -0.3037 -0.2556  0.6563
16940SOL     OW52260   5.249   0.726  10.622  0.0705 -0.3190  0.5242
16940SOL    HW152261   5.163   0.689  10.643  0.0325 -0.3501  0.3137
16940SOL    HW252262   5.239   0.761  10.533  0.0396  0.4109  0.8050
16941SOL     OW52263   5.152   5.055   4.260  1.1365 -0.0104  0.0143
16941SOL    HW152264   5.226   5.090   4.310 -0.6603 -0.5198  3.3384
16941SOL    HW252265   5.077   5.108   4.289 -0.3967 -1.8532 -0.3917
16942SOL     OW52266   5.438   3.933   2.365  0.8415 -0.0679  0.0891
16942SOL    HW152267   5.350   3.899   2.346 -0.0529  1.9461  0.4119
16942SOL    HW252268   5.461   3.984   2.288  0.2590  2.1621  1.2973
16943SOL     OW52269   7.505   6.374   2.240 -0.7093 -0.4220  0.0701
16943SOL    HW152270   7.531   6.373   2.332 -0.6130 -3.1782  0.0947
16943SOL    HW252271   7.510   6.467   2.214 -0.0099  0.3175  2.5954
16944SOL     OW52272   3.655   3.977   4.211  0.6249  0.0770  0.2656
16944SOL    HW152273   3.676   3.920   4.285  1.7068 -0.9571 -0.7961
16944SOL    HW252274   3.680   3.926   4.133 -1.5850  0.6438 -0.8961
16945SOL     OW52275   6.850   4.207   9.709  0.4264  0.3154  0.3213
16945SOL    HW152276   6.770   4.158   9.693 -0.0840  0.4951  2.1227
16945SOL    HW252277   6.837   4.290   9.663  0.5576 -0.4939 -1.2606
16946SOL     OW52278   2.453   3.639  12.293  0.1486 -0.3314  0.3400
16946SOL    HW152279   2.399   3.640  12.372  0.4057 -0.4463  0.5139
16946SOL    HW252280   2.432   3.722  12.250 -2.7383 -1.7475 -1.3292
16947SOL     OW52281   7.073   6.684   7.032  0.0607  0.2436 -0.1716
16947SOL    HW152282   7.008   6.746   7.063  1.1213  2.4394 -1.9990
16947SOL    HW252283   7.155   6.713   7.071  0.1628 -2.2024  1.7287
16948SOL     OW52284   4.097   0.577  12.027 -0.0723 -0.1640  0.8786
16948SOL    HW152285   4.153   0.514  11.983 -0.0639 -0.6868  1.6024
16948SOL    HW252286   4.096   0.654  11.970 -2.7118 -1.9444 -1.7521
16949SOL     OW52287   7.694   7.086  11.027  0.1884  0.5655  0.0286
16949SOL    HW152288   7.694   7.024  11.101  0.1895  1.9200  1.2035
16949SOL    HW252289   7.733   7.166  11.062  2.9247  0.3873 -2.2410
16950SOL     OW52290   5.193   6.514   3.694 -0.0939 -0.0653  0.2460
16950SOL    HW152291   5.159   6.484   3.609  0.8739  0.3216 -0.2898
16950SOL    HW252292   5.192   6.436   3.749 -1.5034 -0.1543  0.1488
16951SOL     OW52293   1.901   7.918   4.585  0.3968  0.4378  0.2049
16951SOL    HW152294   1.871   8.005   4.560 -1.0190  0.5423  2.0382
16951SOL    HW252295   1.978   7.933   4.639  1.4809  0.3884 -1.2704
16952SOL     OW52296   3.489   1.643   4.643 -0.5988 -0.1296  0.4724
16952SOL    HW152297   3.579   1.618   4.624  0.4581  3.1348  0.4981
16952SOL    HW252298   3.482   1.637   4.738 -0.1575  0.2729  0.5344
16953SOL     OW52299   3.194   3.691   7.554  0.2721  0.3787  0.4301
16953SOL    HW152300   3.176   3.732   7.638 -1.2771  0.0733  0.2778
16953SOL    HW252301   3.202   3.597   7.573  1.6886  0.4874  0.4708
16954SOL     OW52302   6.430   7.591  10.368 -0.0730 -0.3337 -0.2618
16954SOL    HW152303   6.481   7.572  10.289  0.5006 -0.1504  0.0603
16954SOL    HW252304   6.381   7.670  10.346 -0.6090 -0.7914 -0.7485
16955SOL     OW52305   6.616   5.848   7.830 -0.2244 -0.6865 -0.1966
16955SOL    HW152306   6.651   5.875   7.915 -0.2757  2.6607 -1.0855
16955SOL    HW252307   6.543   5.790   7.851 -0.6008  0.4910  2.0860
16956SOL     OW52308   0.215   3.790   5.205  0.0825 -0.1439  0.2441
16956SOL    HW152309   0.239   3.825   5.291 -1.0353 -0.5592  0.7561
16956SOL    HW252310   0.183   3.701   5.224 -2.1094  0.4636 -0.2853
16957SOL     OW52311   7.558   1.941   3.631  0.1189  0.0595 -0.2204
16957SOL    HW152312   7.534   1.848   3.632  1.4943 -0.3230  1.7130
16957SOL    HW252313   7.477   1.986   3.610 -0.5789 -1.5570 -1.2378
16958SOL     OW52314   0.176   3.300   4.030 -0.1170 -0.6711  0.2707
16958SOL    HW152315   0.155   3.206   4.034  0.7297 -0.8386  1.5763
16958SOL    HW252316   0.092   3.344   4.024 -0.6580 -1.4492  1.7440
16959SOL     OW52317   7.069   5.584   4.852  0.3196 -0.7031 -0.1757
16959SOL    HW152318   6.982   5.606   4.818  0.4244  0.3674  0.2113
16959SOL    HW252319   7.081   5.643   4.926  1.3042 -0.9689 -0.1127
16960SOL     OW52320   1.612   2.548   1.560  0.1693  0.2247  0.1435
16960SOL    HW152321   1.568   2.559   1.476  0.2810  0.8792  0.1604
16960SOL    HW252322   1.705   2.554   1.539  0.1774  1.4147  0.4308
16961SOL     OW52323   7.522   6.424   8.089 -0.0693  0.0773 -0.4750
16961SOL    HW152324   7.606   6.416   8.135 -1.1658  0.9741  1.8472
16961SOL    HW252325   7.501   6.334   8.063  0.7119 -0.4388  0.6003
16962SOL     OW52326   2.160   1.745   8.929 -0.1704  0.4233  0.4444
16962SOL    HW152327   2.243   1.774   8.892  0.2601  1.6985  2.2719
16962SOL    HW252328   2.181   1.662   8.972 -0.0323  0.3491  0.2370
16963SOL     OW52329   0.648   2.420   4.671 -0.0819  0.1601 -0.9440
16963SOL    HW152330   0.573   2.373   4.708 -0.7426  0.0249 -2.4083
16963SOL    HW252331   0.614   2.506   4.648  0.9450  1.1476  1.0183
16964SOL     OW52332   0.528   6.437   8.403  0.3265 -0.0873 -0.0053
16964SOL    HW152333   0.623   6.427   8.393  0.3754 -0.1775  0.5171
16964SOL    HW252334   0.494   6.347   8.400  0.4839 -0.2551  1.9291
16965SOL     OW52335   6.561   1.880   9.776  0.0205  0.0357 -0.0247
16965SOL    HW152336   6.646   1.881   9.821 -0.3637 -0.7030  0.7435
16965SOL    HW252337   6.500   1.847   9.841 -0.6968 -0.3026 -0.8507
16966SOL     OW52338   1.816   4.992   3.810  0.0196 -0.3021 -0.5145
16966SOL    HW152339   1.804   5.075   3.856  0.8168 -0.2167 -0.4570
16966SOL    HW252340   1.752   4.933   3.851 -4.3893  1.5282 -3.8889
16967SOL     OW52341   1.192   2.242   9.840  0.2534 -0.7158  0.1233
16967SOL    HW152342   1.209   2.255   9.747  0.2073 -2.2025 -0.1135
16967SOL    HW252343   1.279   2.230   9.878  0.3630  0.9474  0.4805
16968SOL     OW52344   4.911   4.785  10.495 -0.5481  0.4236  0.9920
16968SOL    HW152345   4.883   4.836  10.419 -0.8258  1.0709  1.5183
16968SOL    HW252346   5.005   4.772  10.481 -0.2135  2.1506  1.4357
16969SOL     OW52347   4.940   1.113   7.433 -0.5042 -0.6125 -0.4346
16969SOL    HW152348   4.959   1.028   7.473  0.0136 -0.5442 -0.5379
16969SOL    HW252349   4.844   1.116   7.429 -0.5197 -1.4575 -0.9992
16970SOL     OW52350   1.868   0.651   7.756  0.1988 -0.2847 -1.1212
16970SOL    HW152351   1.911   0.648   7.671  0.6802 -0.1729 -0.8857
16970SOL    HW252352   1.775   0.642   7.737  0.2681  0.2172 -1.6940
16971SOL     OW52353   5.380   2.015   6.340  0.0233  0.2377  0.2216
16971SOL    HW152354   5.313   2.051   6.282  0.4331  1.3936  0.4384
16971SOL    HW252355   5.452   2.078   6.336  0.5001 -0.2225  1.1435
16972SOL     OW52356   5.485   5.665   9.895 -0.4531  0.1243  0.1164
16972SOL    HW152357   5.431   5.587   9.908  0.3391 -0.4686 -0.1141
16972SOL    HW252358   5.561   5.651   9.951 -0.5154  0.9456  0.4189
16973SOL     OW52359   6.785   6.010   6.688  0.2927  0.8246 -0.1939
16973SOL    HW152360   6.756   5.919   6.682  1.8007 -0.0439  3.1438
16973SOL    HW252361   6.862   6.014   6.631 -0.0412  0.1256 -0.7122
16974SOL     OW52362   4.000   7.187   1.189  0.0174  0.0474  0.2358
16974SOL    HW152363   3.969   7.150   1.107  0.2117  1.7600 -0.6499
16974SOL    HW252364   3.960   7.274   1.194  1.3789  0.6740  1.0800
16975SOL     OW52365   4.483   6.406   3.638 -0.6245  0.1436  0.4846
16975SOL    HW152366   4.523   6.434   3.556 -0.1399 -1.7468  0.0062
16975SOL    HW252367   4.389   6.417   3.625 -0.5329  0.1072 -0.2466
16976SOL     OW52368   3.512   3.568   4.221 -0.0881 -0.2517  0.2822
16976SOL    HW152369   3.430   3.597   4.262  0.5525  0.5020  1.0861
16976SOL    HW252370   3.512   3.473   4.234 -0.6207 -0.2083  0.6849
16977SOL     OW52371   3.504   3.333   3.085  0.3453  0.3445 -0.2573
16977SOL    HW152372   3.523   3.427   3.094  0.0020  0.4788 -0.8674
16977SOL    HW252373   3.482   3.305   3.174 -0.3116  1.0140 -0.1934
16978SOL     OW52374   2.100   2.370   8.198 -0.2084  0.1110 -0.5465
16978SOL    HW152375   2.024   2.398   8.147  0.6558 -1.2901 -2.7166
16978SOL    HW252376   2.131   2.291   8.154  1.8541  0.0132  0.9480
16979SOL     OW52377   5.480   4.812   3.122 -0.1956 -0.6336 -0.1595
16979SOL    HW152378   5.567   4.840   3.093  0.1545 -2.2328 -0.7727
16979SOL    HW252379   5.462   4.867   3.198  0.3717  1.2643 -1.3276
16980SOL     OW52380   6.766   3.650  11.168 -0.1668  0.3077 -0.4331
16980SOL    HW152381   6.735   3.560  11.179  0.3189  0.1895 -0.0263
16980SOL    HW252382   6.815   3.649  11.086 -1.0938  0.4601 -1.0028
16981SOL     OW52383   4.858   1.221   6.405  0.0885  0.0208 -0.0220
16981SOL    HW152384   4.921   1.217   6.333 -0.9929  1.0933 -1.0752
16981SOL    HW252385   4.773   1.212   6.362 -0.5883  0.8599  1.1129
16982SOL     OW52386   0.682   1.049  11.952 -0.0491 -0.6781 -0.1351
16982SOL    HW152387   0.665   1.047  11.857 -1.8760  2.8875 -0.0606
16982SOL    HW252388   0.770   1.087  11.959  0.6374 -2.1418 -0.3292
16983SOL     OW52389   0.390   1.548  11.831  0.2449 -0.6519  1.0214
16983SOL    HW152390   0.296   1.565  11.830  0.3908  0.9307 -2.6956
16983SOL    HW252391   0.400   1.464  11.785  0.6680 -0.2191  0.2964
16984SOL     OW52392   0.840   7.101  10.107 -0.4458 -0.0198  0.2211
16984SOL    HW152393   0.781   7.174  10.128 -1.1738 -0.8498  1.2000
16984SOL    HW252394   0.885   7.083  10.190  0.6069  0.0690 -0.3146
16985SOL     OW52395   6.289   4.041   9.810 -0.0908  0.4706  0.1093
16985SOL    HW152396   6.298   3.982   9.884 -0.1320 -0.1644 -0.3799
16985SOL    HW252397   6.251   3.987   9.740 -0.9174  1.2881 -0.0947
16986SOL     OW52398   0.309   1.076   9.108 -0.2182 -0.4451 -0.1916
16986SOL    HW152399   0.355   1.038   9.182  1.1921 -0.6127 -1.1324
16986SOL    HW252400   0.326   1.170   9.115  1.3555 -0.6297 -1.2368
16987SOL     OW52401   4.835   5.122   7.376 -0.5715 -0.0810  0.0254
16987SOL    HW152402   4.842   5.159   7.288 -2.1337  2.1882  0.7732
16987SOL    HW252403   4.880   5.038   7.370 -1.9626 -0.7438 -3.3536
16988SOL     OW52404   4.928   5.948  10.191 -0.1975 -0.1620 -0.5131
16988SOL    HW152405   4.889   6.022  10.144 -0.0536 -1.5335 -3.0059
16988SOL    HW252406   4.854   5.895  10.220 -0.2828 -0.1087 -0.6330
16989SOL     OW52407   7.286   2.635   8.268  0.2958 -0.2901  0.1204
16989SOL    HW152408   7.321   2.723   8.255  1.7373 -0.8590 -0.0500
16989SOL    HW252409   7.342   2.597   8.336 -2.4941  0.0800  2.8459
16990SOL     OW52410   2.362   0.974   1.725 -0.9629 -0.4253 -0.0771
16990SOL    HW152411   2.333   0.947   1.638 -0.1951 -1.1048 -0.1224
16990SOL    HW252412   2.285   1.019   1.762 -0.4414  2.5361 -2.1983
16991SOL     OW52413   1.043   7.172   8.418  0.0859 -0.5215 -0.0471
16991SOL    HW152414   1.018   7.192   8.508 -2.6241  1.7594 -1.1490
16991SOL    HW252415   1.089   7.250   8.387  0.8382 -1.2038 -0.6986
16992SOL     OW52416   0.146   7.658   5.334 -0.7936 -0.4457  0.5431
16992SOL    HW152417   0.151   7.709   5.415 -0.3587 -0.4193  0.4998
16992SOL    HW252418   0.054   7.632   5.328 -1.1997  1.0075  0.1539
16993SOL     OW52419   5.088   6.183   5.273  0.6402 -0.1652  1.0765
16993SOL    HW152420   5.173   6.227   5.266  0.3199  0.4224  0.8169
16993SOL    HW252421   5.110   6.092   5.294  1.3721 -0.2785 -0.0905
16994SOL     OW52422   5.325   7.411   6.009 -0.2930 -0.3638 -0.1769
16994SOL    HW152423   5.409   7.367   6.024 -0.0151  0.5244  1.0227
16994SOL    HW252424   5.349   7.500   5.982 -0.8445 -0.1331  0.0740
16995SOL     OW52425   0.980   5.655   1.343  0.1890  0.1259 -0.3731
16995SOL    HW152426   0.893   5.616   1.338  0.8108 -1.1531 -1.6892
16995SOL    HW252427   0.989   5.681   1.435 -2.0774  1.5516 -0.4735
16996SOL     OW52428   2.620   5.112   9.634  0.4100 -0.3334 -0.2467
16996SOL    HW152429   2.709   5.099   9.665  1.1028  1.5311 -1.2543
16996SOL    HW252430   2.618   5.073   9.547  0.0975 -0.7650 -0.0509
16997SOL     OW52431   4.273   0.393  11.914  0.4422  0.1724 -0.0153
16997SOL    HW152432   4.344   0.443  11.955 -2.2564  3.9310  0.6217
16997SOL    HW252433   4.290   0.400  11.820  0.7757  1.3243  0.1124
16998SOL     OW52434   2.685   7.055  10.882  0.4622 -0.3232 -0.5680
16998SOL    HW152435   2.638   6.980  10.919 -0.6288  0.2334 -0.7647
16998SOL    HW252436   2.701   7.031  10.790 -0.3153 -0.1343 -0.7600
16999SOL     OW52437   2.475   0.800   1.365  0.1798  0.0625 -0.0571
16999SOL    HW152438   2.530   0.878   1.365  0.9214 -0.4439 -0.8850
16999SOL    HW252439   2.523   0.736   1.417 -0.2635  0.0399  0.3317
17000SOL     OW52440   5.672   2.278   3.025 -0.3114 -0.0674  0.2614
17000SOL    HW152441   5.611   2.350   3.009 -0.4224 -0.4781 -1.3969
17000SOL    HW252442   5.751   2.321   3.059  0.6411  1.2801 -3.2027
17001SOL     OW52443   3.443   5.648   8.981  0.1064 -0.5620 -0.1877
17001SOL    HW152444   3.402   5.577   8.931 -2.1388 -0.6210  1.5850
17001SOL    HW252445   3.427   5.625   9.072  0.8478  1.3851  0.4751
17002SOL     OW52446   1.928   4.578  11.711 -0.3968 -0.0950  0.5866
17002SOL    HW152447   1.973   4.509  11.662  0.0514 -0.3669  1.3575
17002SOL    HW252448   1.963   4.659  11.674 -0.2851 -0.2913  0.2515
17003SOL     OW52449   1.617   2.966   7.430 -0.3745  0.1001 -0.4134
17003SOL    HW152450   1.701   2.957   7.476 -0.1790  1.1797 -0.5420
17003SOL    HW252451   1.641   2.994   7.341 -0.7953 -1.1406 -0.9434
17004SOL     OW52452   7.005   6.452   0.115 -0.1625  0.0294 -0.3319
17004SOL    HW152453   6.956   6.522   0.071  1.5149  1.1863 -0.4814
17004SOL    HW252454   6.962   6.442   0.200 -0.2775  1.4753 -0.1884
17005SOL     OW52455   2.213   6.472   8.988 -0.4565 -0.2192  0.4096
17005SOL    HW152456   2.263   6.435   9.061  0.7479  0.2743 -0.1290
17005SOL    HW252457   2.206   6.565   9.009 -1.4426 -0.3290  0.6216
17006SOL     OW52458   0.962   3.171  10.269  0.6284 -0.1346  0.4320
17006SOL    HW152459   0.983   3.264  10.271  0.4110 -0.0955  1.8638
17006SOL    HW252460   0.869   3.166  10.292  1.0255 -0.7687  2.1104
17007SOL     OW52461   2.847   7.037   0.883 -0.1351  0.0872  0.4994
17007SOL    HW152462   2.825   7.125   0.854 -1.0240 -0.0314  0.7864
17007SOL    HW252463   2.850   6.985   0.803  0.9369  0.4770  0.2696
17008SOL     OW52464   2.571   7.372  10.940 -0.1148  0.0640  0.1877
17008SOL    HW152465   2.502   7.305  10.936  0.1528 -0.1939 -0.2348
17008SOL    HW252466   2.524   7.455  10.932 -0.3746 -0.1109 -0.1392
17009SOL     OW52467   6.215   2.753   6.199 -0.0794  0.1121  0.1981
17009SOL    HW152468   6.203   2.702   6.120  0.6774 -0.2367  0.2994
17009SOL    HW252469   6.310   2.759   6.210 -0.1286  1.8667 -0.0218
17010SOL     OW52470   0.158   5.646   6.063 -0.5643  0.0392 -0.4253
17010SOL    HW152471   0.100   5.571   6.052  0.2939 -0.4572 -1.8474
17010SOL    HW252472   0.204   5.629   6.145 -2.0068  0.1791  0.4420
17011SOL     OW52473   6.459   0.896   9.325  0.2816  0.0669 -0.3067
17011SOL    HW152474   6.485   0.875   9.415 -0.0239 -2.0353 -0.6536
17011SOL    HW252475   6.385   0.837   9.307  0.3286  0.4601 -1.9288
17012SOL     OW52476   6.221   5.484   6.236 -0.2128  0.5802  0.1876
17012SOL    HW152477   6.302   5.479   6.287 -0.2414 -0.2207  0.1626
17012SOL    HW252478   6.231   5.562   6.182  0.8914  0.0350 -0.4152
17013SOL     OW52479   5.592   2.592   4.187  0.3921  0.2959  0.2546
17013SOL    HW152480   5.591   2.647   4.108 -0.8785  0.3130  0.2543
17013SOL    HW252481   5.667   2.535   4.176 -0.5885 -0.7331 -1.7149
17014SOL     OW52482   3.269   0.805  10.109  0.2198  0.2294 -0.5315
17014SOL    HW152483   3.298   0.819  10.200 -0.5530 -0.7129 -0.1154
17014SOL    HW252484   3.274   0.710  10.097 -0.2114  0.2972 -1.2846
17015SOL     OW52485   5.058   6.386  11.112  0.5190 -0.1821  0.6716
17015SOL    HW152486   5.009   6.315  11.071  1.2108 -0.2436 -0.0578
17015SOL    HW252487   5.022   6.466  11.073  1.2889 -0.2476 -0.2057
17016SOL     OW52488   6.251   2.317   7.839 -0.0774 -0.0347 -0.5866
17016SOL    HW152489   6.339   2.336   7.807  0.3134 -0.1170  0.3990
17016SOL    HW252490   6.193   2.343   7.768  0.6656  1.2531 -0.7382
17017SOL     OW52491   2.361   1.179   9.802  0.0258  0.0264 -0.6150
17017SOL    HW152492   2.329   1.263   9.835 -0.3928 -0.6652  0.8223
17017SOL    HW252493   2.447   1.169   9.843  0.2381 -0.0790 -1.0827
17018SOL     OW52494   2.247   6.361   0.210 -0.1232  0.2963 -0.0715
17018SOL    HW152495   2.210   6.274   0.199 -0.6612  0.0992  2.5350
17018SOL    HW252496   2.230   6.383   0.302 -1.0136  3.6174 -0.8873
17019SOL     OW52497   1.946   6.000  11.055 -0.2093  0.0901  0.2893
17019SOL    HW152498   1.896   6.040  10.984  0.2899  0.3645  0.0900
17019SOL    HW252499   1.922   6.051  11.133 -0.1203  0.3266  0.1641
17020SOL     OW52500   3.129   5.711   5.433  0.0569 -0.6133 -0.1087
17020SOL    HW152501   3.132   5.756   5.517  0.7613 -0.3883 -0.2518
17020SOL    HW252502   3.061   5.644   5.444  0.0427 -0.4864  0.5833
17021SOL     OW52503   4.354   4.638   3.583 -0.1599 -0.0457  0.1503
17021SOL    HW152504   4.267   4.599   3.585 -0.0944 -0.3862 -1.8827
17021SOL    HW252505   4.410   4.575   3.627 -0.6301 -0.7261 -0.2092
17022SOL     OW52506   4.003   2.964   2.637  0.0937  0.1814 -0.3532
17022SOL    HW152507   4.095   2.950   2.615 -0.2328  0.6311 -2.1943
17022SOL    HW252508   3.995   2.936   2.728  2.1531  0.6482  0.0117
17023SOL     OW52509   3.117   6.230  11.260 -0.3771 -0.1265 -0.4972
17023SOL    HW152510   3.075   6.168  11.320  2.0945  0.0221  1.5478
17023SOL    HW252511   3.157   6.175  11.192  0.5559 -0.7044  0.4914
17024SOL     OW52512   3.113   4.458   3.146  0.3319  0.7624  0.7591
17024SOL    HW152513   3.037   4.403   3.167  1.2849 -0.7784  0.3501
17024SOL    HW252514   3.083   4.513   3.073 -0.0919 -0.5951 -0.1323
17025SOL     OW52515   0.490   0.579  10.147  0.3050  0.4010  0.3266
17025SOL    HW152516   0.511   0.620  10.063  2.8468 -0.5218  0.4036
17025SOL    HW252517   0.561   0.608  10.205 -1.4719  1.1398  2.2362
17026SOL     OW52518   7.831   4.761  12.198 -0.4984 -0.4813  0.0738
17026SOL    HW152519   7.762   4.734  12.259 -0.8350 -0.0501 -0.1162
17026SOL    HW252520   7.912   4.731  12.240 -0.7505 -0.4819  0.5752
17027SOL     OW52521   4.294   4.948   9.822  0.3489 -0.4015 -0.2027
17027SOL    HW152522   4.203   4.935   9.797 -0.5086  1.4111  1.5902
17027SOL    HW252523   4.339   4.868   9.795 -1.5033 -0.8506 -2.2148
17028SOL     OW52524   0.802   4.451   5.518 -0.5044 -0.4732  0.0546
17028SOL    HW152525   0.735   4.443   5.450 -0.5408 -1.6719  0.2068
17028SOL    HW252526   0.848   4.532   5.496 -0.4854 -0.8436 -1.4334
17029SOL     OW52527   5.249   4.369   6.942 -0.3962 -0.0033  0.1959
17029SOL    HW152528   5.220   4.392   6.853 -0.7300  0.8326  0.5157
17029SOL    HW252529   5.264   4.453   6.985  1.9545 -0.3708  0.2451
17030SOL     OW52530   3.118   3.653   8.672  0.1223 -0.9506  0.1677
17030SOL    HW152531   3.197   3.620   8.630  0.1035  0.9102 -1.4491
17030SOL    HW252532   3.056   3.665   8.601 -0.1189  1.7524  0.7283
17031SOL     OW52533   5.111   5.686  12.226  0.1859  0.1888  0.1680
17031SOL    HW152534   5.200   5.680  12.190 -0.0259 -0.4767 -0.2665
17031SOL    HW252535   5.087   5.778  12.214  0.9914  0.4877  0.7330
17032SOL     OW52536   5.691   6.451   6.603 -0.3489  0.5515 -0.4137
17032SOL    HW152537   5.653   6.403   6.529 -1.4175  0.8548 -0.0863
17032SOL    HW252538   5.784   6.458   6.582 -0.5546  0.2295 -1.5059
17033SOL     OW52539   6.115   2.693   8.575  0.9177  0.3463 -0.0738
17033SOL    HW152540   6.202   2.658   8.557 -0.2309 -1.3064 -2.9330
17033SOL    HW252541   6.083   2.641   8.649  1.7588 -0.0724  0.0107
17034SOL     OW52542   1.773   6.667  12.150 -0.5492  0.6122 -0.0030
17034SOL    HW152543   1.814   6.581  12.140 -1.1024  0.1595  1.3261
17034SOL    HW252544   1.820   6.724  12.090 -0.2212 -0.6396 -0.9628
17035SOL     OW52545   6.864   4.532   8.743  0.5501  0.3591  0.0466
17035SOL    HW152546   6.901   4.617   8.766  0.1045  0.5871 -0.0500
17035SOL    HW252547   6.861   4.532   8.648  0.4501  0.2793  0.0498
17036SOL     OW52548   7.125   0.281   9.616  0.0301 -0.4407  0.2691
17036SOL    HW152549   7.217   0.273   9.593  0.0193 -1.7980  0.6372
17036SOL    HW252550   7.085   0.198   9.589 -0.8339 -0.3530  1.2005
17037SOL     OW52551   4.191   5.809   3.372 -0.2033 -0.0384 -0.5506
17037SOL    HW152552   4.241   5.869   3.428 -2.2842  1.9504 -0.7062
17037SOL    HW252553   4.236   5.812   3.288 -0.3862  1.5337 -0.6275
17038SOL     OW52554   4.092   3.532   2.870  0.2063  0.9182 -0.7423
17038SOL    HW152555   4.168   3.531   2.928 -0.3300  1.5303 -0.0028
17038SOL    HW252556   4.065   3.441   2.864  0.6465  0.7707 -0.5426
17039SOL     OW52557   2.684   7.299   0.588  0.0054 -0.3552 -0.0263
17039SOL    HW152558   2.702   7.390   0.611 -0.8948 -0.5918  1.7932
17039SOL    HW252559   2.765   7.253   0.610  0.5184  0.0050 -1.1000
17040SOL     OW52560   1.075   1.282   2.508 -0.2250  0.1513 -0.7288
17040SOL    HW152561   1.012   1.258   2.576  0.6969  1.0859  0.4996
17040SOL    HW252562   1.156   1.299   2.556  0.9636 -0.9680 -2.2607
17041SOL     OW52563   5.121   4.047   5.191  0.5859  0.1238  0.0630
17041SOL    HW152564   5.133   3.955   5.166  0.7252  0.6631 -2.0507
17041SOL    HW252565   5.210   4.081   5.203  0.5392 -0.5172  3.2319
17042SOL     OW52566   2.637   7.714  12.186  0.0604 -0.4152  0.1297
17042SOL    HW152567   2.555   7.724  12.139  0.7204 -0.6389 -1.1102
17042SOL    HW252568   2.611   7.689  12.275 -1.1960 -0.4463 -0.2291
17043SOL     OW52569   0.578   4.060   3.987  0.0187 -0.2014  0.7004
17043SOL    HW152570   0.517   4.129   3.963  0.6017  0.0713 -0.0560
17043SOL    HW252571   0.523   3.986   4.014 -0.6209  0.2103  0.5267
17044SOL     OW52572   3.024   1.910   9.616  0.1458 -0.1368  0.3615
17044SOL    HW152573   3.049   1.954   9.697 -0.7079  0.6776  0.2056
17044SOL    HW252574   2.930   1.893   9.626  0.0161  0.0295 -0.4709
17045SOL     OW52575   4.838   1.006   9.452  0.3882  0.2293 -0.2268
17045SOL    HW152576   4.769   1.071   9.434 -1.0140 -0.9225  0.8027
17045SOL    HW252577   4.894   1.049   9.517  0.8041  1.2515 -1.2115
17046SOL     OW52578   6.150   5.588   0.615  0.1415 -0.0772  0.1547
17046SOL    HW152579   6.238   5.554   0.594  0.0329 -0.9026  0.9384
17046SOL    HW252580   6.149   5.676   0.579  1.2223 -0.1373 -0.0647
17047SOL     OW52581   1.641   6.859  10.245  0.2400 -0.2142 -0.2278
17047SOL    HW152582   1.637   6.904  10.330  1.9289  0.8415 -0.6676
17047SOL    HW252583   1.598   6.919  10.184  2.4835  0.8891 -0.8131
17048SOL     OW52584   0.791   2.820   8.087  0.2531 -0.3462  0.6219
17048SOL    HW152585   0.732   2.778   8.149  1.0658 -2.6694 -0.0528
17048SOL    HW252586   0.804   2.908   8.121  0.5157 -1.4483  3.6381
17049SOL     OW52587   5.577   4.164   9.193  0.1253 -0.2443  0.6284
17049SOL    HW152588   5.633   4.216   9.250 -0.3843  1.2310 -0.1623
17049SOL    HW252589   5.574   4.213   9.111 -0.5814 -1.4067 -0.0672
17050SOL     OW52590   0.695   1.657   1.675  0.0453  0.5245 -0.0217
17050SOL    HW152591   0.616   1.618   1.713  1.3046 -2.2325  0.0074
17050SOL    HW252592   0.763   1.641   1.740  1.0687  0.9363 -0.9605
17051SOL     OW52593   6.105   2.966   2.022 -0.5094 -0.4842  0.3311
17051SOL    HW152594   6.152   2.903   2.077  0.7465  0.1437  0.0205
17051SOL    HW252595   6.105   2.925   1.935  0.5780  0.0434  0.0604
17052SOL     OW52596   1.315   6.150   6.801 -0.3048 -0.3447  0.1997
17052SOL    HW152597   1.303   6.055   6.809 -2.7900  0.0802  4.1831
17052SOL    HW252598   1.407   6.164   6.824  1.1090 -1.8227 -3.6899
17053SOL     OW52599   5.336   5.715  10.320  0.2454  0.2167 -0.3731
17053SOL    HW152600   5.254   5.672  10.343 -0.6809  2.6454  1.2459
17053SOL    HW252601   5.361   5.763  10.398  1.8928  1.5427 -1.6294
17054SOL     OW52602   5.462   5.693   7.184  0.1917 -0.3353  0.1920
17054SOL    HW152603   5.539   5.735   7.144 -0.6021 -0.6471 -1.7613
17054SOL    HW252604   5.424   5.761   7.239  1.3744  0.0947  0.5187
17055SOL     OW52605   2.142   1.928   2.603 -0.2656 -1.0188 -0.3076
17055SOL    HW152606   2.221   1.879   2.581 -0.0100 -0.7527  0.0102
17055SOL    HW252607   2.074   1.861   2.611 -0.6103 -1.0747 -2.8207
17056SOL     OW52608   7.621   0.286  11.979  0.3885 -0.5056 -0.3569
17056SOL    HW152609   7.581   0.356  12.030  0.1644  1.4804 -3.0967
17056SOL    HW252610   7.698   0.326  11.938  0.8830 -2.1629 -1.1454
17057SOL     OW52611   4.951   5.113   6.346  0.2357  0.0462  0.3637
17057SOL    HW152612   4.975   5.184   6.405 -0.8967  1.1157 -0.4270
17057SOL    HW252613   4.978   5.144   6.260 -2.1242  0.4710 -0.2876
17058SOL     OW52614   4.632   5.665   9.370  0.2701  0.2941  0.1168
17058SOL    HW152615   4.660   5.754   9.348  0.7262  0.1144 -0.0448
17058SOL    HW252616   4.686   5.642   9.446 -0.7467  0.6254  0.9544
17059SOL     OW52617   2.544   2.590   8.027 -0.0204 -0.0503 -0.0802
17059SOL    HW152618   2.595   2.654   8.076 -0.7273  0.8817 -0.5136
17059SOL    HW252619   2.498   2.539   8.094 -0.6051  0.8969  0.2665
17060SOL     OW52620   1.382   2.071   4.855  0.4420  0.4933  0.3923
17060SOL    HW152621   1.403   2.140   4.918 -0.6735 -0.8907  2.3585
17060SOL    HW252622   1.462   2.019   4.848  0.3117  0.1307  1.4028
17061SOL     OW52623   4.791   4.640   4.915  0.2207  0.0820 -0.2373
17061SOL    HW152624   4.790   4.706   4.846  0.2674 -1.0473 -1.3611
17061SOL    HW252625   4.853   4.673   4.980  0.0795  1.2268 -0.6739
17062SOL     OW52626   6.156   5.655   9.578 -0.1413  0.9828  0.1351
17062SOL    HW152627   6.169   5.749   9.585  0.7302  0.9969 -1.2814
17062SOL    HW252628   6.219   5.617   9.640  0.6233  1.3077 -0.4211
17063SOL     OW52629   5.487   0.718   9.637  0.9247  0.2157 -0.3031
17063SOL    HW152630   5.402   0.761   9.648  1.2208  0.8863 -0.5867
17063SOL    HW252631   5.469   0.626   9.655  0.6689  0.6890  2.3162
17064SOL     OW52632   2.062   7.261   8.667  0.2725  0.0142 -0.4971
17064SOL    HW152633   2.111   7.283   8.588 -3.0201  1.1414 -2.4134
17064SOL    HW252634   2.038   7.346   8.705  0.8253 -0.5046  1.1119
17065SOL     OW52635   3.117   7.018  11.578  0.4480 -0.7457  0.1355
17065SOL    HW152636   3.179   7.049  11.512 -0.3747  0.8958  0.0918
17065SOL    HW252637   3.036   7.004  11.529 -0.0303  0.0024  0.6930
17066SOL     OW52638   7.108   2.377   0.848 -0.3792  0.1305  1.0202
17066SOL    HW152639   7.062   2.377   0.763  0.3026  1.5840  0.6159
17066SOL    HW252640   7.043   2.343   0.909 -1.6082  0.9590  0.2490
17067SOL     OW52641   2.382   7.078   2.491 -0.0215  0.3650 -0.0049
17067SOL    HW152642   2.339   7.120   2.416  0.0904 -0.7879 -0.7343
17067SOL    HW252643   2.416   6.996   2.456 -0.6717 -0.5752  1.5022
17068SOL     OW52644   5.723   3.093   9.856 -0.0866  0.6362  0.0407
17068SOL    HW152645   5.741   3.089   9.762  0.0823  2.1816 -0.0193
17068SOL    HW252646   5.640   3.047   9.867 -1.4608  2.6565 -1.2754
17069SOL     OW52647   6.978   0.033   8.353 -0.3547  0.3176  0.3361
17069SOL    HW152648   6.905   0.024   8.414 -0.8757 -0.7260 -0.4045
17069SOL    HW252649   6.938   0.057   8.270  0.2597  0.8665  0.1889
17070SOL     OW52650   4.985   6.700  10.979  0.0897  0.3750  0.3572
17070SOL    HW152651   5.021   6.778  10.937 -1.4053  1.0722  0.3047
17070SOL    HW252652   4.913   6.733  11.032  0.3734 -0.8020  1.5278
17071SOL     OW52653   1.445   5.313   1.029  0.0834 -0.3149  0.0902
17071SOL    HW152654   1.401   5.259   0.963 -1.9062  0.4029  0.7573
17071SOL    HW252655   1.489   5.249   1.087  0.9943 -0.9887 -1.2929
17072SOL     OW52656   2.354   6.566   9.617  0.0925 -0.4657  0.3078
17072SOL    HW152657   2.421   6.580   9.684 -0.6815  0.5883  0.8906
17072SOL    HW252658   2.332   6.654   9.586  1.7714 -0.9770 -2.7370
17073SOL     OW52659   6.243   7.165  11.819  0.2713  0.8370 -0.0210
17073SOL    HW152660   6.258   7.256  11.794 -2.0194  1.2350 -0.1830
17073SOL    HW252661   6.249   7.116  11.738  0.2851  1.0173 -0.1293
17074SOL     OW52662   1.398   0.853   9.151 -0.1683  0.3008 -1.0878
17074SOL    HW152663   1.474   0.795   9.155 -0.3790  0.0860  0.6031
17074SOL    HW252664   1.336   0.816   9.213 -1.3631  0.9032 -1.8793
17075SOL     OW52665   2.428   0.668  10.048  0.1368  0.8067  0.2690
17075SOL    HW152666   2.375   0.608  10.101  1.2642  0.6294  1.2441
17075SOL    HW252667   2.513   0.670  10.093  0.5381  2.0907 -0.5183
17076SOL     OW52668   0.959   5.849   3.946  0.4952  0.3224  0.4397
17076SOL    HW152669   0.913   5.916   3.997  0.0762 -0.6452  1.3672
17076SOL    HW252670   0.966   5.774   4.005  3.0572  0.3313  0.2563
17077SOL     OW52671   1.945   6.365   3.552  0.4019 -0.0500 -0.5364
17077SOL    HW152672   1.859   6.380   3.591  0.1376 -0.4266 -0.9489
17077SOL    HW252673   1.967   6.448   3.510  0.2989  0.0883 -0.3211
17078SOL     OW52674   6.947   0.105   2.814  0.2013  0.0556 -0.2770
17078SOL    HW152675   6.952   0.010   2.820 -2.7952 -0.1245  1.5520
17078SOL    HW252676   7.031   0.136   2.848  1.7723 -1.8690 -2.1331
17079SOL     OW52677   5.236   1.547   0.888  0.5956  0.5580 -1.0927
17079SOL    HW152678   5.308   1.490   0.859 -0.7551 -1.7304 -0.1984
17079SOL    HW252679   5.280   1.626   0.920  3.0295 -1.7093  1.7822
17080SOL     OW52680   3.725   1.714   8.300  0.2883 -0.5351 -0.4970
17080SOL    HW152681   3.715   1.619   8.305  0.8644 -0.5732  0.2855
17080SOL    HW252682   3.809   1.727   8.257  0.3359 -0.3922 -0.3640
17081SOL     OW52683   4.210   7.801  12.379 -0.0518  0.0038  0.2072
17081SOL    HW152684   4.235   7.856  12.453  0.9066 -0.5890  0.3491
17081SOL    HW252685   4.265   7.832  12.307  0.7792 -0.9873  0.3853
17082SOL     OW52686   5.983   3.072   5.362 -0.6692  0.2739  0.1746
17082SOL    HW152687   5.968   2.999   5.421 -0.4831  1.0299  1.1832
17082SOL    HW252688   5.994   3.148   5.420  0.6650  0.8388 -0.7716
17083SOL     OW52689   7.923   0.051   6.750  0.0983 -0.0187 -0.0423
17083SOL    HW152690   7.958   0.136   6.777  2.2650 -1.7489  3.3429
17083SOL    HW252691   7.999   0.002   6.720 -1.0768 -0.8946 -1.7594
17084SOL     OW52692   0.301   5.180  10.052 -0.1736  0.1726  0.0653
17084SOL    HW152693   0.353   5.103  10.026 -1.1576 -0.1432 -1.1104
17084SOL    HW252694   0.349   5.218  10.125  0.8462 -1.0219  0.0607
17085SOL     OW52695   3.474   5.649   4.172 -0.5099  0.3055  0.1883
17085SOL    HW152696   3.401   5.604   4.215 -1.1029 -0.1419 -1.2040
17085SOL    HW252697   3.432   5.707   4.108  0.3249  1.1968  0.4259
17086SOL     OW52698   6.576   3.094  10.367  0.2174  0.0200  0.1525
17086SOL    HW152699   6.546   3.003  10.366 -0.2394  0.1562 -1.6998
17086SOL    HW252700   6.625   3.102  10.449  0.1195 -1.8409  0.4369
17087SOL     OW52701   3.707   7.561  12.299 -0.3731  0.2908 -0.2930
17087SOL    HW152702   3.714   7.495  12.230  1.0414  0.7924 -0.6464
17087SOL    HW252703   3.634   7.616  12.271 -1.2838 -0.8374 -0.2190
17088SOL     OW52704   2.432   0.625   6.350 -0.2226  0.8232  0.3763
17088SOL    HW152705   2.505   0.578   6.307 -1.3958 -1.8807  1.1106
17088SOL    HW252706   2.385   0.666   6.277 -1.1053 -2.1198 -0.9026
17089SOL     OW52707   2.408   7.484  10.762  0.0873 -0.0273 -0.4965
17089SOL    HW152708   2.314   7.475  10.778 -0.2889  1.7657 -1.4248
17089SOL    HW252709   2.436   7.396  10.736 -1.3176 -0.6001 -0.1894
17090SOL     OW52710   1.777   6.669   7.081  0.0081 -0.0064 -0.8461
17090SOL    HW152711   1.750   6.629   7.164 -2.1878 -0.8456 -1.9082
17090SOL    HW252712   1.758   6.603   7.015 -0.5134  1.5189 -2.2826
17091SOL     OW52713   0.213   1.268   3.331  0.0991  0.9833  0.5794
17091SOL    HW152714   0.129   1.233   3.361  0.1341 -0.0743 -0.4877
17091SOL    HW252715   0.268   1.267   3.409  0.3218 -2.1081  0.4963
17092SOL     OW52716   0.560   0.148   8.952  0.0761 -0.0212 -0.0655
17092SOL    HW152717   0.508   0.182   8.879  0.6731 -2.3880 -1.7201
17092SOL    HW252718   0.641   0.198   8.949  1.3786 -2.0474 -3.1272
17093SOL     OW52719   0.098   0.505  12.051  0.3955 -0.0811  0.2778
17093SOL    HW152720   0.165   0.532  12.113  0.1536  0.4427  0.3121
17093SOL    HW252721   0.015   0.531  12.091  0.1557 -0.8634  0.3078
17094SOL     OW52722   7.074   3.855   7.679  0.5388 -0.4445  0.2774
17094SOL    HW152723   7.156   3.810   7.658  0.6503  0.5997 -1.8216
17094SOL    HW252724   7.091   3.897   7.763  1.8947 -0.8685  0.2396
17095SOL     OW52725   4.145   2.336   7.016 -0.4898 -0.0204  0.5856
17095SOL    HW152726   4.157   2.329   7.110 -1.2806  1.4177  0.8247
17095SOL    HW252727   4.183   2.256   6.980  0.6230 -0.1819  2.0436
17096SOL     OW52728   5.363   0.496  12.328 -0.4338 -0.0027 -0.5464
17096SOL    HW152729   5.351   0.417  12.381 -1.0580 -0.2217 -1.0116
17096SOL    HW252730   5.374   0.566  12.392 -0.5075 -0.3665 -0.1294
17097SOL     OW52731   6.501   2.552   2.243 -0.3463  0.3315 -0.2044
17097SOL    HW152732   6.555   2.497   2.299 -0.8803 -1.1044 -1.0607
17097SOL    HW252733   6.412   2.544   2.279 -0.5204  0.1949 -0.6584
17098SOL     OW52734   5.535   6.737   2.211 -0.3301  0.0877 -0.0151
17098SOL    HW152735   5.479   6.802   2.168 -0.6802  0.7584  1.4174
17098SOL    HW252736   5.514   6.744   2.304  2.0341  0.2631  0.5708
17099SOL     OW52737   7.345   7.495   7.534 -0.2488  0.3709  0.2968
17099SOL    HW152738   7.293   7.570   7.562 -0.8171  0.3079 -0.5466
17099SOL    HW252739   7.305   7.468   7.451  0.0179 -0.7862  0.5284
17100SOL     OW52740   2.430   3.017   7.530  0.5621  0.1995 -0.0607
17100SOL    HW152741   2.460   2.976   7.611  0.0220 -0.6777 -0.2892
17100SOL    HW252742   2.389   2.946   7.481 -2.3047  1.3687  0.4333
17101SOL     OW52743   5.333   7.250   0.548 -0.9114 -0.2582  0.0760
17101SOL    HW152744   5.333   7.159   0.579  0.6658 -0.2854  0.0940
17101SOL    HW252745   5.277   7.249   0.471 -2.1103 -0.9185  0.9123
17102SOL     OW52746   0.702   3.462   5.067  0.0907  1.1212 -0.3443
17102SOL    HW152747   0.710   3.536   5.127 -2.1911  0.2473  1.1835
17102SOL    HW252748   0.610   3.461   5.042  0.0919 -1.0860 -0.4470
17103SOL     OW52749   4.597   4.784   8.885  0.0640 -0.5472  0.7234
17103SOL    HW152750   4.537   4.719   8.849 -1.9920  1.5421  0.1307
17103SOL    HW252751   4.678   4.736   8.900 -0.7691 -2.8172 -1.3922
17104SOL     OW52752   4.771   1.699   5.569 -0.0133  0.2517 -0.6093
17104SOL    HW152753   4.841   1.730   5.626  0.9493 -1.8080 -0.5774
17104SOL    HW252754   4.816   1.669   5.490 -0.9474 -0.3635 -0.9259
17105SOL     OW52755   7.773   2.218  12.012 -0.3953 -0.5960 -0.1759
17105SOL    HW152756   7.776   2.127  12.041  0.4154 -0.2330  0.9250
17105SOL    HW252757   7.810   2.268  12.084 -0.7922  0.6173 -0.7796
17106SOL     OW52758   7.069   7.196   2.276  0.4218  0.0407  0.5741
17106SOL    HW152759   7.105   7.280   2.305  2.9620 -1.0831  0.9498
17106SOL    HW252760   6.977   7.214   2.258  0.7793  2.7840  1.0820
17107SOL     OW52761   1.250   0.330   7.824 -0.0002  0.2497 -0.1467
17107SOL    HW152762   1.345   0.334   7.835 -0.2116 -1.6613  3.9765
17107SOL    HW252763   1.233   0.242   7.790 -0.3527 -0.4360  1.6992
17108SOL     OW52764   1.530   1.812  10.994 -0.5926  0.3039 -0.0952
17108SOL    HW152765   1.573   1.764  11.065 -1.8450  1.7246  1.7143
17108SOL    HW252766   1.587   1.798  10.918 -0.1384 -2.7850  0.6499
17109SOL     OW52767   7.486   3.500   0.469 -0.6203  0.2328  0.6023
17109SOL    HW152768   7.522   3.487   0.381 -0.2610 -0.1939  0.8049
17109SOL    HW252769   7.391   3.497   0.457 -0.5672 -0.4134  0.3114
17110SOL     OW52770   6.628   1.330  11.958 -0.3738 -0.6162  0.0863
17110SOL    HW152771   6.550   1.375  11.991  1.2360  2.9908 -0.5057
17110SOL    HW252772   6.667   1.289  12.035 -0.8572  0.8906  1.1850
17111SOL     OW52773   7.599   7.517   9.284 -0.6448 -0.1495  0.5017
17111SOL    HW152774   7.574   7.428   9.259 -1.2599 -0.2046  1.2859
17111SOL    HW252775   7.611   7.514   9.379 -2.4807  1.0106  0.8127
17112SOL     OW52776   1.137   3.205   5.573  0.6027  0.5624  0.2299
17112SOL    HW152777   1.152   3.112   5.558 -1.1253  0.1078  1.0823
17112SOL    HW252778   1.079   3.232   5.503  0.7432  0.8966  0.2386
17113SOL     OW52779   7.471   4.444   2.936 -0.2397  0.5524  0.5344
17113SOL    HW152780   7.403   4.406   2.992 -2.0359  1.9180 -0.6037
17113SOL    HW252781   7.496   4.373   2.878  0.3859 -0.3729  1.8651
17114SOL     OW52782   1.329   7.539   2.434 -0.4909 -0.0445 -0.0017
17114SOL    HW152783   1.394   7.608   2.449  0.2963 -0.6674 -0.3960
17114SOL    HW252784   1.255   7.584   2.393  0.6407  0.3542 -1.7439
17115SOL     OW52785   6.720   2.162   8.321  1.1197  0.0387 -0.2158
17115SOL    HW152786   6.755   2.135   8.405  0.7887 -0.8003 -0.3391
17115SOL    HW252787   6.720   2.258   8.325 -0.6842  0.0390  1.5220
17116SOL     OW52788   3.705   0.577   1.018 -0.8527 -0.0626 -1.0309
17116SOL    HW152789   3.627   0.584   0.963 -1.7736 -1.4484  0.0327
17116SOL    HW252790   3.680   0.621   1.099  0.1360  1.0691 -1.3176
17117SOL     OW52791   7.175   6.261   9.415  0.4632  0.0905 -0.0692
17117SOL    HW152792   7.096   6.279   9.466 -0.6233  1.3616 -2.0821
17117SOL    HW252793   7.172   6.167   9.398 -0.0796 -0.0411  0.6972
17118SOL     OW52794   3.376   0.749   2.454  0.3402  0.1852  0.2577
17118SOL    HW152795   3.430   0.796   2.391 -0.9483  1.1015 -0.2101
17118SOL    HW252796   3.388   0.797   2.536  0.8861 -0.1287  0.3650
17119SOL     OW52797   6.981   5.457   0.246  0.1078  0.3835  0.1250
17119SOL    HW152798   7.009   5.379   0.294  0.8628  0.1145 -0.7287
17119SOL    HW252799   7.059   5.513   0.243  0.2212  0.1772 -1.2063
17120SOL     OW52800   5.963   6.893   2.329  0.5216  0.7803  0.4100
17120SOL    HW152801   5.925   6.975   2.361  1.0024  1.2073 -0.0855
17120SOL    HW252802   5.901   6.826   2.355 -0.9775  1.5322 -1.0362
17121SOL     OW52803   2.868   7.279   3.440 -0.0211  0.2206  0.1404
17121SOL    HW152804   2.933   7.211   3.421 -0.8737 -0.7515  0.5369
17121SOL    HW252805   2.795   7.259   3.382 -1.0007 -0.3121  1.4900
17122SOL     OW52806   2.755   4.153  10.499 -0.2402  0.0692  0.3347
17122SOL    HW152807   2.728   4.062  10.512 -2.2546  0.6483  0.4698
17122SOL    HW252808   2.688   4.204  10.543  1.2790  1.6314  0.9311
17123SOL     OW52809   7.581   6.311   5.803 -0.0703  0.1972  0.1419
17123SOL    HW152810   7.500   6.291   5.756 -0.4846 -0.3222  1.0352
17123SOL    HW252811   7.598   6.403   5.784  0.0674 -0.1340 -1.4109
17124SOL     OW52812   2.160   2.934   8.100 -0.0876 -0.2364  0.1803
17124SOL    HW152813   2.098   2.960   8.168  0.5324  1.0908  0.2576
17124SOL    HW252814   2.222   2.877   8.146  0.5043  0.8921  0.8239
17125SOL     OW52815   7.839   7.468   4.428  0.1077  0.7171 -0.2736
17125SOL    HW152816   7.931   7.448   4.411  0.1855 -0.7361  1.5736
17125SOL    HW252817   7.792   7.419   4.361  0.5978 -0.7799  0.4324
17126SOL     OW52818   0.566   2.502   6.914  0.3693  0.3886  0.8887
17126SOL    HW152819   0.527   2.519   6.999 -2.0419 -2.6287  0.5762
17126SOL    HW252820   0.559   2.584   6.867 -1.7382  1.1529  2.3770
17127SOL     OW52821   3.956   2.780   9.425  0.0486 -0.4008  0.5637
17127SOL    HW152822   3.877   2.780   9.370  0.8415  0.5327 -0.6319
17127SOL    HW252823   4.001   2.699   9.401  0.4880  0.0933 -0.3647
17128SOL     OW52824   0.849   6.578   2.571 -1.1441  0.2256  0.0543
17128SOL    HW152825   0.773   6.530   2.605 -2.1710  1.5253 -0.2970
17128SOL    HW252826   0.816   6.666   2.556  0.5699  0.9369  0.2710
17129SOL     OW52827   2.570   0.317   9.947  0.1215 -0.2252 -0.0705
17129SOL    HW152828   2.585   0.222   9.939 -0.9964 -0.3132 -1.4498
17129SOL    HW252829   2.491   0.323  10.002 -0.4725 -0.1662 -0.9040
17130SOL     OW52830   7.498   1.543   7.910 -0.0916  0.3743 -0.2611
17130SOL    HW152831   7.564   1.550   7.841  0.3850  0.3217  0.1897
17130SOL    HW252832   7.533   1.593   7.983  0.3803 -1.2718  0.6806
17131SOL     OW52833   4.667   6.814   1.027  0.3374  0.2378  0.2133
17131SOL    HW152834   4.612   6.891   1.011  0.7336  0.8304  1.5058
17131SOL    HW252835   4.751   6.835   0.985  0.1267  0.0692 -0.2976
17132SOL     OW52836   5.887   0.391   1.859  0.1884  0.3137  0.1115
17132SOL    HW152837   5.844   0.472   1.885  0.8659  1.1151 -1.1499
17132SOL    HW252838   5.898   0.399   1.764  0.8939 -0.9541  0.0621
17133SOL     OW52839   7.671   7.342   1.334  0.2146 -0.3667 -0.0241
17133SOL    HW152840   7.614   7.373   1.404  0.5586  0.0077  0.0922
17133SOL    HW252841   7.645   7.393   1.257  0.6068  0.0314  0.1056
17134SOL     OW52842   5.973   5.066  10.761 -0.8027 -0.2835 -0.3780
17134SOL    HW152843   6.009   4.984  10.795 -3.8638 -1.3154  0.6582
17134SOL    HW252844   5.879   5.060  10.777 -1.6083  2.0349 -3.2678
17135SOL     OW52845   1.328   7.772   8.060  0.2552 -0.0187  0.1200
17135SOL    HW152846   1.395   7.803   8.000  0.2227  0.3139  0.2563
17135SOL    HW252847   1.323   7.678   8.044 -1.1439  0.3273 -1.8088
17136SOL     OW52848   1.376   4.781   5.524  0.0932  0.2906 -0.2686
17136SOL    HW152849   1.291   4.804   5.486  0.3392  1.2087 -0.2719
17136SOL    HW252850   1.421   4.733   5.454 -0.3475 -0.0275 -0.3337
17137SOL     OW52851   1.800   6.625   0.615 -0.3056  0.0361 -0.0358
17137SOL    HW152852   1.759   6.627   0.702 -0.2178 -0.6168  0.0285
17137SOL    HW252853   1.731   6.591   0.557 -0.4001  0.5783 -0.2454
17138SOL     OW52854   0.812   4.652   3.557 -0.4442 -0.6192 -0.5023
17138SOL    HW152855   0.849   4.738   3.579 -0.7547 -0.2345 -1.4374
17138SOL    HW252856   0.756   4.668   3.482  0.4313 -1.8389 -1.4652
17139SOL     OW52857   4.017   6.085   3.178 -0.6526  0.2867  0.2825
17139SOL    HW152858   4.029   6.016   3.113 -0.1739 -1.4294  2.0657
17139SOL    HW252859   4.103   6.093   3.220 -0.7420  1.8912  0.2055
17140SOL     OW52860   0.003   0.103  10.756 -0.3360 -0.0202  0.3094
17140SOL    HW152861   0.060   0.029  10.736 -0.0585  0.2435  0.1328
17140SOL    HW252862   0.041   0.143  10.834  0.2632  0.7179 -0.3460
17141SOL     OW52863   7.456   6.432   8.402 -0.6344  0.0870 -0.2928
17141SOL    HW152864   7.487   6.399   8.318 -0.8478 -0.0154 -0.3320
17141SOL    HW252865   7.529   6.485   8.436  0.7608 -2.4630  0.9574
17142SOL     OW52866   7.023   1.721   0.645  0.2403 -0.0139 -0.4179
17142SOL    HW152867   6.983   1.798   0.605  2.0071  1.1129 -0.1333
17142SOL    HW252868   7.025   1.741   0.738  1.6115  0.0468 -0.4502
17143SOL     OW52869   1.237   5.898   6.827 -0.3976 -0.8180 -0.5299
17143SOL    HW152870   1.148   5.925   6.803 -0.6509 -0.8819  0.3048
17143SOL    HW252871   1.225   5.813   6.869 -0.1137 -0.2029  0.8475
17144SOL     OW52872   6.882   7.698   3.598 -0.1911  0.2625 -0.4757
17144SOL    HW152873   6.951   7.632   3.601 -0.5922 -0.1395  1.0458
17144SOL    HW252874   6.924   7.776   3.562  0.4200 -0.6603 -1.8242
17145SOL     OW52875   4.714   4.098   4.599 -0.8733  0.1714 -0.1450
17145SOL    HW152876   4.722   4.183   4.643 -0.6018  1.6928 -2.9494
17145SOL    HW252877   4.638   4.107   4.541 -0.3792 -1.2327 -1.0714
17146SOL     OW52878   4.513   5.358  11.838 -0.0785 -0.5360  0.2085
17146SOL    HW152879   4.500   5.263  11.846 -0.2231 -0.6577 -1.1903
17146SOL    HW252880   4.479   5.379  11.751  0.7189  0.6653  0.1751
17147SOL     OW52881   1.831   2.873   9.398 -0.3339  0.2106  0.3664
17147SOL    HW152882   1.810   2.954   9.351 -2.0574 -0.6529 -0.4055
17147SOL    HW252883   1.771   2.808   9.363  0.1539 -1.1195  1.8802
17148SOL     OW52884   0.302   0.052   9.805 -0.5311  0.1790  0.5026
17148SOL    HW152885   0.316  -0.029   9.854  1.9733  0.6100  0.6540
17148SOL    HW252886   0.322   0.030   9.715 -0.4065  0.4917  0.4518
17149SOL     OW52887   0.696   6.419   8.751  0.1493  0.1683 -0.4247
17149SOL    HW152888   0.669   6.509   8.767  1.5604  0.4222  0.7056
17149SOL    HW252889   0.783   6.412   8.790  0.1702 -1.6264 -0.6856
17150SOL     OW52890   6.642   7.722  10.540  0.0804  0.0305  0.7156
17150SOL    HW152891   6.549   7.731  10.562  0.1417 -0.5965  1.2724
17150SOL    HW252892   6.687   7.736  10.624  0.4136 -0.8637  0.6943
17151SOL     OW52893   5.269   6.158   2.332 -0.3198  0.3798 -0.2176
17151SOL    HW152894   5.294   6.179   2.242  1.3944 -1.3903 -0.2208
17151SOL    HW252895   5.200   6.092   2.322 -0.7192  0.8047 -0.2412
17152SOL     OW52896   2.581   1.001  11.308  0.4084  0.1478 -0.2938
17152SOL    HW152897   2.573   0.999  11.403 -1.2203  0.2791 -0.4143
17152SOL    HW252898   2.639   0.927  11.288  0.9365  0.2455  0.7971
17153SOL     OW52899   5.566   5.608   5.585 -0.3972 -0.1520  0.0787
17153SOL    HW152900   5.636   5.548   5.612 -1.3327 -0.5391  1.7930
17153SOL    HW252901   5.535   5.646   5.667 -2.4743 -0.3290 -0.5759
17154SOL     OW52902   7.888   1.961   5.772 -0.4391 -0.7530  0.2439
17154SOL    HW152903   7.922   1.998   5.854  1.1827 -0.2655 -0.5996
17154SOL    HW252904   7.958   1.903   5.742 -1.3283 -1.5007 -0.4360
17155SOL     OW52905   3.465   0.518   8.553 -0.3510  0.2189  0.1605
17155SOL    HW152906   3.538   0.457   8.546  0.8579  1.5748  0.5657
17155SOL    HW252907   3.506   0.604   8.560 -1.9453  0.9041  1.8559
17156SOL     OW52908   1.604   1.948   9.984 -0.3123  0.1925 -0.2829
17156SOL    HW152909   1.691   1.983   9.969  0.5946 -1.5003  0.7531
17156SOL    HW252910   1.545   2.019   9.960  1.3233  1.2427 -1.3610
17157SOL     OW52911   5.810   4.892   8.361 -0.5570  0.2300 -0.2343
17157SOL    HW152912   5.826   4.837   8.437 -3.1673 -0.6581 -0.2318
17157SOL    HW252913   5.825   4.834   8.286  2.7167  1.2878 -0.5779
17158SOL     OW52914   7.744   4.765   3.381  0.9265  0.4801  0.1560
17158SOL    HW152915   7.703   4.702   3.440  1.8130 -0.7261 -0.4656
17158SOL    HW252916   7.686   4.767   3.304  0.8008  0.5698  0.2522
17159SOL     OW52917   1.528   7.868  11.347 -0.0359 -0.0174  0.2385
17159SOL    HW152918   1.585   7.882  11.272  0.5031 -1.6785  0.2983
17159SOL    HW252919   1.445   7.839  11.309  0.0718 -0.3536  0.2561
17160SOL     OW52920   0.066   3.629   5.890 -0.7665 -0.4344 -0.2846
17160SOL    HW152921   0.049   3.722   5.905  0.3312 -0.4555  1.3520
17160SOL    HW252922  -0.006   3.600   5.833 -1.8439  1.1062  0.2369
17161SOL     OW52923   1.910   0.928   5.596  0.3239 -0.2640 -0.0135
17161SOL    HW152924   1.842   0.972   5.647 -0.3187  0.2003 -1.2094
17161SOL    HW252925   1.970   0.998   5.570 -0.5188 -0.1066 -1.6451
17162SOL     OW52926   1.668   2.055   4.083 -0.2065  0.8828  0.4086
17162SOL    HW152927   1.749   2.029   4.127 -1.1763 -2.0267  0.7489
17162SOL    HW252928   1.607   2.076   4.154 -1.1647 -1.8577  0.5213
17163SOL     OW52929   1.942   4.385   0.783  0.1315  0.1799 -0.0096
17163SOL    HW152930   1.899   4.449   0.840 -1.8557  0.7874 -2.0224
17163SOL    HW252931   1.873   4.322   0.762  0.4326  0.5651 -2.5130
17164SOL     OW52932   1.293   6.662  11.443 -0.0444  0.3563 -0.4496
17164SOL    HW152933   1.222   6.634  11.500 -0.1344  1.9149  0.2558
17164SOL    HW252934   1.369   6.668  11.500  1.2141 -3.1320 -1.5524
17165SOL     OW52935   6.641   3.614   2.580 -0.3017 -0.1561 -0.5370
17165SOL    HW152936   6.688   3.695   2.560 -0.9799  0.8007  1.5498
17165SOL    HW252937   6.556   3.624   2.536 -0.5221  0.4359  0.0142
17166SOL     OW52938   5.780   2.633   2.240 -0.1444 -0.3097  0.1919
17166SOL    HW152939   5.789   2.633   2.336  1.5989 -1.5472  0.0730
17166SOL    HW252940   5.786   2.725   2.216  3.1409 -0.1795  1.0442
17167SOL     OW52941   1.533   4.133  10.963 -0.3957 -0.1953 -0.0759
17167SOL    HW152942   1.463   4.157  10.903  0.5226  2.2857 -0.2745
17167SOL    HW252943   1.503   4.161  11.049  0.2289  0.6573 -0.1245
17168SOL     OW52944   3.070   0.553   2.387 -0.3258 -0.5229  0.0689
17168SOL    HW152945   3.099   0.513   2.305  0.1089 -0.4720  0.1907
17168SOL    HW252946   2.982   0.520   2.401 -0.1718 -1.0169 -0.1095
17169SOL     OW52947   3.391   4.253  12.341 -0.2482  0.1953 -0.2004
17169SOL    HW152948   3.315   4.290  12.297 -1.1880  1.7636  2.4819
17169SOL    HW252949   3.370   4.161  12.352 -0.2914 -0.0951 -2.2335
17170SOL     OW52950   6.357   2.115   4.530  0.4970  0.2089 -0.0691
17170SOL    HW152951   6.437   2.072   4.500  0.4738  0.7009 -0.8589
17170SOL    HW252952   6.368   2.207   4.506 -0.4313  0.2293 -0.4579
17171SOL     OW52953   6.089   1.230  12.017 -0.5535  0.3659 -0.3262
17171SOL    HW152954   6.153   1.224  11.947  0.2076  0.2499  0.3644
17171SOL    HW252955   6.047   1.315  12.004  1.2126  1.4173  0.4273
17172SOL     OW52956   0.269   4.784   4.419  0.1059  0.2611 -0.6881
17172SOL    HW152957   0.287   4.693   4.443 -3.2456 -0.0856  1.1660
17172SOL    HW252958   0.267   4.831   4.502 -2.0691  1.1523 -1.1734
17173SOL     OW52959   7.611   1.672   6.075 -0.4072 -0.3646 -0.0615
17173SOL    HW152960   7.592   1.581   6.055 -0.4239 -0.4407  0.3144
17173SOL    HW252961   7.704   1.683   6.055  0.0230 -0.9035  1.5326
17174SOL     OW52962   4.664   7.763   3.748  0.2413 -0.3606 -0.4143
17174SOL    HW152963   4.754   7.780   3.776 -0.1043  1.5613 -0.3602
17174SOL    HW252964   4.625   7.716   3.821  1.4268 -2.1281 -0.8301
17175SOL     OW52965   1.139   2.358   4.358 -0.0767 -0.1237 -0.2693
17175SOL    HW152966   1.074   2.424   4.381 -0.2482 -0.0569 -0.9300
17175SOL    HW252967   1.141   2.299   4.434 -1.2062 -0.3614 -0.4059
17176SOL     OW52968   0.819   3.486   0.033  0.0003  0.5475 -0.0669
17176SOL    HW152969   0.809   3.577   0.005 -0.3591  0.0001 -1.8954
17176SOL    HW252970   0.853   3.441  -0.045 -0.8794 -1.0912  0.4477
17177SOL     OW52971   6.963   7.254   6.081  0.2250  0.1446 -0.3206
17177SOL    HW152972   6.884   7.273   6.131 -1.5102 -2.6374 -1.7411
17177SOL    HW252973   7.009   7.188   6.133  0.1805 -0.2276 -0.7440
17178SOL     OW52974   6.650   5.502   0.626 -0.4537 -0.1586 -0.1872
17178SOL    HW152975   6.657   5.552   0.545 -2.1933  0.7360  0.1752
17178SOL    HW252976   6.730   5.449   0.629  0.2338  0.7394 -1.8321
17179SOL     OW52977   7.395   1.649   1.385  0.4270 -0.3295  0.1403
17179SOL    HW152978   7.315   1.596   1.388  1.7946 -2.4838  0.8183
17179SOL    HW252979   7.396   1.695   1.468 -1.3320  1.7623 -0.8904
17180SOL     OW52980   6.825   4.701   0.129  0.1579  0.1858  0.2612
17180SOL    HW152981   6.832   4.709   0.034 -0.2120  1.1064  0.3061
17180SOL    HW252982   6.883   4.769   0.163  0.1125  0.0107  0.6959
17181SOL     OW52983   7.187   2.228   5.605  0.1887  0.8431 -0.0368
17181SOL    HW152984   7.238   2.166   5.554 -1.1661 -0.5585  0.2145
17181SOL    HW252985   7.239   2.244   5.684  0.6584  0.1733 -0.2062
17182SOL     OW52986   0.171   3.020   3.373 -0.2154  0.4827  0.3991
17182SOL    HW152987   0.090   3.033   3.422 -0.5938  0.0519 -0.1051
17182SOL    HW252988   0.210   2.942   3.412 -1.0980 -0.5582 -0.7241
17183SOL     OW52989   4.213   4.742   8.325 -0.0112  0.7407  0.2694
17183SOL    HW152990   4.146   4.784   8.270 -0.4758 -0.5880 -0.2312
17183SOL    HW252991   4.295   4.784   8.300 -0.4565  1.3480 -0.2074
17184SOL     OW52992   0.627   6.236   9.080  0.3988  0.5957 -0.0095
17184SOL    HW152993   0.646   6.232   9.174  0.4598  1.5045  0.0194
17184SOL    HW252994   0.545   6.285   9.075 -0.4342 -0.7588 -0.3345
17185SOL     OW52995   3.845   5.459   4.844  0.0376 -0.0524 -0.5803
17185SOL    HW152996   3.936   5.432   4.829  0.2532  1.1135 -1.5253
17185SOL    HW252997   3.796   5.377   4.853  1.4306 -0.7374  1.7387
17186SOL     OW52998   5.744   3.691   8.456 -0.9327 -0.7524  0.1813
17186SOL    HW152999   5.668   3.747   8.439 -0.1491  0.3068  0.0360
17186SOL    HW253000   5.741   3.674   8.550 -2.3365 -2.2288 -0.0955
17187SOL     OW53001   3.056   5.684   0.819  0.1884 -0.9952  0.3536
17187SOL    HW153002   3.102   5.605   0.790  0.8856 -1.0199  1.4763
17187SOL    HW253003   2.968   5.675   0.782  0.3088 -2.2116  0.3177
17188SOL     OW53004   0.631   5.952   9.852  0.6019  0.4825  0.0470
17188SOL    HW153005   0.662   5.862   9.860  0.9715  0.7479  2.2942
17188SOL    HW253006   0.536   5.947   9.867  0.0293  0.1410 -3.0568
17189SOL     OW53007   7.493   0.036   5.127  0.2044  0.0249 -0.0788
17189SOL    HW153008   7.446  -0.020   5.067  0.8844  0.6922 -1.2712
17189SOL    HW253009   7.449   0.121   5.120  2.0723  0.9212 -1.9187
17190SOL     OW53010   2.768   2.377  10.565  0.6130  0.3910  0.6804
17190SOL    HW153011   2.817   2.315  10.511 -2.2187  0.0442 -1.7309
17190SOL    HW253012   2.828   2.450  10.580  2.6385 -1.0648  0.0632
17191SOL     OW53013   5.218   1.390   5.086 -0.4321  0.0336  0.2180
17191SOL    HW153014   5.141   1.406   5.032 -1.0583 -1.8781  0.4908
17191SOL    HW253015   5.292   1.420   5.032 -1.2930  1.5254 -0.1946
17192SOL     OW53016   5.735   2.338   1.172  0.2307  0.0261  0.1665
17192SOL    HW153017   5.669   2.311   1.236  0.4881 -1.4048 -0.1379
17192SOL    HW253018   5.702   2.421   1.138 -1.0165 -0.2731  0.5868
17193SOL     OW53019   2.679   1.549   3.703 -0.3550 -0.6812 -0.7447
17193SOL    HW153020   2.738   1.490   3.657  0.2023 -0.9656  0.2831
17193SOL    HW253021   2.665   1.508   3.788 -0.7483  0.1826 -0.3684
17194SOL     OW53022   6.934   2.589   2.735 -0.3828 -0.0825 -0.1475
17194SOL    HW153023   6.903   2.604   2.646 -1.3233  0.6693  0.2903
17194SOL    HW253024   6.879   2.518   2.768  0.9999 -1.4451 -0.6647
17195SOL     OW53025   2.504   7.236   9.592 -0.3185 -0.2216  0.2879
17195SOL    HW153026   2.483   7.268   9.680  1.0508  0.1053  0.5271
17195SOL    HW253027   2.510   7.141   9.602  0.1220 -0.1631  0.6331
17196SOL     OW53028   3.528   5.693  11.554  0.0468 -0.1785 -0.0065
17196SOL    HW153029   3.623   5.699  11.559  0.0775 -1.3101  2.3072
17196SOL    HW253030   3.498   5.784  11.551  1.1982  0.1942 -3.3187
17197SOL     OW53031   0.226   6.898   5.666 -0.7739  0.9810  0.0135
17197SOL    HW153032   0.131   6.885   5.677 -0.9896  1.8830 -0.6294
17197SOL    HW253033   0.236   6.927   5.575  0.3241 -0.7504 -0.4538
17198SOL     OW53034   3.772   2.872   8.677 -0.1912 -0.0330 -0.1749
17198SOL    HW153035   3.753   2.829   8.594 -0.6220  0.0522 -0.1242
17198SOL    HW253036   3.723   2.822   8.742 -1.1556  0.8467 -0.1869
17199SOL     OW53037   6.653   4.938   4.330  0.3020 -0.1899  0.1758
17199SOL    HW153038   6.719   4.913   4.265  0.4088  0.4177  0.0525
17199SOL    HW253039   6.571   4.942   4.280 -0.2196 -2.7264  0.6444
17200SOL     OW53040   7.209   4.827  11.775  0.2070  0.1559  0.0345
17200SOL    HW153041   7.252   4.833  11.689 -0.1300 -1.1588 -0.2555
17200SOL    HW253042   7.249   4.897  11.826  0.6299  0.7822 -1.1051
17201SOL     OW53043   1.120   7.726   3.081  0.5220 -0.2325 -0.3184
17201SOL    HW153044   1.195   7.753   3.134  0.7264  0.6627 -1.0277
17201SOL    HW253045   1.103   7.801   3.024  0.4628 -1.2448 -1.6849
17202SOL     OW53046   7.485   3.920   6.043  0.0107 -0.0464 -0.2099
17202SOL    HW153047   7.525   4.006   6.055 -1.3394  0.5135  0.4261
17202SOL    HW253048   7.484   3.881   6.130 -1.6652  0.3554 -0.0131
17203SOL     OW53049   0.436   7.122   3.582  0.1382  0.1491  0.9360
17203SOL    HW153050   0.349   7.143   3.548  0.4680 -0.2789 -0.2375
17203SOL    HW253051   0.419   7.071   3.661 -0.6833  0.1586  0.7755
17204SOL     OW53052   7.757   5.623  11.246  0.0759 -0.0066 -0.0741
17204SOL    HW153053   7.837   5.615  11.193  0.1063  0.1489 -0.0512
17204SOL    HW253054   7.783   5.672  11.323  0.1727 -0.7706  0.3892
17205SOL     OW53055   4.091   0.649   2.781  0.0172  0.1807 -0.2888
17205SOL    HW153056   4.048   0.653   2.866 -0.2677  1.4822 -0.4813
17205SOL    HW253057   4.024   0.615   2.722  0.6239 -2.1095  0.2181
17206SOL     OW53058   7.728   1.293   4.475 -0.3698 -0.1825  0.1599
17206SOL    HW153059   7.808   1.251   4.445  0.2721  0.5860  0.7544
17206SOL    HW253060   7.659   1.255   4.421  0.5569  0.0584 -1.2424
17207SOL     OW53061   1.787   5.556   4.101  0.2002 -0.0992 -0.4384
17207SOL    HW153062   1.694   5.580   4.097  0.3266  0.6234  0.6126
17207SOL    HW253063   1.796   5.486   4.036 -1.4143 -1.3008  0.5457
17208SOL     OW53064   7.111   7.829   4.023  0.9688 -0.6415  0.7474
17208SOL    HW153065   7.204   7.848   4.016  1.0017 -0.6784  1.0768
17208SOL    HW253066   7.101   7.740   3.989  0.7504  0.0866 -1.2401
17209SOL     OW53067   1.968   0.106   7.510 -0.4592 -0.9137  0.3199
17209SOL    HW153068   2.019   0.109   7.430 -1.0415  0.4590 -0.0309
17209SOL    HW253069   1.877   0.096   7.481 -0.7146 -0.0400  0.7634
17210SOL     OW53070   6.996   0.730   3.519  0.4194  0.5437 -0.4409
17210SOL    HW153071   6.935   0.749   3.591 -0.0920 -2.9500  0.2162
17210SOL    HW253072   7.063   0.674   3.558  0.5045 -0.9015 -2.4964
17211SOL     OW53073   4.865   1.968   3.223  0.0325 -0.3423 -0.2650
17211SOL    HW153074   4.952   1.934   3.203  0.2001  0.2740 -0.6328
17211SOL    HW253075   4.877   2.063   3.225 -0.5897 -0.2633 -0.1072
17212SOL     OW53076   6.979   4.292   9.312 -0.5592 -0.3750 -0.7368
17212SOL    HW153077   6.999   4.358   9.378 -3.0035 -0.5286  0.2924
17212SOL    HW253078   6.941   4.341   9.239  1.0082 -0.3293 -1.5550
17213SOL     OW53079   1.093   6.074  10.928 -0.2401 -0.3239 -0.0956
17213SOL    HW153080   1.115   6.103  10.839 -0.1542  1.2597  0.4253
17213SOL    HW253081   1.007   6.111  10.945 -0.5906 -1.2532  0.2267
17214SOL     OW53082   0.244   6.002   7.674 -0.2848  0.3363 -0.2224
17214SOL    HW153083   0.160   6.040   7.650 -0.4199 -0.5114 -1.1508
17214SOL    HW253084   0.222   5.932   7.736 -0.3089 -0.1140 -0.7297
17215SOL     OW53085   1.337   7.809   6.408 -0.0363 -0.5393 -0.1575
17215SOL    HW153086   1.282   7.879   6.444 -0.3495 -0.9018  0.0695
17215SOL    HW253087   1.369   7.762   6.485  0.1974 -0.6333 -0.3094
17216SOL     OW53088   3.469   6.860   9.798  0.0744  0.6393  0.6773
17216SOL    HW153089   3.445   6.902   9.881 -0.5623  0.8446  0.3985
17216SOL    HW253090   3.557   6.826   9.813 -0.3224  0.0109  1.6810
17217SOL     OW53091   5.869   7.456  10.532  0.0146  0.1283  0.2430
17217SOL    HW153092   5.856   7.403  10.453 -0.6679  1.5077 -0.6063
17217SOL    HW253093   5.958   7.490  10.524 -0.1993  0.6086 -0.1700
17218SOL     OW53094   1.442   2.932   4.319  0.5980  0.1973 -0.0479
17218SOL    HW153095   1.424   2.978   4.238 -0.0132  1.1911  0.6298
17218SOL    HW253096   1.402   2.846   4.307 -0.0172  0.5471 -0.5694
17219SOL     OW53097   6.725   6.730  11.964 -0.6917 -0.0083 -0.1275
17219SOL    HW153098   6.758   6.787  12.034  1.0464  0.6483 -1.4227
17219SOL    HW253099   6.662   6.784  11.917  0.2230  0.5471 -0.7499
17220SOL     OW53100   5.283   1.940   6.073 -0.4773 -0.5397  0.3756
17220SOL    HW153101   5.313   2.022   6.034 -2.7718  0.1992  0.0037
17220SOL    HW253102   5.350   1.876   6.048 -0.4747  0.4416 -2.6012
17221SOL     OW53103   1.735   0.495   2.773  0.0498  0.4337 -0.0466
17221SOL    HW153104   1.768   0.506   2.863  0.4421  1.5201 -0.3137
17221SOL    HW253105   1.663   0.432   2.782 -0.1243  0.7692  1.0839
17222SOL     OW53106   7.343   7.880   3.389 -0.5311 -0.3246 -1.0163
17222SOL    HW153107   7.301   7.966   3.387  1.2299  0.6239  0.0432
17222SOL    HW253108   7.391   7.879   3.472 -1.6253 -2.9220 -0.3367
17223SOL     OW53109   7.878   3.524   6.715 -0.1975 -0.1523  0.0072
17223SOL    HW153110   7.950   3.495   6.771 -0.9683  0.9093  1.5866
17223SOL    HW253111   7.909   3.607   6.678  0.8484 -1.4473 -2.2916
17224SOL     OW53112   3.841   1.069  11.704  0.3402 -0.2421 -0.2242
17224SOL    HW153113   3.891   0.988  11.695  1.3647  0.3502 -0.1057
17224SOL    HW253114   3.780   1.052  11.776  0.5178 -0.9146 -0.2262
17225SOL     OW53115   7.159   4.959   9.662 -0.6469  0.2223 -0.6491
17225SOL    HW153116   7.131   5.048   9.641 -1.1304 -0.4199 -2.9232
17225SOL    HW253117   7.078   4.909   9.669 -0.3678 -0.1265  0.4295
17226SOL     OW53118   3.973   7.320   9.300 -0.0769 -0.1320 -0.5178
17226SOL    HW153119   4.005   7.269   9.226  1.8001  1.6780 -1.0258
17226SOL    HW253120   3.956   7.255   9.368  0.8170 -1.5588 -1.5956
17227SOL     OW53121   1.863   4.065   0.662  0.3884 -0.4729 -0.2927
17227SOL    HW153122   1.930   4.121   0.623 -1.0229  0.7758 -1.0442
17227SOL    HW253123   1.866   3.984   0.612  0.5321  0.0280 -1.1095
17228SOL     OW53124   4.287   7.089   6.828  0.5919  0.2832 -0.4210
17228SOL    HW153125   4.275   7.078   6.922  0.8028  0.2183 -0.4014
17228SOL    HW253126   4.329   7.008   6.799 -1.4479 -0.6599 -0.9490
17229SOL     OW53127   0.559   2.083  11.342 -0.4640  0.0498  0.2097
17229SOL    HW153128   0.601   2.153  11.292  0.6063  0.1125  1.1818
17229SOL    HW253129   0.584   2.003  11.296  0.8594  0.0739  0.8597
17230SOL     OW53130   5.102   6.362   1.647 -0.3951 -0.7046  0.3195
17230SOL    HW153131   5.121   6.268   1.643 -0.4677 -0.6807 -1.6460
17230SOL    HW253132   5.036   6.375   1.578  0.3486  0.9458 -0.1070
17231SOL     OW53133   5.628   2.511   4.477  0.1112 -0.0196  0.0461
17231SOL    HW153134   5.588   2.547   4.398 -1.3735 -0.3093  0.6384
17231SOL    HW253135   5.554   2.486   4.533  1.1206 -0.9005  1.0452
17232SOL     OW53136   1.448   1.268   7.229 -0.4139 -0.4554  0.8413
17232SOL    HW153137   1.380   1.271   7.161  0.4249 -0.8342 -0.0295
17232SOL    HW253138   1.452   1.358   7.262 -0.1135 -0.0228 -0.3393
17233SOL     OW53139   3.216   2.331   6.497 -0.5982  0.0819 -0.1548
17233SOL    HW153140   3.206   2.377   6.413 -0.0430 -0.2444 -0.4094
17233SOL    HW253141   3.301   2.360   6.530 -0.7475  0.0899  0.2184
17234SOL     OW53142   5.166   4.002   0.528  0.2969  0.1741 -0.2987
17234SOL    HW153143   5.078   4.027   0.557 -0.1913 -1.7937  0.0805
17234SOL    HW253144   5.208   3.965   0.605  0.9200 -0.2255 -0.8150
17235SOL     OW53145   4.327   7.604   4.167 -0.2956 -0.0870  0.2834
17235SOL    HW153146   4.310   7.548   4.091 -1.5281 -0.4411  0.8057
17235SOL    HW253147   4.370   7.545   4.230  0.8301  0.2342 -0.1569
17236SOL     OW53148   4.715   2.340   2.966 -0.6694 -0.1575  0.8903
17236SOL    HW153149   4.665   2.421   2.972 -0.2170  0.3517 -1.1517
17236SOL    HW253150   4.700   2.310   2.876  0.9388 -1.1419  0.9082
17237SOL     OW53151   2.028   4.232   4.159 -0.3892  0.1723  0.2864
17237SOL    HW153152   1.983   4.279   4.230 -2.0553 -1.3813  0.3381
17237SOL    HW253153   2.033   4.141   4.190  3.3130  0.2744  0.4769
17238SOL     OW53154   3.132   2.521   0.518 -0.3194 -0.0442  0.4535
17238SOL    HW153155   3.126   2.590   0.452  0.9330  1.0840  1.4713
17238SOL    HW253156   3.064   2.543   0.582 -0.9038 -0.6089  0.0407
17239SOL     OW53157   5.748   0.453   6.971 -0.4383  0.2189  0.2416
17239SOL    HW153158   5.823   0.399   6.947 -0.1849  0.9533 -0.6863
17239SOL    HW253159   5.700   0.401   7.035  0.2058 -0.7706 -0.0641
17240SOL     OW53160   2.118   2.090   9.483  0.2446 -0.3300 -0.4096
17240SOL    HW153161   2.068   2.125   9.409  1.0387  0.2565 -0.6761
17240SOL    HW253162   2.079   2.004   9.500  0.3848 -0.6972 -1.8422
17241SOL     OW53163   2.149   6.539   6.831  0.2147 -0.3753 -0.1506
17241SOL    HW153164   2.159   6.452   6.793  0.2341 -1.0098  1.2249
17241SOL    HW253165   2.108   6.523   6.916  0.7436  0.9059  0.3747
17242SOL     OW53166   1.936   1.806   0.518  0.1318  0.0449 -0.3374
17242SOL    HW153167   1.928   1.900   0.504  0.9936  0.4258  1.4605
17242SOL    HW253168   1.949   1.770   0.430  1.5255  1.7974 -0.9254
17243SOL     OW53169   7.748   4.744   4.503 -0.0831 -0.3068  0.4198
17243SOL    HW153170   7.797   4.734   4.421 -1.6060 -0.0497 -0.5579
17243SOL    HW253171   7.815   4.740   4.571  1.1681 -1.0515 -0.7971
17244SOL     OW53172   0.278   4.185   0.373  0.1112  0.2506  0.1310
17244SOL    HW153173   0.186   4.187   0.346 -0.1816  1.2429  1.1098
17244SOL    HW253174   0.313   4.270   0.347  1.3461 -0.8408 -2.0475
17245SOL     OW53175   5.972   3.125  11.754 -0.0348 -0.3083 -0.2770
17245SOL    HW153176   5.893   3.081  11.785 -0.8563  1.3950  0.1672
17245SOL    HW253177   5.955   3.218  11.767  1.7194  0.1620 -0.9662
17246SOL     OW53178   2.384   1.257   2.811 -0.1919 -0.0223  0.3119
17246SOL    HW153179   2.417   1.346   2.795 -0.1592  0.2087  1.5659
17246SOL    HW253180   2.431   1.228   2.889  1.1253 -1.8504 -1.0751
17247SOL     OW53181   3.424   0.907   2.748  0.5315 -0.3800  0.3570
17247SOL    HW153182   3.510   0.871   2.765  1.5491  1.5945 -0.3010
17247SOL    HW253183   3.440   0.985   2.695 -1.5991  0.5008  0.8841
17248SOL     OW53184   4.381   2.633   5.904 -0.6081 -0.3186  0.4053
17248SOL    HW153185   4.323   2.560   5.880 -0.8060  0.0572 -0.2858
17248SOL    HW253186   4.409   2.613   5.993  0.1221 -1.7454 -0.1123
17249SOL     OW53187   3.947   6.132   4.349  0.2632  0.5280 -0.3252
17249SOL    HW153188   3.880   6.140   4.417  1.4277  0.7460  0.8643
17249SOL    HW253189   3.900   6.107   4.270 -1.2680  1.2498  0.3317
17250SOL     OW53190   5.738   7.755   4.715  0.2279 -0.6140 -0.3586
17250SOL    HW153191   5.655   7.783   4.677  0.2200  0.7970  0.6162
17250SOL    HW253192   5.761   7.675   4.667 -0.6787  0.0685 -2.0063
17251SOL     OW53193   2.209   7.174  11.172  0.7596  0.3141  0.2761
17251SOL    HW153194   2.175   7.085  11.163  0.5286  0.4218  0.0659
17251SOL    HW253195   2.284   7.177  11.112  0.4952  0.3960 -0.0524
17252SOL     OW53196   1.482   1.457  11.342 -0.6455 -0.2449 -0.5354
17252SOL    HW153197   1.449   1.387  11.286 -0.8431  0.4483 -1.3031
17252SOL    HW253198   1.556   1.493  11.294  0.1047 -0.5891  0.3342
17253SOL     OW53199   6.536   0.160   7.652  0.3655 -0.2799  0.1270
17253SOL    HW153200   6.628   0.138   7.636  0.3356  0.0625 -0.5324
17253SOL    HW253201   6.493   0.075   7.665  0.5589 -0.5172 -0.7385
17254SOL     OW53202   6.792   5.455   2.066 -0.0878 -0.7798  0.5379
17254SOL    HW153203   6.722   5.514   2.039  0.8435  0.4858  0.7964
17254SOL    HW253204   6.753   5.403   2.136 -0.8226 -0.2166  0.5674
17255SOL     OW53205   3.030   6.840   9.391  0.0301  0.1268 -0.1948
17255SOL    HW153206   2.959   6.897   9.359 -2.6488 -3.0695 -0.4500
17255SOL    HW253207   3.042   6.866   9.482 -1.4442  0.8095 -0.1630
17256SOL     OW53208   2.602   4.760   8.443  0.0570 -0.7701 -0.1502
17256SOL    HW153209   2.565   4.680   8.480 -2.7068  0.5479  0.1824
17256SOL    HW253210   2.603   4.744   8.348  0.6079 -1.5722 -0.0243
17257SOL     OW53211   2.211   3.213  10.192  0.1258 -0.2980 -0.1000
17257SOL    HW153212   2.116   3.219  10.203  0.0016  0.9466 -1.5628
17257SOL    HW253213   2.245   3.211  10.282 -1.3319 -2.5432  0.4910
17258SOL     OW53214   0.043   5.634   0.956  0.1919 -0.1247 -0.6887
17258SOL    HW153215   0.016   5.577   0.884 -0.8028  0.3970 -0.7465
17258SOL    HW253216   0.048   5.575   1.032 -2.7122 -0.0633 -0.3091
17259SOL     OW53217   7.839   3.751   8.184 -0.7755 -0.3281  0.2562
17259SOL    HW153218   7.832   3.844   8.161 -2.1124 -0.6803 -0.8998
17259SOL    HW253219   7.885   3.751   8.267 -2.4332  1.5160  1.2780
17260SOL     OW53220   7.842   5.750   1.207 -0.1541 -0.1208 -0.9488
17260SOL    HW153221   7.782   5.749   1.281  1.1251  1.3334  0.1568
17260SOL    HW253222   7.803   5.812   1.145  0.2559  0.9295 -0.1736
17261SOL     OW53223   0.264   1.560   5.646  0.4170  0.5999 -0.1077
17261SOL    HW153224   0.233   1.585   5.734 -1.7521 -0.5514 -0.4788
17261SOL    HW253225   0.212   1.613   5.586 -0.6622 -1.1089 -0.7565
17262SOL     OW53226   6.566   1.108   3.964 -0.2429 -0.0412  1.1411
17262SOL    HW153227   6.609   1.177   4.016  0.3711 -1.2423  2.2906
17262SOL    HW253228   6.475   1.138   3.955  0.5706  2.2233 -0.7410
17263SOL     OW53229   7.471   0.984  12.358  0.0051  0.3015 -0.0956
17263SOL    HW153230   7.492   0.968  12.449  0.0016  1.1420  0.0641
17263SOL    HW253231   7.549   0.957  12.309  0.1958  0.3197  0.1984
17264SOL     OW53232   1.021   3.979   4.892  0.1602  0.4578  0.4541
17264SOL    HW153233   0.945   4.037   4.889 -1.0617 -1.0145  1.3786
17264SOL    HW253234   1.005   3.923   4.968  2.1921  0.1045  0.6780
17265SOL     OW53235   0.234   6.521   9.293  0.1040  0.6045  0.3802
17265SOL    HW153236   0.159   6.474   9.330  0.9216 -0.3344  0.8564
17265SOL    HW253237   0.292   6.538   9.367  1.3259 -0.4879 -0.2882
17266SOL     OW53238   0.544   7.659   2.631 -0.0902 -0.0592  0.3601
17266SOL    HW153239   0.491   7.720   2.579 -0.2317  1.4063  2.1327
17266SOL    HW253240   0.520   7.678   2.722  2.5682 -0.1939  1.1641
17267SOL     OW53241   2.135   6.198   1.166  0.5701 -0.4861 -0.0817
17267SOL    HW153242   2.132   6.102   1.167  0.0936 -0.4718  1.2185
17267SOL    HW253243   2.045   6.224   1.146  0.3637 -0.3139  1.0163
17268SOL     OW53244   2.843   3.302   2.781 -0.0649  0.3721  0.9724
17268SOL    HW153245   2.858   3.209   2.767 -1.3464  0.4462 -1.3562
17268SOL    HW253246   2.762   3.306   2.833 -1.6283  0.1514 -1.3269
17269SOL     OW53247   0.497   3.731   1.610 -0.1381  0.2915 -0.3760
17269SOL    HW153248   0.416   3.781   1.620  0.3586  1.3087 -1.1647
17269SOL    HW253249   0.486   3.684   1.527  0.2554  0.8253 -0.7429
17270SOL     OW53250   6.441   7.743   2.186 -0.3256  0.7120 -0.3662
17270SOL    HW153251   6.507   7.790   2.135 -1.1333  0.4661 -1.6760
17270SOL    HW253252   6.400   7.811   2.240  1.4942  0.7409  1.0845
17271SOL     OW53253   4.340   7.056   7.103  0.0080 -0.4501 -0.3889
17271SOL    HW153254   4.429   7.087   7.114 -0.6885  1.6208 -0.0706
17271SOL    HW253255   4.330   6.987   7.169  1.0347  0.0567  0.3271
17272SOL     OW53256   7.372   5.002   9.137  0.0520  0.0249 -0.4634
17272SOL    HW153257   7.344   4.917   9.105  0.1678 -0.0912 -0.2593
17272SOL    HW253258   7.429   5.036   9.068 -3.1916  1.7899 -2.5672
17273SOL     OW53259   1.492   6.477  10.308 -0.2646 -0.2698 -0.6636
17273SOL    HW153260   1.498   6.453  10.401  1.9696 -0.0964 -0.6949
17273SOL    HW253261   1.450   6.402  10.266 -0.8500 -0.5656  0.4084
17274SOL     OW53262   3.584   6.322  10.980  0.2957  0.7948  0.4003
17274SOL    HW153263   3.644   6.360  11.045  0.3255 -0.3004  1.0486
17274SOL    HW253264   3.531   6.260  11.030  1.7398 -1.7015 -0.9079
17275SOL     OW53265   6.864   2.392   1.250  0.4506  0.1924  0.4204
17275SOL    HW153266   6.947   2.435   1.228  2.3356 -2.3866  1.9547
17275SOL    HW253267   6.872   2.372   1.343 -2.2461  0.4747  0.7757
17276SOL     OW53268   2.037   4.515   7.532 -0.2769  0.4393  0.2738
17276SOL    HW153269   2.013   4.523   7.624  1.1452 -0.0929  0.7216
17276SOL    HW253270   1.972   4.455   7.496 -0.1372 -0.3378  1.2517
17277SOL     OW53271   5.170   6.099   1.631  0.3750  0.5264  0.3566
17277SOL    HW153272   5.136   6.020   1.588  0.2619  0.8591 -0.1744
17277SOL    HW253273   5.190   6.071   1.721  2.2776 -0.6515 -0.3639
17278SOL     OW53274   0.168   4.594   5.049  0.4778  0.2857 -0.5217
17278SOL    HW153275   0.200   4.664   5.106 -0.1934  0.5957 -0.5137
17278SOL    HW253276   0.197   4.619   4.961  2.1396 -0.5591 -0.2538
17279SOL     OW53277   4.565   5.959   9.199 -0.0973  0.0796  0.3922
17279SOL    HW153278   4.606   5.881   9.163  0.0322  0.4735 -0.3237
17279SOL    HW253279   4.476   5.958   9.164  0.1007  0.5869 -0.1315
17280SOL     OW53280   3.747   4.689   6.552  0.3327 -0.1639  0.2995
17280SOL    HW153281   3.789   4.605   6.534 -1.5133 -1.0852  0.0669
17280SOL    HW253282   3.725   4.724   6.466 -0.0283 -0.0588  0.4304
17281SOL     OW53283   4.159   2.167   2.687  0.4493 -0.5833  0.2951
17281SOL    HW153284   4.177   2.254   2.722  2.0258 -0.6577 -0.2464
17281SOL    HW253285   4.201   2.166   2.601 -1.8263 -1.0136 -0.8788
17282SOL     OW53286   7.273   1.699   6.922  0.2478  0.1246 -0.6540
17282SOL    HW153287   7.344   1.661   6.871  1.3750  1.5246 -0.1909
17282SOL    HW253288   7.282   1.659   7.009 -1.0031 -1.4360 -1.1866
17283SOL     OW53289   3.309   2.226  10.516 -0.5980 -0.2582 -0.0693
17283SOL    HW153290   3.288   2.140  10.479 -2.1499 -0.6735  1.5840
17283SOL    HW253291   3.228   2.277  10.505 -0.4556  0.2198  0.9591
17284SOL     OW53292   6.472   0.107   9.494 -0.5800  0.0583  0.3622
17284SOL    HW153293   6.436   0.184   9.449 -0.7208 -0.0336  0.3168
17284SOL    HW253294   6.440   0.116   9.584 -2.3144 -0.9992 -0.0896
17285SOL     OW53295   6.993   2.168  10.405 -0.1172 -0.7475  0.4089
17285SOL    HW153296   6.994   2.100  10.472 -3.0235  0.4057  1.8089
17285SOL    HW253297   7.024   2.247  10.450 -1.7572 -0.0362  0.3688
17286SOL     OW53298   0.321   6.686  10.966  0.3269 -0.1292 -1.0099
17286SOL    HW153299   0.252   6.711  11.027  1.4708  1.1230 -0.1684
17286SOL    HW253300   0.332   6.762  10.909 -0.2223 -1.0090 -2.3403
17287SOL     OW53301   6.985   2.064  12.157  0.1441 -0.4969  0.7377
17287SOL    HW153302   7.072   2.025  12.145  0.9422  1.7059 -1.5858
17287SOL    HW253303   6.928   2.014  12.099  0.7183  0.3560 -0.6192
17288SOL     OW53304   2.839   6.771   0.714 -0.2769 -0.3066 -0.0147
17288SOL    HW153305   2.782   6.757   0.790 -1.5843 -0.5930 -1.0270
17288SOL    HW253306   2.795   6.728   0.642  0.1626  1.2766 -1.2862
17289SOL     OW53307   1.077   6.352   1.280 -0.2327  0.7977  0.0618
17289SOL    HW153308   1.028   6.393   1.208 -0.1645  1.1442  0.2081
17289SOL    HW253309   1.081   6.420   1.348 -1.3467  0.0608  0.8890
17290SOL     OW53310   0.124   6.563   1.431  0.1768 -0.0264 -0.3849
17290SOL    HW153311   0.065   6.492   1.459  0.0560  0.7807  1.5389
17290SOL    HW253312   0.068   6.641   1.429  0.8060  0.4399 -0.1472
17291SOL     OW53313   1.203   0.660   3.165  0.0510 -0.1637  0.1895
17291SOL    HW153314   1.176   0.729   3.105 -0.1567  0.6810  1.2365
17291SOL    HW253315   1.264   0.703   3.225  0.4956 -1.0673  0.3980
17292SOL     OW53316   1.195   0.454   5.438 -0.1357 -0.3845  0.8066
17292SOL    HW153317   1.231   0.541   5.421  0.5957 -0.5319  1.5207
17292SOL    HW253318   1.154   0.462   5.525 -1.3720 -0.3708  0.2453
17293SOL     OW53319   2.677   0.357   4.391 -0.1593 -0.2972  0.2550
17293SOL    HW153320   2.711   0.429   4.444  1.4791 -1.9483  1.6162
17293SOL    HW253321   2.741   0.348   4.320 -1.0286  0.3447 -0.6302
17294SOL     OW53322   4.181   6.689   2.403 -0.2925  0.1016 -0.2930
17294SOL    HW153323   4.117   6.709   2.472 -0.5295  2.1569 -1.0328
17294SOL    HW253324   4.128   6.658   2.330 -0.3314  0.4931 -0.4369
17295SOL     OW53325   0.780   0.043   3.068 -0.2294 -0.2457 -0.1504
17295SOL    HW153326   0.723   0.081   3.001 -0.9717  0.2489  0.7299
17295SOL    HW253327   0.760  -0.051   3.067 -0.4097 -0.2033 -0.4521
17296SOL     OW53328   1.178   4.988   7.287 -0.2511 -0.2109  0.2711
17296SOL    HW153329   1.142   5.070   7.254  1.4543  1.0307  1.3169
17296SOL    HW253330   1.209   5.009   7.375  1.1768 -1.6836  0.1667
17297SOL     OW53331   3.160   3.553   6.264 -0.2209 -0.1517  0.1859
17297SOL    HW153332   3.131   3.481   6.321  0.6530 -0.4226  0.3079
17297SOL    HW253333   3.255   3.540   6.256 -0.2408  0.2393 -0.8421
17298SOL     OW53334   5.671   1.158   0.220 -0.1424  0.1530  0.1069
17298SOL    HW153335   5.709   1.245   0.210 -3.3632  1.6337 -0.2764
17298SOL    HW253336   5.669   1.144   0.315  1.0400  0.1101  0.1511
17299SOL     OW53337   5.133   6.646   4.165 -0.0913 -0.2432 -0.5421
17299SOL    HW153338   5.110   6.554   4.151  1.1924 -0.5259 -0.9262
17299SOL    HW253339   5.193   6.667   4.094  0.4310  0.5934  0.1262
17300SOL     OW53340   6.850   0.591   8.626 -0.1856  0.0487  0.1580
17300SOL    HW153341   6.933   0.559   8.661 -0.2921 -1.7847 -1.1421
17300SOL    HW253342   6.866   0.684   8.610  1.5911 -0.2377  0.0468
17301SOL     OW53343   7.265   4.142   2.761 -0.1760 -1.0487 -0.0375
17301SOL    HW153344   7.228   4.089   2.832 -0.4413  0.2555  0.8295
17301SOL    HW253345   7.222   4.227   2.770  0.9227 -0.3895 -0.8060
17302SOL     OW53346   1.520   7.265   8.390 -0.3820  0.3074  0.0138
17302SOL    HW153347   1.560   7.298   8.309  1.3262 -2.8620 -0.5806
17302SOL    HW253348   1.550   7.325   8.458  0.5476  1.3796 -1.2858
17303SOL     OW53349   4.831   2.478   0.261  0.2405  0.2186 -0.3366
17303SOL    HW153350   4.806   2.434   0.179 -0.2037  1.4535 -0.8876
17303SOL    HW253351   4.758   2.537   0.280 -1.0378 -1.9937  2.4949
17304SOL     OW53352   0.308   6.772   4.840  0.2629  0.1675 -0.3332
17304SOL    HW153353   0.314   6.822   4.758  0.3714 -0.6958 -0.8627
17304SOL    HW253354   0.393   6.784   4.882  0.9168 -0.9285 -1.2737
17305SOL     OW53355   5.488   4.788   3.444  0.6578 -0.4614 -0.3413
17305SOL    HW153356   5.563   4.731   3.463 -0.2838 -1.6838 -0.1758
17305SOL    HW253357   5.438   4.789   3.526  0.7671  0.8127 -0.2647
17306SOL     OW53358   0.356   1.243   4.138 -0.0064 -0.4963 -0.1980
17306SOL    HW153359   0.426   1.178   4.148  0.0990 -0.3154  0.2844
17306SOL    HW253360   0.275   1.193   4.149  0.0954 -0.3698  1.3232
17307SOL     OW53361   5.907   3.317   7.116 -0.2245  0.2612 -0.6215
17307SOL    HW153362   5.816   3.297   7.140  0.0407  0.9394  1.1501
17307SOL    HW253363   5.902   3.347   7.025 -1.1634 -3.6044 -2.0027
17308SOL     OW53364   5.167   3.564   1.417  0.9736 -0.3102  0.0469
17308SOL    HW153365   5.139   3.577   1.508  0.3368  0.7209 -0.2808
17308SOL    HW253366   5.244   3.508   1.424  1.0844 -0.0457  1.2363
17309SOL     OW53367   0.706   1.882   4.869  0.2070 -0.3143 -0.0081
17309SOL    HW153368   0.632   1.907   4.925  1.3243  0.8950  1.0039
17309SOL    HW253369   0.693   1.930   4.788 -1.6059 -2.3291 -1.0264
17310SOL     OW53370   5.274   7.852   0.012  0.2872  0.6032  0.3199
17310SOL    HW153371   5.290   7.763   0.044 -2.2150  0.1776  0.6333
17310SOL    HW253372   5.268   7.905   0.092 -0.0819  0.6768  0.2459
17311SOL     OW53373   0.335   0.405   6.724 -0.2778 -0.3065 -0.2403
17311SOL    HW153374   0.374   0.428   6.639 -0.0710  0.4319  0.0471
17311SOL    HW253375   0.287   0.483   6.750  0.3329 -0.2333  0.7073
17312SOL     OW53376   5.904   2.006   9.073  0.6002  0.1811  0.1072
17312SOL    HW153377   5.884   2.099   9.066 -1.7811 -0.4206 -3.9138
17312SOL    HW253378   5.822   1.965   9.098  0.5614 -1.0963 -1.9059
17313SOL     OW53379   4.830   6.992   0.725  0.4793  0.5516 -0.1599
17313SOL    HW153380   4.836   7.065   0.664  1.1924  1.4410  0.9423
17313SOL    HW253381   4.782   7.027   0.800 -0.7622 -0.6492 -0.3548
17314SOL     OW53382   0.083   3.523   6.160 -0.4353  0.8868  0.3026
17314SOL    HW153383   0.005   3.570   6.186  0.3536  2.6488 -0.3736
17314SOL    HW253384   0.113   3.567   6.080  0.6462 -0.4240 -0.0626
17315SOL     OW53385   7.430   4.638   6.185 -0.1663 -0.0993 -0.3308
17315SOL    HW153386   7.447   4.698   6.113 -2.4193  0.5059 -0.4456
17315SOL    HW253387   7.335   4.644   6.200 -0.3197 -2.7776  0.4134
17316SOL     OW53388   5.604   1.079   2.356  0.6206 -0.3516  0.7120
17316SOL    HW153389   5.533   1.116   2.409  1.8453  1.4119  1.1909
17316SOL    HW253390   5.633   1.151   2.300  1.8269 -1.1420  0.2802
17317SOL     OW53391   6.264   6.600   5.594 -0.3875  0.6546 -0.2836
17317SOL    HW153392   6.230   6.613   5.683 -2.0949 -0.6588 -0.6835
17317SOL    HW253393   6.329   6.531   5.603 -1.8349 -0.7720 -0.2528
17318SOL     OW53394   5.435   6.946  10.541  0.7541  0.2324  0.2883
17318SOL    HW153395   5.463   6.975  10.628 -0.1778 -1.0776  1.0571
17318SOL    HW253396   5.358   6.999  10.522  0.7255  0.2435  0.4344
17319SOL     OW53397   4.719   7.826   8.288  0.2523 -0.2490 -0.1897
17319SOL    HW153398   4.775   7.758   8.327 -0.2505 -0.9421 -0.6512
17319SOL    HW253399   4.702   7.794   8.200 -1.4416 -0.4030  0.1664
17320SOL     OW53400   6.264   1.591   4.642  0.1964 -0.7455 -0.0618
17320SOL    HW153401   6.357   1.582   4.663  0.5798  1.9926 -0.1996
17320SOL    HW253402   6.262   1.600   4.546 -0.1082 -0.1164 -0.0031
17321SOL     OW53403   5.273   3.388   5.652 -0.3369 -0.3582  0.5478
17321SOL    HW153404   5.310   3.362   5.736  0.4205  0.0706  0.3615
17321SOL    HW253405   5.188   3.346   5.649 -0.6020  0.0543  1.7558
17322SOL     OW53406   6.236   5.213   3.353 -0.0982  0.1386 -0.4845
17322SOL    HW153407   6.282   5.222   3.436  0.7153 -0.5060 -0.8598
17322SOL    HW253408   6.147   5.185   3.377  0.3023 -0.6080  0.1366
17323SOL     OW53409   0.268   4.558  10.639 -0.5047  0.3530 -0.4011
17323SOL    HW153410   0.231   4.645  10.652 -0.2295  0.5390 -0.8519
17323SOL    HW253411   0.340   4.571  10.578 -0.0010 -0.0795  0.0929
17324SOL     OW53412   5.847   0.539  12.006  0.5530 -0.1189 -0.5628
17324SOL    HW153413   5.873   0.499  11.923  1.2371  1.0162 -0.9134
17324SOL    HW253414   5.751   0.531  12.007  0.6607 -1.8519 -0.5456
17325SOL     OW53415   7.709   4.514  11.354  0.7653 -0.3932  0.4689
17325SOL    HW153416   7.622   4.539  11.322  1.2995 -0.4940 -1.1322
17325SOL    HW253417   7.716   4.421  11.333  1.4274 -0.2820  0.1702
17326SOL     OW53418   7.815   0.700  12.144 -0.1572  0.3259  0.0597
17326SOL    HW153419   7.785   0.786  12.173 -0.6017  0.6726 -1.3517
17326SOL    HW253420   7.838   0.712  12.052  1.9230 -0.5427  0.3900
17327SOL     OW53421   4.417   5.358   7.305  0.3306 -0.0544 -0.7088
17327SOL    HW153422   4.349   5.337   7.368 -1.5550  3.2742 -1.3996
17327SOL    HW253423   4.425   5.280   7.250 -0.6944 -1.6129  1.2486
17328SOL     OW53424   0.955   2.107  10.285  0.2149 -0.2602  0.0392
17328SOL    HW153425   0.958   2.201  10.302  1.2702 -0.5155  1.5056
17328SOL    HW253426   1.006   2.096  10.205  1.3590  0.2970  0.6550
17329SOL     OW53427   4.938   3.824   6.899  0.1832  0.5035 -0.1030
17329SOL    HW153428   4.861   3.880   6.910  0.8396  1.5716 -0.7132
17329SOL    HW253429   5.005   3.865   6.953  0.3918 -0.3120  0.2740
17330SOL     OW53430   3.758   2.548   4.648  0.4561  0.0630  0.2084
17330SOL    HW153431   3.826   2.482   4.638  0.4245 -0.0380  0.6478
17330SOL    HW253432   3.784   2.599   4.724  0.0846  0.0733  0.3347
17331SOL     OW53433   3.214   3.579   4.950  0.2973  0.1021  0.6121
17331SOL    HW153434   3.148   3.513   4.972 -0.3449  0.8596  1.0071
17331SOL    HW253435   3.210   3.586   4.855  1.3851 -1.4529  0.4227
17332SOL     OW53436   4.719   0.462   4.434  0.6299 -0.8482 -0.4483
17332SOL    HW153437   4.642   0.413   4.462  2.1101 -1.8239  2.2191
17332SOL    HW253438   4.688   0.514   4.359 -3.0305 -0.0240  1.3988
17333SOL     OW53439   7.091   7.658  11.173 -0.1240  0.4130  0.4425
17333SOL    HW153440   7.020   7.665  11.237  0.0141 -1.2501  0.8226
17333SOL    HW253441   7.167   7.695  11.218 -0.0592 -0.6162  1.2162
17334SOL     OW53442   2.379   1.828   8.788  0.1638  0.2334 -0.0121
17334SOL    HW153443   2.424   1.846   8.871 -1.1082  1.2490  0.5106
17334SOL    HW253444   2.438   1.862   8.721  0.7648  0.3307  0.5567
17335SOL     OW53445   6.271   0.287   1.702  0.5005  0.2460  0.0454
17335SOL    HW153446   6.236   0.294   1.613  0.2643  0.5802  0.1615
17335SOL    HW253447   6.287   0.377   1.728 -1.2994  0.3093  1.0663
17336SOL     OW53448   1.695   7.150   1.586 -0.0593  0.1662 -0.3808
17336SOL    HW153449   1.753   7.074   1.591 -1.0309 -0.6111 -0.3927
17336SOL    HW253450   1.607   7.113   1.601 -0.4154  1.4906  0.9914
17337SOL     OW53451   3.466   2.208   0.020  0.3008 -0.8864  0.4703
17337SOL    HW153452   3.555   2.210  -0.015  0.6862  2.6203  1.2671
17337SOL    HW253453   3.477   2.190   0.114  0.3815  0.9590  0.8507
17338SOL     OW53454   0.010   2.134   2.275 -0.0136  0.0136  0.7539
17338SOL    HW153455  -0.079   2.113   2.302 -0.1643 -0.4993 -0.1361
17338SOL    HW253456   0.002   2.216   2.226  0.2221  0.7826  1.9386
17339SOL     OW53457   5.142   3.569   1.709  0.3686  0.4938  0.4251
17339SOL    HW153458   5.157   3.482   1.745  1.4493  0.3823 -0.2399
17339SOL    HW253459   5.230   3.603   1.693 -0.0624  1.1423 -0.6358
17340SOL     OW53460   7.043   2.796   5.710 -0.1339  0.3622 -0.1598
17340SOL    HW153461   6.966   2.846   5.684  0.0636  0.2315 -1.0520
17340SOL    HW253462   7.113   2.831   5.654  0.7693  1.4180  1.5540
17341SOL     OW53463   7.317   1.529  10.930 -0.1278  0.3019  0.5818
17341SOL    HW153464   7.303   1.602  10.870 -0.6768  0.4115  0.8343
17341SOL    HW253465   7.303   1.450  10.877  0.6184  0.3733  0.2713
17342SOL     OW53466   7.343   0.922   6.945  0.1209  0.5552  0.3304
17342SOL    HW153467   7.380   0.973   6.873  0.8186 -0.4616 -0.0602
17342SOL    HW253468   7.370   0.969   7.024  1.7451  0.2200  0.0291
17343SOL     OW53469   6.601   6.826   9.402 -0.1585  0.5874 -0.3277
17343SOL    HW153470   6.642   6.879   9.333 -0.1483  0.8475 -0.1244
17343SOL    HW253471   6.621   6.736   9.377  0.2478  0.6972 -0.4164
17344SOL     OW53472   5.200   5.343   2.228  0.2346 -0.2603 -0.4126
17344SOL    HW153473   5.116   5.351   2.183  0.4907 -1.2152 -1.1082
17344SOL    HW253474   5.182   5.369   2.318 -0.5205  0.7246 -0.8332
17345SOL     OW53475   1.557   3.077   8.504  0.5370  0.3888  0.4156
17345SOL    HW153476   1.495   3.147   8.522 -0.3016 -0.4373  0.8250
17345SOL    HW253477   1.643   3.118   8.512  0.0575  1.4264  0.3654
17346SOL     OW53478   4.008   5.857   9.643  0.0354  0.1074 -0.1709
17346SOL    HW153479   4.038   5.823   9.727  0.5720  0.4639 -0.2112
17346SOL    HW253480   4.088   5.867   9.591 -0.2107  0.5681 -0.4737
17347SOL     OW53481   7.789   0.454   7.585  0.2629  0.7836  0.6000
17347SOL    HW153482   7.698   0.462   7.558  0.0513  0.4133  1.1802
17347SOL    HW253483   7.835   0.421   7.508  0.0286  1.5927  0.1047
17348SOL     OW53484   6.857   4.407   7.055  0.6213  0.1758 -0.2072
17348SOL    HW153485   6.870   4.378   7.145  1.2966  0.1715 -0.3022
17348SOL    HW253486   6.772   4.451   7.056  0.6274  0.1798  0.4321
17349SOL     OW53487   3.364   1.039  11.319 -0.2491 -0.2686  0.0142
17349SOL    HW153488   3.349   1.037  11.414 -1.8007 -2.4774 -0.1792
17349SOL    HW253489   3.443   0.987  11.306  0.2220  0.4184  0.1280
17350SOL     OW53490   5.764   4.373   0.603  0.1687 -0.0125 -0.1944
17350SOL    HW153491   5.835   4.310   0.589 -1.5861 -1.7330 -2.0857
17350SOL    HW253492   5.780   4.408   0.690  1.2453 -3.1699  1.0250
17351SOL     OW53493   1.924   2.113   2.626  0.1121 -0.1017 -0.2992
17351SOL    HW153494   1.923   2.057   2.703 -0.6343  1.8095  1.1789
17351SOL    HW253495   2.016   2.140   2.617  0.2077 -0.3526 -0.0816
17352SOL     OW53496   5.154   4.298  10.826  0.4179  0.6937  0.3403
17352SOL    HW153497   5.237   4.308  10.779 -0.1541  3.8151 -0.2230
17352SOL    HW253498   5.150   4.374  10.885 -0.5558 -1.1825  2.8543
17353SOL     OW53499   4.944   6.784   1.236 -0.7761 -0.1261 -0.3949
17353SOL    HW153500   4.939   6.856   1.172 -0.8013  0.5678  0.3710
17353SOL    HW253501   4.893   6.815   1.311 -0.0173 -0.5525  0.3143
17354SOL     OW53502   4.977   5.144   0.245 -1.0943 -0.8505  0.2609
17354SOL    HW153503   4.964   5.152   0.150  0.0697  0.8390  0.2074
17354SOL    HW253504   4.948   5.227   0.281 -0.9146 -1.2345  1.3293
17355SOL     OW53505   3.775   2.692   0.079  0.1657 -0.0314  0.2348
17355SOL    HW153506   3.869   2.680   0.091  0.1809  0.1403  0.2916
17355SOL    HW253507   3.741   2.702   0.168 -0.0974 -1.4471  0.3144
17356SOL     OW53508   4.846   7.490  10.650 -0.4675  0.0373  0.5188
17356SOL    HW153509   4.876   7.399  10.654 -0.8606 -0.0548  1.7212
17356SOL    HW253510   4.831   7.514  10.742 -1.0197  1.0984  0.1611
17357SOL     OW53511   7.432   4.523  11.673  0.3031  0.0217 -0.4337
17357SOL    HW153512   7.394   4.542  11.587 -0.0517  1.1771 -0.0326
17357SOL    HW253513   7.357   4.499  11.727  0.3898  0.3894 -0.1500
17358SOL     OW53514   0.398   0.106   6.144  0.0364 -0.1948  0.2016
17358SOL    HW153515   0.461   0.141   6.081  0.0448  0.5982  0.6403
17358SOL    HW253516   0.334   0.176   6.156 -0.1683 -0.4789  0.7986
17359SOL     OW53517   3.070   5.828   6.636 -0.6425  0.0897  0.1585
17359SOL    HW153518   3.045   5.757   6.696 -3.7619  1.0496  0.1334
17359SOL    HW253519   3.061   5.908   6.688 -1.3226  0.7689 -0.9659
17360SOL     OW53520   3.648   6.849   6.791 -0.1289 -0.4084 -0.2750
17360SOL    HW153521   3.565   6.811   6.762 -0.4509 -1.3793  1.7621
17360SOL    HW253522   3.648   6.838   6.886  2.4617 -0.6555 -0.2317
17361SOL     OW53523   1.878   2.239  10.192  0.3131  0.3448  0.1430
17361SOL    HW153524   1.787   2.260  10.214 -0.0783 -0.3454 -0.7550
17361SOL    HW253525   1.913   2.201  10.272 -0.4142 -0.0673  0.2795
17362SOL     OW53526   6.315   0.420   7.155 -0.1016 -0.4131 -0.1372
17362SOL    HW153527   6.265   0.343   7.179 -0.5514  0.3785  1.6443
17362SOL    HW253528   6.297   0.433   7.062 -0.1380 -2.3315 -0.4264
17363SOL     OW53529   5.383   4.533   3.359  0.1947 -0.1818  0.5423
17363SOL    HW153530   5.434   4.498   3.286  1.5789 -0.9266  1.8146
17363SOL    HW253531   5.426   4.616   3.380 -0.2087  0.0357  0.5170
17364SOL     OW53532   0.152   0.264   9.915 -0.3187  0.5433 -0.4789
17364SOL    HW153533   0.195   0.331   9.862 -0.5546 -1.1078 -2.9299
17364SOL    HW253534   0.199   0.183   9.895 -2.3319 -0.6863 -0.5451
17365SOL     OW53535   7.839   4.081   3.191 -0.1726  0.3535 -0.2649
17365SOL    HW153536   7.868   4.171   3.204  1.8806 -0.3134  0.1707
17365SOL    HW253537   7.896   4.047   3.122 -0.5225 -0.7880 -0.0176
17366SOL     OW53538   5.220   3.094  10.479 -0.4869 -0.0133 -0.0328
17366SOL    HW153539   5.306   3.082  10.520 -0.0369 -2.2114 -1.3972
17366SOL    HW253540   5.214   3.188  10.463  0.3669  0.6071  2.6687
17367SOL     OW53541   3.844   0.670   5.463 -0.3074  0.0938 -0.0721
17367SOL    HW153542   3.815   0.746   5.514 -1.0643 -0.7082  0.7436
17367SOL    HW253543   3.762   0.627   5.437  0.0458 -2.1425  2.1522
17368SOL     OW53544   0.828   6.106   6.104  1.1133  0.4555  0.6496
17368SOL    HW153545   0.755   6.045   6.110  0.2709  1.5948  2.7318
17368SOL    HW253546   0.800   6.170   6.038  0.8884  0.0456  0.3449
17369SOL     OW53547   7.543   6.867   2.057  0.2013  0.1348  0.4414
17369SOL    HW153548   7.618   6.927   2.063 -0.0497  0.4792  0.1531
17369SOL    HW253549   7.490   6.887   2.134  0.5308 -0.2836  0.7806
17370SOL     OW53550   2.607   1.633   8.383  0.5206 -0.9054  0.0508
17370SOL    HW153551   2.602   1.710   8.438  0.2647  0.1437 -1.3798
17370SOL    HW253552   2.561   1.565   8.432  2.4748 -0.7710  2.2515
17371SOL     OW53553   7.661   3.065  10.472  0.3068  0.1558  0.1275
17371SOL    HW153554   7.575   3.024  10.484  0.7445 -0.5691  0.9140
17371SOL    HW253555   7.642   3.158  10.462 -0.5631  0.0154  0.3811
17372SOL     OW53556   4.052   2.263   1.386 -0.3203 -0.0129  0.3375
17372SOL    HW153557   4.042   2.299   1.298  0.8599  1.1170  0.6228
17372SOL    HW253558   4.138   2.221   1.384 -0.9302 -1.3226  0.5377
17373SOL     OW53559   1.845   2.495   0.627  0.6009  0.2838  0.0662
17373SOL    HW153560   1.890   2.560   0.682  0.4789  0.5556 -0.1546
17373SOL    HW253561   1.784   2.452   0.686 -0.3413  1.3532 -0.1065
17374SOL     OW53562   5.618   2.328   9.137 -0.3876 -0.4695  0.0365
17374SOL    HW153563   5.607   2.422   9.120 -1.1843 -0.5461  0.0939
17374SOL    HW253564   5.688   2.301   9.078  0.4581  0.3378  0.6407
17375SOL     OW53565   4.498   3.521   8.318  0.0371  0.6107 -0.0702
17375SOL    HW153566   4.518   3.487   8.406 -1.3702 -1.4326 -0.4687
17375SOL    HW253567   4.551   3.467   8.259  0.5201  1.5744 -0.5477
17376SOL     OW53568   0.497   5.966   2.264 -0.3067 -0.2929  0.5368
17376SOL    HW153569   0.569   5.903   2.267  0.6055  0.6993  0.0875
17376SOL    HW253570   0.448   5.943   2.185 -0.9842 -1.4826  1.2797
17377SOL     OW53571   3.674   7.484   2.497  0.3648 -0.2128 -0.1307
17377SOL    HW153572   3.681   7.531   2.414 -0.0680  1.2915  0.6597
17377SOL    HW253573   3.687   7.392   2.473  0.3940  0.2016 -1.8370
17378SOL     OW53574   0.869   1.326   8.955  0.2293 -0.2773  0.1606
17378SOL    HW153575   0.784   1.287   8.975 -0.3914  1.6848  1.6672
17378SOL    HW253576   0.925   1.303   9.029  0.1015  0.9138  0.6483
17379SOL     OW53577   2.673   5.216   8.819 -0.4073 -0.5962  0.0641
17379SOL    HW153578   2.724   5.151   8.868  2.0467  0.2911 -1.1451
17379SOL    HW253579   2.640   5.169   8.743 -1.6021 -1.2297  0.9561
17380SOL     OW53580   0.238   7.577   2.804 -0.2840 -0.0406  0.4542
17380SOL    HW153581   0.306   7.628   2.848 -0.2891  1.1570 -0.8465
17380SOL    HW253582   0.227   7.620   2.719 -1.9791 -0.8034  0.2494
17381SOL     OW53583   1.096   6.989  11.960 -0.6339  0.3503  0.0016
17381SOL    HW153584   1.005   7.008  11.984 -0.2657  0.0334  1.8178
17381SOL    HW253585   1.132   7.074  11.935 -0.5818  1.1021  2.4063
17382SOL     OW53586   3.091   1.156   9.373 -0.2712  0.1878 -0.3139
17382SOL    HW153587   3.049   1.157   9.287 -0.4241 -0.2770 -0.2472
17382SOL    HW253588   3.070   1.069   9.409  1.6566 -0.5054 -0.7362
17383SOL     OW53589   6.262   7.457   0.237  0.1164 -0.1957  0.3485
17383SOL    HW153590   6.266   7.517   0.162  1.0219 -0.2955  0.3076
17383SOL    HW253591   6.350   7.460   0.275 -0.1098 -0.7528  0.9323
17384SOL     OW53592   5.750   1.448   0.220 -0.4608 -0.3533  0.7084
17384SOL    HW153593   5.748   1.509   0.293  0.4503  0.8222 -0.2149
17384SOL    HW253594   5.840   1.452   0.187 -0.9741 -0.4773 -0.7882
17385SOL     OW53595   7.503   3.102   3.434 -0.1076  0.1430  0.2322
17385SOL    HW153596   7.598   3.094   3.434 -0.1839 -1.0311 -0.9823
17385SOL    HW253597   7.472   3.023   3.390 -1.5999  0.9368 -0.2129
17386SOL     OW53598   0.622   1.224   7.609  1.4146 -0.5444  0.0348
17386SOL    HW153599   0.713   1.195   7.607  1.2553 -1.1460  0.8999
17386SOL    HW253600   0.614   1.273   7.691  0.8506 -0.9073  0.2070
17387SOL     OW53601   4.376   1.859   0.535 -0.1866  0.0507  0.6983
17387SOL    HW153602   4.403   1.768   0.522 -0.2890  0.3327 -2.3983
17387SOL    HW253603   4.285   1.853   0.561 -0.3617 -0.7593 -0.0337
17388SOL     OW53604   0.494   3.183   8.244 -0.0236  0.5289 -0.0666
17388SOL    HW153605   0.567   3.202   8.186  0.5426 -2.8039 -0.6749
17388SOL    HW253606   0.416   3.197   8.190  0.1984  2.2940  0.0098
17389SOL     OW53607   5.286   2.991   7.628  0.7189  0.3240  0.3024
17389SOL    HW153608   5.221   2.929   7.659  0.8434 -0.1626 -0.3755
17389SOL    HW253609   5.303   2.965   7.537 -1.3333  3.0501 -1.0084
17390SOL     OW53610   6.796   4.087   5.625  0.0639  0.1136 -0.0209
17390SOL    HW153611   6.826   4.149   5.692  1.8160  0.4414 -1.0289
17390SOL    HW253612   6.804   4.002   5.666 -0.0171  0.3980  0.5886
17391SOL     OW53613   7.047   4.231   3.117  0.8058  0.2639  0.2997
17391SOL    HW153614   6.964   4.277   3.131  0.4073  0.3229 -1.9262
17391SOL    HW253615   7.069   4.196   3.203 -1.0002  1.1056  1.1690
17392SOL     OW53616   4.936   7.826   7.158 -0.1896  0.1263 -0.2185
17392SOL    HW153617   4.888   7.905   7.186 -1.6400 -0.3238 -1.3323
17392SOL    HW253618   4.870   7.772   7.116  0.2590 -2.7258  2.4164
17393SOL     OW53619   1.426   2.169   9.963  0.0140  0.4611  0.6384
17393SOL    HW153620   1.372   2.129  10.031 -1.6484  0.9267 -0.3307
17393SOL    HW253621   1.438   2.260   9.991  1.1871  0.0917  1.3558
17394SOL     OW53622   2.069   6.619   8.708  0.1235  0.1929 -0.1046
17394SOL    HW153623   2.005   6.654   8.646 -1.6301 -0.7344  1.1246
17394SOL    HW253624   2.077   6.526   8.684 -1.1365 -0.3545  1.4843
17395SOL     OW53625   7.561   5.743   0.623 -0.0629  0.3205  0.1953
17395SOL    HW153626   7.473   5.706   0.636  0.0843  0.1078  0.6044
17395SOL    HW253627   7.614   5.669   0.595 -0.0762  0.5105 -0.3488
17396SOL     OW53628   3.765   2.395   6.619 -0.0852 -0.4446  0.1208
17396SOL    HW153629   3.813   2.371   6.698  0.7325 -4.1986 -1.3221
17396SOL    HW253630   3.695   2.331   6.613 -1.1000  0.7347 -1.4246
17397SOL     OW53631   5.885   4.095   1.242  0.5398 -0.1933  0.0228
17397SOL    HW153632   5.975   4.068   1.260  0.6116 -0.0007 -0.0454
17397SOL    HW253633   5.845   4.019   1.202  0.8494 -0.0785 -0.5154
17398SOL     OW53634   3.554   1.175  10.332 -0.4678 -0.1229  0.4622
17398SOL    HW153635   3.647   1.183  10.353 -0.0240 -0.9125 -1.0893
17398SOL    HW253636   3.549   1.190  10.238 -1.8270 -0.7185  0.4245
17399SOL     OW53637   3.325   7.178   1.364  0.7115  0.1341  0.2291
17399SOL    HW153638   3.356   7.267   1.380  1.8509 -0.1285 -0.4177
17399SOL    HW253639   3.290   7.149   1.448 -0.3867  1.4582  0.2540
17400SOL     OW53640   0.179   6.064   6.029  0.1002 -0.1241  0.0192
17400SOL    HW153641   0.250   6.127   6.028  0.0637 -0.0630  0.6407
17400SOL    HW253642   0.190   6.013   5.949 -0.2563  1.0855 -0.8283
17401SOL     OW53643   4.820   2.610   8.408  0.4439  0.6077 -0.2215
17401SOL    HW153644   4.793   2.668   8.480 -2.2843 -1.1816  0.3252
17401SOL    HW253645   4.816   2.666   8.330 -0.1748  1.6477  0.5244
17402SOL     OW53646   6.494   3.999   7.404 -0.0706  0.1631 -0.5739
17402SOL    HW153647   6.459   4.009   7.493 -1.7750  1.9063 -1.3539
17402SOL    HW253648   6.563   4.065   7.398  1.2701 -1.1555 -0.0201
17403SOL     OW53649   3.551   0.516   5.456  0.3580 -0.7546  0.5089
17403SOL    HW153650   3.595   0.432   5.464 -0.1607 -0.9166  2.0826
17403SOL    HW253651   3.546   0.533   5.362  0.3658 -2.5262  0.1649
17404SOL     OW53652   0.612   1.346   0.586  0.4677  0.3237 -0.4845
17404SOL    HW153653   0.678   1.366   0.652  1.2555 -2.7149 -0.1771
17404SOL    HW253654   0.651   1.375   0.503  1.2254  0.5540 -0.0542
17405SOL     OW53655   6.490   4.151   8.122 -0.0152 -0.0660 -0.1884
17405SOL    HW153656   6.549   4.219   8.153 -1.5455  0.7098  1.1638
17405SOL    HW253657   6.429   4.137   8.194 -0.6212 -1.8510 -0.9893
17406SOL     OW53658   6.670   4.451   5.842  0.1641 -0.1625 -0.3165
17406SOL    HW153659   6.657   4.357   5.845  0.5038 -0.2578 -1.4100
17406SOL    HW253660   6.754   4.462   5.797 -0.2891  0.6895 -0.9700
17407SOL     OW53661   0.269   1.194   1.663 -0.0900  0.2930  0.3454
17407SOL    HW153662   0.211   1.124   1.692 -1.4677  0.9585 -0.7008
17407SOL    HW253663   0.332   1.151   1.605 -0.4282 -0.2080  0.3511
17408SOL     OW53664   3.039   5.939  10.478 -0.2075  0.3531 -0.1082
17408SOL    HW153665   3.053   6.011  10.416 -0.1338  0.6776  0.2784
17408SOL    HW253666   2.968   5.969  10.534  0.6702  0.6726  0.8591
17409SOL     OW53667   1.578   2.250   8.004 -0.1957 -0.0299  0.1029
17409SOL    HW153668   1.600   2.343   8.008  0.9980 -0.2235 -1.1961
17409SOL    HW253669   1.502   2.241   8.062  0.0949  1.6112  0.8003
17410SOL     OW53670   7.289   3.704   6.498 -0.1691 -0.0363 -0.2999
17410SOL    HW153671   7.273   3.632   6.437 -0.8428 -0.4815  0.4014
17410SOL    HW253672   7.346   3.764   6.449 -0.8340 -0.3047 -1.4401
17411SOL     OW53673   3.425   6.975   8.749  0.0761  0.5103  0.0175
17411SOL    HW153674   3.482   6.922   8.805  0.1395 -0.7873 -1.2138
17411SOL    HW253675   3.364   6.912   8.711 -1.1777  1.6420  0.0767
17412SOL     OW53676   6.687   0.999   4.658  0.4649 -0.1528  0.4665
17412SOL    HW153677   6.707   1.069   4.596  1.6409 -0.8610  0.0095
17412SOL    HW253678   6.723   1.029   4.741  2.5180 -0.8905 -0.0899
17413SOL     OW53679   5.334   0.243   7.385  0.0835  0.2190 -0.0910
17413SOL    HW153680   5.321   0.310   7.452  1.0092  0.0780  0.2441
17413SOL    HW253681   5.270   0.263   7.317  0.0983  1.2050  0.1821
17414SOL     OW53682   0.588   3.769   4.150  0.6457 -0.0669 -0.3649
17414SOL    HW153683   0.565   3.698   4.210 -0.1125 -0.0347 -0.6133
17414SOL    HW253684   0.522   3.836   4.165 -0.0847 -0.4141 -1.8605
17415SOL     OW53685   2.615   1.140   5.718  0.3164 -0.4000 -0.1918
17415SOL    HW153686   2.684   1.127   5.652  1.5185 -2.4011  1.3289
17415SOL    HW253687   2.631   1.228   5.752 -0.4772  0.7783 -2.6350
17416SOL     OW53688   6.538   0.415  12.321  0.1566  0.1656  0.4533
17416SOL    HW153689   6.540   0.329  12.363 -0.0969  0.3425  0.8308
17416SOL    HW253690   6.619   0.418  12.270  0.6787  0.1085  1.2552
17417SOL     OW53691   1.696   5.134   5.044  0.5286 -0.4816 -0.3027
17417SOL    HW153692   1.742   5.050   5.046  0.5795 -0.4497  1.6678
17417SOL    HW253693   1.605   5.112   5.062  1.0729  0.0696  4.4584
17418SOL     OW53694   4.330   0.795   9.069 -0.1374  0.3252 -0.1797
17418SOL    HW153695   4.240   0.767   9.084 -0.1668  0.2453 -0.4959
17418SOL    HW253696   4.384   0.728   9.112 -0.2124 -0.1127 -0.7581
17419SOL     OW53697   5.868   2.626   6.223  0.0707 -0.6474  0.0130
17419SOL    HW153698   5.947   2.657   6.267  1.1324 -1.3378 -1.3191
17419SOL    HW253699   5.809   2.602   6.294  0.1241  2.0445  1.0675
17420SOL     OW53700   5.598   0.161   2.857  0.3662  0.0275  0.1533
17420SOL    HW153701   5.596   0.104   2.780 -1.0458 -0.8088  0.7678
17420SOL    HW253702   5.646   0.111   2.923  0.6020  0.2667  0.1636
17421SOL     OW53703   6.987   2.193   7.805  0.0748 -0.0097 -0.4080
17421SOL    HW153704   6.917   2.139   7.767 -0.4289 -0.3857  0.9834
17421SOL    HW253705   7.047   2.208   7.733 -0.6128 -1.0764 -1.2423
17422SOL     OW53706   5.221   1.865   9.621  0.3643  0.5079  0.0327
17422SOL    HW153707   5.183   1.952   9.637  0.6917  0.6065  0.2845
17422SOL    HW253708   5.195   1.813   9.697  1.4998  0.8363  0.6656
17423SOL     OW53709   2.679   6.554   2.261 -0.1373 -0.0395 -0.3275
17423SOL    HW153710   2.588   6.531   2.242  0.2967 -3.4016  0.9693
17423SOL    HW253711   2.681   6.563   2.356  1.0885 -1.2634 -0.2166
17424SOL     OW53712   7.348   2.089   3.874  0.3628 -0.5390 -0.1747
17424SOL    HW153713   7.380   2.025   3.811  0.0018  0.7405 -1.7369
17424SOL    HW253714   7.409   2.084   3.947  1.3796 -1.3723 -1.0502
17425SOL     OW53715   2.588   3.807   3.035 -0.0791  0.9022 -0.0681
17425SOL    HW153716   2.512   3.752   3.052  0.0508  1.4422  2.7539
17425SOL    HW253717   2.576   3.837   2.945 -1.4387 -1.6431 -0.8358
17426SOL     OW53718   1.793   1.728   7.652 -0.7140 -0.5910 -0.6168
17426SOL    HW153719   1.749   1.658   7.700 -0.0389 -0.1837  0.6343
17426SOL    HW253720   1.796   1.801   7.714 -0.4132  0.1760 -1.5209
17427SOL     OW53721   0.702   4.585  11.507  0.0374  0.1715 -0.2048
17427SOL    HW153722   0.696   4.571  11.601  2.8445  2.2674  0.4132
17427SOL    HW253723   0.613   4.570  11.475 -0.6643 -2.2346  2.4696
17428SOL     OW53724   1.323   2.772   5.597  0.6713 -0.4564  0.0282
17428SOL    HW153725   1.377   2.698   5.625 -0.4163 -1.3855 -0.2485
17428SOL    HW253726   1.315   2.827   5.675  2.9162  0.3097 -0.2054
17429SOL     OW53727   6.441   2.787   3.566  0.3343 -0.0719 -0.0368
17429SOL    HW153728   6.383   2.861   3.547 -0.9259 -1.4817 -2.1031
17429SOL    HW253729   6.409   2.716   3.510  2.9364 -1.4972  0.1004
17430SOL     OW53730   4.005   1.073   1.021 -0.3553  0.1137 -0.3729
17430SOL    HW153731   4.005   1.115   1.107 -1.9754  0.0884 -0.3160
17430SOL    HW253732   3.916   1.086   0.988  0.2269  0.1058 -2.0520
17431SOL     OW53733   6.119   0.215  10.434  0.1771  0.0265  0.5550
17431SOL    HW153734   6.119   0.212  10.339 -1.3932 -0.7497  0.5503
17431SOL    HW253735   6.088   0.304  10.455 -0.2325 -0.0557  0.3191
17432SOL     OW53736   6.156   1.981   9.752  0.2200  0.6073  0.5508
17432SOL    HW153737   6.078   1.936   9.782  0.8841 -0.6245  0.4870
17432SOL    HW253738   6.186   2.031   9.828 -1.0119  1.6656  0.3641
17433SOL     OW53739   5.439   3.969   4.305 -0.5738 -0.1471 -0.4951
17433SOL    HW153740   5.365   4.022   4.334 -2.1721 -1.2123 -2.4176
17433SOL    HW253741   5.458   3.999   4.216 -0.9345 -2.1317 -1.2859
17434SOL     OW53742   2.900   3.610   5.664 -0.0829 -0.3168 -0.4873
17434SOL    HW153743   2.865   3.696   5.684  0.1963 -0.5617  1.1645
17434SOL    HW253744   2.928   3.616   5.572 -1.5991  0.8048 -0.9127
17435SOL     OW53745   5.128   4.780  10.156  0.4166 -0.2743  0.5452
17435SOL    HW153746   5.162   4.766  10.245  2.0036  0.3409  0.0525
17435SOL    HW253747   5.044   4.734  10.156  0.2605 -0.0783  2.4474
17436SOL     OW53748   5.474   0.423   9.636  0.2663 -0.3342  0.4212
17436SOL    HW153749   5.470   0.335   9.673 -1.2383  1.0415  3.9924
17436SOL    HW253750   5.566   0.447   9.643  0.9134 -1.9077 -1.6452
17437SOL     OW53751   0.322   5.908   0.159  0.3832 -0.4799 -0.0168
17437SOL    HW153752   0.392   5.850   0.131  0.1981  0.4316 -2.5801
17437SOL    HW253753   0.268   5.920   0.081 -2.6788 -1.1494  1.8225
17438SOL     OW53754   4.163   7.432   3.419  0.1487 -0.1559 -1.1763
17438SOL    HW153755   4.109   7.492   3.470  1.6089 -0.3095  0.6398
17438SOL    HW253756   4.241   7.481   3.397  0.9360 -1.0553 -0.4950
17439SOL     OW53757   3.814   1.803   9.270 -0.4948  0.1208  0.4729
17439SOL    HW153758   3.868   1.827   9.195 -1.0024  0.6043  0.2652
17439SOL    HW253759   3.751   1.740   9.235 -0.9570  0.6131  0.4162
17440SOL     OW53760   0.224   3.883   7.689 -0.1051 -0.2059 -0.4554
17440SOL    HW153761   0.217   3.791   7.716  0.3207 -0.9962 -2.8451
17440SOL    HW253762   0.134   3.909   7.670 -0.2427 -0.0614  0.3508
17441SOL     OW53763   5.130   6.855   4.552  0.0466  0.2130 -0.0385
17441SOL    HW153764   5.122   6.933   4.497  0.8776  0.9057  0.7984
17441SOL    HW253765   5.055   6.861   4.612 -0.5956 -0.3015 -0.7659
17442SOL     OW53766   6.498   1.249   9.960 -0.4051 -0.6290 -0.1916
17442SOL    HW153767   6.472   1.161   9.985 -0.2016 -0.3674  1.0109
17442SOL    HW253768   6.527   1.290  10.042 -0.0182  0.3861 -0.8112
17443SOL     OW53769   1.027   0.399   5.677 -0.0854 -0.4656  0.3842
17443SOL    HW153770   0.947   0.348   5.687 -0.8159  0.1954 -1.5306
17443SOL    HW253771   0.996   0.487   5.652  1.1521  0.7112  2.7259
17444SOL     OW53772   2.431   0.354   5.771  0.1827  0.0563  0.8046
17444SOL    HW153773   2.379   0.432   5.788 -0.4907 -0.0917 -0.4440
17444SOL    HW253774   2.482   0.341   5.851 -1.2141  0.5842  1.8186
17445SOL     OW53775   5.050   1.451   1.538  0.0046 -0.2798 -0.1266
17445SOL    HW153776   4.997   1.412   1.468  0.7281 -0.7180 -0.4387
17445SOL    HW253777   5.072   1.377   1.595  1.3455 -0.3462 -0.6961
17446SOL     OW53778   5.199   6.911   2.306 -0.0099  0.6776 -0.1704
17446SOL    HW153779   5.201   6.820   2.277 -0.0469  0.7862 -0.5288
17446SOL    HW253780   5.252   6.957   2.241 -0.0918  0.9309 -0.0597
17447SOL     OW53781   0.509   3.687   2.976 -0.1436  0.0981 -0.4499
17447SOL    HW153782   0.436   3.630   2.998  1.2938 -1.6110  0.1054
17447SOL    HW253783   0.471   3.754   2.919 -1.5784 -2.4396 -2.6883
17448SOL     OW53784   2.363   7.415   4.471  0.1287 -0.6871  0.0983
17448SOL    HW153785   2.312   7.451   4.398  0.9219 -2.0975 -1.2205
17448SOL    HW253786   2.444   7.466   4.470 -0.0039 -0.4731  0.2161
17449SOL     OW53787   2.897   2.441   0.317  0.2707 -0.2969  0.0695
17449SOL    HW153788   2.916   2.347   0.313 -0.4622 -0.4563  0.1821
17449SOL    HW253789   2.948   2.478   0.245 -0.2754 -0.9337 -0.6665
17450SOL     OW53790   4.260   6.025   2.446  0.0738  0.2731  0.5149
17450SOL    HW153791   4.298   5.938   2.431 -0.4516 -0.0555  1.0378
17450SOL    HW253792   4.320   6.086   2.403  1.3995 -0.1908  1.6489
17451SOL     OW53793   4.996   7.164  10.949  0.0487 -0.0942 -0.6069
17451SOL    HW153794   4.921   7.113  10.978  0.0644  0.8968  1.2685
17451SOL    HW253795   5.020   7.219  11.024  3.4185 -1.2466 -0.6475
17452SOL     OW53796   1.881   4.166   4.855  0.1872 -0.2511 -0.0346
17452SOL    HW153797   1.950   4.220   4.893 -0.5026  0.2644  0.5255
17452SOL    HW253798   1.845   4.118   4.930 -1.7742  1.4227  0.2106
17453SOL     OW53799   0.109   7.686   3.376  0.4422 -0.6478 -0.4037
17453SOL    HW153800   0.135   7.697   3.284  0.6498  1.3604 -0.1511
17453SOL    HW253801   0.180   7.633   3.413  0.5084 -1.2392 -1.3205
17454SOL     OW53802   1.894   0.849   3.818  0.1953  0.8458 -0.0273
17454SOL    HW153803   1.981   0.810   3.821  0.0828  0.6218  0.3498
17454SOL    HW253804   1.904   0.926   3.761  0.4974  0.4787 -0.4809
17455SOL     OW53805   7.427   2.289   0.168 -0.4745  0.4533  0.4697
17455SOL    HW153806   7.504   2.345   0.178  0.1609 -0.5354  1.5092
17455SOL    HW253807   7.368   2.316   0.238 -0.8033  0.7848  0.0688
17456SOL     OW53808   4.086   5.835  11.142  0.5680 -0.3473 -0.1070
17456SOL    HW153809   4.117   5.779  11.213 -0.8971  0.4996  1.2756
17456SOL    HW253810   4.005   5.792  11.113 -0.1792  0.6307  0.4777
17457SOL     OW53811   7.151   5.377   2.682  0.5942  0.4149 -0.5349
17457SOL    HW153812   7.175   5.460   2.640  1.8833  0.5311  0.3881
17457SOL    HW253813   7.078   5.344   2.629 -0.2214  2.3252 -0.6974
17458SOL     OW53814   1.529   2.898   3.450 -0.0260 -0.4936  0.1021
17458SOL    HW153815   1.478   2.816   3.457 -0.8528  0.0058  0.0993
17458SOL    HW253816   1.540   2.926   3.540 -2.6420  1.1017  0.0296
17459SOL     OW53817   1.614   5.413   3.406  0.1826  0.5569 -0.0070
17459SOL    HW153818   1.530   5.393   3.365 -0.2288 -1.8173  1.7496
17459SOL    HW253819   1.591   5.465   3.484  0.4831  0.9828 -0.1960
17460SOL     OW53820   6.637   6.772   0.248 -0.4025  0.2541 -0.1320
17460SOL    HW153821   6.711   6.830   0.266  1.7883 -2.1102 -0.8853
17460SOL    HW253822   6.599   6.755   0.333  0.9936  0.2416  0.5267
17461SOL     OW53823   3.769   3.529   3.819  0.3459 -0.1793  0.3695
17461SOL    HW153824   3.776   3.612   3.771 -0.5998  0.1180  0.7032
17461SOL    HW253825   3.707   3.548   3.889  0.9479 -0.8791  1.1154
17462SOL     OW53826   2.467   4.012   0.556 -0.3952  0.3064 -0.0735
17462SOL    HW153827   2.457   4.106   0.548  1.8350  0.7096  1.0955
17462SOL    HW253828   2.378   3.979   0.569 -1.3484  2.0748 -1.7033
17463SOL     OW53829   7.397   4.602   6.816  0.1845  0.2539 -0.3942
17463SOL    HW153830   7.484   4.565   6.824  0.2286  0.6012  0.9376
17463SOL    HW253831   7.402   4.659   6.739  0.3780 -1.6883 -1.9012
17464SOL     OW53832   2.213   1.177   0.466  0.1486  0.0039  0.2717
17464SOL    HW153833   2.128   1.163   0.508  0.1014 -0.1913  0.1129
17464SOL    HW253834   2.243   1.089   0.443 -0.0096  0.1381 -0.4604
17465SOL     OW53835   6.904   1.082   9.534 -0.5622 -0.1840 -0.4001
17465SOL    HW153836   6.835   1.131   9.577  0.1764  0.3793  0.1619
17465SOL    HW253837   6.877   1.078   9.442 -1.2297  0.2173 -0.2229
17466SOL     OW53838   7.792   4.809   7.044  0.3199  0.3666  0.5500
17466SOL    HW153839   7.730   4.754   7.092 -1.5802  0.7631 -1.3032
17466SOL    HW253840   7.862   4.749   7.018  0.9716 -0.0168  2.9944
17467SOL     OW53841   1.278   6.010   2.532 -0.1911 -0.6721  0.2227
17467SOL    HW153842   1.215   5.972   2.592 -1.8294  1.2329 -0.1990
17467SOL    HW253843   1.284   6.102   2.557  0.8318 -0.3460 -1.0815
17468SOL     OW53844   2.158   6.043   2.259  0.2862 -0.3012  0.2249
17468SOL    HW153845   2.069   6.074   2.242 -0.2573 -1.5750  0.6414
17468SOL    HW253846   2.211   6.122   2.258 -0.9793  0.5916  0.8709
17469SOL     OW53847   1.461   4.228   6.670 -0.4595  0.3744  0.5484
17469SOL    HW153848   1.431   4.259   6.585 -0.6285 -1.1158  0.0429
17469SOL    HW253849   1.540   4.177   6.651 -0.9911 -0.7173  1.1472
17470SOL     OW53850   7.603   0.062   5.917  0.4861  0.2336 -0.0290
17470SOL    HW153851   7.640   0.009   5.988 -0.3255 -1.1415 -0.5825
17470SOL    HW253852   7.566   0.139   5.960  0.4798 -0.3250  0.9816
17471SOL     OW53853   2.024   1.417   0.955 -0.2917  0.5019  0.2836
17471SOL    HW153854   1.949   1.451   0.906 -0.7292 -0.5240  0.2079
17471SOL    HW253855   2.097   1.473   0.930 -0.7771  0.7622 -0.5841
17472SOL     OW53856   1.796   0.645   9.889  0.2021 -0.0006 -0.1390
17472SOL    HW153857   1.881   0.687   9.889 -0.0368  0.5002  0.8944
17472SOL    HW253858   1.771   0.640   9.981 -0.3987 -1.1485 -0.3376
17473SOL     OW53859   3.271   7.481   2.118  0.0170 -0.0152  0.0040
17473SOL    HW153860   3.339   7.521   2.172 -0.6511  1.0362  0.1105
17473SOL    HW253861   3.238   7.408   2.170 -0.6360  1.0019  1.0453
17474SOL     OW53862   3.198   6.201   4.825  0.2340  0.0568  0.7023
17474SOL    HW153863   3.265   6.209   4.892  1.5190 -2.6585 -0.1207
17474SOL    HW253864   3.240   6.152   4.754 -2.2950 -0.8991 -0.2647
17475SOL     OW53865   1.281   2.743   8.092  0.0620 -0.2325 -0.3499
17475SOL    HW153866   1.269   2.746   7.997 -3.0570 -1.1374 -0.1092
17475SOL    HW253867   1.260   2.653   8.117  2.4578 -0.4762  1.0914
17476SOL     OW53868   2.801   3.979   3.515  0.4822  0.0039 -0.2565
17476SOL    HW153869   2.887   3.980   3.471  0.9765 -0.8392  0.6639
17476SOL    HW253870   2.815   3.927   3.594 -0.5181  1.1064  0.6711
17477SOL     OW53871   7.480   1.938  10.797 -0.2754 -0.4182  0.4977
17477SOL    HW153872   7.545   1.988  10.747 -1.4276 -0.9222 -1.6073
17477SOL    HW253873   7.453   1.868  10.738 -1.3539 -1.3577  2.0497
17478SOL     OW53874   0.413   5.976  11.811 -0.4468 -0.1023 -0.3465
17478SOL    HW153875   0.387   5.998  11.722 -1.0527  0.9582  0.0669
17478SOL    HW253876   0.331   5.964  11.858 -0.1330 -0.6044  0.0871
17479SOL     OW53877   4.131   1.391  12.131 -0.2255  0.1264 -0.0416
17479SOL    HW153878   4.059   1.329  12.147  0.5080 -0.8601 -0.4763
17479SOL    HW253879   4.145   1.434  12.216  0.4873 -1.6507  0.7994
17480SOL     OW53880   2.395   5.191  10.026  0.6447  0.1817  0.2682
17480SOL    HW153881   2.468   5.206  10.086  1.4055 -0.0360 -0.5810
17480SOL    HW253882   2.321   5.237  10.066  1.0030 -0.3918  1.6200
17481SOL     OW53883   7.418   2.469  11.234 -0.2014  0.1624  0.0593
17481SOL    HW153884   7.407   2.535  11.303  0.9024 -0.1937  0.6050
17481SOL    HW253885   7.439   2.520  11.155  0.8655  0.4884  0.5219
17482SOL     OW53886   2.288   6.967   8.084  0.0063 -0.0206 -0.1459
17482SOL    HW153887   2.336   7.005   8.158  1.3519  0.2476 -1.1244
17482SOL    HW253888   2.297   7.031   8.013  1.2204 -1.5333 -1.4265
17483SOL     OW53889   4.247   4.851   7.206  0.0108 -0.4761  0.1296
17483SOL    HW153890   4.330   4.803   7.211 -0.0438 -0.4558  2.4983
17483SOL    HW253891   4.180   4.782   7.213 -0.1052 -0.3046  0.8157
17484SOL     OW53892   4.546   1.469   8.373 -0.0486 -0.0915 -0.5288
17484SOL    HW153893   4.462   1.492   8.334  0.6763  1.4818 -1.2448
17484SOL    HW253894   4.607   1.535   8.339  1.7558 -1.9345 -1.0620
17485SOL     OW53895   5.133   7.649   2.330 -0.0534 -0.3121  0.5133
17485SOL    HW153896   5.196   7.583   2.359  0.6640  0.4918  0.8101
17485SOL    HW253897   5.136   7.645   2.235  1.5896  0.7641  0.4934
17486SOL     OW53898   3.404   5.611   2.352 -0.5206  1.3627 -1.1016
17486SOL    HW153899   3.449   5.576   2.429 -0.0459 -0.1518 -2.0239
17486SOL    HW253900   3.318   5.638   2.385 -0.6080  0.0474 -0.1700
17487SOL     OW53901   6.036   4.413   6.470 -0.3475  0.3823  0.0416
17487SOL    HW153902   5.964   4.470   6.497  0.4034  0.0549  3.1104
17487SOL    HW253903   6.115   4.463   6.491  0.3396 -0.2907 -0.8511
17488SOL     OW53904   3.561   1.905   5.689 -0.3044 -0.1684  0.2009
17488SOL    HW153905   3.646   1.887   5.730 -1.2701 -1.4701  1.7633
17488SOL    HW253906   3.582   1.919   5.597  1.4926 -1.6771  0.3049
17489SOL     OW53907   5.621   5.651   4.841  0.3562 -0.2261 -0.8396
17489SOL    HW153908   5.641   5.581   4.902 -0.6002  0.0995 -0.1430
17489SOL    HW253909   5.707   5.680   4.809  0.9802  0.4798  1.3299
17490SOL     OW53910   6.316   7.535   2.094  0.0054 -0.6304 -0.1050
17490SOL    HW153911   6.255   7.522   2.167  1.1221 -1.3804  0.7367
17490SOL    HW253912   6.374   7.605   2.124  0.9984 -1.5224  0.1045
17491SOL     OW53913   5.489   1.110   2.030  0.3686 -0.1576  0.8942
17491SOL    HW153914   5.429   1.100   2.104 -2.0044 -0.8642 -1.0063
17491SOL    HW253915   5.559   1.047   2.047 -0.4019 -0.6920  2.2537
17492SOL     OW53916   4.798   2.615   2.834  0.6530  0.0395  0.2503
17492SOL    HW153917   4.807   2.541   2.774  2.9038  0.6842 -0.2924
17492SOL    HW253918   4.833   2.583   2.918 -1.0709 -0.3738  0.8579
17493SOL     OW53919   1.209   1.479   8.070 -0.4108  0.3240 -0.1658
17493SOL    HW153920   1.142   1.546   8.055 -1.5720 -0.5604  0.8393
17493SOL    HW253921   1.224   1.440   7.984 -0.2666  1.3394 -0.6248
17494SOL     OW53922   0.650   1.346  11.314 -0.1135  0.1895  0.1191
17494SOL    HW153923   0.680   1.401  11.242  1.0184  1.2599  1.3584
17494SOL    HW253924   0.676   1.257  11.288  1.9396  0.7657 -0.0332
17495SOL     OW53925   5.152   3.132   3.201 -0.5057 -0.3297  0.1441
17495SOL    HW153926   5.090   3.113   3.131 -1.2244  0.2638  0.6070
17495SOL    HW253927   5.165   3.226   3.198  1.6251 -0.5891 -0.9490
17496SOL     OW53928   0.418   5.530   8.954 -0.0917 -0.2678 -0.4426
17496SOL    HW153929   0.417   5.436   8.973 -0.9653 -0.7035 -2.3586
17496SOL    HW253930   0.373   5.570   9.029  0.2872 -1.3628  0.3969
17497SOL     OW53931   6.124   6.884   3.390 -0.1888  0.0661 -0.3409
17497SOL    HW153932   6.131   6.792   3.416  0.8983  0.0333 -0.6813
17497SOL    HW253933   6.163   6.933   3.463 -1.7935  0.3702  0.3623
17498SOL     OW53934   1.148   6.033   5.843 -0.1206 -0.2235  0.4173
17498SOL    HW153935   1.177   5.982   5.918 -0.9593 -1.0571  0.1940
17498SOL    HW253936   1.179   5.983   5.767 -0.0818  0.1294  0.1995
17499SOL     OW53937   6.658   4.043   9.675 -0.6950  0.6357 -0.2734
17499SOL    HW153938   6.666   3.950   9.700 -0.1918  0.5591 -0.6939
17499SOL    HW253939   6.609   4.041   9.592 -1.7098  0.8358  0.3072
17500SOL     OW53940   3.468   1.224   2.098  0.0430  0.5724 -0.2739
17500SOL    HW153941   3.543   1.278   2.124  1.2507  0.9598 -3.9169
17500SOL    HW253942   3.407   1.286   2.057 -1.0793 -0.1285  0.2870
17501SOL     OW53943   2.353   0.673   7.494  0.1669  0.4851 -0.2662
17501SOL    HW153944   2.268   0.708   7.522  0.7441  0.9455  0.9963
17501SOL    HW253945   2.390   0.741   7.439  0.1571  0.7384  0.0359
17502SOL     OW53946   0.831   3.330   4.455  0.3480 -0.1678  0.1716
17502SOL    HW153947   0.899   3.288   4.402 -0.1383  1.8031 -2.1695
17502SOL    HW253948   0.849   3.424   4.448 -0.6308  0.2492  2.3589
17503SOL     OW53949   3.155   3.660   5.901  0.3510 -0.0680 -0.2875
17503SOL    HW153950   3.217   3.703   5.841  0.0153  0.8500  0.0026
17503SOL    HW253951   3.070   3.668   5.858  0.0818  0.7431  0.3625
17504SOL     OW53952   2.926   7.140   4.585 -0.4221  0.8966 -0.4934
17504SOL    HW153953   3.015   7.161   4.613 -0.5922  0.9327  0.0382
17504SOL    HW253954   2.937   7.071   4.520  0.0795  1.9368 -1.5487
17505SOL     OW53955   2.773   5.278   0.781  0.0933  0.3785  0.7964
17505SOL    HW153956   2.709   5.296   0.850 -1.8785 -0.2875 -0.7335
17505SOL    HW253957   2.769   5.183   0.769  1.1154  0.3713  0.4172
17506SOL     OW53958   1.774   4.755   0.301  0.3455  0.4266 -0.4288
17506SOL    HW153959   1.694   4.774   0.252 -1.6263 -0.7747  2.0637
17506SOL    HW253960   1.764   4.803   0.383  1.9168 -0.2133  0.1807
17507SOL     OW53961   5.864   5.431   6.232  0.1452  0.0995 -0.4313
17507SOL    HW153962   5.815   5.495   6.180 -0.1837 -1.3554 -1.9754
17507SOL    HW253963   5.806   5.410   6.305  0.6502  2.2394  0.6608
17508SOL     OW53964   4.330   1.770   1.440 -0.3232 -0.1691  0.2872
17508SOL    HW153965   4.359   1.818   1.363  0.1299 -1.3660 -0.3015
17508SOL    HW253966   4.288   1.837   1.495 -4.3456  0.1674 -2.7082
17509SOL     OW53967   4.347   7.680   3.721 -0.2677 -0.4103 -0.6193
17509SOL    HW153968   4.257   7.668   3.691 -0.3458  0.6328 -0.8327
17509SOL    HW253969   4.351   7.771   3.748  0.4058 -0.7545  0.5183
17510SOL     OW53970   6.865   6.705  11.272 -0.2975 -0.5506 -0.1499
17510SOL    HW153971   6.860   6.791  11.230 -0.6820 -0.9632 -0.9739
17510SOL    HW253972   6.950   6.705  11.315 -0.6019  0.5222  0.4946
17511SOL     OW53973   2.383   4.187  10.516 -0.1564  0.4866  0.0277
17511SOL    HW153974   2.418   4.185  10.427 -0.0772 -0.3121  0.0661
17511SOL    HW253975   2.315   4.254  10.514 -0.3508  0.2720 -0.7042
17512SOL     OW53976   0.476   6.486   9.102 -0.0953 -0.0080  0.1801
17512SOL    HW153977   0.506   6.567   9.144  0.4526 -0.2893  0.3493
17512SOL    HW253978   0.382   6.482   9.120  0.0180  0.1915  0.8554
17513SOL     OW53979   0.016   2.712   2.347 -0.4763 -0.7036  0.5085
17513SOL    HW153980  -0.059   2.717   2.406  0.8852 -1.1002  2.4030
17513SOL    HW253981  -0.000   2.777   2.280 -1.8448  0.2132  1.6818
17514SOL     OW53982   3.965   1.068   7.793  0.6743  0.3431  0.3076
17514SOL    HW153983   3.995   1.154   7.764  1.2813  0.3617  0.9723
17514SOL    HW253984   3.879   1.085   7.832  0.6280  0.5823  0.1064
17515SOL     OW53985   6.448   0.257  10.653 -0.3884 -0.3575  0.5357
17515SOL    HW153986   6.408   0.344  10.650 -0.8447 -0.5889 -0.7678
17515SOL    HW253987   6.376   0.198  10.678  0.0320 -0.3230  1.9115
17516SOL     OW53988   7.785   5.805   7.451  0.1011 -0.0893 -0.3056
17516SOL    HW153989   7.809   5.718   7.482 -1.7581 -0.3749  0.4310
17516SOL    HW253990   7.758   5.853   7.530 -0.8639  0.4702 -0.9483
17517SOL     OW53991   0.756   0.762   8.712  0.3795  0.2752  0.2261
17517SOL    HW153992   0.802   0.821   8.653  1.4750 -0.4126  0.3564
17517SOL    HW253993   0.663   0.775   8.692  0.6924  0.5432 -1.1855
17518SOL     OW53994   4.761   4.727  11.613  0.1917 -0.1738  0.2478
17518SOL    HW153995   4.793   4.794  11.674  1.2835 -0.2228 -0.2406
17518SOL    HW253996   4.754   4.647  11.666 -1.7158  0.4331  0.9805
17519SOL     OW53997   1.632   2.678   4.581 -0.2216 -0.1269 -0.1752
17519SOL    HW153998   1.662   2.664   4.491  0.5581  1.4518 -0.1936
17519SOL    HW253999   1.541   2.708   4.571 -0.2060 -0.1602 -0.4231
17520SOL     OW54000   7.261   4.590  11.926 -0.3270  0.1282  0.8586
17520SOL    HW154001   7.252   4.613  12.018  2.2720  2.5331  0.6138
17520SOL    HW254002   7.250   4.672  11.879  0.7397 -0.6216 -0.7963
17521SOL     OW54003   5.900   6.047   2.742 -0.2038  0.0187  0.0367
17521SOL    HW154004   5.977   6.078   2.790  0.5025 -0.2614 -0.8783
17521SOL    HW254005   5.877   5.965   2.784  0.8659 -0.6056 -0.5278
17522SOL     OW54006   7.074   3.896   2.156  0.1916 -0.5849 -0.1322
17522SOL    HW154007   7.045   3.900   2.065  1.1103 -2.7830 -0.5808
17522SOL    HW254008   6.994   3.903   2.207 -0.4111 -0.0528 -1.1265
17523SOL     OW54009   3.143   0.659  10.828 -0.1865  0.0449  0.4553
17523SOL    HW154010   3.126   0.735  10.884 -3.1358  0.8969 -1.3851
17523SOL    HW254011   3.129   0.584  10.886 -0.1352  0.8758  1.5884
17524SOL     OW54012   3.559   0.229  10.915 -0.3845 -0.3794  0.2500
17524SOL    HW154013   3.539   0.208  11.006 -0.7932  1.0881  0.5204
17524SOL    HW254014   3.486   0.283  10.886 -0.1774 -0.6970 -0.9064
17525SOL     OW54015   1.251   0.299  11.540 -0.0282  0.4378  0.3883
17525SOL    HW154016   1.258   0.332  11.450 -0.4138  0.3986  0.3443
17525SOL    HW254017   1.222   0.208  11.530 -1.4386  0.8497  0.5974
17526SOL     OW54018   4.338   0.107  10.893  0.4811  0.0983 -0.0536
17526SOL    HW154019   4.255   0.147  10.867  0.6085  0.2640 -0.2043
17526SOL    HW254020   4.332   0.017  10.862 -0.4695 -0.4818  1.6724
17527SOL     OW54021   6.869   2.455   2.230  0.2700 -0.4473  0.4155
17527SOL    HW154022   6.937   2.391   2.209  0.0775 -0.6952  0.5452
17527SOL    HW254023   6.814   2.411   2.295  1.0859  0.4605  1.7581
17528SOL     OW54024   2.453   3.011   7.902  0.2409 -0.0134  0.0708
17528SOL    HW154025   2.493   2.943   7.847 -0.5219 -0.3337 -0.1001
17528SOL    HW254026   2.393   2.963   7.960  0.4907  0.4003  0.6862
17529SOL     OW54027   2.770   1.182  10.216 -0.0076  0.2528 -0.2008
17529SOL    HW154028   2.736   1.112  10.160  0.0925 -1.8169  2.1783
17529SOL    HW254029   2.699   1.247  10.218 -0.5444 -0.2358 -1.6108
17530SOL     OW54030   7.720   6.578  10.503  0.1628  0.2489  0.5074
17530SOL    HW154031   7.687   6.664  10.477 -1.0592 -0.0834  0.9394
17530SOL    HW254032   7.686   6.518  10.437 -0.8231 -0.2141  1.4020
17531SOL     OW54033   5.969   2.567   1.278 -0.3156  0.0789  0.3739
17531SOL    HW154034   5.926   2.525   1.353 -0.2723  1.3571  1.1396
17531SOL    HW254035   6.060   2.539   1.284 -1.2195 -4.7319 -2.6839
17532SOL     OW54036   7.058   6.846  10.210 -0.3240 -0.2860  0.4715
17532SOL    HW154037   7.118   6.900  10.159 -0.8521 -0.3247 -0.2130
17532SOL    HW254038   7.077   6.868  10.302  0.6024 -0.1795  0.2538
17533SOL     OW54039   6.600   5.215  10.824 -0.2169  0.3173 -0.0301
17533SOL    HW154040   6.611   5.263  10.742  1.6638 -0.8578 -0.5097
17533SOL    HW254041   6.506   5.195  10.827 -0.4045  0.8227 -1.6390
17534SOL     OW54042   5.231   6.149   3.038 -0.1192  0.1592  0.4813
17534SOL    HW154043   5.175   6.171   3.113 -2.8982 -1.6771 -0.8916
17534SOL    HW254044   5.272   6.066   3.063  1.3754  1.0311  1.0933
17535SOL     OW54045   7.385   2.508   9.735  0.0819 -0.3540 -0.2274
17535SOL    HW154046   7.457   2.453   9.763  0.2392 -0.0916 -0.1169
17535SOL    HW254047   7.327   2.449   9.686 -0.6886 -1.0386  1.4455
17536SOL     OW54048   1.003   7.513   2.932 -0.0595 -0.0452 -0.1912
17536SOL    HW154049   1.033   7.501   2.842 -0.3348 -1.4008 -0.1246
17536SOL    HW254050   1.054   7.587   2.964  1.0624 -0.4232 -1.0179
17537SOL     OW54051   1.976   4.021   9.379 -0.1836  0.1477  0.1050
17537SOL    HW154052   2.072   4.011   9.379 -0.1018  0.2393 -2.5507
17537SOL    HW254053   1.950   4.001   9.290 -2.6664  0.3163  0.7238
17538SOL     OW54054   4.557   4.213   1.876 -0.2426 -0.0389 -0.0486
17538SOL    HW154055   4.639   4.223   1.826 -0.2218 -0.1527 -0.0393
17538SOL    HW254056   4.522   4.129   1.846 -1.7042  1.1753 -2.0128
17539SOL     OW54057   5.510   1.064   4.290 -0.0783  0.1309 -0.4154
17539SOL    HW154058   5.446   1.088   4.223  0.9102  1.2987 -0.9970
17539SOL    HW254059   5.594   1.088   4.251  0.5566  0.5024  1.1142
17540SOL     OW54060   7.868   7.697   8.161  0.2354 -0.1629 -0.8526
17540SOL    HW154061   7.924   7.639   8.214 -0.7215  0.2767  0.7054
17540SOL    HW254062   7.854   7.773   8.217  0.5024  1.0797 -2.4139
17541SOL     OW54063   5.376   6.239   6.952 -0.7658 -0.3798 -0.0991
17541SOL    HW154064   5.443   6.290   6.906 -0.4361 -0.9897 -0.3007
17541SOL    HW254065   5.421   6.206   7.030 -1.4457  1.0308  0.9405
17542SOL     OW54066   0.378   2.580   9.899  0.1767  0.4618 -0.7876
17542SOL    HW154067   0.397   2.671   9.879 -0.2956  0.6331 -0.4696
17542SOL    HW254068   0.318   2.583   9.974 -0.7831 -0.0724 -1.5102
17543SOL     OW54069   7.640   0.235   4.974  0.5752 -0.0751 -0.0241
17543SOL    HW154070   7.569   0.227   4.911 -0.0741  0.0601  0.6807
17543SOL    HW254071   7.598   0.261   5.056  1.3179 -0.9221  0.6533
17544SOL     OW54072   1.740   4.997   9.169  0.1067 -0.3064  0.0964
17544SOL    HW154073   1.803   4.983   9.240 -0.3343  1.3444  0.8636
17544SOL    HW254074   1.657   4.963   9.202 -0.1475  0.6643  0.4726
17545SOL     OW54075   4.503   1.770   2.486  0.0730 -0.1860  0.3056
17545SOL    HW154076   4.573   1.813   2.536  0.7377 -0.7518 -0.1144
17545SOL    HW254077   4.425   1.781   2.540  0.3896  0.8497  0.5774
17546SOL     OW54078   3.580   3.638   8.196 -0.5855  0.4138 -0.5099
17546SOL    HW154079   3.515   3.642   8.125  1.3645  0.8891 -2.3756
17546SOL    HW254080   3.611   3.728   8.205 -0.5986  0.3092  0.8020
17547SOL     OW54081   2.728   2.925   3.871 -0.0538 -0.7906 -0.2452
17547SOL    HW154082   2.713   2.980   3.948 -0.7589 -1.3760  0.0415
17547SOL    HW254083   2.703   2.980   3.796  1.9089  0.2713 -0.1870
17548SOL     OW54084   1.828   6.045   5.649 -0.0606 -0.5465  0.3144
17548SOL    HW154085   1.870   5.990   5.715  1.0324 -0.0521  0.0545
17548SOL    HW254086   1.873   6.129   5.656 -0.3526 -0.3019 -0.6555
17549SOL     OW54087   3.573   1.268   0.116 -0.3334  0.2593 -0.1657
17549SOL    HW154088   3.508   1.336   0.100  0.4957  1.0590 -0.2396
17549SOL    HW254089   3.622   1.299   0.192  0.3662 -0.0074 -0.4924
17550SOL     OW54090   0.295   7.741   8.231 -0.0700 -0.6161 -0.3307
17550SOL    HW154091   0.297   7.825   8.276  2.4437 -0.8479  0.1293
17550SOL    HW254092   0.251   7.759   8.148 -0.7430  0.8366  0.3076
17551SOL     OW54093   1.191   3.100   4.942 -0.2991  0.2278 -0.3676
17551SOL    HW154094   1.265   3.143   4.985 -0.7089  1.2556 -0.6570
17551SOL    HW254095   1.228   3.019   4.907  0.8407  1.0123 -1.0463
17552SOL     OW54096   1.667   4.280   0.727 -0.0316 -0.1402  0.1851
17552SOL    HW154097   1.643   4.316   0.642 -0.7700 -0.1101  0.3975
17552SOL    HW254098   1.721   4.203   0.706 -0.5004 -0.3388 -0.3196
17553SOL     OW54099   1.332   5.855   3.247 -0.1987  0.2211 -0.0922
17553SOL    HW154100   1.239   5.835   3.258 -0.4592  0.5711 -1.4589
17553SOL    HW254101   1.371   5.773   3.215  0.2544 -0.3319  1.7493
17554SOL     OW54102   7.545   5.244  11.087 -0.0054 -0.0415  0.2182
17554SOL    HW154103   7.576   5.275  11.172  0.4597  1.2018 -0.3890
17554SOL    HW254104   7.462   5.200  11.106 -1.0305  2.1490  1.0526
17555SOL     OW54105   3.845   3.578   5.761 -0.1739 -0.2920  0.3861
17555SOL    HW154106   3.846   3.505   5.700  0.4145  1.8107 -2.3265
17555SOL    HW254107   3.753   3.602   5.770 -0.3707 -1.3348  1.3216
17556SOL     OW54108   6.351   0.545   0.579  0.4224  0.4160 -0.2786
17556SOL    HW154109   6.352   0.463   0.529  0.3087  1.0272 -1.3077
17556SOL    HW254110   6.417   0.533   0.647 -0.9254 -1.2786  0.8231
17557SOL     OW54111   4.415   5.313   2.612 -0.1435  0.2864 -0.3595
17557SOL    HW154112   4.486   5.378   2.610 -0.6337  0.9232  1.3270
17557SOL    HW254113   4.388   5.305   2.520 -0.2707  2.7114 -0.6200
17558SOL     OW54114   7.853   0.545  10.519 -0.3759  0.0629 -0.2628
17558SOL    HW154115   7.792   0.607  10.480  0.0437  1.0798  0.6600
17558SOL    HW254116   7.797   0.486  10.570 -0.8232 -0.6724 -1.5345
17559SOL     OW54117   0.064   2.207   7.701 -0.1362  0.3431  0.5325
17559SOL    HW154118  -0.023   2.172   7.679 -1.0752  2.2979  0.9181
17559SOL    HW254119   0.119   2.184   7.626 -1.9034  2.2180 -1.4671
17560SOL     OW54120   7.879   1.823   6.101 -0.7190 -0.3190  0.1973
17560SOL    HW154121   7.913   1.843   6.188 -1.7512  0.4261  0.4523
17560SOL    HW254122   7.907   1.896   6.046  0.0230 -0.8427 -0.1269
17561SOL     OW54123   4.117   3.304   5.360 -0.1559  0.0864  0.3177
17561SOL    HW154124   4.105   3.241   5.289 -0.2783 -0.2088  0.5959
17561SOL    HW254125   4.184   3.365   5.328  1.8922 -1.6816  1.0305
17562SOL     OW54126   0.845   1.974  10.003 -0.0542 -0.0604  0.4219
17562SOL    HW154127   0.847   1.903   9.938 -2.0855  0.3238 -0.1329
17562SOL    HW254128   0.879   2.050   9.956  0.7440 -0.3171  0.5684
17563SOL     OW54129   2.864   1.167   9.191 -0.1096 -0.7204 -0.5668
17563SOL    HW154130   2.885   1.093   9.133 -1.0092 -0.7862 -0.8331
17563SOL    HW254131   2.782   1.203   9.155  0.5577  0.7057 -0.7139
17564SOL     OW54132   4.608   1.924   8.138 -0.0066 -0.2262 -0.2109
17564SOL    HW154133   4.548   1.978   8.189  2.1654  1.4248  0.7386
17564SOL    HW254134   4.646   1.984   8.074  1.5737 -0.8864  0.0732
17565SOL     OW54135   7.481   1.857   5.949 -0.0012  0.9213 -0.4577
17565SOL    HW154136   7.386   1.846   5.959 -0.0787  1.3938 -0.6517
17565SOL    HW254137   7.519   1.785   6.000 -0.4712  0.1774 -1.1405
17566SOL     OW54138   4.254   5.575   3.134  0.3714 -0.5945  0.3101
17566SOL    HW154139   4.175   5.537   3.172  0.4433 -0.9638  0.1002
17566SOL    HW254140   4.277   5.516   3.062  0.0109  0.3147 -0.5730
17567SOL     OW54141   0.589   7.312  11.354  0.1539  0.4152  0.1512
17567SOL    HW154142   0.537   7.262  11.290  0.4308 -0.3167  0.4807
17567SOL    HW254143   0.674   7.268  11.355  0.1120  0.3323  1.1060
17568SOL     OW54144   6.908   2.813   8.299 -0.3684  0.5030  0.6283
17568SOL    HW154145   6.926   2.725   8.266 -0.2353  0.5491  0.5751
17568SOL    HW254146   6.921   2.870   8.222 -0.9645  0.5147  0.5303
17569SOL     OW54147   6.325   5.017  12.165  0.3924  0.3345  0.1137
17569SOL    HW154148   6.278   5.090  12.207 -1.4245 -1.2469  0.9705
17569SOL    HW254149   6.288   5.013  12.077  0.4208  0.3962  0.0987
17570SOL     OW54150   3.835   4.627   8.203 -0.4519 -0.2054 -0.9291
17570SOL    HW154151   3.839   4.679   8.123 -0.2477  1.5242  0.1446
17570SOL    HW254152   3.833   4.692   8.273 -2.7958 -1.5776  0.4217
17571SOL     OW54153   4.530   4.584   6.847 -0.8613 -0.1107  0.0407
17571SOL    HW154154   4.459   4.617   6.902 -0.7541 -0.8931  0.6495
17571SOL    HW254155   4.593   4.546   6.908  0.2385  0.8322 -0.4648
17572SOL     OW54156   7.008   5.051   0.661 -0.7604  0.0350 -0.0686
17572SOL    HW154157   7.064   5.095   0.597 -0.2628 -0.5880 -0.0693
17572SOL    HW254158   6.955   4.990   0.610 -0.7633 -0.0613  0.0485
17573SOL     OW54159   0.932   3.455   9.838  0.1578 -0.1893 -0.2007
17573SOL    HW154160   0.973   3.371   9.817 -1.5910 -1.0996 -0.1737
17573SOL    HW254161   0.902   3.489   9.754 -0.3287 -0.2670 -0.0660
17574SOL     OW54162   2.624   1.858  10.948  0.7356 -0.0574  0.1523
17574SOL    HW154163   2.539   1.824  10.919  1.6429 -3.1421  0.7192
17574SOL    HW254164   2.655   1.794  11.012  3.4879  0.9672 -0.0101
17575SOL     OW54165   4.382   7.823   7.733 -0.4582 -0.4924  0.2880
17575SOL    HW154166   4.330   7.900   7.710 -0.4344 -0.4357  0.4250
17575SOL    HW254167   4.426   7.847   7.814 -1.8053 -1.2762  1.2961
17576SOL     OW54168   1.506   2.485  11.647 -0.0466  0.3422  0.1344
17576SOL    HW154169   1.436   2.550  11.640 -0.4648 -0.1506 -0.4119
17576SOL    HW254170   1.572   2.516  11.585 -0.4417  0.0167 -0.4589
17577SOL     OW54171   4.609   5.554  11.404  0.3949 -0.5663  0.1403
17577SOL    HW154172   4.688   5.540  11.351  0.5094 -2.2257  0.6741
17577SOL    HW254173   4.586   5.645  11.389  1.1213 -0.6397 -1.8197
17578SOL     OW54174   6.277   7.043  11.585 -0.7327  0.4748 -0.4020
17578SOL    HW154175   6.277   6.949  11.601 -2.0689  0.4893 -0.1453
17578SOL    HW254176   6.188   7.061  11.552 -0.4536  1.6224 -0.5690
17579SOL     OW54177   6.382   4.170   1.240  0.3915 -0.0262 -0.4574
17579SOL    HW154178   6.398   4.236   1.173 -0.1396  0.0865 -0.4749
17579SOL    HW254179   6.313   4.208   1.295 -0.5994 -0.9476 -1.0142
17580SOL     OW54180   3.844   1.032   7.543  0.1233 -0.0205 -0.1719
17580SOL    HW154181   3.755   1.068   7.550  0.3381  0.4843  0.0035
17580SOL    HW254182   3.886   1.056   7.626  0.4023 -0.3114 -0.2290
17581SOL     OW54183   1.900   7.035   8.595 -0.5460  0.2096 -0.2783
17581SOL    HW154184   1.848   7.031   8.514 -0.4784  0.5361 -0.3396
17581SOL    HW254185   1.936   7.123   8.595  1.0107 -0.3938 -0.8501
17582SOL     OW54186   6.270   0.247   0.179  0.4130 -0.4594  0.2400
17582SOL    HW154187   6.342   0.183   0.178  1.0891  0.2931 -0.4620
17582SOL    HW254188   6.303   0.320   0.232 -0.3620 -0.6801  1.0574
17583SOL     OW54189   4.121   2.083   9.750 -0.2711  0.0976 -0.4821
17583SOL    HW154190   4.027   2.079   9.733 -0.1622 -0.7712 -0.9527
17583SOL    HW254191   4.134   2.031   9.829 -0.0557 -0.8210 -1.0949
17584SOL     OW54192   7.822   7.355   8.678 -0.3564  0.0841 -0.5509
17584SOL    HW154193   7.752   7.410   8.642 -0.2444 -0.0433 -0.9691
17584SOL    HW254194   7.826   7.379   8.770 -1.3084 -0.2847 -0.4095
17585SOL     OW54195   5.226   6.555   2.508  0.6554  0.0403 -0.2590
17585SOL    HW154196   5.260   6.591   2.427  3.5411 -3.0136 -0.5835
17585SOL    HW254197   5.261   6.612   2.577 -0.2976  1.5529 -0.9727
17586SOL     OW54198   5.164   1.069   2.029  0.3158  0.0824 -0.7007
17586SOL    HW154199   5.147   1.142   1.969 -0.2009  0.9431  0.4517
17586SOL    HW254200   5.206   1.109   2.105 -1.7130 -0.4620  0.7923
17587SOL     OW54201   4.828   1.926   4.079 -0.0139 -0.3163  0.1602
17587SOL    HW154202   4.837   1.856   4.013  0.6380 -0.8219  0.7680
17587SOL    HW254203   4.912   1.926   4.124 -0.3786  0.1832  0.8444
17588SOL     OW54204   2.802   5.678   2.176 -0.0718  0.2570 -0.1057
17588SOL    HW154205   2.763   5.759   2.142  0.8051  0.5113 -0.5295
17588SOL    HW254206   2.809   5.693   2.270 -1.3028  0.0678  0.0359
17589SOL     OW54207   6.429   3.543   4.198 -0.2573  0.5285 -0.1163
17589SOL    HW154208   6.457   3.575   4.284  0.7211  2.7506 -1.2040
17589SOL    HW254209   6.349   3.593   4.179 -0.8504 -0.4398 -0.2326
17590SOL     OW54210   0.993   5.218   6.428 -0.1014 -0.2202 -0.0995
17590SOL    HW154211   1.055   5.165   6.378  0.0225 -0.5165  0.3664
17590SOL    HW254212   0.983   5.299   6.377  0.4218 -0.3031 -0.3316
17591SOL     OW54213   6.139   3.618   5.101  0.1101 -0.1542  0.2618
17591SOL    HW154214   6.193   3.544   5.126 -0.7312 -0.7605  0.3377
17591SOL    HW254215   6.055   3.602   5.145 -0.3030  0.4809 -0.2798
17592SOL     OW54216   7.808   5.577   9.033 -0.5005 -0.3363 -0.3591
17592SOL    HW154217   7.747   5.633   9.082 -1.6980 -1.8392 -0.0538
17592SOL    HW254218   7.796   5.604   8.942 -1.5928 -0.5496 -0.2972
17593SOL     OW54219   1.121   6.441   8.609 -0.0955  0.1023  0.0227
17593SOL    HW154220   1.128   6.504   8.538  1.5937  2.4425  2.0602
17593SOL    HW254221   1.208   6.439   8.648 -1.0616 -0.6482  2.3368
17594SOL     OW54222   3.117   6.239  10.428  0.8264  0.7873  0.5308
17594SOL    HW154223   3.194   6.264  10.376  1.5476 -1.3526  0.4833
17594SOL    HW254224   3.042   6.264  10.373  1.4988  1.6285 -0.0299
17595SOL     OW54225   5.771   5.992   9.090 -0.4528  0.0290  0.5823
17595SOL    HW154226   5.803   5.903   9.103 -0.5638 -0.7969 -3.5489
17595SOL    HW254227   5.822   6.045   9.151  1.1102 -2.5815  1.6988
17596SOL     OW54228   1.704   0.431   5.740  0.3130 -0.2643  0.1392
17596SOL    HW154229   1.655   0.348   5.741 -0.9200  0.4196 -0.4845
17596SOL    HW254230   1.710   0.457   5.832 -1.0022 -0.1091  0.2030
17597SOL     OW54231   7.078   7.005  11.958 -0.0984 -0.1409 -0.6115
17597SOL    HW154232   7.005   6.966  12.006  0.0952 -0.3260 -0.4673
17597SOL    HW254233   7.080   7.096  11.987  1.3772 -0.7633  1.3818
17598SOL     OW54234   2.150   1.643   7.848  0.4139  0.1885  0.2637
17598SOL    HW154235   2.215   1.593   7.799 -0.4326 -0.4494 -0.2436
17598SOL    HW254236   2.127   1.716   7.789 -1.0862 -0.9436 -0.6246
17599SOL     OW54237   6.614   5.802   8.577  0.5064  0.2567 -0.7058
17599SOL    HW154238   6.644   5.783   8.666 -2.0246 -0.2167  0.1076
17599SOL    HW254239   6.596   5.896   8.577 -0.7159  0.0330 -0.3015
17600SOL     OW54240   6.801   1.826  11.415  0.3501 -0.2120 -0.4077
17600SOL    HW154241   6.713   1.855  11.442  0.1739 -1.4526  0.4279
17600SOL    HW254242   6.857   1.852  11.488  0.5841  0.0533 -0.6803
17601SOL     OW54243   1.861   1.862   4.821  0.3523 -0.6354 -0.8724
17601SOL    HW154244   1.924   1.814   4.875  0.7090  0.2533 -0.4903
17601SOL    HW254245   1.909   1.939   4.790 -0.0531 -0.7782 -1.9116
17602SOL     OW54246   2.079   4.070   8.344 -0.1378 -0.1548  0.2405
17602SOL    HW154247   2.010   4.010   8.317 -1.7523  1.3496  0.8318
17602SOL    HW254248   2.082   4.061   8.439  0.6317 -0.3452  0.2034
17603SOL     OW54249   0.045   2.632   9.971  0.1189 -0.1566  0.0339
17603SOL    HW154250   0.082   2.645  10.059 -0.3263 -0.2084  0.2298
17603SOL    HW254251   0.073   2.544   9.946  1.7301  0.5043 -0.6049
17604SOL     OW54252   3.907   6.883   5.790 -0.6044 -0.1538  0.4853
17604SOL    HW154253   4.002   6.889   5.801 -0.6444  0.9228  0.2642
17604SOL    HW254254   3.873   6.964   5.827 -1.2396  0.7138 -1.8651
17605SOL     OW54255   0.976   3.417   6.614  0.2319  0.1499  0.5837
17605SOL    HW154256   1.024   3.416   6.697 -1.9185 -0.1027  1.8900
17605SOL    HW254257   0.934   3.331   6.610  0.8216 -0.0886 -1.1199
17606SOL     OW54258   2.165   1.566   0.291  0.5884  0.1922 -0.4314
17606SOL    HW154259   2.208   1.609   0.364  1.1489 -0.2236 -0.5104
17606SOL    HW254260   2.080   1.610   0.284 -0.4881 -1.2876  1.9796
17607SOL     OW54261   6.405   3.691   3.310 -0.2559  0.3014 -0.1428
17607SOL    HW154262   6.414   3.738   3.393 -1.0168 -0.0458  0.1535
17607SOL    HW254263   6.439   3.751   3.244  2.0050 -0.0853  0.5983
17608SOL     OW54264   4.496   6.926   2.987 -0.0979 -0.1432  0.4106
17608SOL    HW154265   4.459   6.996   3.040 -0.1670 -1.5624  2.3491
17608SOL    HW254266   4.467   6.945   2.897 -1.0439  1.6425  1.0494
17609SOL     OW54267   4.038   3.518   3.923  0.3613  0.0708  0.0489
17609SOL    HW154268   3.950   3.515   3.887  1.0038  1.5047 -1.8186
17609SOL    HW254269   4.083   3.442   3.886 -0.4721 -1.6199  2.3079
17610SOL     OW54270   1.101   1.674   6.385 -0.1903 -0.1716 -0.1320
17610SOL    HW154271   1.071   1.611   6.320 -1.2183  1.3128 -1.1373
17610SOL    HW254272   1.175   1.719   6.343 -0.1725  0.0616  0.1475
17611SOL     OW54273   1.130   7.417   3.422  0.0692 -0.9099  0.0742
17611SOL    HW154274   1.075   7.346   3.388  1.7690 -0.9640 -2.9348
17611SOL    HW254275   1.070   7.491   3.433 -1.1915 -1.9169  0.2485
17612SOL     OW54276   5.630   0.149   1.668  0.5019 -0.1739 -0.6075
17612SOL    HW154277   5.575   0.166   1.592 -0.8899  1.5418  0.6949
17612SOL    HW254278   5.718   0.139   1.632  0.0140  1.3231 -2.3894
17613SOL     OW54279   3.050   6.573   8.603  0.1639  0.0725 -0.0830
17613SOL    HW154280   2.965   6.583   8.646  0.0828  0.6595 -0.3658
17613SOL    HW254281   3.031   6.522   8.524  0.3558 -1.2338  0.6892
17614SOL     OW54282   4.363   4.520   3.885  0.6346  0.0435  0.4906
17614SOL    HW154283   4.332   4.609   3.903  1.1746  0.1731  0.8071
17614SOL    HW254284   4.289   4.477   3.842  0.0639  0.3882  1.1017
17615SOL     OW54285   2.093   1.224   7.591 -0.7589 -0.5524  0.0112
17615SOL    HW154286   2.078   1.211   7.685  0.4208  0.0423  0.2968
17615SOL    HW254287   2.056   1.311   7.573  2.0680  0.9265  0.7223
17616SOL     OW54288   1.459   6.215  10.187  0.0451  0.1071 -0.3086
17616SOL    HW154289   1.540   6.253  10.154 -0.1162  0.3299 -0.4552
17616SOL    HW254290   1.486   6.153  10.254  0.4320 -0.8028 -1.2685
17617SOL     OW54291   1.380   6.710   7.222  0.5309  0.7518 -0.2465
17617SOL    HW154292   1.311   6.705   7.288  1.2993 -0.0716  0.5226
17617SOL    HW254293   1.333   6.715   7.139 -0.4549  2.3402  0.3706
17618SOL     OW54294   2.366   3.049   6.637  0.4825 -0.5204  0.3153
17618SOL    HW154295   2.369   2.954   6.638  1.5702 -0.5043  2.0192
17618SOL    HW254296   2.275   3.071   6.657  0.3842 -1.1964  0.6143
17619SOL     OW54297   0.268   6.061  11.567  0.4521 -0.1561 -0.0762
17619SOL    HW154298   0.178   6.044  11.540  0.2793  1.5090 -0.6667
17619SOL    HW254299   0.318   6.068  11.486  0.5975  1.4559  0.1104
17620SOL     OW54300   6.533   0.483   5.512 -0.5397  0.1008 -0.1824
17620SOL    HW154301   6.560   0.571   5.488 -0.3631  0.0673 -0.1111
17620SOL    HW254302   6.523   0.436   5.429  1.6447 -0.4850 -0.1785
17621SOL     OW54303   4.557   3.802  11.195  0.3697  0.6614 -0.4635
17621SOL    HW154304   4.534   3.734  11.258 -0.4304  2.6529  1.5251
17621SOL    HW254305   4.650   3.819  11.211 -0.0920  1.9569  1.0781
17622SOL     OW54306   3.439   1.313   3.534 -0.1040 -0.5451 -0.4086
17622SOL    HW154307   3.349   1.346   3.531 -0.4717 -1.4294  0.2253
17622SOL    HW254308   3.488   1.380   3.581 -1.2228 -1.6205  2.5569
17623SOL     OW54309   6.349   3.925   4.555 -0.1813  0.0762  0.0760
17623SOL    HW154310   6.354   3.977   4.635 -0.0183  1.0061 -0.5189
17623SOL    HW254311   6.430   3.946   4.508  1.8865 -3.6486  1.5137
17624SOL     OW54312   7.827   0.620   5.058  0.9088 -0.3017 -0.6238
17624SOL    HW154313   7.822   0.546   4.998  1.3988 -2.4306  1.7828
17624SOL    HW254314   7.913   0.613   5.098  0.6214  1.0451  0.2979
17625SOL     OW54315   6.599   5.863   5.007  0.0649  0.0314 -0.4166
17625SOL    HW154316   6.653   5.796   5.049 -2.2998 -0.8341  1.4709
17625SOL    HW254317   6.594   5.934   5.072  0.6193  1.0211 -1.4273
17626SOL     OW54318   7.154   5.219   7.068  0.7156  0.1420 -0.3131
17626SOL    HW154319   7.145   5.218   7.163  2.0645  1.3299 -0.1399
17626SOL    HW254320   7.231   5.165   7.050  1.2004  0.9101 -0.6064
17627SOL     OW54321   3.510   1.158   3.344  0.5671  0.2482  0.2727
17627SOL    HW154322   3.449   1.195   3.280 -1.6414 -0.2025  1.9843
17627SOL    HW254323   3.493   1.207   3.424  1.2162 -1.0947  1.2678
17628SOL     OW54324   1.571   5.475   9.213 -0.1565  0.1291  0.2599
17628SOL    HW154325   1.543   5.545   9.271 -0.7461  0.3458 -0.2681
17628SOL    HW254326   1.568   5.396   9.267 -1.4397  0.2053  0.3433
17629SOL     OW54327   3.018   5.900   9.060  0.2508 -0.3290 -0.2958
17629SOL    HW154328   2.998   5.993   9.067 -0.4368 -0.5243  0.5491
17629SOL    HW254329   3.111   5.897   9.037  0.5395  0.5556  0.6663
17630SOL     OW54330   3.558   7.205   3.392  0.0583 -0.3573 -0.7210
17630SOL    HW154331   3.509   7.136   3.436  0.0145 -0.7129 -1.3174
17630SOL    HW254332   3.588   7.165   3.310  1.6312 -0.2649 -0.2323
17631SOL     OW54333   2.775   5.989   6.152 -0.3096  0.3536  0.3715
17631SOL    HW154334   2.683   5.984   6.178 -0.0278  1.1115  1.5659
17631SOL    HW254335   2.802   6.077   6.176  1.3984 -0.6173  2.3639
17632SOL     OW54336   4.926   6.690   9.574 -0.3249  0.3071 -0.1019
17632SOL    HW154337   4.889   6.607   9.604 -0.4385  0.6315  0.6864
17632SOL    HW254338   5.020   6.674   9.569 -0.2722  0.3175  0.7113
17633SOL     OW54339   3.589   6.378  10.606 -0.2215  0.4184  0.5479
17633SOL    HW154340   3.599   6.335  10.521 -0.0316  0.5352  0.5131
17633SOL    HW254341   3.595   6.306  10.670  0.3427  0.4210  0.5027
17634SOL     OW54342   0.477   6.658   8.810 -0.1964  0.5354 -0.2881
17634SOL    HW154343   0.502   6.751   8.807  1.1620  0.3397  2.4131
17634SOL    HW254344   0.399   6.657   8.866  0.3334 -0.0135  0.4584
17635SOL     OW54345   2.943   3.056  11.811  0.3808  0.6240 -0.4870
17635SOL    HW154346   2.965   3.018  11.896  0.6980  2.6983  0.4219
17635SOL    HW254347   3.013   3.025  11.752 -0.0860 -1.1857 -0.1449
17636SOL     OW54348   7.873   6.932   5.658  0.5151 -0.1397 -0.0420
17636SOL    HW154349   7.835   6.967   5.577 -0.0733  0.8809  0.6534
17636SOL    HW254350   7.800   6.927   5.719  0.7418 -1.8911  0.1365
17637SOL     OW54351   3.235   6.422  11.109 -0.7516  0.3070 -0.5200
17637SOL    HW154352   3.202   6.357  11.172  0.5184 -1.0286 -1.1790
17637SOL    HW254353   3.193   6.398  11.026 -0.9252  0.8671 -0.5973
17638SOL     OW54354   6.002   7.063  11.499 -0.3149 -0.0556  0.5283
17638SOL    HW154355   5.931   7.003  11.520 -2.1423  1.7136 -0.2003
17638SOL    HW254356   5.999   7.071  11.404  0.8756  0.0449  0.4864
17639SOL     OW54357   1.079   2.885   8.266  0.4090  0.3974 -1.0453
17639SOL    HW154358   1.107   2.923   8.349  0.0739 -0.0881 -0.7069
17639SOL    HW254359   1.160   2.877   8.216  0.8438 -0.6578 -0.2081
17640SOL     OW54360   5.381   4.414   1.575 -0.0859 -0.1535 -0.1976
17640SOL    HW154361   5.311   4.406   1.639 -0.8512 -1.9249 -1.1860
17640SOL    HW254362   5.452   4.458   1.623 -0.8566 -0.8150  1.6666
17641SOL     OW54363   2.030   3.078   9.848 -0.4330  0.8106  0.1875
17641SOL    HW154364   2.040   3.101   9.756 -0.9722  2.6908  0.5471
17641SOL    HW254365   2.119   3.076   9.882 -0.3201  1.9177 -0.0027
17642SOL     OW54366   4.247   7.446   7.055 -0.1147  0.0234  0.1603
17642SOL    HW154367   4.177   7.408   7.002  2.1822 -1.9125 -1.7451
17642SOL    HW254368   4.294   7.370   7.090  1.6917  1.1994  0.4300
17643SOL     OW54369   5.528   2.439   2.816  0.0525  0.0907 -0.0396
17643SOL    HW154370   5.595   2.401   2.760 -0.4145 -0.1036 -0.4737
17643SOL    HW254371   5.515   2.527   2.782 -1.1461 -0.4507 -1.0801
17644SOL     OW54372   5.422   0.324   9.301  0.5894 -0.1953 -0.9678
17644SOL    HW154373   5.469   0.280   9.372  0.4669  1.5396  0.2336
17644SOL    HW254374   5.484   0.386   9.265  0.6140 -0.9895 -2.3576
17645SOL     OW54375   3.908   4.068   4.593 -0.0384 -0.0856  0.0489
17645SOL    HW154376   3.948   4.155   4.585 -1.7983  0.8265  0.6269
17645SOL    HW254377   3.885   4.044   4.504 -0.0996  0.3232 -0.0476
17646SOL     OW54378   0.694   0.342   7.018 -0.0001  0.4242  0.1630
17646SOL    HW154379   0.773   0.289   7.019  2.1262  3.3273  1.2983
17646SOL    HW254380   0.678   0.363   7.110 -0.9446  1.4457 -0.2091
17647SOL     OW54381   3.630   6.163  11.667  0.0610 -0.2081  0.1280
17647SOL    HW154382   3.604   6.219  11.741 -2.1438 -1.2553  0.2517
17647SOL    HW254383   3.560   6.175  11.603  0.2810 -1.6908 -0.4344
17648SOL     OW54384   5.674   7.052   5.947 -0.6402  0.2857  0.6417
17648SOL    HW154385   5.676   6.972   5.999  1.9437  0.7355  1.3956
17648SOL    HW254386   5.734   7.112   5.992 -1.8115  2.3542 -0.3752
17649SOL     OW54387   5.986   3.766   1.743 -0.4749  0.2145  0.4179
17649SOL    HW154388   6.001   3.708   1.668  1.1589  0.6684  0.3638
17649SOL    HW254389   5.895   3.794   1.733 -0.3820  0.0281 -1.2429
17650SOL     OW54390   3.217   2.298   7.299 -0.5154  0.3800 -0.2150
17650SOL    HW154391   3.217   2.338   7.386 -1.5099 -1.4662  0.6979
17650SOL    HW254392   3.171   2.361   7.244 -2.2212  0.4458  1.2098
17651SOL     OW54393   5.315   4.054   3.281  0.5470 -0.8527 -0.0665
17651SOL    HW154394   5.260   3.980   3.258 -2.4354  0.7169  1.4660
17651SOL    HW254395   5.366   4.023   3.356  0.7779 -1.9243 -0.6501
17652SOL     OW54396   1.671   2.216   8.943  0.1401  0.1819  0.5284
17652SOL    HW154397   1.646   2.146   9.003  0.7040 -1.9657 -1.5903
17652SOL    HW254398   1.608   2.210   8.871 -0.0996  2.2274  0.4958
17653SOL     OW54399   2.457   7.489   2.014 -0.0770  0.4201 -0.1764
17653SOL    HW154400   2.553   7.488   2.019 -0.0493  0.5189 -0.6249
17653SOL    HW254401   2.430   7.413   2.066  0.2271  0.6143  0.2688
17654SOL     OW54402   0.104   3.285   1.752 -0.0067  0.2994 -0.5629
17654SOL    HW154403   0.048   3.362   1.742 -0.1651  0.5206  1.5787
17654SOL    HW254404   0.067   3.237   1.826  0.9823 -1.0683 -0.8980
17655SOL     OW54405   3.985   5.322   6.917 -0.2018  0.3622 -0.0527
17655SOL    HW154406   3.927   5.246   6.913 -0.6382  0.6950 -0.1187
17655SOL    HW254407   4.040   5.306   6.994 -1.7750  1.0043  1.2682
17656SOL     OW54408   1.966   7.204  12.346 -0.1251  0.1658 -0.1295
17656SOL    HW154409   1.909   7.146  12.397 -1.1055  1.1166 -0.1161
17656SOL    HW254410   1.965   7.287  12.394  0.6301  0.4479 -0.5754
17657SOL     OW54411   6.244   1.121   6.923 -0.1721 -0.0903  0.6252
17657SOL    HW154412   6.226   1.200   6.872  0.3336 -0.5215 -0.2359
17657SOL    HW254413   6.163   1.070   6.917  0.8154 -1.5011 -2.2844
17658SOL     OW54414   5.602   6.208   8.770  0.4830 -0.3197  0.1391
17658SOL    HW154415   5.585   6.285   8.824  1.0554  0.2659 -0.4988
17658SOL    HW254416   5.572   6.233   8.682 -0.4494 -1.2618  0.1705
17659SOL     OW54417   1.473   6.428   5.852  0.0415  0.0378  0.7491
17659SOL    HW154418   1.421   6.376   5.914 -0.5565 -0.1107  0.1354
17659SOL    HW254419   1.456   6.387   5.767  0.2597  0.6987  0.3805
17660SOL     OW54420   2.617   3.489   8.885 -0.3127 -0.4978 -0.4354
17660SOL    HW154421   2.543   3.430   8.900 -1.0305  0.5897  0.5714
17660SOL    HW254422   2.668   3.483   8.966 -0.1002 -0.1554 -0.5437
17661SOL     OW54423   6.843   7.188   8.030  0.8564  0.3303 -0.2532
17661SOL    HW154424   6.841   7.126   8.103 -0.7680 -0.6965 -1.1011
17661SOL    HW254425   6.932   7.183   7.997  1.0525 -0.7750  0.3864
17662SOL     OW54426   7.212   1.880  11.854  0.4248  0.2240 -0.4431
17662SOL    HW154427   7.181   1.825  11.927  1.2615  1.9125  1.2889
17662SOL    HW254428   7.161   1.961  11.862  1.7209  1.0931 -0.6490
17663SOL     OW54429   5.554   3.052   9.468 -0.9709 -0.0292  0.2150
17663SOL    HW154430   5.493   3.096   9.409 -1.0979  0.5392  0.7578
17663SOL    HW254431   5.499   2.997   9.524 -0.8535 -0.5511 -0.1811
17664SOL     OW54432   1.001   3.835   7.066  0.0536  0.3351 -0.2693
17664SOL    HW154433   1.038   3.757   7.025 -0.5192  0.4527 -1.0229
17664SOL    HW254434   0.945   3.801   7.136  1.4075  0.1491  0.7730
17665SOL     OW54435   1.709   1.656   3.252  0.5878 -0.4709 -0.2881
17665SOL    HW154436   1.749   1.622   3.172  0.4047 -2.8843  0.5720
17665SOL    HW254437   1.731   1.591   3.319 -2.1240 -0.2807  0.8945
17666SOL     OW54438   5.776   2.921   7.802  0.2561  0.1412  0.0760
17666SOL    HW154439   5.693   2.874   7.809 -0.1956  0.7480 -0.9653
17666SOL    HW254440   5.774   2.986   7.872 -0.7003  0.9495 -0.6634
17667SOL     OW54441   7.916   6.048  12.026  0.1830  0.2001 -0.3778
17667SOL    HW154442   7.854   6.088  11.964 -0.7267 -1.0443 -0.3066
17667SOL    HW254443   7.960   5.980  11.975  0.0362 -0.2642  0.1013
17668SOL     OW54444   3.430   4.403   7.260  0.0254 -0.1782 -0.2249
17668SOL    HW154445   3.480   4.466   7.208 -0.4675  1.7458  1.4873
17668SOL    HW254446   3.496   4.347   7.301  0.5564  0.0931 -0.7026
17669SOL     OW54447   7.221   6.637   1.168  0.5589 -0.4540 -0.2585
17669SOL    HW154448   7.191   6.606   1.254  0.3280  2.5866  0.8939
17669SOL    HW254449   7.163   6.595   1.105 -2.6188  0.9504  1.4902
17670SOL     OW54450   3.590   1.807   7.909  0.2370  0.0600 -0.4053
17670SOL    HW154451   3.533   1.884   7.912  0.3220  0.1252 -0.4588
17670SOL    HW254452   3.592   1.783   7.816  0.4304  0.1583 -0.4276
17671SOL     OW54453   2.679   7.172   8.420 -0.1141  0.1685 -0.0445
17671SOL    HW154454   2.650   7.253   8.379 -0.1671 -0.4561 -1.3026
17671SOL    HW254455   2.774   7.171   8.408 -0.1810 -0.2370 -0.5968
17672SOL     OW54456   1.536   5.067   2.276  0.0187 -0.2976  0.5846
17672SOL    HW154457   1.521   5.001   2.208 -0.7706 -1.4633  1.8410
17672SOL    HW254458   1.505   5.026   2.356  2.6092  0.2957  2.0091
17673SOL     OW54459   7.468   0.189   4.797 -0.2756  0.2804  0.7958
17673SOL    HW154460   7.456   0.217   4.706  1.0028  0.7711  0.7593
17673SOL    HW254461   7.431   0.100   4.800  0.5077 -0.1116 -0.4433
17674SOL     OW54462   7.629   7.245   9.261  0.0037 -0.1295  0.1710
17674SOL    HW154463   7.721   7.221   9.256  0.0285  0.2116 -2.2098
17674SOL    HW254464   7.598   7.206   9.343  2.1550 -0.5755  0.8141
17675SOL     OW54465   3.083   4.221   5.977 -0.3518 -0.0997  0.0370
17675SOL    HW154466   3.044   4.138   6.004 -0.3776  0.2617  1.1583
17675SOL    HW254467   3.158   4.195   5.923 -1.4510 -0.8052 -1.1933
17676SOL     OW54468   1.964   7.052   4.523  0.6467 -0.8385  0.0461
17676SOL    HW154469   2.012   6.973   4.548  0.9038 -0.0313  2.3326
17676SOL    HW254470   2.031   7.115   4.500  0.6891 -0.1788  1.8063
17677SOL     OW54471   3.389   1.221   8.504  0.3095  0.3982 -0.5151
17677SOL    HW154472   3.448   1.292   8.531 -0.5224  1.6799 -1.8897
17677SOL    HW254473   3.431   1.183   8.426  0.4077 -0.1645 -0.1904
17678SOL     OW54474   4.546   5.098   8.879 -0.6111 -0.1337 -0.6098
17678SOL    HW154475   4.610   5.027   8.872 -0.6888 -0.1000 -1.9522
17678SOL    HW254476   4.473   5.071   8.824 -0.3645  1.2430 -1.6990
17679SOL     OW54477   7.901   0.556   5.499 -0.1595 -0.3685 -0.0749
17679SOL    HW154478   7.908   0.481   5.558  2.6691  1.4222  2.1649
17679SOL    HW254479   7.977   0.547   5.441  1.1613  1.4400  1.2569
17680SOL     OW54480   0.645   5.001   3.858  0.1794 -0.3557 -0.1320
17680SOL    HW154481   0.576   5.027   3.797 -0.1446  0.0083  0.3840
17680SOL    HW254482   0.691   5.082   3.877  0.8554 -0.6221 -0.5909
17681SOL     OW54483   4.185   1.860  11.607  0.0644  0.4711 -0.2863
17681SOL    HW154484   4.261   1.875  11.551 -1.5133  0.0097 -2.6816
17681SOL    HW254485   4.110   1.886  11.554 -1.6453 -1.2641  1.1219
17682SOL     OW54486   2.349   0.416   8.288  0.2513 -0.2565  0.2357
17682SOL    HW154487   2.404   0.455   8.356  0.2200  0.0899  0.0635
17682SOL    HW254488   2.409   0.392   8.218  0.0019  1.9002 -0.8052
17683SOL     OW54489   2.552   4.584   4.406 -0.0446  0.1673 -0.1360
17683SOL    HW154490   2.484   4.519   4.389 -1.4620  1.0347  1.8835
17683SOL    HW254491   2.617   4.537   4.458 -0.3975 -0.0058  0.1554
17684SOL     OW54492   3.662   4.034   2.280 -0.6363 -0.3755 -0.0011
17684SOL    HW154493   3.720   3.997   2.213  0.8640 -0.5809  1.3197
17684SOL    HW254494   3.651   3.963   2.344 -0.5461  0.3525  0.8528
17685SOL     OW54495   4.365   4.619  10.705  0.3528 -0.0012 -0.1907
17685SOL    HW154496   4.289   4.570  10.738 -1.0575  1.2956 -1.3451
17685SOL    HW254497   4.342   4.639  10.614  1.3621  1.8157 -0.0828
17686SOL     OW54498   2.173   7.077   1.598 -0.2772  0.2357 -0.1897
17686SOL    HW154499   2.198   7.081   1.506 -0.1034 -0.2757 -0.1662
17686SOL    HW254500   2.237   7.134   1.642 -0.1323  0.1844 -0.3329
17687SOL     OW54501   0.830   7.794  12.006  0.0681 -0.3812  0.1321
17687SOL    HW154502   0.832   7.701  11.987  1.1538 -0.0948 -1.2715
17687SOL    HW254503   0.740   7.811  12.034 -0.0048 -1.9262  0.9646
17688SOL     OW54504   0.655   4.967  10.318  0.1116 -0.1953  0.6915
17688SOL    HW154505   0.732   5.023  10.312  1.9269 -2.6115 -0.5575
17688SOL    HW254506   0.690   4.878  10.312 -2.8912 -1.4028 -1.7152
17689SOL     OW54507   1.507   1.185   5.744  0.0812 -0.0377 -0.4125
17689SOL    HW154508   1.412   1.180   5.733 -0.0387 -0.2754  0.6474
17689SOL    HW254509   1.535   1.253   5.683 -0.7272 -0.1638 -0.9414
17690SOL     OW54510   2.072   6.857   1.376 -0.5497  0.4783  0.0237
17690SOL    HW154511   2.105   6.768   1.372  0.9384  0.9696  0.7942
17690SOL    HW254512   2.105   6.899   1.296 -1.0671  0.4197 -0.2301
17691SOL     OW54513   5.337   2.660   6.947 -0.0702  0.5853  0.4553
17691SOL    HW154514   5.295   2.738   6.910 -0.6825 -0.1678 -0.5034
17691SOL    HW254515   5.384   2.621   6.874 -1.4288 -1.0271  0.3645
17692SOL     OW54516   3.838   6.916   1.069 -0.5993  0.7753  0.9649
17692SOL    HW154517   3.767   6.855   1.092  0.0464 -0.3362  0.1431
17692SOL    HW254518   3.917   6.861   1.068 -0.2497  1.1980 -1.5445
17693SOL     OW54519   1.512   3.645   3.603  0.2375 -0.3434  0.4408
17693SOL    HW154520   1.501   3.617   3.694  0.0365 -0.7489  0.2957
17693SOL    HW254521   1.425   3.669   3.574  0.2950 -0.2559  0.3400
17694SOL     OW54522   5.899   7.119   3.115  1.4393 -0.0725 -0.0318
17694SOL    HW154523   5.884   7.026   3.132  2.4673 -0.5105 -1.3483
17694SOL    HW254524   5.819   7.149   3.071  2.1818 -1.0882 -2.2370
17695SOL     OW54525   7.287   1.707   9.043  0.4530  0.3133  0.1862
17695SOL    HW154526   7.239   1.771   8.991 -0.9908 -0.4083  0.5921
17695SOL    HW254527   7.275   1.735   9.133  1.0429  0.2780  0.2819
17696SOL     OW54528   5.279   7.286   3.335 -0.3043 -0.3339 -0.3876
17696SOL    HW154529   5.344   7.350   3.306  0.3139 -1.2171 -0.9991
17696SOL    HW254530   5.211   7.339   3.376  1.9516  0.5153  2.6525
17697SOL     OW54531   1.406   3.043   4.572 -0.4112  0.6945  0.0025
17697SOL    HW154532   1.485   3.096   4.567 -0.0497  0.2736  1.0673
17697SOL    HW254533   1.407   2.990   4.492  0.6014  0.4008  0.1933
17698SOL     OW54534   0.368   6.851   6.395 -0.3752 -0.2021  0.1271
17698SOL    HW154535   0.274   6.838   6.384 -0.5114 -0.5365  1.5570
17698SOL    HW254536   0.403   6.764   6.411  0.1319 -0.0398 -0.0831
17699SOL     OW54537   4.121   0.668   0.838 -0.2115  0.3723 -0.7173
17699SOL    HW154538   4.133   0.752   0.793 -0.2417  0.7159 -0.0914
17699SOL    HW254539   4.201   0.619   0.819 -0.5220  0.2308 -1.7288
17700SOL     OW54540   2.650   2.433   3.025  0.2714  0.0383 -0.1372
17700SOL    HW154541   2.663   2.525   3.049  1.2646 -0.4385  1.2892
17700SOL    HW254542   2.644   2.434   2.929 -0.2530  1.6346 -0.1171
17701SOL     OW54543   5.568   3.545   7.953 -0.0768  0.4637  0.7932
17701SOL    HW154544   5.559   3.460   7.996 -0.1013  0.8929  1.6581
17701SOL    HW254545   5.508   3.540   7.879 -0.8572  0.0920  1.4302
17702SOL     OW54546   4.407   0.062   5.764 -0.3804 -0.2155 -0.3188
17702SOL    HW154547   4.439   0.099   5.682 -0.7626 -0.8980 -0.7854
17702SOL    HW254548   4.335   0.004   5.738 -0.5897 -0.3452  0.5087
17703SOL     OW54549   0.082   6.125   3.243 -0.0019 -0.2714 -0.1225
17703SOL    HW154550   0.131   6.119   3.325 -1.6226  2.1267  1.1456
17703SOL    HW254551   0.005   6.070   3.256 -0.3418  0.2380  0.0399
17704SOL     OW54552   7.543   7.545   3.419  0.6761 -0.2287 -0.2422
17704SOL    HW154553   7.563   7.518   3.330  0.5200 -2.0941  0.2381
17704SOL    HW254554   7.627   7.573   3.455  0.8482 -0.0263 -0.7879
17705SOL     OW54555   4.957   1.982   9.196 -0.0611 -0.8910  0.4425
17705SOL    HW154556   5.001   2.051   9.147  0.7571 -2.0287 -0.4893
17705SOL    HW254557   5.027   1.923   9.223 -0.8205 -1.8407  0.4141
17706SOL     OW54558   6.453   2.605   1.388  0.4321  0.4637 -0.0060
17706SOL    HW154559   6.460   2.509   1.387  0.2754  0.4550 -0.4818
17706SOL    HW254560   6.394   2.624   1.460 -0.2837  0.1473 -0.4965
17707SOL     OW54561   2.178   5.059   9.522 -0.0013  0.1587  0.1393
17707SOL    HW154562   2.125   5.132   9.552  0.9980  1.2066 -0.5511
17707SOL    HW254563   2.130   4.981   9.549 -1.6343  1.0611 -0.0612
17708SOL     OW54564   6.350   2.697   5.600 -0.0628 -0.4566  0.2420
17708SOL    HW154565   6.387   2.735   5.680  0.1784  0.0641 -0.1187
17708SOL    HW254566   6.271   2.748   5.583  0.2803 -0.0886 -0.2618
17709SOL     OW54567   6.666   5.090   3.958 -0.5184 -0.1171  0.2664
17709SOL    HW154568   6.643   4.999   3.943  0.9251 -1.3420  4.0898
17709SOL    HW254569   6.585   5.139   3.941 -1.6423 -2.2390 -0.8308
17710SOL     OW54570   4.868   7.824   4.602  0.5102  0.2073 -0.6347
17710SOL    HW154571   4.795   7.784   4.554  0.2087 -0.8612  0.6614
17710SOL    HW254572   4.834   7.908   4.631 -0.5983 -0.6892  0.7993
17711SOL     OW54573   1.741   2.789   1.319  0.1737 -0.4401 -0.2244
17711SOL    HW154574   1.692   2.710   1.341 -1.3771  0.3707 -0.6329
17711SOL    HW254575   1.784   2.768   1.236 -0.0572 -0.9342 -0.2229
17712SOL     OW54576   6.339   4.861   7.326  0.1418 -0.3607 -0.6832
17712SOL    HW154577   6.250   4.844   7.358 -0.1494  3.8326  1.4364
17712SOL    HW254578   6.329   4.935   7.265  2.1567  0.3022 -0.2831
17713SOL     OW54579   6.869   2.664   2.469  0.1510  0.3242  0.1796
17713SOL    HW154580   6.834   2.751   2.487  0.4392  0.4734  0.0320
17713SOL    HW254581   6.808   2.626   2.406  1.2594  1.3243 -1.6134
17714SOL     OW54582   2.194   5.063   5.751 -0.0596 -0.1576 -0.0820
17714SOL    HW154583   2.270   5.006   5.755  0.0332 -0.0167  0.1505
17714SOL    HW254584   2.191   5.092   5.659 -0.3543 -0.8678 -0.2995
17715SOL     OW54585   0.266   6.884   8.689  0.2585  0.3868  0.0926
17715SOL    HW154586   0.353   6.925   8.692  1.0171 -1.1755  0.4625
17715SOL    HW254587   0.241   6.889   8.597  0.5495  1.2222  0.0491
17716SOL     OW54588   1.022   7.745   6.328  0.1818  0.0337 -0.7975
17716SOL    HW154589   0.939   7.736   6.281 -0.4481  1.6192 -0.0677
17716SOL    HW254590   1.082   7.780   6.262  0.0965 -0.4820 -1.1572
17717SOL     OW54591   5.266   6.004   7.722 -0.3504  0.2568 -0.1315
17717SOL    HW154592   5.309   6.050   7.794  0.2612 -0.6503  0.1085
17717SOL    HW254593   5.284   6.056   7.645  0.2381  0.4714  0.1486
17718SOL     OW54594   7.144   6.381  11.039  0.1633 -0.1637  0.3582
17718SOL    HW154595   7.224   6.339  11.070  0.2117  0.7130  1.4687
17718SOL    HW254596   7.161   6.475  11.048 -0.9629  0.0317  0.5227
17719SOL     OW54597   1.222   7.863   6.178 -0.1728 -0.1479 -0.2229
17719SOL    HW154598   1.268   7.945   6.165 -0.0060  0.0307  1.3316
17719SOL    HW254599   1.275   7.815   6.241 -0.7749 -1.0397 -0.3752
17720SOL     OW54600   7.378   3.967   9.530  0.0754  0.4671 -0.0135
17720SOL    HW154601   7.322   3.905   9.576 -0.7290  0.9286 -0.3500
17720SOL    HW254602   7.451   3.914   9.497 -1.7934 -0.8092 -2.3835
17721SOL     OW54603   5.256   0.042   3.580 -0.2895 -0.0096  0.0329
17721SOL    HW154604   5.326   0.094   3.619 -0.1922 -0.1917  0.1039
17721SOL    HW254605   5.284   0.029   3.489 -2.1281  3.3558 -1.1845
17722SOL     OW54606   3.521   5.640   1.934 -0.2460  0.3977 -0.2420
17722SOL    HW154607   3.557   5.649   2.022  0.4571  1.4954 -0.6176
17722SOL    HW254608   3.442   5.694   1.934 -1.0461 -0.7232  0.1033
17723SOL     OW54609   7.585   0.278   6.099  0.2010 -0.6423 -0.3127
17723SOL    HW154610   7.622   0.359   6.132  0.7105 -0.5378 -1.1170
17723SOL    HW254611   7.606   0.213   6.166  1.2710 -0.4453 -0.4372
17724SOL     OW54612   3.396   1.194   1.391 -0.1183  0.0200 -0.2949
17724SOL    HW154613   3.420   1.256   1.459 -2.0653  1.2850 -0.6832
17724SOL    HW254614   3.458   1.211   1.320 -0.4055  1.2992 -0.2646
17725SOL     OW54615   5.599   7.556   6.205 -0.4338 -0.3674  0.2319
17725SOL    HW154616   5.516   7.511   6.219  0.1906 -1.6372  0.0340
17725SOL    HW254617   5.638   7.512   6.130  0.2763  0.4278  0.1136
17726SOL     OW54618   4.586   2.769  10.125  0.4889  0.4008  0.8332
17726SOL    HW154619   4.638   2.847  10.146  1.4777 -0.1209  0.3972
17726SOL    HW254620   4.640   2.721  10.063 -0.4117 -0.3028  0.5826
17727SOL     OW54621   0.751   2.173   8.746  0.2017 -0.0024  0.5481
17727SOL    HW154622   0.740   2.266   8.767 -1.1201 -0.2728  1.1709
17727SOL    HW254623   0.765   2.131   8.831 -0.4480 -0.5178  0.4114
17728SOL     OW54624   1.622   2.541   5.388 -0.1045 -0.2739 -0.2572
17728SOL    HW154625   1.713   2.558   5.364 -0.1801 -0.2816 -0.5526
17728SOL    HW254626   1.627   2.497   5.473  0.1557 -0.0465 -0.1537
17729SOL     OW54627   6.049   4.521  11.898 -0.4403  0.2673 -0.1283
17729SOL    HW154628   6.007   4.589  11.951 -0.0523 -1.3010  2.3390
17729SOL    HW254629   6.134   4.507  11.940 -0.5448 -1.7660 -0.4853
17730SOL     OW54630   0.724   0.729  12.261  0.3913  0.2150  0.0094
17730SOL    HW154631   0.631   0.754  12.260  0.7731  1.7479 -1.1247
17730SOL    HW254632   0.771   0.811  12.244  1.9361 -0.6366 -0.0071
17731SOL     OW54633   3.114   2.396   6.745 -0.6214 -0.5261  0.5566
17731SOL    HW154634   3.131   2.354   6.660  1.7456  1.4407 -0.0709
17731SOL    HW254635   3.193   2.380   6.796  0.3609  2.7895  0.3326
17732SOL     OW54636   1.334   2.515  11.272 -0.4315  0.5030  0.4063
17732SOL    HW154637   1.283   2.464  11.336 -0.2236 -0.6967 -0.3516
17732SOL    HW254638   1.277   2.523  11.196 -0.6609  1.8886  0.6978
17733SOL     OW54639   0.740   5.509   1.317 -0.2904  0.0158  0.2964
17733SOL    HW154640   0.733   5.424   1.274  0.4251  0.9040 -1.7074
17733SOL    HW254641   0.694   5.569   1.259 -0.4459  1.0720  1.4709
17734SOL     OW54642   6.811   4.681   4.901 -0.4621 -0.0756 -0.0140
17734SOL    HW154643   6.898   4.714   4.921 -0.5390  0.1728 -0.0815
17734SOL    HW254644   6.797   4.610   4.963 -0.0381 -0.4064 -0.2888
17735SOL     OW54645   0.628   5.899   8.981 -0.0736 -0.1940  0.5336
17735SOL    HW154646   0.534   5.898   9.000 -0.2653  0.5835 -0.3192
17735SOL    HW254647   0.650   5.807   8.966 -0.9432 -0.2828 -0.3301
17736SOL     OW54648   0.144   2.368   0.452  0.2924  0.0179  0.2150
17736SOL    HW154649   0.123   2.275   0.438 -0.6047  0.1740  0.4658
17736SOL    HW254650   0.133   2.408   0.365  0.3940 -0.0562  0.1676
17737SOL     OW54651   3.797   0.387   2.250  0.0776 -0.1557 -0.5620
17737SOL    HW154652   3.795   0.406   2.156  1.0646 -0.4258 -0.6504
17737SOL    HW254653   3.832   0.467   2.289 -1.3887  0.3880 -0.2781
17738SOL     OW54654   2.008   7.552  10.500  0.4393 -0.4032  0.1652
17738SOL    HW154655   2.019   7.589  10.412  0.2621 -2.4002 -0.7650
17738SOL    HW254656   1.916   7.568  10.521  0.5725  0.4081  0.1497
17739SOL     OW54657   6.543   6.235   5.009  0.0535  0.4741 -0.2072
17739SOL    HW154658   6.461   6.208   4.966 -0.5605  0.7283  0.7827
17739SOL    HW254659   6.547   6.182   5.089 -0.7415  2.6272  1.3442
17740SOL     OW54660   4.936   0.552   6.585 -0.1000  0.1266  0.4388
17740SOL    HW154661   4.929   0.495   6.661 -0.7368 -0.7003 -0.2182
17740SOL    HW254662   4.847   0.581   6.568 -0.3263 -1.4472 -1.2790
17741SOL     OW54663   6.884   0.871   0.528  0.0666  0.0982  0.4086
17741SOL    HW154664   6.935   0.876   0.609  1.7744  0.1420 -0.6030
17741SOL    HW254665   6.811   0.814   0.549  1.0609 -0.7672  1.7048
17742SOL     OW54666   3.328   5.459   5.909 -0.5273 -0.6138 -0.4899
17742SOL    HW154667   3.296   5.549   5.923 -1.5591 -0.7669 -1.6143
17742SOL    HW254668   3.384   5.441   5.984 -2.1621  0.1336  0.9854
17743SOL     OW54669   4.706   1.120   3.736  0.0546 -0.3492  0.4352
17743SOL    HW154670   4.740   1.042   3.692 -0.0758 -0.2623  0.1821
17743SOL    HW254671   4.611   1.109   3.735  0.0765 -0.7862  1.4909
17744SOL     OW54672   3.034   4.279  11.264 -0.1945  0.0629  0.2615
17744SOL    HW154673   3.017   4.220  11.191 -1.9768  0.3221  0.4415
17744SOL    HW254674   2.959   4.338  11.266  1.6487  2.5768 -0.1100
17745SOL     OW54675   3.277   0.032   7.647  0.4524  0.1563 -0.0908
17745SOL    HW154676   3.288   0.053   7.554 -1.9198  0.6275 -0.3175
17745SOL    HW254677   3.351  -0.026   7.667 -0.9468 -3.0955 -3.2737
17746SOL     OW54678   0.142   6.615   0.742 -0.3437  0.1250 -0.6161
17746SOL    HW154679   0.057   6.628   0.701 -0.4937 -2.7767 -1.4312
17746SOL    HW254680   0.205   6.648   0.678 -0.7603 -0.6262 -1.4350
17747SOL     OW54681   6.327   2.561   8.839  0.2518 -0.1464 -0.0918
17747SOL    HW154682   6.374   2.601   8.766 -2.6899  3.6228 -0.2721
17747SOL    HW254683   6.337   2.623   8.911 -2.3744 -0.3025  0.5308
17748SOL     OW54684   7.872   0.530   9.063  0.1346 -0.1632  0.3122
17748SOL    HW154685   7.950   0.581   9.043  0.4028 -0.3071  0.9718
17748SOL    HW254686   7.843   0.496   8.978 -1.2413  2.6916 -0.4859
17749SOL     OW54687   6.113   4.610   3.898  0.1223  0.2013  0.2404
17749SOL    HW154688   6.122   4.571   3.985 -1.6316 -1.9839 -0.4517
17749SOL    HW254689   6.037   4.668   3.907  0.0115  0.0632  0.2076
17750SOL     OW54690   2.219   3.925   3.495 -0.4015 -0.5953  0.3872
17750SOL    HW154691   2.219   3.851   3.555 -1.3721 -1.3707 -0.5330
17750SOL    HW254692   2.181   3.891   3.414  2.0080  0.0473 -1.1450
17751SOL     OW54693   0.197   0.358   9.041  0.1572  0.4885  0.1904
17751SOL    HW154694   0.222   0.358   8.949  2.5325  2.1484  0.7457
17751SOL    HW254695   0.101   0.363   9.040  0.1390  0.5747 -2.1732
17752SOL     OW54696   1.229   2.991  10.542  0.4350  0.2084  0.3468
17752SOL    HW154697   1.223   2.913  10.598  0.3430  1.4168  2.0903
17752SOL    HW254698   1.138   3.022  10.535  0.4969  0.2770 -0.1765
17753SOL     OW54699   3.788   2.234   9.528 -0.0292  0.5042  0.3613
17753SOL    HW154700   3.878   2.268   9.530 -0.2567  1.3022 -1.0872
17753SOL    HW254701   3.733   2.312   9.518 -0.8884  0.0221  1.1974
17754SOL     OW54702   2.286   2.234   5.913  0.2446 -0.3821 -0.1133
17754SOL    HW154703   2.351   2.283   5.963 -0.4558  0.1017  0.3488
17754SOL    HW254704   2.317   2.143   5.915 -0.1090 -0.5003  1.8028
17755SOL     OW54705   6.543   2.895   7.824 -0.2869 -0.2208  0.3306
17755SOL    HW154706   6.564   2.966   7.885 -2.6872 -0.1205  1.1439
17755SOL    HW254707   6.582   2.817   7.864  0.6237  0.2971  0.4837
17756SOL     OW54708   6.722   3.689   0.522  0.7172  0.2603  0.2661
17756SOL    HW154709   6.656   3.679   0.590  0.7063  1.2509  0.4237
17756SOL    HW254710   6.678   3.741   0.454  0.3497 -1.6700 -1.0407
17757SOL     OW54711   2.080   2.274   8.912  0.0924 -0.2880  0.0116
17757SOL    HW154712   2.092   2.369   8.913  0.4431 -0.3355  0.2201
17757SOL    HW254713   2.000   2.261   8.860  0.4345  0.0725 -0.6131
17758SOL     OW54714   5.082   3.538   7.263  0.1155 -0.2343  0.3259
17758SOL    HW154715   5.096   3.490   7.181 -0.4732  0.0210  0.0713
17758SOL    HW254716   5.139   3.615   7.256 -0.7433  0.3598 -0.3338
17759SOL     OW54717   6.765   0.103   0.162 -0.1305 -0.7209  0.1128
17759SOL    HW154718   6.755   0.196   0.182  0.6517 -0.1287 -1.9079
17759SOL    HW254719   6.819   0.068   0.232 -1.2025  0.1146  1.3990
17760SOL     OW54720   0.834   2.987   0.675 -0.0902  0.3099 -0.9393
17760SOL    HW154721   0.809   2.901   0.641  0.1774 -0.5779  0.9595
17760SOL    HW254722   0.757   3.042   0.661 -0.5470 -0.4465 -1.4724
17761SOL     OW54723   3.084   6.643   2.806  0.1490 -0.3329 -0.2943
17761SOL    HW154724   3.171   6.676   2.782  0.4150 -0.3368  0.6275
17761SOL    HW254725   3.037   6.720   2.835  0.6820 -0.6656  1.6033
17762SOL     OW54726   4.448   6.630   7.392 -0.1298 -0.2580  0.0396
17762SOL    HW154727   4.508   6.680   7.336  0.3366 -0.4232  0.3825
17762SOL    HW254728   4.464   6.539   7.368 -1.1089 -0.2506 -0.7123
17763SOL     OW54729   7.786   1.046   0.805  0.2178  0.5554 -0.0125
17763SOL    HW154730   7.849   1.104   0.762  1.3071  0.1585  1.0193
17763SOL    HW254731   7.741   1.002   0.732  0.6051  1.3857 -0.7723
17764SOL     OW54732   5.600   2.817  10.739  0.0604  0.0104  0.1688
17764SOL    HW154733   5.530   2.757  10.711 -0.3315  0.0519  1.0054
17764SOL    HW254734   5.648   2.767  10.806 -1.3372  1.1942  2.1668
17765SOL     OW54735   0.542   2.015   0.619 -0.0442 -0.7529  0.1891
17765SOL    HW154736   0.622   1.981   0.580 -0.6897 -0.2799 -1.7084
17765SOL    HW254737   0.568   2.098   0.659  0.4606 -0.7036 -0.2282
17766SOL     OW54738   5.505   5.045  11.000  0.2037 -0.0521 -0.0958
17766SOL    HW154739   5.411   5.061  11.010  0.3947  0.4406  1.1538
17766SOL    HW254740   5.531   5.003  11.082  0.9559 -0.7910 -0.7004
17767SOL     OW54741   3.420   0.302   2.769  0.1865  0.5001  0.7574
17767SOL    HW154742   3.505   0.267   2.743  0.0092  1.1006 -0.7231
17767SOL    HW254743   3.415   0.389   2.728 -0.9140  0.7155  1.2765
17768SOL     OW54744   5.250   3.048   7.143 -0.3784  0.1273 -0.0586
17768SOL    HW154745   5.221   3.131   7.180  0.5591 -0.0993  1.2702
17768SOL    HW254746   5.170   3.003   7.117 -0.8921  1.3992 -0.7295
17769SOL     OW54747   3.659   7.065   4.535 -0.0912 -0.1674 -0.6319
17769SOL    HW154748   3.581   7.112   4.565 -0.0409 -0.6906  0.3423
17769SOL    HW254749   3.638   7.040   4.445  0.2026  2.4312 -1.5331
17770SOL     OW54750   1.427   6.659   2.948 -0.1711  0.2889  0.7010
17770SOL    HW154751   1.462   6.576   2.917 -3.0295 -0.3493 -1.2036
17770SOL    HW254752   1.497   6.722   2.935  1.9836 -1.6996  1.9668
17771SOL     OW54753   4.830   0.961   2.466 -0.3441 -0.5271  0.2489
17771SOL    HW154754   4.885   0.883   2.464  1.5811  0.7784 -1.5500
17771SOL    HW254755   4.886   1.030   2.501 -0.4733  1.0100 -2.2690
17772SOL     OW54756   7.312   4.627   3.100  0.1987 -0.0903  0.9178
17772SOL    HW154757   7.248   4.690   3.067 -0.6697 -1.4906 -0.1790
17772SOL    HW254758   7.318   4.560   3.032  2.6017 -0.1940  1.1484
17773SOL     OW54759   7.799   1.228  10.090 -0.3077  0.0538 -0.7654
17773SOL    HW154760   7.814   1.299  10.027 -0.9985  0.9577  0.0736
17773SOL    HW254761   7.705   1.213  10.088 -0.0516 -1.7216 -1.8434
17774SOL     OW54762   0.316   5.645   6.293  0.2323 -0.2083  0.2242
17774SOL    HW154763   0.310   5.555   6.324  0.4307 -0.5984 -0.8372
17774SOL    HW254764   0.308   5.698   6.372 -1.2137 -1.1134  0.7184
17775SOL     OW54765   3.719   1.016   7.955  0.1662 -0.1363  0.2164
17775SOL    HW154766   3.768   1.007   8.037 -0.8897  0.6094  0.9636
17775SOL    HW254767   3.683   0.929   7.938  0.6747 -0.3768  0.3540
17776SOL     OW54768   4.149   6.368   9.962 -0.7031 -0.2065 -0.4428
17776SOL    HW154769   4.105   6.407   9.887  1.3305  0.0305 -1.5926
17776SOL    HW254770   4.160   6.441  10.024 -1.9071 -0.2860 -0.1040
17777SOL     OW54771   6.655   7.198  10.958 -0.0914 -0.2352 -0.3490
17777SOL    HW154772   6.690   7.224  11.043 -0.8848  0.2218 -0.1486
17777SOL    HW254773   6.725   7.146  10.918  0.5733  0.1498  0.2793
17778SOL     OW54774   7.764   6.546   4.413  0.0537  0.1555  0.0293
17778SOL    HW154775   7.743   6.469   4.465  0.4653  0.7979  1.1693
17778SOL    HW254776   7.682   6.569   4.369 -0.1992 -0.6122  0.0834
17779SOL     OW54777   5.223   6.423   7.492 -0.1381 -0.2799  0.2027
17779SOL    HW154778   5.189   6.479   7.562  0.2988 -0.8668  0.9011
17779SOL    HW254779   5.151   6.417   7.429  0.0045  1.5148 -0.1707
17780SOL     OW54780   4.295   3.357   1.766 -0.6704  0.2898  0.1035
17780SOL    HW154781   4.292   3.415   1.842 -0.9308 -1.3812  1.4210
17780SOL    HW254782   4.385   3.362   1.736 -0.4982  0.7739  0.6787
17781SOL     OW54783   3.499   7.723  12.225 -0.1345  0.1086  0.5054
17781SOL    HW154784   3.416   7.744  12.268  0.5097  1.9902  0.9472
17781SOL    HW254785   3.529   7.806  12.189  0.3060 -1.0380 -1.9788
17782SOL     OW54786   7.656   6.211   5.493 -0.9536  0.6824  0.4018
17782SOL    HW154787   7.565   6.192   5.470 -0.8456  0.2894  0.2929
17782SOL    HW254788   7.668   6.303   5.467 -0.6871  0.1238 -1.6333
17783SOL     OW54789   2.650   5.853   0.828  0.1970  0.2083  0.0028
17783SOL    HW154790   2.594   5.888   0.759 -1.0656  0.6665  1.1990
17783SOL    HW254791   2.595   5.789   0.873  1.6766 -1.6237 -0.6550
17784SOL     OW54792   5.272   7.588   0.341 -0.5653  0.6492 -0.0543
17784SOL    HW154793   5.230   7.549   0.417  0.5651 -0.3651  0.0669
17784SOL    HW254794   5.199   7.625   0.290 -1.5016 -0.2288  0.6173
17785SOL     OW54795   0.038   3.883  10.520 -0.3681 -0.1210 -0.1664
17785SOL    HW154796   0.052   3.837  10.437 -1.9464 -1.9983  0.5507
17785SOL    HW254797   0.063   3.974  10.501  0.0759 -0.6580 -2.4501
17786SOL     OW54798   3.032   5.569   9.362 -0.4919 -0.2400 -0.1938
17786SOL    HW154799   3.050   5.630   9.434 -0.6646 -0.3815 -0.0305
17786SOL    HW254800   3.032   5.483   9.403 -1.9208 -0.2201 -0.1055
17787SOL     OW54801   0.584   7.607   1.941 -0.1917 -0.0217 -0.1808
17787SOL    HW154802   0.519   7.665   1.903  0.1482 -0.0193 -0.7612
17787SOL    HW254803   0.600   7.540   1.875  0.6297  0.1573 -0.1788
17788SOL     OW54804   2.409   0.361   4.329  0.0331 -0.5731  0.2886
17788SOL    HW154805   2.360   0.364   4.411  0.7412 -2.9533  0.8549
17788SOL    HW254806   2.500   0.376   4.354 -0.1186  2.5709 -0.6128
17789SOL     OW54807   4.706   6.127   0.322  0.2212 -0.2032 -0.5312
17789SOL    HW154808   4.661   6.054   0.363  1.4109 -0.6130  0.1058
17789SOL    HW254809   4.772   6.086   0.266  1.1960  0.3436  0.1685
17790SOL     OW54810   7.424   6.236   0.984  0.3011 -0.0557  0.1800
17790SOL    HW154811   7.374   6.318   0.980 -0.0438 -0.2327  0.7682
17790SOL    HW254812   7.381   6.179   0.920 -1.4135 -0.8229  1.9019
17791SOL     OW54813   4.356   1.691   5.129  0.4438 -0.4090 -0.3538
17791SOL    HW154814   4.263   1.670   5.123  0.7076 -1.6429 -0.3839
17791SOL    HW254815   4.399   1.628   5.071  1.2347  0.6684 -0.9653
17792SOL     OW54816   4.660   0.088   8.018 -0.2471 -0.0652 -0.1708
17792SOL    HW154817   4.730   0.113   7.958  1.9639 -1.4946  1.6150
17792SOL    HW254818   4.672   0.144   8.095 -1.5702  0.1776 -0.1141
17793SOL     OW54819   1.465   4.910  11.123  0.0897 -0.7253  0.4697
17793SOL    HW154820   1.492   4.829  11.080  0.4296  0.2601 -1.2440
17793SOL    HW254821   1.380   4.889  11.162  0.7847 -2.2742  1.2600
17794SOL     OW54822   4.028   6.525   6.695  0.0911 -0.3753  0.0743
17794SOL    HW154823   4.063   6.611   6.671  2.0132 -1.0798  0.1997
17794SOL    HW254824   4.041   6.519   6.789  1.1551 -1.2703 -0.1048
17795SOL     OW54825   6.375   0.685   5.050  0.2515  0.6840  0.0949
17795SOL    HW154826   6.344   0.658   4.964 -2.7126  0.8465  1.0012
17795SOL    HW254827   6.397   0.603   5.095  0.0452  0.4671 -0.1982
17796SOL     OW54828   5.263   2.296   2.576 -0.6727 -0.0243  0.5919
17796SOL    HW154829   5.255   2.245   2.656 -1.2752  1.1949  1.3377
17796SOL    HW254830   5.280   2.385   2.606 -1.3905  0.5522 -0.6162
17797SOL     OW54831   1.131   1.859  11.571  0.1637 -0.1371 -0.2886
17797SOL    HW154832   1.198   1.812  11.619  1.0129  0.7558 -0.5474
17797SOL    HW254833   1.135   1.948  11.606  0.5952  0.4596 -1.7378
17798SOL     OW54834   3.488   2.129   4.835  0.1226  0.5376 -0.3870
17798SOL    HW154835   3.470   2.222   4.844 -0.5597  0.3171  0.6531
17798SOL    HW254836   3.554   2.110   4.902  1.0243  0.4633 -1.2717
17799SOL     OW54837   6.695   6.043   5.971  0.3815 -0.3031 -0.3410
17799SOL    HW154838   6.719   6.105   5.903 -0.0238 -0.4198 -0.5937
17799SOL    HW254839   6.682   6.097   6.049 -1.9206  0.2437 -1.0015
17800SOL     OW54840   3.357   6.104   7.131  0.2252 -0.4028  0.0183
17800SOL    HW154841   3.311   6.035   7.180 -1.3799  1.3031  1.0185
17800SOL    HW254842   3.290   6.143   7.076  1.8766 -2.0092 -3.5064
17801SOL     OW54843   7.721   4.355   4.824  0.5201  0.2163 -0.5540
17801SOL    HW154844   7.699   4.343   4.731  1.3796  0.3797 -0.7819
17801SOL    HW254845   7.783   4.284   4.843 -0.2047 -0.2610  0.0939
17802SOL     OW54846   1.068   1.114   0.451 -0.2321 -0.3884  0.2215
17802SOL    HW154847   1.120   1.049   0.497  0.4749 -0.2014 -0.2925
17802SOL    HW254848   1.053   1.184   0.515  1.0922  0.0600  0.0658
17803SOL     OW54849   1.894   0.391   5.506 -0.7116  0.3637  0.7603
17803SOL    HW154850   1.907   0.486   5.500 -3.7784  0.8266 -2.2838
17803SOL    HW254851   1.853   0.377   5.591  0.6623  1.5812  1.6626
17804SOL     OW54852   0.477   6.699  11.192 -0.3837  0.4127  0.2051
17804SOL    HW154853   0.417   6.694  11.267  1.4469 -0.2967  1.7239
17804SOL    HW254854   0.421   6.713  11.116 -2.3774  0.5402  1.6390
17805SOL     OW54855   4.569   0.595   4.191  0.8585 -0.0744 -0.0825
17805SOL    HW154856   4.579   0.689   4.183 -0.1944  0.0890  0.4048
17805SOL    HW254857   4.568   0.563   4.101  2.0086  0.2698 -0.2361
17806SOL     OW54858   1.868   6.435  12.093  0.0483  0.6054 -0.1104
17806SOL    HW154859   1.930   6.403  12.027 -0.1899 -1.3164  0.5563
17806SOL    HW254860   1.809   6.361  12.109  0.8769  0.5180  3.1993
17807SOL     OW54861   2.534   2.173  10.160 -0.7402 -0.1447  0.3459
17807SOL    HW154862   2.528   2.268  10.157 -1.3834 -0.1939 -0.3340
17807SOL    HW254863   2.544   2.147  10.068  0.2971 -0.6894  0.5950
17808SOL     OW54864   3.244   0.658  11.428  0.7150 -0.8534 -0.5893
17808SOL    HW154865   3.177   0.617  11.483  0.4895 -1.3514 -1.2264
17808SOL    HW254866   3.249   0.748  11.460  0.4646 -1.0907  0.1339
17809SOL     OW54867   1.535   6.172   7.858 -0.6303  0.1821  0.2214
17809SOL    HW154868   1.478   6.096   7.870 -0.3922  0.1142  0.9851
17809SOL    HW254869   1.592   6.171   7.935  1.2701 -0.5015 -1.1043
17810SOL     OW54870   6.380   1.325   0.862 -0.1025  0.9129 -0.1090
17810SOL    HW154871   6.351   1.235   0.879  0.5435 -0.0852 -3.4422
17810SOL    HW254872   6.407   1.358   0.947  1.1087 -2.6264  1.0911
17811SOL     OW54873   5.593   3.747   9.336 -0.2794 -0.3404 -0.1808
17811SOL    HW154874   5.576   3.736   9.242  0.1810  1.1185 -0.4586
17811SOL    HW254875   5.670   3.804   9.340 -0.1324 -0.5891  1.1012
17812SOL     OW54876   6.181   1.606   0.967  0.2082 -0.8164  0.3791
17812SOL    HW154877   6.158   1.539   0.903 -0.7019 -1.8123  1.6791
17812SOL    HW254878   6.193   1.557   1.049  1.8703  0.3375  0.8846
17813SOL     OW54879   3.640   0.325   0.380 -0.3201  0.7522 -0.0984
17813SOL    HW154880   3.578   0.292   0.444 -0.9955 -0.6936 -1.4348
17813SOL    HW254881   3.716   0.267   0.388 -0.0638  1.0937 -0.0336
17814SOL     OW54882   7.271   0.634   0.891  0.1255  0.3514 -0.1254
17814SOL    HW154883   7.304   0.549   0.919 -0.4763 -0.0185 -0.4978
17814SOL    HW254884   7.255   0.623   0.797  1.4896  1.3546 -0.4951
17815SOL     OW54885   5.335   6.010   9.696 -0.9361 -0.1012 -0.4805
17815SOL    HW154886   5.331   6.069   9.621 -0.6553  1.1511  0.4464
17815SOL    HW254887   5.385   6.059   9.762 -2.4316 -0.5394  1.0553
17816SOL     OW54888   6.255   2.693  10.566 -0.2506  0.0567 -0.1218
17816SOL    HW154889   6.290   2.718  10.652  1.4038  0.5880 -0.8985
17816SOL    HW254890   6.250   2.597  10.570 -3.7688  0.1704  1.8231
17817SOL     OW54891   0.265   7.299   3.862 -0.2063 -0.1072  0.0844
17817SOL    HW154892   0.181   7.253   3.873 -1.0730  1.4111  0.0785
17817SOL    HW254893   0.331   7.230   3.868 -1.4972 -1.4966 -0.9611
17818SOL     OW54894   1.387   6.971   7.465  0.0944 -0.3439  0.0721
17818SOL    HW154895   1.320   6.903   7.466  0.4479 -0.6933  0.2705
17818SOL    HW254896   1.382   7.009   7.378  0.2744 -1.0060 -0.2364
17819SOL     OW54897   0.241   5.155   1.302 -0.0350  0.1146  0.2305
17819SOL    HW154898   0.166   5.212   1.324 -0.4365 -0.2541 -0.1574
17819SOL    HW254899   0.226   5.132   1.210  0.3277 -0.3157  0.2819
17820SOL     OW54900   3.188   7.642   6.925 -0.4472  0.2578  0.1599
17820SOL    HW154901   3.209   7.735   6.912  2.4218  0.1344  2.7708
17820SOL    HW254902   3.260   7.595   6.883 -1.9021 -0.8710 -1.1894
17821SOL     OW54903   1.121   5.430   3.717 -0.2986  0.3106 -0.4650
17821SOL    HW154904   1.167   5.358   3.761 -1.3370  0.2296  0.5194
17821SOL    HW254905   1.114   5.401   3.626 -1.4265 -1.2391  0.0741
17822SOL     OW54906   6.617   1.154   0.944 -0.2412 -0.0506 -0.1906
17822SOL    HW154907   6.525   1.130   0.958  0.0775 -0.5277  1.2947
17822SOL    HW254908   6.665   1.100   1.007  0.7252  3.0230  1.9143
17823SOL     OW54909   5.964   0.472  11.731 -0.2311 -0.1682  0.1406
17823SOL    HW154910   5.887   0.526  11.715 -1.6067 -1.7672  1.0353
17823SOL    HW254911   5.957   0.401  11.668  1.5637  0.6230 -1.0329
17824SOL     OW54912   0.010   1.295  11.396 -0.4155  0.0197  0.2316
17824SOL    HW154913  -0.029   1.381  11.381  0.9606  0.3400 -2.0992
17824SOL    HW254914  -0.052   1.233  11.357  0.0634  0.3004 -1.0568
17825SOL     OW54915   3.068   2.989   4.069  0.0956 -0.5703 -0.2338
17825SOL    HW154916   3.131   2.998   4.140  1.1456 -0.5038 -1.1334
17825SOL    HW254917   3.095   2.909   4.023  0.9972  0.6571 -1.9848
17826SOL     OW54918   4.215   5.752   9.489  0.0859  0.3946  0.1965
17826SOL    HW154919   4.214   5.812   9.414  1.0569 -1.4028 -1.3270
17826SOL    HW254920   4.210   5.665   9.450  0.6511 -0.6036  2.2432
17827SOL     OW54921   6.708   7.431   3.439  0.3594  0.3425  0.2106
17827SOL    HW154922   6.639   7.384   3.391  1.6895  0.7778 -2.2888
17827SOL    HW254923   6.765   7.361   3.473 -0.2721  0.0415  0.6748
17828SOL     OW54924   7.008   4.153   5.407 -0.2699  0.2910 -0.6351
17828SOL    HW154925   7.087   4.101   5.396  0.8618  1.8188 -0.0457
17828SOL    HW254926   6.959   4.107   5.476  0.3851 -0.3295 -0.5675
17829SOL     OW54927   4.635   3.321   2.157  0.1433 -0.5547 -0.4745
17829SOL    HW154928   4.720   3.334   2.199 -0.7494 -0.7928  1.5169
17829SOL    HW254929   4.627   3.395   2.097  1.9296 -0.7829 -1.0837
17830SOL     OW54930   5.889   1.031  11.973  0.6608  0.2628 -0.1435
17830SOL    HW154931   5.829   1.015  12.046  1.0819 -0.1449  0.1242
17830SOL    HW254932   5.957   1.088  12.011  2.1507 -1.7952  0.4775
17831SOL     OW54933   3.593   7.362   5.823 -0.2100  0.6005 -0.0126
17831SOL    HW154934   3.611   7.397   5.735 -0.9566  0.3794 -0.2545
17831SOL    HW254935   3.524   7.419   5.858 -0.1818  0.4522  0.2872
17832SOL     OW54936   5.634   1.005   8.484  0.9537  0.7065 -0.3697
17832SOL    HW154937   5.652   1.016   8.577  1.3497  2.7594 -0.6302
17832SOL    HW254938   5.591   0.920   8.477 -0.3435  1.1056  1.8720
17833SOL     OW54939   7.112   2.590   7.053  0.1570 -0.5271 -0.3960
17833SOL    HW154940   7.132   2.628   6.967  0.8701  2.5655  0.9992
17833SOL    HW254941   7.168   2.638   7.114 -2.1993 -0.7427  2.1386
17834SOL     OW54942   2.303   6.339   1.844 -0.4016  0.1323 -0.8559
17834SOL    HW154943   2.267   6.406   1.785  1.0190  1.7607  0.0452
17834SOL    HW254944   2.379   6.381   1.885 -0.5844 -1.3864  1.1881
17835SOL     OW54945   4.043   4.385   9.471 -0.3761 -0.2979  0.7590
17835SOL    HW154946   4.075   4.469   9.438 -0.7617 -0.2095  0.6098
17835SOL    HW254947   3.959   4.372   9.428  1.2108 -2.4448 -2.0536
17836SOL     OW54948   1.905   5.962  10.281  0.3644  0.0981 -0.4303
17836SOL    HW154949   1.984   5.914  10.256 -0.6014 -1.5913 -0.4098
17836SOL    HW254950   1.837   5.930  10.222 -0.4850  0.9358  0.0631
17837SOL     OW54951   5.775   3.460  11.071  0.0128 -0.5551  0.1916
17837SOL    HW154952   5.731   3.472  10.986  0.3095  0.4900  0.1747
17837SOL    HW254953   5.832   3.536  11.079 -0.6785 -0.1810  1.7448
17838SOL     OW54954   0.965   3.380   0.225 -0.4479  0.1653 -0.2327
17838SOL    HW154955   0.906   3.427   0.166  1.9934  0.2157 -2.8768
17838SOL    HW254956   0.949   3.287   0.206  0.0431  0.1689 -0.6753
17839SOL     OW54957   3.388   5.266  10.704 -0.3403  0.0182  0.3493
17839SOL    HW154958   3.364   5.297  10.791  0.3714 -0.3608  0.6878
17839SOL    HW254959   3.449   5.194  10.720 -0.6949 -0.4731 -0.4577
17840SOL     OW54960   4.464   7.277   3.746 -0.8958 -0.2683  0.7086
17840SOL    HW154961   4.479   7.337   3.673  0.4839 -0.5754  0.7164
17840SOL    HW254962   4.544   7.281   3.797 -1.1579 -1.3976  1.2370
17841SOL     OW54963   4.152   2.751   3.958 -0.3289 -0.1080  0.1919
17841SOL    HW154964   4.151   2.839   3.922 -1.1953 -0.3961 -0.5205
17841SOL    HW254965   4.168   2.694   3.882 -0.0705 -0.5788  0.5945
17842SOL     OW54966   2.934   6.203   1.226 -0.1803 -0.1134 -0.0845
17842SOL    HW154967   2.926   6.130   1.288  0.7778  0.7615  1.1044
17842SOL    HW254968   2.983   6.166   1.152  0.1191 -0.7259  0.4062
17843SOL     OW54969   3.230   6.295   6.653  0.1001 -0.1885 -0.2588
17843SOL    HW154970   3.185   6.224   6.699 -0.6147 -0.6188 -1.5540
17843SOL    HW254971   3.167   6.366   6.650  0.7351  0.4442  0.8352
17844SOL     OW54972   5.224   0.322   6.174  0.3884 -0.1141 -0.1137
17844SOL    HW154973   5.158   0.319   6.243  1.3734  1.2971  0.9495
17844SOL    HW254974   5.174   0.317   6.093 -1.2714  2.8071  0.5988
17845SOL     OW54975   5.349   3.137   1.484 -0.5248  0.1929 -0.4083
17845SOL    HW154976   5.418   3.104   1.427  2.6109  1.3173  2.4472
17845SOL    HW254977   5.310   3.209   1.434  0.7281 -0.0938 -1.8976
17846SOL     OW54978   4.221   1.820  11.307 -0.0569  0.2622  0.1476
17846SOL    HW154979   4.163   1.764  11.358 -1.4416  1.8488  0.4077
17846SOL    HW254980   4.163   1.867  11.247  1.3447 -0.3648 -1.8232
17847SOL     OW54981   6.601   0.302   2.239 -0.0636 -0.0323 -0.1873
17847SOL    HW154982   6.622   0.281   2.330 -0.1952 -0.7236 -0.3130
17847SOL    HW254983   6.611   0.398   2.233 -1.7003  0.2386  0.9792
17848SOL     OW54984   7.853   7.763  10.178 -0.0599  0.1375  0.2028
17848SOL    HW154985   7.879   7.716  10.099  0.1012  0.4425  0.0717
17848SOL    HW254986   7.863   7.700  10.249  3.5060  0.8900  0.5610
17849SOL     OW54987   1.515   6.774   4.550  0.7718 -0.2111 -0.1033
17849SOL    HW154988   1.557   6.702   4.597  1.1482  0.0038 -0.1100
17849SOL    HW254989   1.557   6.853   4.584  0.6973 -0.0244 -0.4392
17850SOL     OW54990   2.304   6.934   1.942  0.4398 -0.1621  0.8315
17850SOL    HW154991   2.304   6.893   2.029  1.4252 -0.8109  0.5364
17850SOL    HW254992   2.247   6.879   1.890 -0.5923  0.5368  1.1914
17851SOL     OW54993   7.177   7.084   0.273  0.2065 -0.2185 -0.3173
17851SOL    HW154994   7.135   7.023   0.212 -1.4852 -0.7562  1.2813
17851SOL    HW254995   7.147   7.056   0.360 -0.4240  2.6822  0.5174
17852SOL     OW54996   5.215   5.554   6.882 -0.1594  0.0756 -0.1891
17852SOL    HW154997   5.243   5.521   6.967  0.0251  1.5655  0.3618
17852SOL    HW254998   5.136   5.605   6.901  0.3724  1.1557 -0.7542
17853SOL     OW54999   1.125   5.057   8.728 -0.2732  0.4934 -0.3880
17853SOL    HW155000   1.045   5.013   8.703  1.3954 -2.9904 -0.1722
17853SOL    HW255001   1.106   5.096   8.814 -2.1031  1.0750 -1.0212
17854SOL     OW55002   2.008   5.692   0.912 -0.3529 -0.2685 -0.5511
17854SOL    HW155003   1.938   5.626   0.906 -0.1566 -0.5718  0.3664
17854SOL    HW255004   2.062   5.676   0.835 -1.3397  0.0370 -1.3313
17855SOL     OW55005   1.339   2.739   5.930  0.0324  0.1045  0.2405
17855SOL    HW155006   1.417   2.684   5.941  0.5671  0.8009  0.0429
17855SOL    HW255007   1.267   2.686   5.963  0.8475  0.1902  2.2749
17856SOL     OW55008   1.874   1.122   7.434 -0.0542  0.2373 -0.7753
17856SOL    HW155009   1.942   1.122   7.501 -1.4625  0.3883  0.7233
17856SOL    HW255010   1.870   1.213   7.404  0.7543  0.1189 -1.2591
17857SOL     OW55011   4.715   7.225   2.774  0.0809 -0.0794 -0.2818
17857SOL    HW155012   4.779   7.296   2.781  0.1066 -0.1993  0.7341
17857SOL    HW255013   4.632   7.269   2.755  0.4273  0.0797 -1.5580
17858SOL     OW55014   1.680   4.615   2.064  0.0492  0.0819 -0.3084
17858SOL    HW155015   1.712   4.603   1.974  1.8822 -1.1072  0.4456
17858SOL    HW255016   1.757   4.604   2.119 -1.1379  0.1782  1.4754
17859SOL     OW55017   4.497   0.546   5.196 -0.1425 -0.4725  0.7140
17859SOL    HW155018   4.519   0.600   5.120 -1.7739 -0.7135  0.0246
17859SOL    HW255019   4.474   0.461   5.158 -0.7639 -0.6614  1.4996
17860SOL     OW55020   2.500   6.953   6.463 -0.2497 -0.2929 -0.6413
17860SOL    HW155021   2.593   6.943   6.483 -0.2939  0.1666 -0.1635
17860SOL    HW255022   2.477   6.875   6.413  0.5987  0.0071 -1.5254
17861SOL     OW55023   5.268   6.385   8.639 -0.2610 -0.2269  0.0517
17861SOL    HW155024   5.339   6.371   8.576  1.7519 -0.9976  2.3162
17861SOL    HW255025   5.270   6.479   8.656 -1.1647  0.0699 -1.3548
17862SOL     OW55026   2.839   7.000   6.042 -0.0967 -0.2533  0.2352
17862SOL    HW155027   2.900   7.012   6.115 -1.0481  2.1051  0.7444
17862SOL    HW255028   2.892   7.014   5.963  0.3672  0.0881  0.6039
17863SOL     OW55029   0.288   1.171   9.973  0.9639  0.5613 -0.0802
17863SOL    HW155030   0.316   1.098  10.027 -0.8819 -0.0589  0.0936
17863SOL    HW255031   0.274   1.133   9.886 -1.3745  0.3433  0.3385
17864SOL     OW55032   4.865   6.979   5.835  0.4268  0.7113  0.1809
17864SOL    HW155033   4.860   7.062   5.788 -2.1653  1.7034  1.9763
17864SOL    HW255034   4.841   6.913   5.769  0.9937  1.5343 -0.8816
17865SOL     OW55035   7.568   7.078   3.566 -0.2840 -0.0458 -0.1652
17865SOL    HW155036   7.621   7.118   3.635 -0.6651  1.4834 -0.7401
17865SOL    HW255037   7.512   7.015   3.613  1.6165 -1.3391  0.5177
17866SOL     OW55038   0.161   1.842   9.244 -0.3623 -0.2183 -0.3179
17866SOL    HW155039   0.205   1.817   9.325 -0.5542  2.2567  0.6128
17866SOL    HW255040   0.147   1.936   9.251  0.9280  0.4102 -3.8936
17867SOL     OW55041   7.655   3.363   5.173 -0.2720  0.0584 -0.2551
17867SOL    HW155042   7.645   3.455   5.197 -0.8365  0.7400 -2.7517
17867SOL    HW255043   7.729   3.362   5.112 -1.0258 -0.9064 -1.1946
17868SOL     OW55044   2.874   0.352   9.246 -0.0214 -0.5137  0.3827
17868SOL    HW155045   2.906   0.290   9.180  1.1651 -0.1063  0.5391
17868SOL    HW255046   2.821   0.414   9.197  1.6438  0.3639 -0.4178
17869SOL     OW55047   5.696   0.873   7.184 -0.4504  0.8596 -0.0282
17869SOL    HW155048   5.607   0.844   7.164  0.0588 -0.4939 -0.3882
17869SOL    HW255049   5.698   0.877   7.280 -0.0827 -1.9580  0.1713
17870SOL     OW55050   4.457   0.253   3.986 -0.8294  0.2001  0.2223
17870SOL    HW155051   4.497   0.167   3.989 -0.6565  0.2559 -0.3635
17870SOL    HW255052   4.529   0.313   3.968 -1.1390  0.3248 -0.6404
17871SOL     OW55053   4.139   7.883  11.988  0.1511 -0.7369 -0.2071
17871SOL    HW155054   4.208   7.824  11.960 -0.5702  0.0211 -4.2002
17871SOL    HW255055   4.065   7.826  12.010  0.9282 -1.4154  0.7024
17872SOL     OW55056   6.423   5.166   7.932 -0.5090  0.0641 -0.5296
17872SOL    HW155057   6.433   5.193   7.841  1.6106  1.6180  0.0817
17872SOL    HW255058   6.506   5.191   7.974 -1.2801 -0.9241  1.7522
17873SOL     OW55059   4.984   2.214   2.607  0.0283  0.4275 -0.3280
17873SOL    HW155060   5.018   2.303   2.617  0.0852  0.2797  0.9426
17873SOL    HW255061   5.061   2.157   2.615  0.4449  0.2875 -3.6914
17874SOL     OW55062   3.556   2.212   5.644 -0.0167  0.5329 -0.0753
17874SOL    HW155063   3.577   2.270   5.570  1.8612  0.5589  0.4201
17874SOL    HW255064   3.518   2.134   5.604  1.2500  0.4178 -1.1275
17875SOL     OW55065   0.498   0.646   2.042 -0.0021 -0.6534 -0.0042
17875SOL    HW155066   0.515   0.555   2.065  1.1085 -0.2363  0.9449
17875SOL    HW255067   0.531   0.696   2.116 -2.3989  0.4534  0.3898
17876SOL     OW55068   3.193   1.741   3.540 -0.1544  0.5715  0.0919
17876SOL    HW155069   3.134   1.673   3.573  0.9135 -1.6727 -2.2676
17876SOL    HW255070   3.253   1.757   3.613 -0.1781 -1.3815  0.6117
17877SOL     OW55071   1.699   1.791  11.762 -0.3010 -0.0289 -0.0230
17877SOL    HW155072   1.661   1.729  11.700  0.3255  0.5982 -1.0429
17877SOL    HW255073   1.783   1.751  11.787  1.7759  1.9036 -3.3014
17878SOL     OW55074   2.543   3.702   7.010  0.4504 -0.4996  0.6488
17878SOL    HW155075   2.551   3.740   6.922  1.8298 -1.1265  0.4868
17878SOL    HW255076   2.614   3.741   7.060 -1.4058  1.2832  2.0792
17879SOL     OW55077   3.748   1.004   0.885  0.4857 -0.1318  0.3655
17879SOL    HW155078   3.730   1.043   0.970  0.8074 -1.9420  1.3125
17879SOL    HW255079   3.730   0.910   0.897  0.3196 -0.4099 -1.6188
17880SOL     OW55080   1.109   6.763  12.352  0.7799  0.8627 -0.6628
17880SOL    HW155081   1.182   6.701  12.352 -0.1440 -0.3403  1.3424
17880SOL    HW255082   1.054   6.735  12.280  0.2532 -0.8895  0.3627
17881SOL     OW55083   3.927   4.466   5.478  0.3589  0.2125  0.1071
17881SOL    HW155084   3.944   4.396   5.415  0.8528 -1.2536  1.8021
17881SOL    HW255085   3.994   4.456   5.545 -0.3093  1.5466  1.0251
17882SOL     OW55086   7.151   1.882   5.326 -0.2870  0.6116  0.3740
17882SOL    HW155087   7.186   1.898   5.414  1.1595 -0.9673  0.1412
17882SOL    HW255088   7.158   1.787   5.315 -0.0104  0.8304 -1.6121
17883SOL     OW55089   2.796   7.360   9.020  0.2035  0.2812 -0.1050
17883SOL    HW155090   2.874   7.330   8.973 -0.0985 -0.0944 -0.3746
17883SOL    HW255091   2.793   7.454   9.004  0.4646  0.2570 -0.3016
17884SOL     OW55092   3.143   1.753   1.011  0.3298  0.0338 -0.2022
17884SOL    HW155093   3.132   1.672   1.061  2.2541 -1.6503 -2.2761
17884SOL    HW255094   3.197   1.809   1.067 -1.6493  0.2877  1.5799
17885SOL     OW55095   0.075   3.589   4.227  0.1588 -0.3278  0.9980
17885SOL    HW155096   0.057   3.614   4.317 -1.0574 -0.6632  0.8695
17885SOL    HW255097   0.057   3.668   4.176 -0.2826 -0.4578  0.9443
17886SOL     OW55098   3.549   0.215   3.403 -0.2512 -0.1160 -0.7083
17886SOL    HW155099   3.536   0.298   3.357  0.7151 -0.0665 -0.9048
17886SOL    HW255100   3.579   0.154   3.336 -0.9644 -0.6433 -0.5694
17887SOL     OW55101   0.707   7.911  10.518  0.6637  0.0252 -0.1103
17887SOL    HW155102   0.676   7.834  10.469 -1.0127  0.9288 -0.5386
17887SOL    HW255103   0.695   7.887  10.610 -0.1810 -0.1210 -0.2469
17888SOL     OW55104   0.299   5.749  10.113  0.0490  0.1424 -0.4600
17888SOL    HW155105   0.299   5.760  10.208  1.9906  0.7828 -0.4989
17888SOL    HW255106   0.391   5.732  10.091 -0.2804  0.5682 -2.2922
17889SOL     OW55107   0.681   7.738   2.905 -0.5553 -0.9251 -0.0729
17889SOL    HW155108   0.591   7.771   2.900 -1.5934 -3.6938 -1.5576
17889SOL    HW255109   0.682   7.682   2.983  0.3962  0.3352  0.8616
17890SOL     OW55110   3.014   4.059  10.065  0.2708 -0.0016 -0.2877
17890SOL    HW155111   3.048   4.142  10.100  0.6779 -0.9042  1.6110
17890SOL    HW255112   3.092   4.007  10.047  0.0001 -0.4952 -0.0549
17891SOL     OW55113   7.621   2.431   5.680 -0.2324  0.0021 -0.6765
17891SOL    HW155114   7.688   2.496   5.659  1.1475 -1.3173 -0.5313
17891SOL    HW255115   7.564   2.429   5.604  0.5021  0.4288 -1.2462
17892SOL     OW55116   0.911   1.869   2.288 -0.5803 -0.0180  0.4598
17892SOL    HW155117   0.994   1.858   2.333  0.1070  1.6345 -0.3125
17892SOL    HW255118   0.926   1.942   2.227 -2.1071 -0.7486 -0.8720
17893SOL     OW55119   2.258   6.067   0.571  0.3125 -0.0417 -0.4071
17893SOL    HW155120   2.306   6.131   0.519 -0.3249  0.9212  0.1465
17893SOL    HW255121   2.220   6.007   0.507  1.7810 -0.5193 -0.8812
17894SOL     OW55122   5.581   5.290   8.401 -0.5347 -0.4191 -0.3390
17894SOL    HW155123   5.622   5.205   8.381 -1.0151 -0.9522  0.8489
17894SOL    HW255124   5.491   5.280   8.369 -0.6305 -0.4165 -0.0727
17895SOL     OW55125   6.848   6.540   9.767  0.7283 -0.2307 -0.1713
17895SOL    HW155126   6.785   6.473   9.740  0.7960  0.2463 -1.6281
17895SOL    HW255127   6.819   6.619   9.722  3.4097 -0.4236 -2.5843
17896SOL     OW55128   6.369   0.771   1.906 -0.2820  0.0485  0.2327
17896SOL    HW155129   6.297   0.833   1.902 -0.4174 -0.1262 -0.0020
17896SOL    HW255130   6.444   0.824   1.934 -0.7489  0.0171  1.6627
17897SOL     OW55131   5.076   2.317   1.795  0.5039 -0.4709 -0.0067
17897SOL    HW155132   5.141   2.254   1.827 -1.1921 -2.0990  0.3971
17897SOL    HW255133   5.014   2.327   1.868 -0.4991 -0.1008 -0.8834
17898SOL     OW55134   0.701   2.376   8.447  0.2173  0.0870 -0.2674
17898SOL    HW155135   0.647   2.321   8.503  0.5410  0.8330  0.8106
17898SOL    HW255136   0.662   2.367   8.360 -0.9161 -0.2968  0.2594
17899SOL     OW55137   7.637   3.861   9.484 -0.4201  0.0367 -0.0578
17899SOL    HW155138   7.648   3.951   9.454 -0.0677 -0.0191 -0.0943
17899SOL    HW255139   7.637   3.809   9.404  0.5078 -0.1114  0.0235
17900SOL     OW55140   2.529   2.554   5.503 -0.2854  0.5403 -0.3354
17900SOL    HW155141   2.624   2.564   5.496 -0.5541  2.2561 -2.6584
17900SOL    HW255142   2.516   2.505   5.584  2.6457 -0.9648 -0.6321
17901SOL     OW55143   0.358   0.808   7.712  0.4990 -0.0193 -0.1342
17901SOL    HW155144   0.283   0.791   7.655  0.6706 -0.0605 -0.3515
17901SOL    HW255145   0.417   0.861   7.659  0.3517  0.5323  0.2497
17902SOL     OW55146   6.860   2.033   8.032 -0.1013  0.0526 -0.2687
17902SOL    HW155147   6.774   2.052   7.994  0.9553 -0.0721 -2.8958
17902SOL    HW255148   6.923   2.058   7.964  1.8804 -1.3537  0.9388
17903SOL     OW55149   6.839   2.292   5.172 -0.0232 -0.0037  0.2487
17903SOL    HW155150   6.754   2.251   5.158 -0.2596  0.0693  1.3435
17903SOL    HW255151   6.886   2.230   5.228  0.3698  0.2917  0.2475
17904SOL     OW55152   5.035   6.447   6.743 -0.1033  0.0234  0.2203
17904SOL    HW155153   4.950   6.416   6.774 -0.7979  1.2914 -0.3522
17904SOL    HW255154   5.016   6.532   6.702  1.6572  1.0281  1.3793
17905SOL     OW55155   2.721   5.551   5.549 -0.2760  0.8687  0.5035
17905SOL    HW155156   2.629   5.575   5.534 -1.0845 -2.0636  0.2006
17905SOL    HW255157   2.737   5.574   5.640 -1.2005  1.7301  0.4683
17906SOL     OW55158   0.156   1.581   1.100  0.0544 -0.1200  0.5767
17906SOL    HW155159   0.086   1.532   1.143 -1.4720 -0.3834 -1.9734
17906SOL    HW255160   0.167   1.537   1.015  1.6639  1.3777 -0.0496
17907SOL     OW55161   3.402   7.422  11.772  0.5453 -0.0569  0.5771
17907SOL    HW155162   3.469   7.359  11.801  1.0108  0.5901  0.9327
17907SOL    HW255163   3.431   7.505  11.808  0.8752  0.7037 -1.3095
17908SOL     OW55164   2.128   5.382   7.113  0.2152 -0.3920 -0.1176
17908SOL    HW155165   2.140   5.313   7.178 -0.2790  0.1283  0.5344
17908SOL    HW255166   2.065   5.346   7.051  0.0747 -0.5807  0.1366
17909SOL     OW55167   7.543   6.606   7.260  0.0145  0.2198 -0.1568
17909SOL    HW155168   7.586   6.530   7.220  0.4847 -0.2004  1.0999
17909SOL    HW255169   7.477   6.568   7.318 -0.9262  0.8279 -0.7972
17910SOL     OW55170   1.139   4.744  10.386 -0.0324 -0.2142 -0.2829
17910SOL    HW155171   1.128   4.818  10.326 -0.4324 -0.1705 -0.1586
17910SOL    HW255172   1.199   4.685  10.341 -1.3053 -0.7852 -1.2958
17911SOL     OW55173   4.201   4.946   2.023 -0.6163 -0.3613  0.2562
17911SOL    HW155174   4.286   4.907   1.999  0.3370  2.3692 -1.2051
17911SOL    HW255175   4.141   4.918   1.954  0.4496  1.8576 -1.7050
17912SOL     OW55176   0.046   4.871   0.427 -0.2719 -0.4424 -0.1305
17912SOL    HW155177   0.003   4.893   0.510  2.3346  0.5831  1.0822
17912SOL    HW255178   0.052   4.955   0.380 -1.7218 -1.0134 -1.4189
17913SOL     OW55179   3.038   5.148   1.534 -0.2503  0.2838  0.2155
17913SOL    HW155180   3.084   5.216   1.581  1.9730 -1.0123  0.0408
17913SOL    HW255181   3.051   5.069   1.586 -0.6077 -0.5131 -0.8549
17914SOL     OW55182   4.939   1.950   0.538 -0.0872 -0.3774 -0.0804
17914SOL    HW155183   4.862   1.939   0.594  0.4320 -0.1025  0.7084
17914SOL    HW255184   4.904   1.986   0.456 -0.9432 -1.4127 -0.1985
17915SOL     OW55185   6.030   4.991   7.361 -0.6401  0.1455 -1.1470
17915SOL    HW155186   5.947   5.022   7.397  0.0194 -0.2204  0.7999
17915SOL    HW255187   6.024   4.896   7.363  0.2247  0.0900  0.0938
17916SOL     OW55188   1.321   2.693  11.594 -0.3749  0.5808 -0.5613
17916SOL    HW155189   1.329   2.789  11.591  0.6749  0.5088 -0.5795
17916SOL    HW255190   1.239   2.677  11.640  0.5069  1.4881  1.4508
17917SOL     OW55191   7.236   6.045  10.846  0.1133 -0.0824  0.4892
17917SOL    HW155192   7.269   6.089  10.924  1.5236 -0.5431  0.1818
17917SOL    HW255193   7.202   5.961  10.877  1.3149 -0.5629  0.5277
17918SOL     OW55194   3.151   5.637   3.797 -0.0033  0.0118  0.4518
17918SOL    HW155195   3.084   5.614   3.733 -0.6614  0.4788  0.9607
17918SOL    HW255196   3.134   5.729   3.818 -1.8328 -0.9016  3.6377
17919SOL     OW55197   0.192   6.810   2.450  0.0632  0.2762  0.2449
17919SOL    HW155198   0.256   6.837   2.385 -0.4359  0.0346 -0.3540
17919SOL    HW255199   0.198   6.877   2.518  0.6323  0.4961 -0.0153
17920SOL     OW55200   2.634   2.829   4.391  0.7492  0.3656  0.0979
17920SOL    HW155201   2.708   2.825   4.330  1.9503 -0.1364  1.5103
17920SOL    HW255202   2.587   2.909   4.367 -1.2400 -1.7546 -4.0387
17921SOL     OW55203   6.319   3.039   2.282 -0.6208 -0.1753  0.1111
17921SOL    HW155204   6.383   3.109   2.290  0.2873 -1.0231  0.5430
17921SOL    HW255205   6.370   2.958   2.294 -1.7016 -0.8930  0.0667
17922SOL     OW55206   3.838   1.122   9.395 -0.4589 -0.2216  0.6861
17922SOL    HW155207   3.793   1.048   9.354  0.8273 -0.6335 -0.0148
17922SOL    HW255208   3.833   1.103   9.489 -1.3052 -0.5094  0.5906
17923SOL     OW55209   7.197   4.224  11.533 -0.0749  0.1344 -0.0387
17923SOL    HW155210   7.199   4.269  11.449 -0.8471 -0.9314 -0.6472
17923SOL    HW255211   7.124   4.264  11.580 -1.2184 -0.9091 -0.8569
17924SOL     OW55212   3.162   4.369   9.821 -0.2608  0.4901  0.1454
17924SOL    HW155213   3.205   4.443   9.779 -1.6770  1.3260  0.1298
17924SOL    HW255214   3.172   4.297   9.759 -0.7467  1.2407 -0.8265
17925SOL     OW55215   5.243   7.343  12.086  0.0008  0.0719 -0.4692
17925SOL    HW155216   5.172   7.281  12.067  0.3705 -1.1748  1.7504
17925SOL    HW255217   5.229   7.366  12.178  3.7679 -2.2202  0.9078
17926SOL     OW55218   1.978   6.111   3.446 -0.2555 -0.0380 -0.2498
17926SOL    HW155219   1.985   6.181   3.381 -2.7078 -0.6438 -1.2780
17926SOL    HW255220   1.910   6.140   3.506  0.9264 -0.1816  1.2293
17927SOL     OW55221   4.836   1.493   8.166  0.1602 -0.0664  0.3201
17927SOL    HW155222   4.811   1.430   8.099 -0.8688 -0.5312  1.1131
17927SOL    HW255223   4.827   1.579   8.124 -0.8874 -0.3296 -0.0264
17928SOL     OW55224   5.467   3.564   3.807  0.4238 -0.0470 -0.9761
17928SOL    HW155225   5.422   3.621   3.870 -0.1124  0.6775 -2.0049
17928SOL    HW255226   5.557   3.596   3.806 -0.1386  1.6258 -2.4523
17929SOL     OW55227   6.684   1.507   2.433 -0.1645 -0.0213  0.2151
17929SOL    HW155228   6.610   1.452   2.460 -0.0035 -0.5573 -0.3966
17929SOL    HW255229   6.761   1.451   2.447  0.0557  0.2654  0.1525
17930SOL     OW55230   4.111   1.365   4.372 -0.8166  0.1021 -0.5964
17930SOL    HW155231   4.131   1.273   4.387 -0.1421  0.4650  0.9550
17930SOL    HW255232   4.042   1.365   4.306 -0.2908 -1.4754 -1.1830
17931SOL     OW55233   1.749   2.504  11.922  0.1867  0.3300  0.1621
17931SOL    HW155234   1.779   2.452  11.848 -0.6865 -0.5733  0.4190
17931SOL    HW255235   1.681   2.450  11.963 -1.1113  1.8700  0.1420
17932SOL     OW55236   6.232   6.079   0.613  0.3082 -0.1137  0.3554
17932SOL    HW155237   6.166   6.113   0.552  1.4817 -1.0212 -1.5088
17932SOL    HW255238   6.183   6.059   0.692 -1.0651  2.3427  0.2346
17933SOL     OW55239   7.823   5.343   5.642  0.2578 -0.1588 -0.0032
17933SOL    HW155240   7.749   5.287   5.617 -1.0003  1.2650  0.3508
17933SOL    HW255241   7.836   5.400   5.567 -0.4872  1.0608  0.7670
17934SOL     OW55242   3.018   5.858   3.235  0.2428  0.2041  0.1968
17934SOL    HW155243   2.938   5.836   3.282 -0.4519 -0.0114 -1.0381
17934SOL    HW255244   2.992   5.930   3.177  1.1409  0.6494  0.3385
17935SOL     OW55245   7.553   4.381  10.465  0.3875  0.0802 -0.2282
17935SOL    HW155246   7.595   4.339  10.389 -1.1448 -0.4035 -0.8469
17935SOL    HW255247   7.618   4.375  10.535  2.0059  0.8980 -1.5952
17936SOL     OW55248   1.936   6.618   3.469 -0.2326  0.4507  0.0998
17936SOL    HW155249   1.866   6.581   3.415  0.5136  0.3848 -0.8552
17936SOL    HW255250   1.934   6.712   3.449 -0.8544  0.6407  1.0281
17937SOL     OW55251   2.491   7.894   5.635 -0.0917  0.3828 -0.4066
17937SOL    HW155252   2.520   7.803   5.629  1.6723  0.8854 -0.1856
17937SOL    HW255253   2.427   7.903   5.565  0.0045 -0.9284 -0.6926
17938SOL     OW55254   3.213   1.922  11.241  0.4222 -0.1523 -0.5538
17938SOL    HW155255   3.237   1.837  11.280  1.3708  1.1174  1.8944
17938SOL    HW255256   3.280   1.937  11.174  0.4971 -1.1386 -0.7217
17939SOL     OW55257   2.439   6.584   7.977  0.4848  0.2998 -0.9122
17939SOL    HW155258   2.373   6.594   8.046  1.0774 -1.3410 -0.0512
17939SOL    HW255259   2.388   6.575   7.897 -0.4921 -2.2028 -0.1202
17940SOL     OW55260   7.133   2.469  11.706 -0.4612  0.0505 -0.1707
17940SOL    HW155261   7.148   2.541  11.644 -0.2482 -0.4926 -0.7694
17940SOL    HW255262   7.155   2.506  11.791  2.2389 -0.0386 -0.7441
17941SOL     OW55263   7.367   4.876   9.799 -0.4109 -0.3210  0.3452
17941SOL    HW155264   7.299   4.923   9.750 -0.1639 -0.0496  0.2598
17941SOL    HW255265   7.399   4.809   9.739  0.1576  0.2565 -0.0062
17942SOL     OW55266   4.294   2.618   4.277  0.1657 -0.9433  0.2607
17942SOL    HW155267   4.357   2.583   4.340 -0.7674 -1.0378  1.1571
17942SOL    HW255268   4.217   2.639   4.329  0.0656  0.8222 -0.5388
17943SOL     OW55269   7.282   3.119   7.996 -0.1862  0.3034 -0.4179
17943SOL    HW155270   7.279   3.215   7.995 -0.2259  0.3416  1.1928
17943SOL    HW255271   7.372   3.098   8.022 -0.0341 -0.1190 -1.2427
17944SOL     OW55272   5.782   7.623   3.111 -0.1751 -0.0580  0.4257
17944SOL    HW155273   5.861   7.618   3.164 -0.1140 -0.2791  0.3113
17944SOL    HW255274   5.779   7.541   3.064  0.2218  0.4730 -0.5547
17945SOL     OW55275   5.870   7.492  11.650  0.4232  0.5406 -0.2837
17945SOL    HW155276   5.845   7.416  11.703  0.1201  0.2650 -0.8107
17945SOL    HW255277   5.932   7.457  11.586  1.2201  0.9818  0.2396
17946SOL     OW55278   3.317   4.003   0.141  0.0011 -0.0149  0.2657
17946SOL    HW155279   3.278   4.070   0.198  1.6671  0.0331  1.3945
17946SOL    HW255280   3.411   4.017   0.148  0.3177 -1.4279 -0.7913
17947SOL     OW55281   7.223   1.677  11.188  0.0231  0.4215  0.1504
17947SOL    HW155282   7.143   1.636  11.221  0.7355 -0.2846  1.0630
17947SOL    HW255283   7.281   1.603  11.167  0.1211  0.8975 -1.3720
17948SOL     OW55284   4.412   5.691   0.546 -0.2354 -0.3218  0.1360
17948SOL    HW155285   4.334   5.640   0.570  0.4523 -1.3326  0.2508
17948SOL    HW255286   4.393   5.721   0.457 -1.9425  1.8002  1.1010
17949SOL     OW55287   6.649   5.504   3.691 -0.5093  0.1897  0.1002
17949SOL    HW155288   6.565   5.507   3.737 -0.5154 -1.1263  0.2079
17949SOL    HW255289   6.637   5.436   3.625 -0.0121  1.0341 -0.8933
17950SOL     OW55290   0.462   2.501   9.571 -0.0060 -0.2905  0.4924
17950SOL    HW155291   0.520   2.468   9.502  1.2751 -0.5546  1.6347
17950SOL    HW255292   0.493   2.590   9.587 -1.2454  0.3001 -0.2408
17951SOL     OW55293   5.067   3.956   7.833  0.1821 -0.2458  0.0709
17951SOL    HW155294   5.065   3.902   7.755  0.4063  0.2397 -0.2744
17951SOL    HW255295   5.152   3.999   7.831  1.0143 -1.6932  1.5972
17952SOL     OW55296   0.177   7.763   0.568  0.0686 -0.7251 -0.3135
17952SOL    HW155297   0.129   7.737   0.489 -0.0656 -2.1735  0.2176
17952SOL    HW255298   0.168   7.688   0.627 -0.1772  0.5036  1.2460
17953SOL     OW55299   1.677   6.413   6.382 -0.1666  0.0796  0.1656
17953SOL    HW155300   1.598   6.429   6.432 -0.4102  2.3398 -0.8461
17953SOL    HW255301   1.688   6.491   6.328  1.9750 -0.7851 -0.7630
17954SOL     OW55302   2.307   4.185   7.663  0.5660  0.0106  0.1658
17954SOL    HW155303   2.393   4.167   7.700  0.5413  1.9077  1.2655
17954SOL    HW255304   2.296   4.279   7.672 -1.5031 -0.1451 -0.2417
17955SOL     OW55305   7.562   3.094   8.217 -0.1529 -0.2566  0.3560
17955SOL    HW155306   7.622   3.048   8.159 -1.1539 -0.8580 -0.2338
17955SOL    HW255307   7.595   3.075   8.305  0.9019 -0.0160  0.0226
17956SOL     OW55308   1.535   0.706   2.738 -0.2347  0.0739 -0.1539
17956SOL    HW155309   1.604   0.642   2.721 -0.0084 -0.0568  1.1439
17956SOL    HW255310   1.462   0.654   2.772 -0.9383  0.2278 -1.3865
17957SOL     OW55311   3.253   6.353   9.703  0.6886 -0.0765  0.4876
17957SOL    HW155312   3.231   6.352   9.610  0.2966  2.3250  0.4845
17957SOL    HW255313   3.348   6.348   9.705  0.6483 -1.5067  0.0578
17958SOL     OW55314   6.300   5.884   2.699 -0.0434 -0.1449 -0.3760
17958SOL    HW155315   6.294   5.953   2.633  2.6927  1.7820  1.1493
17958SOL    HW255316   6.295   5.932   2.782  0.2763 -1.9973  0.7529
17959SOL     OW55317   0.005   7.334   4.788 -0.2099  0.3335  0.2556
17959SOL    HW155318   0.006   7.254   4.842  2.2634 -0.6405 -1.0669
17959SOL    HW255319   0.029   7.404   4.849  0.3817 -0.3942  0.8889
17960SOL     OW55320   0.894   6.175   0.823 -0.8165 -0.3575 -0.0931
17960SOL    HW155321   0.972   6.120   0.821 -0.0960  0.6053  0.4124
17960SOL    HW255322   0.845   6.145   0.900  0.2078  0.5058  0.9391
17961SOL     OW55323   4.537   3.641   2.940 -0.0054 -0.3762  0.3021
17961SOL    HW155324   4.603   3.661   3.007  1.0820  0.5594 -1.0059
17961SOL    HW255325   4.562   3.695   2.865 -2.4652  0.2505 -0.1283
17962SOL     OW55326   3.799   6.244   7.738 -0.2582 -0.4459  0.1912
17962SOL    HW155327   3.744   6.281   7.668  1.3771 -2.1071 -2.1372
17962SOL    HW255328   3.889   6.259   7.707  0.5636 -0.6657  2.3218
17963SOL     OW55329   7.321   7.078   7.502 -0.3666  0.1525  0.0752
17963SOL    HW155330   7.276   6.999   7.473 -1.1978  0.2135  1.1430
17963SOL    HW255331   7.315   7.075   7.598  0.2060  1.1546  0.1581
17964SOL     OW55332   1.444   4.159   9.153 -0.5103 -0.5773 -0.2581
17964SOL    HW155333   1.485   4.244   9.144 -0.5476 -0.6821 -1.6030
17964SOL    HW255334   1.423   4.132   9.064 -1.5341 -1.4877  0.2233
17965SOL     OW55335   4.793   7.269   3.406  0.4771 -0.2330 -0.3663
17965SOL    HW155336   4.785   7.175   3.394  2.2169 -0.6558  1.2850
17965SOL    HW255337   4.858   7.296   3.341 -0.0105 -0.1679 -0.8293
17966SOL     OW55338   4.907   1.762  11.616  0.3122  0.5129  0.2144
17966SOL    HW155339   4.851   1.803  11.683  0.0502  1.0326 -0.3123
17966SOL    HW255340   4.993   1.754  11.658 -0.3212 -1.0121  1.3072
17967SOL     OW55341   6.683   0.110  12.275  0.5567  0.1142  0.1407
17967SOL    HW155342   6.714   0.125  12.364 -2.8008 -1.5172  1.7301
17967SOL    HW255343   6.681   0.015  12.266 -1.8581  0.1803 -0.5738
17968SOL     OW55344   2.418   6.599   0.226 -0.4084 -0.2249 -0.1805
17968SOL    HW155345   2.446   6.550   0.303 -2.1585 -1.0719 -0.0197
17968SOL    HW255346   2.372   6.676   0.261 -1.8632 -0.9896 -0.2976
17969SOL     OW55347   1.084   2.953  12.063 -0.0591  0.1678 -0.2168
17969SOL    HW155348   1.037   2.903  12.130  0.5497 -0.0111  0.0876
17969SOL    HW255349   1.166   2.977  12.105  0.6060 -0.4855 -1.1103
17970SOL     OW55350   4.694   5.409   2.544  0.2836  0.2182 -0.7592
17970SOL    HW155351   4.764   5.438   2.486  0.7131 -0.8532 -0.7976
17970SOL    HW255352   4.716   5.448   2.629  0.5603  0.4332 -0.9281
17971SOL     OW55353   5.210   2.106   1.886  0.7720  0.1592 -0.0562
17971SOL    HW155354   5.198   2.044   1.814  0.5507  0.3516 -0.1850
17971SOL    HW255355   5.207   2.052   1.965 -0.4102  0.1308 -0.1079
17972SOL     OW55356   3.008   2.726   0.687 -0.3777 -0.2123  0.0419
17972SOL    HW155357   2.943   2.707   0.619  0.9034 -0.3424 -1.1894
17972SOL    HW255358   3.000   2.821   0.700 -0.3937 -0.1221 -0.5646
17973SOL     OW55359   1.725   5.963   7.532  0.0342  0.2085 -0.7377
17973SOL    HW155360   1.802   5.922   7.573 -0.7544  1.8962  2.7724
17973SOL    HW255361   1.656   5.897   7.541  0.3359 -0.1897 -1.2386
17974SOL     OW55362   6.896   3.151   9.058 -0.3732 -0.7843 -0.2311
17974SOL    HW155363   6.870   3.136   9.149 -0.0944  0.6702  0.1195
17974SOL    HW255364   6.990   3.170   9.063 -0.5129  0.1009 -0.7039
17975SOL     OW55365   0.543   7.486   6.670  0.0092 -0.3652  0.2044
17975SOL    HW155366   0.567   7.425   6.602  0.5099  0.2463 -0.1783
17975SOL    HW255367   0.453   7.463   6.693  0.5985 -2.0358  0.9523
17976SOL     OW55368   5.910   2.318   0.253  0.0885 -0.4871  0.4305
17976SOL    HW155369   5.889   2.376   0.326 -0.6303 -1.3154  0.9023
17976SOL    HW255370   5.850   2.244   0.264  0.1129 -0.7148 -0.8839
17977SOL     OW55371   7.536   5.398  12.230  0.0201  0.2037  0.8521
17977SOL    HW155372   7.614   5.434  12.188  1.3603 -1.3413  1.8983
17977SOL    HW255373   7.468   5.464  12.214  1.7603  2.0736  0.7429
17978SOL     OW55374   6.010   0.786   4.016 -0.3318  0.3594 -0.0763
17978SOL    HW155375   5.949   0.809   4.086 -0.0674 -0.7530  0.5478
17978SOL    HW255376   5.990   0.695   3.996  1.1539 -0.0523  0.1823
17979SOL     OW55377   0.295   5.030   9.271  0.4022  0.8194 -0.1374
17979SOL    HW155378   0.353   4.954   9.266 -1.1482 -0.3810 -0.7155
17979SOL    HW255379   0.275   5.038   9.365  0.3415  0.3217 -0.1046
17980SOL     OW55380   3.374   0.490   1.147 -0.0686  0.0470 -0.2348
17980SOL    HW155381   3.293   0.462   1.189 -0.0575  1.1758  0.5742
17980SOL    HW255382   3.443   0.442   1.193 -0.0770  1.0981  0.9358
17981SOL     OW55383   4.825   6.563   8.477  0.0225 -0.1455  0.2155
17981SOL    HW155384   4.830   6.483   8.424  0.5388 -0.1509  0.2638
17981SOL    HW255385   4.831   6.634   8.413 -0.6262 -0.1384  0.1551
17982SOL     OW55386   4.610   5.440   5.628 -0.2025  0.2746  0.1584
17982SOL    HW155387   4.585   5.355   5.593  1.3059 -0.0037 -0.3316
17982SOL    HW255388   4.529   5.478   5.662 -1.1461 -0.7525 -0.9001
17983SOL     OW55389   0.696   1.231   6.462 -0.3815 -0.5447 -0.1359
17983SOL    HW155390   0.631   1.228   6.391 -1.0799  1.6014  0.3304
17983SOL    HW255391   0.643   1.231   6.542  0.1739  0.9426  0.2603
17984SOL     OW55392   2.743   3.950   0.554 -0.2927 -0.5554  0.2515
17984SOL    HW155393   2.652   3.979   0.555 -0.2441 -0.1529 -2.0833
17984SOL    HW255394   2.745   3.876   0.614 -2.2194 -0.7810  0.1018
17985SOL     OW55395   4.302   4.601   6.237 -0.3531  0.4924  0.0669
17985SOL    HW155396   4.386   4.624   6.197 -0.3612  0.5135  0.0623
17985SOL    HW255397   4.320   4.518   6.282  0.0418  1.1968  1.2570
17986SOL     OW55398   4.181   1.664  12.026 -0.0831  0.1516 -0.1825
17986SOL    HW155399   4.253   1.671  12.088 -0.1306 -1.5311  0.1174
17986SOL    HW255400   4.127   1.741  12.042  0.5856  0.3968  0.9853
17987SOL     OW55401   0.603   6.701   8.444 -0.0609 -0.0247  0.4044
17987SOL    HW155402   0.585   6.618   8.401 -1.5250  0.5142 -0.1051
17987SOL    HW255403   0.599   6.682   8.537 -2.2138 -0.2313  0.3203
17988SOL     OW55404   0.312   1.699   8.636 -0.3896  0.0087  0.0949
17988SOL    HW155405   0.373   1.727   8.705  0.7116  0.6106 -1.0929
17988SOL    HW255406   0.225   1.713   8.675  0.1883  1.1216  1.0628
17989SOL     OW55407   1.039   5.102   3.347 -0.0346 -0.5812 -0.3193
17989SOL    HW155408   1.002   5.016   3.369 -1.1255  0.1119  0.7165
17989SOL    HW255409   1.133   5.092   3.360 -0.1288 -1.6722 -0.4051
17990SOL     OW55410   5.570   6.446   5.273  0.1203  0.4005  0.1935
17990SOL    HW155411   5.483   6.410   5.255  0.5435 -0.6650  0.1871
17990SOL    HW255412   5.575   6.450   5.368  0.0242  0.5953  0.1926
17991SOL     OW55413   5.888   1.102   5.723 -0.2182  0.2694  0.2762
17991SOL    HW155414   5.890   1.118   5.629  0.8507 -0.6341  0.1261
17991SOL    HW255415   5.855   1.013   5.732 -0.0187  0.2348  0.7358
17992SOL     OW55416   2.242   6.667   4.811 -0.4841  0.8295 -0.7936
17992SOL    HW155417   2.247   6.757   4.779 -1.5432  1.6297  1.1390
17992SOL    HW255418   2.179   6.670   4.883  0.7295 -1.1168  0.4554
17993SOL     OW55419   0.447   7.192   8.704  0.0148  0.4568  0.2046
17993SOL    HW155420   0.428   7.205   8.611  1.8195 -0.3104 -0.3125
17993SOL    HW255421   0.367   7.220   8.749 -0.8396  0.9883 -1.5551
17994SOL     OW55422   3.237   1.770  12.195  0.0765  0.5765  0.0265
17994SOL    HW155423   3.253   1.680  12.223  2.8103  0.8884 -0.2984
17994SOL    HW255424   3.245   1.822  12.275  1.6957  0.8252 -0.2724
17995SOL     OW55425   1.213   7.046   1.152  0.3204  0.0639 -0.1139
17995SOL    HW155426   1.285   6.985   1.164 -0.3017 -0.5078  0.8778
17995SOL    HW255427   1.174   7.021   1.068 -0.7916 -1.8958  0.8999
17996SOL     OW55428   6.031   4.994   1.660  0.0853  0.1813 -0.0298
17996SOL    HW155429   5.969   4.959   1.596 -1.9304  1.3504  1.1688
17996SOL    HW255430   6.020   4.938   1.737  1.3959 -0.3028 -0.1786
17997SOL     OW55431   0.008   3.674   3.071  0.1984 -0.6293 -0.1772
17997SOL    HW155432  -0.014   3.585   3.096  0.3430 -0.0197  2.3895
17997SOL    HW255433   0.100   3.684   3.096 -0.2205  0.6459  0.9762
17998SOL     OW55434   0.530   6.167   5.165  0.8381  0.0686 -0.1181
17998SOL    HW155435   0.468   6.237   5.187  0.5454 -0.5337  1.0411
17998SOL    HW255436   0.546   6.123   5.248  1.7126 -0.6919 -0.6778
17999SOL     OW55437   6.934   4.813   2.592 -0.6360  0.1453  0.0187
17999SOL    HW155438   6.866   4.789   2.529 -1.4264  1.1505  0.4478
17999SOL    HW255439   7.003   4.748   2.580 -2.7273 -2.5152  1.3176
18000SOL     OW55440   7.316   7.553   4.171  0.0590 -0.0965 -0.5941
18000SOL    HW155441   7.318   7.458   4.183 -0.6566  0.0873  1.3652
18000SOL    HW255442   7.283   7.587   4.254 -0.8503  1.8080 -1.6679
18001SOL     OW55443   0.521   2.689   4.778  0.0874  0.4820  0.3346
18001SOL    HW155444   0.427   2.685   4.762  0.1992 -0.5955 -0.1022
18001SOL    HW255445   0.529   2.713   4.870 -0.5922  2.1852 -0.0114
18002SOL     OW55446   1.087   1.777   5.877  0.1908  0.2445  0.4984
18002SOL    HW155447   1.152   1.707   5.879 -0.6004 -0.5037  0.2650
18002SOL    HW255448   1.104   1.822   5.794 -1.3252 -1.6688 -0.9463
18003SOL     OW55449   5.591   4.407   6.718  0.1553  0.0375 -0.3129
18003SOL    HW155450   5.656   4.336   6.720  0.3651  0.2317 -0.0011
18003SOL    HW255451   5.572   4.420   6.625  0.8711  0.2480 -0.4371
18004SOL     OW55452   6.958   4.832   9.339 -0.1262  0.4427  0.2533
18004SOL    HW155453   6.916   4.897   9.395  2.2257  1.8984  0.4628
18004SOL    HW255454   6.995   4.768   9.401 -1.2220 -0.3529  0.1113
18005SOL     OW55455   6.053   2.446   4.947  0.0886  0.2298 -0.0433
18005SOL    HW155456   6.129   2.396   4.977 -0.5005 -0.9218 -0.4226
18005SOL    HW255457   5.980   2.412   4.998 -0.3823  0.4795 -0.5367
18006SOL     OW55458   7.913   4.483   9.437  0.3928 -0.0353  0.1405
18006SOL    HW155459   8.006   4.490   9.414 -0.1885 -1.6705 -3.4467
18006SOL    HW255460   7.897   4.388   9.442 -1.2123  0.2030  0.0405
18007SOL     OW55461   1.971   1.083   0.588  0.0242  0.7136  0.5481
18007SOL    HW155462   1.985   0.994   0.556  1.3928  0.5395  1.5300
18007SOL    HW255463   1.951   1.073   0.681  0.4393  1.4369  0.7262
18008SOL     OW55464   2.494   6.330   2.047  0.0879  0.3437 -0.2839
18008SOL    HW155465   2.527   6.386   1.976 -0.8298 -0.2509 -1.2116
18008SOL    HW255466   2.502   6.241   2.012 -1.7684  0.1351 -0.2571
18009SOL     OW55467   0.137   7.535  12.068  0.0301 -0.0834  0.3902
18009SOL    HW155468   0.188   7.561  12.145 -0.4318 -1.6405  1.2871
18009SOL    HW255469   0.174   7.450  12.043 -1.1683 -0.5519  0.1614
18010SOL     OW55470   5.542   4.616  11.304 -0.5077 -0.1286 -0.7787
18010SOL    HW155471   5.505   4.698  11.271  0.8230  0.1238 -1.6882
18010SOL    HW255472   5.635   4.633  11.314 -0.5971 -0.7281  1.5749
18011SOL     OW55473   3.559   5.548   3.005 -0.7845  0.7807 -0.8127
18011SOL    HW155474   3.561   5.453   3.010 -0.1840  0.5520 -3.5695
18011SOL    HW255475   3.529   5.577   3.091  1.0923 -1.7707  0.8379
18012SOL     OW55476   1.264   1.265   5.653  0.0488 -0.5986  0.8237
18012SOL    HW155477   1.230   1.354   5.645  0.1197 -0.6825 -0.8853
18012SOL    HW255478   1.213   1.214   5.590  1.7482 -1.2127 -0.1317
18013SOL     OW55479   1.501   2.214  11.717 -0.6821  0.1556  0.2491
18013SOL    HW155480   1.408   2.192  11.710 -0.5581 -0.4718  0.4678
18013SOL    HW255481   1.506   2.306  11.693 -1.2574 -0.0008 -0.4892
18014SOL     OW55482   4.237   2.910   9.552  0.8116 -0.4153 -0.4670
18014SOL    HW155483   4.254   2.897   9.458  1.0020 -2.0371 -0.2364
18014SOL    HW255484   4.275   2.833   9.594 -0.5184 -0.4288  0.8064
18015SOL     OW55485   3.665   7.501   7.458 -0.5243 -0.3156  0.6605
18015SOL    HW155486   3.575   7.525   7.476 -0.0128  1.5963  0.8801
18015SOL    HW255487   3.669   7.407   7.476 -2.0260 -0.0959  2.4099
18016SOL     OW55488   3.446   3.640   2.932 -0.3774 -0.0070 -0.5307
18016SOL    HW155489   3.445   3.611   2.841  1.7435  0.2951 -0.7120
18016SOL    HW255490   3.536   3.622   2.961 -0.2513  2.2524  0.7035
18017SOL     OW55491   0.669   6.195   9.727  0.6689  0.3878 -0.4117
18017SOL    HW155492   0.695   6.165   9.640 -1.9669 -0.7777 -0.9138
18017SOL    HW255493   0.654   6.114   9.777 -2.3629  0.8220 -0.4122
18018SOL     OW55494   6.857   0.695   9.468  0.1818 -0.0740  0.4852
18018SOL    HW155495   6.940   0.739   9.485  0.6677 -0.5971 -0.4812
18018SOL    HW255496   6.870   0.606   9.499 -0.4240  0.1457  1.4068
18019SOL     OW55497   6.670   7.925   6.030 -0.2986  0.2124  0.3451
18019SOL    HW155498   6.626   7.854   5.983 -0.6646  1.2825 -0.9733
18019SOL    HW255499   6.601   7.989   6.046  0.2907  0.8379  0.4089
18020SOL     OW55500   5.196   1.020   4.329  0.2857 -0.1921  0.1965
18020SOL    HW155501   5.219   1.107   4.295  1.0463 -0.7019 -0.6264
18020SOL    HW255502   5.119   0.994   4.277  0.1853 -0.1092  0.3010
18021SOL     OW55503   6.703   2.270   6.369  0.0708 -1.0720 -0.1288
18021SOL    HW155504   6.632   2.257   6.306  0.2606 -0.5196 -0.4645
18021SOL    HW255505   6.720   2.182   6.404 -1.4078 -1.0790  0.6586
18022SOL     OW55506   4.573   0.628  11.480  0.6378 -0.2577  0.2020
18022SOL    HW155507   4.546   0.687  11.409 -0.0666 -0.2707  0.4541
18022SOL    HW255508   4.668   0.640  11.486  0.6456  0.0541 -0.4643
18023SOL     OW55509   0.881   2.063   9.631 -0.4298 -0.0622  0.4295
18023SOL    HW155510   0.790   2.056   9.601 -0.0558 -1.0552 -0.5516
18023SOL    HW255511   0.875   2.066   9.727 -1.4998  0.0707  0.3689
18024SOL     OW55512   1.479   3.564   7.792 -0.3521  0.8077 -0.3426
18024SOL    HW155513   1.499   3.582   7.700 -3.1615  1.4312 -0.9116
18024SOL    HW255514   1.481   3.469   7.798  1.2842  0.7844 -0.6367
18025SOL     OW55515   7.571   3.346   5.589  0.4438 -0.5217 -0.7062
18025SOL    HW155516   7.579   3.292   5.511 -1.0679 -0.7021 -0.7634
18025SOL    HW255517   7.581   3.436   5.558  1.4150 -0.6786 -0.8557
18026SOL     OW55518   3.948   5.377  11.082  0.2876 -0.4471  0.2766
18026SOL    HW155519   3.875   5.436  11.098  0.8858  0.2119  0.6178
18026SOL    HW255520   3.959   5.328  11.163  0.3781 -0.3751  0.3080
18027SOL     OW55521   7.351   1.718   9.668 -0.0645  0.2251 -0.0361
18027SOL    HW155522   7.393   1.793   9.626  1.0475 -0.0383  0.5605
18027SOL    HW255523   7.258   1.727   9.647  0.2361  1.0374 -1.0810
18028SOL     OW55524   7.394   3.864   1.685 -0.3196  0.5842  0.2452
18028SOL    HW155525   7.447   3.850   1.606 -0.3613  0.1681  0.2923
18028SOL    HW255526   7.322   3.920   1.656 -1.2793 -0.9148 -0.4035
18029SOL     OW55527   7.629   4.307  12.348 -0.4384 -0.1140  0.0275
18029SOL    HW155528   7.569   4.280  12.418  0.5478 -2.2442  0.1310
18029SOL    HW255529   7.619   4.240  12.280  1.9148 -0.7024  0.1517
18030SOL     OW55530   1.740   0.281  10.400  0.8821 -0.0250  0.2168
18030SOL    HW155531   1.757   0.187  10.397 -1.0205 -0.4354  1.0121
18030SOL    HW255532   1.669   0.295  10.337  1.0849  0.8623  0.1769
18031SOL     OW55533   1.079   7.114   7.958  0.1478 -0.1197 -0.2140
18031SOL    HW155534   1.072   7.208   7.940  0.5505 -0.0510 -0.0352
18031SOL    HW255535   1.022   7.073   7.894  0.0586  0.2424 -0.3707
18032SOL     OW55536   1.262   7.495   7.713  0.0886 -0.2399  0.2532
18032SOL    HW155537   1.295   7.477   7.625  1.6970  1.8853  0.3521
18032SOL    HW255538   1.167   7.489   7.705  0.1531  0.8620 -1.8612
18033SOL     OW55539   0.415   7.103   0.448  0.2867 -0.1489 -0.0832
18033SOL    HW155540   0.496   7.053   0.449  0.9423  0.8795  0.2199
18033SOL    HW255541   0.432   7.177   0.507 -0.4137  0.7671 -0.9834
18034SOL     OW55542   6.729   0.343   4.353 -0.0307 -0.0543 -0.2683
18034SOL    HW155543   6.774   0.259   4.344  0.8412  0.5516 -1.9132
18034SOL    HW255544   6.644   0.329   4.311  0.8240  0.3779 -2.2158
18035SOL     OW55545   0.867   3.349  12.206 -0.4218  0.0197 -0.2348
18035SOL    HW155546   0.803   3.312  12.145 -2.7190  1.1423  1.3811
18035SOL    HW255547   0.942   3.370  12.150 -1.8548 -0.2919 -2.4395
18036SOL     OW55548   4.098   1.901   0.923 -0.1382  1.0304 -0.3529
18036SOL    HW155549   4.133   1.892   1.012  0.8335  1.2836 -0.7006
18036SOL    HW255550   4.110   1.993   0.901 -1.6595  1.2828 -0.2431
18037SOL     OW55551   6.869   2.233   3.620 -0.1764  0.2079  0.8045
18037SOL    HW155552   6.949   2.211   3.572 -0.8884 -0.0885 -0.2916
18037SOL    HW255553   6.898   2.293   3.689  1.0432 -0.2175  0.6883
18038SOL     OW55554   1.632   4.913   2.822  0.7955  0.1768  0.0866
18038SOL    HW155555   1.652   4.889   2.731  1.1478 -0.4104  0.3222
18038SOL    HW255556   1.571   4.987   2.813 -0.0874 -0.5994 -0.6437
18039SOL     OW55557   4.008   1.441   9.730 -0.2919 -0.0188 -0.1883
18039SOL    HW155558   3.962   1.515   9.691  0.0273  1.4601  2.0229
18039SOL    HW255559   4.100   1.463   9.722 -0.1936 -0.1722  0.4158
18040SOL     OW55560   7.671   2.971   5.635  0.1830  0.9940 -0.3322
18040SOL    HW155561   7.722   2.985   5.715  1.1146  0.4566 -0.8132
18040SOL    HW255562   7.737   2.949   5.569 -0.8190 -2.1234 -0.4424
18041SOL     OW55563   2.006   7.249   9.124  0.8540 -0.0735  0.2386
18041SOL    HW155564   2.099   7.235   9.107  1.1366  0.3249  1.3547
18041SOL    HW255565   2.003   7.279   9.215 -0.2326  1.3470 -0.2300
18042SOL     OW55566   1.403   2.514   7.802  0.4517 -0.6688  0.0374
18042SOL    HW155567   1.338   2.582   7.786 -1.8536 -2.5099  0.9548
18042SOL    HW255568   1.446   2.540   7.884  0.2863  0.1452 -0.1335
18043SOL     OW55569   2.719   6.108  11.519 -0.2533 -0.2205 -0.6919
18043SOL    HW155570   2.657   6.161  11.468  0.0465  0.1712 -0.6495
18043SOL    HW255571   2.680   6.103  11.607 -0.0647  0.2969 -0.5788
18044SOL     OW55572   5.596   1.563   4.324 -0.3699 -0.5616  0.1517
18044SOL    HW155573   5.569   1.630   4.261 -0.1990 -1.8072 -1.3334
18044SOL    HW255574   5.523   1.501   4.326 -0.3585 -0.5580  1.1871
18045SOL     OW55575   3.265   1.527   8.750  0.4972 -0.2790 -0.2419
18045SOL    HW155576   3.251   1.608   8.800  0.3313 -0.1859 -0.4374
18045SOL    HW255577   3.347   1.492   8.784 -0.5802 -1.2521  1.4921
18046SOL     OW55578   7.869   4.469   5.143 -0.1169  0.0016  0.5656
18046SOL    HW155579   7.891   4.492   5.233 -0.2335 -1.4810  0.9946
18046SOL    HW255580   7.948   4.490   5.093 -0.3789  1.7458  0.8191
18047SOL     OW55581   1.750   0.611   3.703 -0.6143  0.0712  0.2783
18047SOL    HW155582   1.797   0.695   3.697 -3.6467  1.8962 -0.3634
18047SOL    HW255583   1.683   0.617   3.634 -0.1727 -3.5060 -0.6536
18048SOL     OW55584   1.312   2.135   2.898  0.2657 -0.8122  0.3525
18048SOL    HW155585   1.366   2.064   2.934 -3.2466 -2.5380  2.8904
18048SOL    HW255586   1.283   2.184   2.975 -1.6720  0.0384 -0.8444
18049SOL     OW55587   4.667   4.447  11.042 -0.1640 -0.1723  0.0559
18049SOL    HW155588   4.729   4.432  10.970  0.5795  0.7154  0.4834
18049SOL    HW255589   4.619   4.525  11.016  2.0531  1.9081  1.7027
18050SOL     OW55590   4.251   5.735   4.597  0.2324 -0.4842 -0.3117
18050SOL    HW155591   4.167   5.715   4.556 -0.4819 -0.2962  0.9789
18050SOL    HW255592   4.310   5.755   4.525 -0.2648 -2.6065 -1.3915
18051SOL     OW55593   0.195   0.905  10.013 -0.4919  0.1800  0.0641
18051SOL    HW155594   0.113   0.899   9.965  0.5058 -0.3446 -1.6300
18051SOL    HW255595   0.239   0.821   9.998  2.0651  1.7889 -2.3401
18052SOL     OW55596   4.471   5.463  10.776  0.2016 -0.0757 -0.0609
18052SOL    HW155597   4.513   5.549  10.787 -0.4406  0.1885  0.4332
18052SOL    HW255598   4.529   5.415  10.717  1.8586 -0.1788  1.5250
18053SOL     OW55599   1.221   1.695   9.136 -0.1473 -0.3779 -0.6168
18053SOL    HW155600   1.159   1.758   9.098  0.9203 -0.4219 -2.5585
18053SOL    HW255601   1.227   1.720   9.228 -1.9725  0.5001 -0.6928
18054SOL     OW55602   3.125   0.243   6.325 -0.1426  0.0690 -0.0007
18054SOL    HW155603   3.164   0.312   6.378 -1.8153  0.4868  0.7543
18054SOL    HW255604   3.064   0.289   6.267 -1.0416 -0.7353  0.2867
18055SOL     OW55605   3.949   5.691   3.312  0.1727  0.1902 -0.0226
18055SOL    HW155606   3.966   5.598   3.319  0.0276  0.1613 -0.0457
18055SOL    HW255607   4.032   5.733   3.334  0.0591  0.0724  0.6432
18056SOL     OW55608   4.716   3.372   1.029 -0.1156 -0.4769 -0.4965
18056SOL    HW155609   4.724   3.455   1.076 -2.4679  0.4768 -1.5701
18056SOL    HW255610   4.801   3.360   0.987  0.5857  0.8982  0.4503
18057SOL     OW55611   2.159   2.478   0.238  0.4737  0.5275  0.0968
18057SOL    HW155612   2.067   2.454   0.249  0.2787  1.6610  1.0869
18057SOL    HW255613   2.191   2.418   0.170 -0.6183 -0.8339  0.7258
18058SOL     OW55614   1.593   7.187   9.251 -0.1763  0.3937 -0.0268
18058SOL    HW155615   1.526   7.135   9.295  0.7680 -1.9467 -1.2254
18058SOL    HW255616   1.588   7.273   9.294 -0.5504 -1.1662  3.3607
18059SOL     OW55617   2.678   4.129   9.496  0.1316  0.4704  0.2017
18059SOL    HW155618   2.648   4.076   9.423  1.0465  0.1209  0.0618
18059SOL    HW255619   2.774   4.130   9.487  0.3767 -0.7085  2.1583
18060SOL     OW55620   3.110   5.609   7.870 -0.2709  0.1718 -0.3430
18060SOL    HW155621   3.061   5.574   7.945 -1.7009 -1.0755 -1.7763
18060SOL    HW255622   3.045   5.658   7.820  1.0293  2.3918  0.0247
18061SOL     OW55623   4.090   4.764   9.010 -0.9933 -0.2148 -0.0739
18061SOL    HW155624   4.124   4.843   8.968 -2.5713  0.5576  0.0343
18061SOL    HW255625   4.025   4.796   9.072  0.7111 -1.3737  2.4762
18062SOL     OW55626   5.999   3.090   9.429  0.0320  0.4899  0.1366
18062SOL    HW155627   6.034   3.176   9.449  0.9915  0.3065 -0.6951
18062SOL    HW255628   5.949   3.102   9.348  2.2419 -0.1926 -1.3990
18063SOL     OW55629   3.961   1.463   0.727 -0.8617  0.0163  0.6295
18063SOL    HW155630   4.044   1.433   0.765 -0.9935 -2.0875 -0.6118
18063SOL    HW255631   3.928   1.527   0.790  2.1848  1.7443  0.6888
18064SOL     OW55632   0.753   1.657   0.883 -0.1224  0.6520 -0.0565
18064SOL    HW155633   0.707   1.670   0.800 -0.4730  2.6834  0.4014
18064SOL    HW255634   0.844   1.638   0.857 -0.3700  0.5783 -0.9028
18065SOL     OW55635   5.577   6.830   8.879  0.6782  0.0320 -0.5490
18065SOL    HW155636   5.658   6.783   8.899  1.2962  0.4654 -1.9540
18065SOL    HW255637   5.512   6.789   8.937  2.2868  1.1244  2.2653
18066SOL     OW55638   2.712   5.762   9.474 -0.2641 -0.3004 -0.6101
18066SOL    HW155639   2.674   5.676   9.456 -1.4703  0.1429 -0.2520
18066SOL    HW255640   2.687   5.780   9.565 -0.7029  0.7713 -0.9307
18067SOL     OW55641   7.551   6.736   7.681 -0.0959  0.1526 -0.3171
18067SOL    HW155642   7.555   6.641   7.669 -1.3302  0.0574 -0.0401
18067SOL    HW255643   7.538   6.747   7.775 -1.4917  0.5403 -0.5470
18068SOL     OW55644   1.340   4.604   2.895  0.0622 -0.3414  0.3357
18068SOL    HW155645   1.282   4.578   2.823  0.3591  1.8821 -0.7888
18068SOL    HW255646   1.287   4.589   2.974 -1.3339 -0.2252 -0.5323
18069SOL     OW55647   3.137   6.605   4.065  0.4137  0.1106  0.2611
18069SOL    HW155648   3.136   6.699   4.083  1.8324  0.3004 -0.5040
18069SOL    HW255649   3.073   6.593   3.996  1.4088  0.8182 -0.8287
18070SOL     OW55650   5.325   7.373   0.819  0.3719 -0.0440  0.8424
18070SOL    HW155651   5.408   7.420   0.818  0.3848 -0.0354  1.6247
18070SOL    HW255652   5.310   7.347   0.728  0.0755  1.9820  0.2556
18071SOL     OW55653   6.559   5.376   0.221  0.3201  0.2729 -0.0914
18071SOL    HW155654   6.597   5.365   0.134  1.6500 -1.8046  0.6904
18071SOL    HW255655   6.494   5.446   0.209  0.8682  0.4727 -2.5924
18072SOL     OW55656   7.298   2.292   1.884  0.3554 -0.5794  0.0046
18072SOL    HW155657   7.324   2.241   1.808  1.5250 -1.6652  1.0875
18072SOL    HW255658   7.219   2.249   1.916  0.4591 -0.7657  0.0112
18073SOL     OW55659   6.578   2.404  11.559 -1.1294 -0.3176  0.1568
18073SOL    HW155660   6.490   2.367  11.551 -1.1017 -0.3092 -0.2062
18073SOL    HW255661   6.599   2.436  11.471 -2.1512  2.8399  0.9313
18074SOL     OW55662   3.241   1.182   8.943 -0.7373 -0.4007 -0.0203
18074SOL    HW155663   3.301   1.176   8.869  1.5603 -0.6539  1.7572
18074SOL    HW255664   3.298   1.181   9.020 -2.9099  1.4199  1.7447
18075SOL     OW55665   0.908   4.525   4.631 -0.8254  0.0805 -0.2194
18075SOL    HW155666   0.997   4.543   4.601 -1.3009 -1.6967 -3.0886
18075SOL    HW255667   0.852   4.546   4.556 -2.7634  0.3211  1.2026
18076SOL     OW55668   6.758   3.051  10.149  0.7686 -0.2913 -0.1307
18076SOL    HW155669   6.729   3.137  10.117 -0.2077 -1.1055 -1.5642
18076SOL    HW255670   6.706   3.036  10.227 -1.2528 -0.7933 -1.4853
18077SOL     OW55671   4.704   4.899   8.394  0.6642  0.3150  0.3729
18077SOL    HW155672   4.789   4.917   8.354 -0.0275  1.3014 -0.7651
18077SOL    HW255673   4.673   4.985   8.424 -0.0473  0.0217  0.5035
18078SOL     OW55674   1.368   1.636   4.999  0.2306  0.1640 -0.3602
18078SOL    HW155675   1.275   1.635   5.020  0.0670 -1.7683 -0.9221
18078SOL    HW255676   1.408   1.691   5.066 -1.2014  0.2854  0.4321
18079SOL     OW55677   3.609   3.859   1.327  0.2054  0.2490  0.2999
18079SOL    HW155678   3.633   3.825   1.241  1.5460  1.0796  0.3117
18079SOL    HW255679   3.592   3.781   1.380 -1.8613 -0.2582 -1.0030
18080SOL     OW55680   7.425   1.089   2.608 -0.3140 -0.4243  0.1926
18080SOL    HW155681   7.454   1.004   2.642 -0.7732 -1.0330 -0.8489
18080SOL    HW255682   7.395   1.069   2.519 -2.4865  0.4145  0.6776
18081SOL     OW55683   7.224   5.779  10.450 -0.0048 -0.3586 -0.0425
18081SOL    HW155684   7.293   5.713  10.453  0.6877  0.1726 -2.3147
18081SOL    HW255685   7.144   5.733  10.475  0.8367 -1.4506  0.7235
18082SOL     OW55686   6.964   6.230   7.454 -0.1795  0.4392  0.1897
18082SOL    HW155687   6.991   6.295   7.519 -1.3087  0.5021  0.6094
18082SOL    HW255688   6.882   6.264   7.419 -1.7577 -1.5920  1.6839
18083SOL     OW55689   3.626   0.676   7.631 -0.6463 -0.1333  0.4485
18083SOL    HW155690   3.673   0.621   7.693  1.0136 -0.8398 -1.3341
18083SOL    HW255691   3.534   0.649   7.639 -0.4031 -0.5522  2.1726
18084SOL     OW55692   7.549   1.621  11.355 -0.2288 -0.0766  0.3914
18084SOL    HW155693   7.557   1.622  11.450 -2.5059  1.8438  0.6401
18084SOL    HW255694   7.575   1.709  11.328  3.3722 -1.4156 -1.2049
18085SOL     OW55695   5.080   3.617   7.540 -0.7330  0.0435  0.3642
18085SOL    HW155696   5.067   3.601   7.446 -1.2467 -0.3784  0.5012
18085SOL    HW255697   5.101   3.710   7.546 -1.3508  0.2172 -0.1060
18086SOL     OW55698   7.089   7.406  10.757  0.0612 -0.3318  0.4969
18086SOL    HW155699   7.148   7.361  10.818 -0.6335  0.0115  1.4570
18086SOL    HW255700   7.012   7.427  10.810  0.0399  1.2831 -0.1321
18087SOL     OW55701   1.916   7.647  10.923  0.0846 -0.2063  0.3545
18087SOL    HW155702   1.836   7.645  10.871  0.6681  2.1819 -0.7390
18087SOL    HW255703   1.950   7.557  10.917 -0.5315 -0.3416 -2.3596
18088SOL     OW55704   3.678   7.280   8.774  0.2852 -0.3365  0.4890
18088SOL    HW155705   3.682   7.199   8.825 -0.7760 -0.4007  0.4958
18088SOL    HW255706   3.708   7.347   8.835  1.2611 -0.7307  0.4524
18089SOL     OW55707   4.141   5.684   5.955  0.1464 -0.5196 -0.2800
18089SOL    HW155708   4.228   5.715   5.933  0.5996 -1.0905  0.6401
18089SOL    HW255709   4.156   5.599   5.998 -0.7455 -0.0011  1.1250
18090SOL     OW55710   4.027   7.602   2.520 -0.4700  0.5216 -0.0297
18090SOL    HW155711   3.985   7.550   2.588  1.3441 -1.4586 -0.3378
18090SOL    HW255712   4.039   7.688   2.560 -2.2700  0.3642  0.9804
18091SOL     OW55713   7.733   2.311   9.248 -0.4948 -0.2636 -0.2212
18091SOL    HW155714   7.806   2.352   9.203 -0.6204 -0.6561 -0.8008
18091SOL    HW255715   7.738   2.343   9.338  1.4989 -1.7083  0.2370
18092SOL     OW55716   4.462   1.923  11.996 -0.3546  0.0321 -0.1749
18092SOL    HW155717   4.507   1.945  11.914  0.9104  0.2865  0.5539
18092SOL    HW255718   4.403   1.997  12.011 -0.3134  0.1700 -0.6575
18093SOL     OW55719   4.102   7.855   9.273 -0.0665 -0.3520  0.6674
18093SOL    HW155720   4.008   7.862   9.256  0.1324  2.6074  0.1967
18093SOL    HW255721   4.124   7.935   9.321  2.1675 -1.1378  1.0822
18094SOL     OW55722   6.916   5.909   9.062 -0.0635  0.3928 -0.1184
18094SOL    HW155723   6.940   5.816   9.062 -1.9941 -0.2143  2.2983
18094SOL    HW255724   6.997   5.954   9.087  1.1985 -0.4612 -2.4015
18095SOL     OW55725   2.917   0.351   7.670  0.2060  0.5406  0.2462
18095SOL    HW155726   2.997   0.301   7.687  0.6494  0.6265 -1.4384
18095SOL    HW255727   2.848   0.285   7.664  0.2648  0.4034  0.9752
18096SOL     OW55728   5.794   4.174  11.183  0.3468  0.4891  0.3009
18096SOL    HW155729   5.773   4.217  11.266 -0.1065  1.1106 -0.1266
18096SOL    HW255730   5.767   4.084  11.195 -1.4047  0.9776  0.2192
18097SOL     OW55731   0.154   6.483   6.981 -0.3233 -0.3055  0.4920
18097SOL    HW155732   0.084   6.490   6.917  0.8922  3.8952 -0.6519
18097SOL    HW255733   0.230   6.455   6.931 -0.7390 -3.9495  1.5728
18098SOL     OW55734   4.275   2.065   0.023  0.2338 -0.0538  0.5108
18098SOL    HW155735   4.276   2.154   0.059 -1.2846 -0.3997  1.5000
18098SOL    HW255736   4.322   2.012   0.088  1.4267  0.0438 -0.2345
18099SOL     OW55737   3.719   6.022   9.971  0.2257  0.4400 -0.0057
18099SOL    HW155738   3.656   6.069   9.917  0.6450  0.0644 -0.8379
18099SOL    HW255739   3.784   5.989   9.909 -1.1003 -2.9974  0.2020
18100SOL     OW55740   0.900   6.717   8.890  0.4588  0.7245  0.2153
18100SOL    HW155741   0.902   6.813   8.882  0.3017  0.6700 -0.5429
18100SOL    HW255742   0.823   6.699   8.943 -1.2556  0.8957 -2.0646
18101SOL     OW55743   5.426   1.422   2.109  0.5160 -0.2019 -0.2912
18101SOL    HW155744   5.495   1.383   2.163  1.0053  0.2968 -0.5470
18101SOL    HW255745   5.353   1.436   2.169  0.6402 -0.7245 -0.0154
18102SOL     OW55746   0.597   4.648   3.392  0.3411 -0.3279  0.3665
18102SOL    HW155747   0.662   4.608   3.333  0.4742  0.1263  0.2036
18102SOL    HW255748   0.534   4.578   3.409  1.2132 -0.9833  1.0425
18103SOL     OW55749   5.711   3.834   4.253  0.1988  0.6292  0.2339
18103SOL    HW155750   5.724   3.879   4.336 -0.5934  0.4987  0.4367
18103SOL    HW255751   5.619   3.809   4.253 -0.1296  1.6915 -1.2096
18104SOL     OW55752   4.366   2.195   0.385 -0.1394  0.1499  0.3226
18104SOL    HW155753   4.333   2.155   0.466  1.5871  0.3043  1.1496
18104SOL    HW255754   4.382   2.286   0.408  0.1829  0.2448 -0.2593
18105SOL     OW55755   1.948   2.385   6.090  0.2619 -0.1984 -0.2008
18105SOL    HW155756   1.868   2.332   6.086 -0.1277  0.3881 -0.2304
18105SOL    HW255757   2.017   2.322   6.112 -0.5100 -0.4235  1.8608
18106SOL     OW55758   3.288   1.520   1.129  0.5507  0.2486  0.6017
18106SOL    HW155759   3.295   1.599   1.182  1.5964  1.8693 -1.7535
18106SOL    HW255760   3.365   1.468   1.152  0.8534  0.8025  0.8567
18107SOL     OW55761   6.225   1.327   2.490  0.3494  0.5557 -0.1505
18107SOL    HW155762   6.192   1.377   2.566 -1.1779  1.1842 -1.1816
18107SOL    HW255763   6.192   1.239   2.504 -1.0736  0.9697 -0.7080
18108SOL     OW55764   4.627   6.563   2.309  0.1374  0.3115 -0.2493
18108SOL    HW155765   4.688   6.587   2.379  0.8557 -2.2645  0.1146
18108SOL    HW255766   4.540   6.578   2.347  0.5254  0.1819  0.7283
18109SOL     OW55767   6.795   7.690   0.196  0.0775  0.8599 -0.0315
18109SOL    HW155768   6.756   7.617   0.148  2.0555 -0.5521  0.3988
18109SOL    HW255769   6.836   7.744   0.129  2.8425 -1.1096 -0.1134
18110SOL     OW55770   6.362   4.577  11.950  0.0751  0.6216 -0.7651
18110SOL    HW155771   6.372   4.504  12.011 -1.0046  0.6226 -0.5803
18110SOL    HW255772   6.418   4.554  11.876 -0.2165 -0.3617 -0.6893
18111SOL     OW55773   2.913   7.922   5.455  0.0379 -0.0288 -0.2628
18111SOL    HW155774   2.949   7.979   5.387  0.2902 -0.3932 -0.4402
18111SOL    HW255775   2.838   7.970   5.490  2.1637  1.9747  1.9146
18112SOL     OW55776   3.784   1.889   1.734  0.6306 -0.1782  0.6744
18112SOL    HW155777   3.728   1.847   1.668  1.0415 -1.4487  1.1104
18112SOL    HW255778   3.789   1.980   1.705 -1.2493 -0.1243  0.3446
18113SOL     OW55779   7.278   2.953   9.080  0.0275  0.2563  0.5688
18113SOL    HW155780   7.338   3.010   9.128 -0.9042 -0.1694  2.3163
18113SOL    HW255781   7.193   2.996   9.086 -0.5719 -0.9771  1.4230
18114SOL     OW55782   4.709   4.543   8.369  0.0276  0.5890  0.4575
18114SOL    HW155783   4.624   4.584   8.385 -1.4878 -1.2556 -2.1057
18114SOL    HW255784   4.769   4.616   8.356 -1.4550  1.9544  0.9635
18115SOL     OW55785   0.883   3.941   0.747  0.0821  0.1891 -0.0122
18115SOL    HW155786   0.923   3.863   0.709  0.7033  0.3124  0.3722
18115SOL    HW255787   0.803   3.909   0.790  0.3861 -0.2477  0.2339
18116SOL     OW55788   0.723   4.112   7.813  0.4602 -0.1130 -0.0593
18116SOL    HW155789   0.713   4.017   7.816  2.7591 -0.3889  0.3836
18116SOL    HW255790   0.775   4.129   7.735 -1.4845  1.0083 -1.1904
18117SOL     OW55791   7.612   5.977  10.347 -0.7992 -0.1254  0.6152
18117SOL    HW155792   7.618   6.018  10.434 -1.4226  0.3273  0.4537
18117SOL    HW255793   7.567   6.042  10.293 -0.7269 -0.5474  0.0389
18118SOL     OW55794   4.857   0.689  10.445  0.0823  0.0887  0.6401
18118SOL    HW155795   4.847   0.594  10.441 -0.7802  0.1244  1.5593
18118SOL    HW255796   4.768   0.722  10.461  0.3111  1.0775 -0.0340
18119SOL     OW55797   7.317   6.286  11.278  0.4326 -0.2399 -0.6204
18119SOL    HW155798   7.315   6.259  11.370 -0.1228 -0.8780 -0.8079
18119SOL    HW255799   7.409   6.309  11.262  0.6215 -0.5566 -0.0257
18120SOL     OW55800   7.248   0.927   0.582  0.4608  0.3825 -0.0805
18120SOL    HW155801   7.244   0.995   0.650 -2.2711  1.1728 -0.8881
18120SOL    HW255802   7.202   0.852   0.621  1.5939 -0.2722  0.0280
18121SOL     OW55803   7.697   3.081  11.490  0.4332  0.2109  0.3945
18121SOL    HW155804   7.684   3.119  11.403 -2.1213  0.5412  0.8653
18121SOL    HW255805   7.738   3.152  11.541 -0.6271  0.9994  0.1866
18122SOL     OW55806   3.631   1.936   8.153 -0.0195  0.1563 -0.3561
18122SOL    HW155807   3.634   1.881   8.075  0.5580  1.4130 -1.2503
18122SOL    HW255808   3.658   1.878   8.225  1.1454 -0.5781 -1.3525
18123SOL     OW55809   4.724   7.647   2.127 -0.3155 -0.2754  0.0425
18123SOL    HW155810   4.630   7.630   2.112 -0.1806 -1.1671  0.1339
18123SOL    HW255811   4.764   7.632   2.042 -0.3060  0.5818 -0.1136
18124SOL     OW55812   2.393   3.660   5.796  0.2162 -0.0197  0.2014
18124SOL    HW155813   2.461   3.669   5.729  0.4987  0.3260  0.5253
18124SOL    HW255814   2.437   3.686   5.878 -0.0331 -0.7514  0.5698
18125SOL     OW55815   3.499   0.320   2.071  0.9019  0.2490 -0.2742
18125SOL    HW155816   3.569   0.281   2.019  0.5119  0.8402 -1.2755
18125SOL    HW255817   3.452   0.377   2.010 -0.6541 -0.3703  0.2782
18126SOL     OW55818   2.989   0.950  10.209 -0.0515  0.4970 -0.1283
18126SOL    HW155819   2.907   0.953  10.160 -0.6624 -2.5277  0.5252
18126SOL    HW255820   3.047   0.897  10.155  1.0303  1.3763  0.1174
18127SOL     OW55821   3.298   7.790   9.027  0.5792  0.3766  0.7092
18127SOL    HW155822   3.207   7.818   9.026  0.7390  0.9574  1.5868
18127SOL    HW255823   3.348   7.871   9.034  1.1431  0.0288  0.7426
18128SOL     OW55824   7.513   2.978   1.206  0.3724  0.0118  0.2372
18128SOL    HW155825   7.510   2.944   1.117  0.1136  1.3173 -0.2736
18128SOL    HW255826   7.423   2.970   1.238 -0.2265  2.2412 -0.7073
18129SOL     OW55827   5.317   1.513  10.436  0.0676 -0.2005  0.0418
18129SOL    HW155828   5.378   1.539  10.506 -0.1813 -0.6632  0.4292
18129SOL    HW255829   5.232   1.506  10.479  0.1383 -1.7696 -0.0219
18130SOL     OW55830   3.834   6.860   7.993 -0.3794  0.0926  0.3127
18130SOL    HW155831   3.863   6.909   8.070  0.4410  0.9288 -0.5069
18130SOL    HW255832   3.777   6.919   7.946  1.1361  0.5726 -1.0263
18131SOL     OW55833   5.432   6.167   1.130  0.2331 -0.0121  0.5170
18131SOL    HW155834   5.392   6.200   1.050  0.3777 -0.1488  0.3885
18131SOL    HW255835   5.514   6.127   1.102  0.6429  0.5987  0.8266
18132SOL     OW55836   3.227   0.135   7.113  0.0756  0.4178 -0.1377
18132SOL    HW155837   3.203   0.064   7.055 -1.8238  0.8350  0.0820
18132SOL    HW255838   3.305   0.174   7.073  0.2058 -0.7828 -1.0904
18133SOL     OW55839   7.543   1.886  10.266  0.2482  0.4410  0.2121
18133SOL    HW155840   7.603   1.830  10.316  0.8053  0.9538  0.1324
18133SOL    HW255841   7.535   1.965  10.320  0.8194  0.9792 -0.4735
18134SOL     OW55842   2.977   7.106   8.392  0.1544  0.2199  0.1457
18134SOL    HW155843   3.032   7.121   8.315  1.3367 -0.7219  0.7701
18134SOL    HW255844   2.942   7.017   8.380  0.5538 -0.0379  0.7916
18135SOL     OW55845   4.231   2.009   1.208  0.0177 -0.0577 -0.1097
18135SOL    HW155846   4.321   2.004   1.176  1.0100  0.8499  2.3252
18135SOL    HW255847   4.197   2.092   1.173 -0.0209 -0.5360 -1.2620
18136SOL     OW55848   0.691   6.463   4.912  0.2734  0.1976 -0.0836
18136SOL    HW155849   0.652   6.394   4.858 -1.0939 -1.6024  2.9611
18136SOL    HW255850   0.641   6.542   4.890  0.4638 -0.1937 -2.1059
18137SOL     OW55851   2.599   6.985   1.586  0.8801 -0.1266  0.4933
18137SOL    HW155852   2.628   6.983   1.494  0.7230  0.6404  0.4192
18137SOL    HW255853   2.517   6.937   1.586  0.6356  0.2814  0.1320
18138SOL     OW55854   6.782   3.413  10.900 -0.3224 -0.2706  0.5725
18138SOL    HW155855   6.810   3.335  10.852 -1.5869 -1.4787  1.7257
18138SOL    HW255856   6.848   3.479  10.878  0.1465 -1.2929 -1.3587
18139SOL     OW55857   6.180   0.973   3.545  0.2012  0.1542 -0.2726
18139SOL    HW155858   6.101   0.963   3.492  0.1944 -0.9523 -0.0647
18139SOL    HW255859   6.250   0.988   3.482 -0.2667  1.9658 -0.4304
18140SOL     OW55860   5.865   5.795   4.284  0.4332 -0.2029  0.0901
18140SOL    HW155861   5.782   5.828   4.316  0.1602 -0.6303 -0.1701
18140SOL    HW255862   5.861   5.806   4.189 -0.2090 -2.1684 -0.1544
18141SOL     OW55863   0.730   0.184   4.512  0.0683  0.5080 -0.5065
18141SOL    HW155864   0.771   0.098   4.500  0.8514  0.5838  1.3796
18141SOL    HW255865   0.802   0.246   4.507 -0.4609  1.0796 -1.5857
18142SOL     OW55866   4.880   0.955   7.665  0.4980 -0.5871  0.3449
18142SOL    HW155867   4.814   0.909   7.717  1.2552 -0.3146  1.5655
18142SOL    HW255868   4.873   1.046   7.692  0.3164 -0.2784 -0.6779
18143SOL     OW55869   5.573   0.083   6.382 -0.4756  0.2306 -0.2977
18143SOL    HW155870   5.508   0.050   6.319 -0.3638  1.5762 -1.1453
18143SOL    HW255871   5.526   0.149   6.432 -0.3216 -0.2435  0.4847
18144SOL     OW55872   4.769   5.986   8.797  0.1290 -0.1655  1.2152
18144SOL    HW155873   4.679   5.958   8.811 -0.1301  0.8340  1.6671
18144SOL    HW255874   4.795   6.025   8.880  0.3624  1.1594  0.5524
18145SOL     OW55875   6.441   5.004   8.763 -0.3784  0.0465  0.6640
18145SOL    HW155876   6.501   4.933   8.740 -0.0322  0.8025 -0.9457
18145SOL    HW255877   6.354   4.965   8.757 -0.1388 -1.2862  3.8152
18146SOL     OW55878   7.879   4.641   2.469  0.4064  0.1713 -0.6308
18146SOL    HW155879   7.968   4.639   2.433  0.7059 -0.1396  0.1082
18146SOL    HW255880   7.822   4.622   2.395  0.9279  0.7603 -1.1987
18147SOL     OW55881   5.368   6.880  11.038  0.0776 -0.3476  0.2542
18147SOL    HW155882   5.302   6.876  11.108  0.2939  0.7932  0.5424
18147SOL    HW255883   5.316   6.891  10.958 -0.0916  1.5170  0.5750
18148SOL     OW55884   1.775   1.983  12.141  0.7304  0.0234  0.1436
18148SOL    HW155885   1.801   1.909  12.196  1.0103  0.7264  0.9861
18148SOL    HW255886   1.697   1.953  12.095  0.1302 -0.3764  1.3825
18149SOL     OW55887   1.419   6.423   9.515 -0.0084 -0.8205 -0.0831
18149SOL    HW155888   1.506   6.462   9.503  0.1818 -0.8344  1.0742
18149SOL    HW255889   1.391   6.397   9.427  0.1609  1.2803 -0.8275
18150SOL     OW55890   6.343   1.127  10.960 -0.1685 -0.0404  0.4320
18150SOL    HW155891   6.305   1.209  10.928  0.1871 -0.2611 -0.5902
18150SOL    HW255892   6.354   1.140  11.054 -0.2595  1.0174  0.2991
18151SOL     OW55893   2.247   1.636  11.773 -0.0582 -0.3067  0.0674
18151SOL    HW155894   2.248   1.540  11.777  0.6328 -0.3190 -0.2279
18151SOL    HW255895   2.172   1.657  11.717 -0.6277 -0.6425  0.6876
18152SOL     OW55896   3.652   4.254   6.474 -0.7809 -0.3335  0.0510
18152SOL    HW155897   3.695   4.201   6.406 -1.0710 -0.8769  0.2862
18152SOL    HW255898   3.583   4.301   6.428  1.1805  2.0320 -0.7390
18153SOL     OW55899   3.415   4.606  11.016  0.0164 -0.5857  0.3653
18153SOL    HW155900   3.473   4.673  11.054 -1.1787 -0.0583  1.3554
18153SOL    HW255901   3.402   4.633  10.925  0.4516 -0.0996  0.4473
18154SOL     OW55902   5.030   6.460  11.381  0.0244  0.7010 -0.4933
18154SOL    HW155903   4.958   6.522  11.392 -0.3106  0.4217 -1.0582
18154SOL    HW255904   5.025   6.433  11.289  1.0583  0.9301 -0.6366
18155SOL     OW55905   5.106   6.199  11.730  0.0896  0.6627  0.6490
18155SOL    HW155906   5.144   6.123  11.775 -0.8366  0.9909  2.0540
18155SOL    HW255907   5.124   6.184  11.637 -0.3061 -1.4060  0.8681
18156SOL     OW55908   5.309   2.463   8.389 -0.3184  0.2374  0.4950
18156SOL    HW155909   5.314   2.419   8.303  1.1185  1.1314  0.0826
18156SOL    HW255910   5.217   2.487   8.399 -0.3789  0.8250 -1.1831
18157SOL     OW55911   4.077   6.643   1.849  0.4441  0.6345 -0.2659
18157SOL    HW155912   4.046   6.569   1.797  0.7782  0.3131 -0.0130
18157SOL    HW255913   3.998   6.680   1.888  0.3334  0.0010  0.1418
18158SOL     OW55914   6.157   1.630   6.599  0.3728  0.9197  0.6921
18158SOL    HW155915   6.097   1.573   6.552  0.9259 -1.2454  2.4159
18158SOL    HW255916   6.191   1.690   6.533 -1.2600  0.1286 -0.9492
18159SOL     OW55917   0.082   5.906  11.779  0.2519  0.0833  0.0432
18159SOL    HW155918   0.031   5.949  11.710 -0.3433  0.1390  0.5014
18159SOL    HW255919   0.076   5.813  11.759 -2.5676 -0.2166  1.6795
18160SOL     OW55920   7.679   0.675   9.261  0.4885  0.1029 -0.1604
18160SOL    HW155921   7.586   0.655   9.254  0.6898 -1.0555  0.1771
18160SOL    HW255922   7.696   0.739   9.192 -0.9723  1.9825  1.1189
18161SOL     OW55923   0.404   4.987   8.601 -0.0540 -0.2419 -0.4229
18161SOL    HW155924   0.363   4.919   8.548  1.5134  0.0885 -2.1587
18161SOL    HW255925   0.330   5.033   8.642 -1.4530  0.0119 -2.9825
18162SOL     OW55926   7.811   5.299   2.519 -0.3747 -0.0871 -0.0828
18162SOL    HW155927   7.724   5.334   2.539  0.0201  1.3362 -0.7760
18162SOL    HW255928   7.860   5.374   2.486  0.8362 -1.0804 -0.5880
18163SOL     OW55929   2.632   1.658  11.510 -0.2086  0.5155  0.0253
18163SOL    HW155930   2.663   1.590  11.451 -0.4091  1.0476 -0.7028
18163SOL    HW255931   2.698   1.728  11.503  0.2165  0.2406  1.0806
18164SOL     OW55932   2.440   4.564   5.349  0.1402 -0.5988  0.0127
18164SOL    HW155933   2.487   4.583   5.268 -1.7310  0.9160 -0.8215
18164SOL    HW255934   2.473   4.628   5.412  1.7407 -1.9054  0.5781
18165SOL     OW55935   1.942   5.099   7.473 -0.3223  0.0599 -0.0146
18165SOL    HW155936   1.888   5.169   7.508  0.0580 -0.0165  0.7316
18165SOL    HW255937   2.031   5.135   7.471 -0.2077 -0.2227 -0.1279
18166SOL     OW55938   7.178   1.300   5.789  0.2020  0.0582  0.3638
18166SOL    HW155939   7.241   1.251   5.736  1.1214  1.2450  0.3267
18166SOL    HW255940   7.190   1.266   5.877 -1.2814 -1.8738 -0.1057
18167SOL     OW55941   5.498   4.171   9.515  0.3962  0.0923 -0.0579
18167SOL    HW155942   5.496   4.178   9.420  0.4273  0.0588 -0.0614
18167SOL    HW255943   5.413   4.204   9.544  0.1792 -0.3807 -0.1336
18168SOL     OW55944   4.680   4.530   0.805 -0.5826 -0.3821 -0.0646
18168SOL    HW155945   4.736   4.599   0.769  0.3770 -0.5480  1.0400
18168SOL    HW255946   4.599   4.576   0.829 -0.0333  0.3307  0.4767
18169SOL     OW55947   0.529   0.588   7.670 -0.1736  0.0651 -0.0495
18169SOL    HW155948   0.568   0.643   7.601  0.0199  1.5588  1.2069
18169SOL    HW255949   0.466   0.646   7.713 -1.1390 -1.2182  0.3001
18170SOL     OW55950   7.642   2.303  11.218  0.1568  1.0146 -0.3263
18170SOL    HW155951   7.578   2.373  11.207  0.2264  1.0741 -0.3551
18170SOL    HW255952   7.593   2.222  11.204  0.1804  1.0748 -0.7703
18171SOL     OW55953   6.653   6.575  11.701 -0.4800  0.2125  0.0605
18171SOL    HW155954   6.743   6.576  11.669 -0.8856 -0.3302 -1.1790
18171SOL    HW255955   6.601   6.545  11.626 -2.0610  3.1480 -0.1928
18172SOL     OW55956   1.631   3.823   3.057  0.8038  0.3589 -0.5234
18172SOL    HW155957   1.646   3.917   3.042 -0.9700  0.7214 -0.2656
18172SOL    HW255958   1.544   3.819   3.098  0.3130 -1.4960 -1.6257
18173SOL     OW55959   0.183   2.006   1.646  0.0463  0.3546 -0.1542
18173SOL    HW155960   0.123   1.935   1.625  1.9991 -1.6682  0.6699
18173SOL    HW255961   0.231   2.022   1.565  1.7326 -1.5088  0.4135
18174SOL     OW55962   6.038   4.274   7.340 -0.0520 -0.4831  0.2831
18174SOL    HW155963   5.950   4.244   7.363 -0.1280 -0.1604  0.4211
18174SOL    HW255964   6.093   4.247   7.414 -0.3236  0.6913  0.9534
18175SOL     OW55965   4.494   5.180   5.532  0.3475  0.6939 -0.0292
18175SOL    HW155966   4.561   5.114   5.518  0.8657  1.3635 -0.8179
18175SOL    HW255967   4.440   5.146   5.604  1.5767  0.1864  0.6810
18176SOL     OW55968   2.434   6.853   0.714  0.2057 -1.0552 -0.3567
18176SOL    HW155969   2.460   6.933   0.759 -2.3148 -0.1699 -0.2896
18176SOL    HW255970   2.472   6.861   0.626  0.1667  0.1299 -0.2855
18177SOL     OW55971   6.008   1.410  10.267  0.2510 -0.1758 -0.1459
18177SOL    HW155972   5.916   1.394  10.289  0.5567 -0.9826  0.6337
18177SOL    HW255973   6.011   1.405  10.171 -0.3342 -1.2467 -0.1241
18178SOL     OW55974   7.038   7.697   8.353  0.2487  0.1163 -0.3055
18178SOL    HW155975   7.087   7.687   8.435  2.2578 -0.8016 -1.5471
18178SOL    HW255976   7.027   7.791   8.343 -0.6923  0.2279  1.3431
18179SOL     OW55977   6.156   4.674   7.394  0.0291  0.2232  0.3928
18179SOL    HW155978   6.220   4.632   7.452 -0.2843 -0.5927  0.1619
18179SOL    HW255979   6.135   4.607   7.329 -0.6739  0.6591  0.1598
18180SOL     OW55980   5.902   0.417  10.395  0.3841 -0.0864 -0.5059
18180SOL    HW155981   5.922   0.501  10.353  2.6216  0.2579  1.0863
18180SOL    HW255982   5.843   0.439  10.467  1.5306  0.2857  0.3538
18181SOL     OW55983   7.017   6.708   8.333 -0.0996  0.1846  0.0141
18181SOL    HW155984   7.042   6.621   8.362  0.0395  0.6919  1.4802
18181SOL    HW255985   7.042   6.711   8.240  1.2824 -0.8063  0.3376
18182SOL     OW55986   4.915   7.423  11.933 -0.6050  0.3163 -0.3430
18182SOL    HW155987   4.830   7.456  11.961 -0.0767  1.6994 -0.3081
18182SOL    HW255988   4.924   7.339  11.978 -1.8601  0.2462 -0.1916
18183SOL     OW55989   2.550   4.981   1.881  0.4989 -0.9440  0.0920
18183SOL    HW155990   2.613   5.044   1.845 -1.2687  0.8319 -0.0618
18183SOL    HW255991   2.565   4.901   1.830  0.8577  0.2347 -1.7502
18184SOL     OW55992   7.296   2.794   9.306 -0.1238  0.0291 -0.2022
18184SOL    HW155993   7.297   2.849   9.227 -0.6881 -2.1997 -1.8503
18184SOL    HW255994   7.229   2.833   9.361 -0.2565  1.2042 -1.1470
18185SOL     OW55995   1.963   2.486   2.762  0.0923  0.2324  0.3331
18185SOL    HW155996   2.020   2.431   2.817  1.2191 -1.9982 -2.7650
18185SOL    HW255997   2.000   2.574   2.770  1.8461 -0.5157  1.1188
18186SOL     OW55998   5.441   0.509   4.182 -0.1611  0.0651  0.5575
18186SOL    HW155999   5.527   0.470   4.196 -0.0866  0.4352  1.1971
18186SOL    HW256000   5.387   0.437   4.149  0.0514 -0.5162  1.4225
18187SOL     OW56001   0.597   5.484   4.957  0.1798 -0.4590 -0.3664
18187SOL    HW156002   0.671   5.483   5.018 -1.4188  0.2738  1.7022
18187SOL    HW256003   0.617   5.557   4.898 -0.8226  2.9023  2.9623
18188SOL     OW56004   7.856   5.601   9.676  0.8123 -0.2009  0.0850
18188SOL    HW156005   7.922   5.603   9.745 -0.9832 -1.7914  1.9813
18188SOL    HW256006   7.820   5.512   9.680 -1.0440  0.4364 -1.2480
18189SOL     OW56007   1.575   4.972  11.382 -0.3552 -0.3512 -0.5427
18189SOL    HW156008   1.493   4.989  11.428 -0.3671 -0.5895 -0.4759
18189SOL    HW256009   1.549   4.961  11.291 -0.4133 -0.5481 -0.5032
18190SOL     OW56010   5.550   7.623  11.853 -0.2819  0.1271  0.0759
18190SOL    HW156011   5.573   7.690  11.787 -1.4447 -0.1198 -0.6061
18190SOL    HW256012   5.455   7.627  11.858 -0.2495 -0.3672  1.2411
18191SOL     OW56013   1.878   0.163   5.103 -0.0392  0.0139  0.9679
18191SOL    HW156014   1.851   0.156   5.195 -2.3821 -0.3357  0.3243
18191SOL    HW256015   1.812   0.220   5.063  0.3313 -0.6596 -0.7048
18192SOL     OW56016   4.269   2.579   0.978 -0.0247 -0.3427  0.1252
18192SOL    HW156017   4.229   2.555   0.894 -2.1603  0.6755  0.7633
18192SOL    HW256018   4.243   2.509   1.038  0.3502 -0.3825  0.2431
18193SOL     OW56019   5.059   0.818   6.592  0.2193  0.4891 -0.0404
18193SOL    HW156020   5.044   0.724   6.605  0.6324  0.0043 -2.5821
18193SOL    HW256021   5.002   0.860   6.656 -0.6673 -1.4716  0.5491
18194SOL     OW56022   0.589   3.401   6.729 -0.4742  0.1798 -0.3842
18194SOL    HW156023   0.612   3.492   6.709 -0.6380  0.6873  1.4905
18194SOL    HW256024   0.663   3.369   6.782 -0.5861 -0.6580 -0.7240
18195SOL     OW56025   6.179   2.468   4.695  0.7108  0.5782 -0.3485
18195SOL    HW156026   6.157   2.397   4.635  1.3764  0.9164 -1.0046
18195SOL    HW256027   6.135   2.445   4.777  0.7438 -0.4757 -0.6174
18196SOL     OW56028   1.029   5.566   9.702  0.3025  0.0127  0.2836
18196SOL    HW156029   1.032   5.470   9.702 -0.9757 -0.0744 -1.1343
18196SOL    HW256030   0.938   5.587   9.726  0.3019  0.8303 -0.3781
18197SOL     OW56031   4.576   0.840  10.883  0.6541 -0.3411  0.0984
18197SOL    HW156032   4.638   0.893  10.834 -0.4158  1.6520  0.7898
18197SOL    HW256033   4.594   0.859  10.975 -1.5666  1.1260  0.3118
18198SOL     OW56034   4.111   1.329   0.938  0.1068 -0.2950 -0.1639
18198SOL    HW156035   4.033   1.330   0.993 -0.5402  1.4743 -1.0483
18198SOL    HW256036   4.120   1.238   0.910 -0.7746 -0.8016  1.1392
18199SOL     OW56037   4.765   2.902   5.416 -0.2543  0.1736  0.2115
18199SOL    HW156038   4.731   2.842   5.483  2.6261  0.0802  1.7594
18199SOL    HW256039   4.830   2.850   5.368  1.6191  1.6576  0.9660
18200SOL     OW56040   7.093   3.002   5.955 -0.0955  0.0630 -0.2960
18200SOL    HW156041   7.124   3.090   5.935 -0.2846  0.4694  1.1206
18200SOL    HW256042   7.017   3.016   6.010  0.1449 -0.9961  0.3186
18201SOL     OW56043   4.160   2.286   0.792  0.0474 -0.7976 -0.5821
18201SOL    HW156044   4.155   2.371   0.748 -1.6580 -0.4770  0.1605
18201SOL    HW256045   4.150   2.306   0.885  1.1359 -1.7019 -0.2448
18202SOL     OW56046   2.767   7.608   8.960 -0.7511 -0.0159 -0.3928
18202SOL    HW156047   2.711   7.650   9.025 -0.2151  0.1553 -0.0337
18202SOL    HW256048   2.782   7.674   8.893 -1.5726 -0.2973 -0.8661
18203SOL     OW56049   3.225   4.885   3.723 -0.2396 -0.2089 -0.0562
18203SOL    HW156050   3.274   4.828   3.665  0.3131 -1.2284  1.3512
18203SOL    HW256051   3.271   4.880   3.807  0.6005  3.3393 -0.1569
18204SOL     OW56052   0.882   2.641   5.458 -0.5069  0.1099  0.2407
18204SOL    HW156053   0.960   2.587   5.470  0.4348  1.0324 -1.3912
18204SOL    HW256054   0.896   2.717   5.514 -2.0067 -1.3675  2.8380
18205SOL     OW56055   3.595   0.123   3.053  0.6313 -0.5408  0.4612
18205SOL    HW156056   3.666   0.060   3.066 -0.3901 -1.7884  0.2325
18205SOL    HW256057   3.521   0.083   3.098 -0.5020 -0.3681 -1.1704
18206SOL     OW56058   4.742   0.730   1.111 -0.4746 -0.2786 -0.3610
18206SOL    HW156059   4.786   0.648   1.133 -1.2083 -0.7156 -0.4692
18206SOL    HW256060   4.655   0.702   1.081 -0.4971  0.4971 -1.0369
18207SOL     OW56061   4.126   5.097   0.120 -0.1837 -0.0275  0.1643
18207SOL    HW156062   4.160   5.133   0.038  0.1160  0.4712  0.4966
18207SOL    HW256063   4.043   5.143   0.134 -0.6709 -0.7513 -0.3007
18208SOL     OW56064   7.195   6.234   1.230 -0.1717  0.3771  0.3701
18208SOL    HW156065   7.154   6.311   1.191  1.5746  0.6698 -0.9798
18208SOL    HW256066   7.197   6.169   1.160  3.0290  0.9179 -0.1859
18209SOL     OW56067   7.655   1.178   0.389  0.4267 -0.2276 -0.4124
18209SOL    HW156068   7.730   1.120   0.405 -0.6084 -1.5638 -0.1705
18209SOL    HW256069   7.582   1.118   0.373 -1.2082  0.9543  2.0376
18210SOL     OW56070   3.137   6.343   2.538  0.2369  0.0938 -0.1639
18210SOL    HW156071   3.219   6.294   2.527  0.0239 -0.6616  1.2747
18210SOL    HW256072   3.127   6.350   2.633  0.0530  2.6320 -0.2950
18211SOL     OW56073   0.362   6.279   5.358  0.5582 -0.2218 -0.1853
18211SOL    HW156074   0.397   6.253   5.443 -1.2306 -1.6963  0.1597
18211SOL    HW256075   0.405   6.362   5.339  0.7898  0.3039  2.3090
18212SOL     OW56076   2.192   0.326   6.028 -0.9239  0.2504 -0.2641
18212SOL    HW156077   2.273   0.313   6.078 -0.2371 -0.7683 -1.5815
18212SOL    HW256078   2.150   0.401   6.070 -0.3186 -0.4573  1.7279
18213SOL     OW56079   6.223   3.956  10.775 -0.0408 -0.5337  0.1328
18213SOL    HW156080   6.281   3.963  10.851 -0.7968  1.7787  0.5563
18213SOL    HW256081   6.140   3.924  10.811 -0.0056 -0.7318  0.0426
18214SOL     OW56082   2.237   4.955   6.220  0.9102  0.1584 -0.7297
18214SOL    HW156083   2.214   5.039   6.180  0.0712  0.2278 -0.1157
18214SOL    HW256084   2.275   4.978   6.304 -2.0220 -0.1173  0.7926
18215SOL     OW56085   6.773   3.848   8.329 -0.1927 -0.0568  0.4126
18215SOL    HW156086   6.716   3.904   8.382  1.4078  0.4956  1.6328
18215SOL    HW256087   6.861   3.863   8.363  0.5806 -1.6840 -0.6893
18216SOL     OW56088   2.382   1.913  10.097 -0.2467  0.0262 -0.2471
18216SOL    HW156089   2.326   1.988  10.117  0.1763  0.2036  0.2993
18216SOL    HW256090   2.471   1.948  10.103 -0.0732 -0.2391 -1.1427
18217SOL     OW56091   6.631   0.773   0.146 -0.3493 -0.1144  0.2446
18217SOL    HW156092   6.652   0.830   0.072 -1.7199 -0.4065 -0.4077
18217SOL    HW256093   6.699   0.706   0.145  0.3237  0.5619 -0.0027
18218SOL     OW56094   5.872   5.238   0.652  0.2969 -0.1672  0.4850
18218SOL    HW156095   5.964   5.210   0.654  0.6884  1.0207 -0.0145
18218SOL    HW256096   5.876   5.332   0.667 -0.8738 -0.1539  0.7463
18219SOL     OW56097   2.152   3.191   5.260 -0.1560 -0.6471 -0.2821
18219SOL    HW156098   2.134   3.284   5.244  0.6114 -0.8538 -2.8320
18219SOL    HW256099   2.214   3.191   5.333  0.1244  0.8950 -0.4905
18220SOL     OW56100   6.486   1.546   6.561  0.6272  0.6378 -0.3340
18220SOL    HW156101   6.392   1.541   6.580  0.9980 -0.8348  1.4447
18220SOL    HW256102   6.491   1.565   6.468 -1.4521  0.3293 -0.5466
18221SOL     OW56103   3.548   6.156  10.744  0.8931 -0.1663 -0.3531
18221SOL    HW156104   3.639   6.126  10.744  1.5016  1.5671  0.3270
18221SOL    HW256105   3.533   6.185  10.834 -0.7527 -1.5689 -0.1256
18222SOL     OW56106   4.763   5.908   3.268 -0.5070  0.0686  0.1392
18222SOL    HW156107   4.762   5.919   3.364  0.1229 -0.3130  0.1933
18222SOL    HW256108   4.733   5.992   3.234  1.9014  1.1999  0.5923
18223SOL     OW56109   4.111   7.316   4.514 -0.1599  0.0652  0.2534
18223SOL    HW156110   4.166   7.275   4.580 -0.4394  0.8188  0.9783
18223SOL    HW256111   4.030   7.340   4.561 -1.4067 -1.6043 -0.9225
18224SOL     OW56112   1.403   1.181   2.889  0.7094  0.8854  0.4736
18224SOL    HW156113   1.346   1.247   2.851 -0.8755 -0.7397 -0.1336
18224SOL    HW256114   1.408   1.203   2.982 -0.2663  1.5155  0.3824
18225SOL     OW56115   7.403   2.704  11.361 -0.1424 -0.5809  0.3817
18225SOL    HW156116   7.436   2.730  11.448 -0.6669  0.0096  0.4139
18225SOL    HW256117   7.435   2.772  11.302 -1.0379 -0.1632  0.3642
18226SOL     OW56118   7.005   2.699   1.820  0.3998 -0.1563 -0.1217
18226SOL    HW156119   7.039   2.736   1.901 -1.0551  2.1395 -0.4477
18226SOL    HW256120   7.067   2.729   1.753  1.0258 -1.1670 -0.0144
18227SOL     OW56121   0.033   5.464   7.341  0.8501  0.2204  0.3333
18227SOL    HW156122   0.077   5.531   7.289  2.5951 -1.1204 -0.0270
18227SOL    HW256123   0.088   5.455   7.419 -1.6652  2.1247  2.4752
18228SOL     OW56124   5.889   5.414   7.295  0.1648  0.0090  0.1655
18228SOL    HW156125   5.832   5.488   7.272  0.7701 -0.4822 -3.5030
18228SOL    HW256126   5.962   5.454   7.342 -0.4426  1.4363 -0.0369
18229SOL     OW56127   0.772   0.772   3.591  0.4380 -0.0313 -0.3961
18229SOL    HW156128   0.857   0.814   3.605  1.0794 -0.8638 -1.6040
18229SOL    HW256129   0.737   0.814   3.513  0.4614 -0.7415 -0.8059
18230SOL     OW56130   4.479   2.245  10.358 -0.4612 -0.1610 -0.0082
18230SOL    HW156131   4.564   2.287  10.372 -1.1012  1.3548 -0.4676
18230SOL    HW256132   4.440   2.241  10.446 -0.4753  0.3830  0.0110
18231SOL     OW56133   7.796   6.584   6.377  0.1018  0.5232 -0.0576
18231SOL    HW156134   7.777   6.675   6.401  0.3629 -0.0873  2.8151
18231SOL    HW256135   7.891   6.575   6.386  0.3312  0.3432 -2.0673
18232SOL     OW56136   1.592   2.023   6.954 -0.2980 -0.3126  0.1340
18232SOL    HW156137   1.572   2.038   6.861 -0.0035  1.8975  0.3774
18232SOL    HW256138   1.650   2.095   6.978 -1.3401 -0.1327  2.3437
18233SOL     OW56139   6.811   1.032   3.097 -0.7660  0.2657  0.1040
18233SOL    HW156140   6.828   1.123   3.122 -0.6503  0.8360 -1.8413
18233SOL    HW256141   6.809   1.034   3.001  0.1241 -1.9427 -0.0234
18234SOL     OW56142   7.915   2.137   9.744  0.4816  0.1088  0.6002
18234SOL    HW156143   7.881   2.054   9.710  3.0682 -0.0991 -1.7952
18234SOL    HW256144   7.987   2.111   9.802 -0.2571  0.6638  1.8011
18235SOL     OW56145   1.199   7.765   8.330  0.5688  0.6817 -0.2458
18235SOL    HW156146   1.191   7.811   8.247  0.6102 -0.2678 -0.7839
18235SOL    HW256147   1.235   7.831   8.390 -1.1505  1.9126 -0.4885
18236SOL     OW56148   6.570   5.803   6.928 -0.5907 -0.5484 -0.1806
18236SOL    HW156149   6.614   5.784   6.845  0.0713 -1.9059  0.4523
18236SOL    HW256150   6.505   5.733   6.937 -1.2646  0.0912  0.0400
18237SOL     OW56151   1.338   1.165  12.071 -0.1616 -0.0958 -0.1019
18237SOL    HW156152   1.381   1.196  12.150 -0.4216  0.3794 -0.1464
18237SOL    HW256153   1.406   1.117  12.023  0.0709 -0.1297  0.2639
18238SOL     OW56154   1.437   0.017  10.084 -0.3253 -0.3443 -0.0966
18238SOL    HW156155   1.428   0.006  10.179 -0.0759 -1.3701 -0.1810
18238SOL    HW256156   1.452  -0.072  10.051 -0.0771  0.0466 -1.0616
18239SOL     OW56157   0.045   6.930   3.441 -0.1649  0.1721  0.6028
18239SOL    HW156158  -0.038   6.883   3.430  0.4876 -1.2606  1.6343
18239SOL    HW256159   0.020   7.023   3.433 -2.3006 -0.0444  3.1136
18240SOL     OW56160   1.056   7.879  11.359  0.1459 -0.5040  0.0637
18240SOL    HW156161   1.095   7.899  11.444  0.1778  0.2566 -0.1156
18240SOL    HW256162   1.130   7.873  11.299  0.2521 -2.5677  0.3454
18241SOL     OW56163   2.299   4.718   0.091  0.3833 -0.2810  0.2227
18241SOL    HW156164   2.266   4.681   0.173  1.3824 -0.9713  0.3352
18241SOL    HW256165   2.381   4.762   0.116  0.7569 -0.6052 -0.4229
18242SOL     OW56166   2.937   7.209   0.659 -0.0089  0.7023  0.7225
18242SOL    HW156167   2.988   7.235   0.582  1.0016 -1.4703  0.5791
18242SOL    HW256168   3.002   7.197   0.728 -0.5787  0.0809  1.1634
18243SOL     OW56169   2.181   2.224   2.633  0.3505  0.0747 -0.2489
18243SOL    HW156170   2.204   2.273   2.711 -1.7659 -1.1347  1.2365
18243SOL    HW256171   2.242   2.150   2.632  0.6120  0.2866  0.0541
18244SOL     OW56172   2.375   1.921   3.340 -1.1322 -0.3953  0.2573
18244SOL    HW156173   2.317   1.916   3.416  0.0258  0.5526  1.2378
18244SOL    HW256174   2.315   1.918   3.265 -2.3282 -0.9606  1.1937
18245SOL     OW56175   5.854   2.049   1.010 -0.0393 -0.2545  0.1192
18245SOL    HW156176   5.781   2.083   1.063  1.1342  0.7031  1.1856
18245SOL    HW256177   5.920   2.118   1.014  1.6011 -1.7982  0.6122
18246SOL     OW56178   4.794   5.953   7.807  0.0349  0.3978  0.1447
18246SOL    HW156179   4.838   6.030   7.843  2.3798 -0.6141 -0.3399
18246SOL    HW256180   4.862   5.908   7.757 -2.5744  0.9490 -4.5071
18247SOL     OW56181   1.585   1.193   4.076 -0.2793 -0.0583  0.0460
18247SOL    HW156182   1.528   1.255   4.032  0.8111 -0.5738 -2.2601
18247SOL    HW256183   1.526   1.132   4.120 -1.3809  1.6362  1.0083
18248SOL     OW56184   4.916   3.806   5.053  0.1220  0.2536  0.5900
18248SOL    HW156185   4.877   3.722   5.029 -0.0269  0.6759 -0.7003
18248SOL    HW256186   5.011   3.789   5.056  0.1139  0.1005  0.0501
18249SOL     OW56187   4.205   2.727   4.554  0.4356 -0.7899  0.2921
18249SOL    HW156188   4.115   2.726   4.521  0.1430 -0.8379  1.0755
18249SOL    HW256189   4.197   2.761   4.643  1.3408  0.4380 -0.0631
18250SOL     OW56190   7.292   6.050   7.423 -0.3317 -0.5391  0.1719
18250SOL    HW156191   7.213   6.057   7.476 -0.4360  1.1521 -0.1737
18250SOL    HW256192   7.271   6.098   7.342  1.3629  0.7646  0.4733
18251SOL     OW56193   2.443   3.010   3.407  0.3912  0.2929  0.7644
18251SOL    HW156194   2.462   2.941   3.343 -2.2744  1.3620 -1.3792
18251SOL    HW256195   2.492   3.086   3.375 -0.8855  0.8092  0.0020
18252SOL     OW56196   5.011   7.492  11.090 -0.4433  0.3822  0.8275
18252SOL    HW156197   5.030   7.586  11.094 -3.6334  1.1945  0.2026
18252SOL    HW256198   5.050   7.456  11.170 -1.9812  2.9246  2.8870
18253SOL     OW56199   3.658   4.579   6.755  0.2237 -0.3590 -0.1760
18253SOL    HW156200   3.683   4.615   6.670  1.3330  0.4094  0.4538
18253SOL    HW256201   3.739   4.580   6.807 -0.7841  0.9108  1.4846
18254SOL     OW56202   2.888   3.765   2.922 -0.1538  0.0610 -0.2327
18254SOL    HW156203   2.797   3.733   2.919 -0.1010 -0.1225  0.1077
18254SOL    HW256204   2.938   3.698   2.875 -0.1655  0.0584 -0.2416
18255SOL     OW56205   1.557   3.661   0.093 -0.5855 -0.6804  0.4064
18255SOL    HW156206   1.590   3.730   0.151  2.1936 -1.0463 -0.6011
18255SOL    HW256207   1.525   3.708   0.016 -2.1015 -0.3506  1.1972
18256SOL     OW56208   3.171   6.578   7.050  0.1701 -0.4591 -0.1076
18256SOL    HW156209   3.209   6.492   7.030 -1.4790 -1.0415 -0.9008
18256SOL    HW256210   3.196   6.633   6.977 -2.1194 -1.3977 -1.7221
18257SOL     OW56211   7.158   2.997   2.697 -0.5289 -0.4187  0.1970
18257SOL    HW156212   7.227   3.038   2.749 -0.0441  0.3012 -0.9760
18257SOL    HW256213   7.091   2.971   2.761  0.1043  0.3166  1.1773
18258SOL     OW56214   6.008   0.765  12.008  0.1893 -0.0817 -0.1389
18258SOL    HW156215   5.935   0.709  12.034  1.0041 -0.8769  0.5221
18258SOL    HW256216   5.978   0.854  12.026 -0.4729 -0.4197  0.4885
18259SOL     OW56217   3.981   2.063  11.640  0.0666 -0.6160 -0.1633
18259SOL    HW156218   3.962   2.139  11.585 -0.2382 -0.1862  0.5185
18259SOL    HW256219   4.075   2.067  11.656  0.1095 -0.5880 -0.4217
18260SOL     OW56220   6.655   3.176   4.410 -0.2931  0.4397  0.3555
18260SOL    HW156221   6.569   3.216   4.415 -0.6873 -0.5207  1.9085
18260SOL    HW256222   6.715   3.241   4.446 -0.4440  0.8538 -0.1264
18261SOL     OW56223   3.820   3.536   1.888  0.5493  0.2431 -0.3014
18261SOL    HW156224   3.757   3.600   1.853  0.5141  1.1019  1.2597
18261SOL    HW256225   3.902   3.585   1.895  1.1239 -0.5437 -1.1941
18262SOL     OW56226   2.989   3.332   0.393  0.2259  0.0706  0.0251
18262SOL    HW156227   3.032   3.264   0.445 -0.0329  1.2916  1.9365
18262SOL    HW256228   2.900   3.299   0.379 -0.9882  1.2226  3.7318
18263SOL     OW56229   5.201   1.010   4.644 -0.5735 -0.1227 -0.2153
18263SOL    HW156230   5.154   1.092   4.624 -0.5262 -0.6173 -2.7015
18263SOL    HW256231   5.137   0.958   4.693 -1.9226  0.0688 -1.6642
18264SOL     OW56232   2.668   7.557   9.795  0.1556 -0.3763  0.2151
18264SOL    HW156233   2.656   7.620   9.724  1.9291 -0.3098 -0.0541
18264SOL    HW256234   2.587   7.564   9.847 -0.2092  1.1897 -0.5163
18265SOL     OW56235   7.712   2.678  10.213  0.3136 -0.5007  0.3327
18265SOL    HW156236   7.685   2.596  10.173  0.5588 -1.2567  1.6703
18265SOL    HW256237   7.807   2.670  10.221  0.6025  0.7434 -1.2755
18266SOL     OW56238   4.656   5.378   8.633  0.7020 -0.0774 -0.1057
18266SOL    HW156239   4.630   5.372   8.725  0.5756  0.6842 -0.0868
18266SOL    HW256240   4.662   5.472   8.616 -0.3544 -0.1848 -1.1751
18267SOL     OW56241   7.026   3.759   2.453 -0.0632 -0.1527 -0.7717
18267SOL    HW156242   6.971   3.697   2.406  1.8337 -2.4616 -0.1694
18267SOL    HW256243   7.114   3.720   2.451  0.3097 -0.2533  4.0943
18268SOL     OW56244   5.997   2.021   6.472 -0.0847 -0.4167 -0.3252
18268SOL    HW156245   5.938   1.949   6.449 -0.1420 -0.5466  0.2136
18268SOL    HW256246   6.063   1.981   6.529  0.4838 -0.2564 -0.8512
18269SOL     OW56247   6.509   6.147  12.214  0.0719  0.1352 -0.0480
18269SOL    HW156248   6.455   6.181  12.143 -0.4324 -1.0267 -0.2502
18269SOL    HW256249   6.599   6.161  12.185 -0.1174  1.0833 -0.2047
18270SOL     OW56250   5.003   1.637  10.697 -0.0601 -0.0527 -0.0684
18270SOL    HW156251   4.958   1.607  10.618  0.2349  0.1741 -0.3237
18270SOL    HW256252   5.046   1.719  10.671  0.1226 -0.0298  0.2961
18271SOL     OW56253   2.749   3.321   7.347 -0.5896  0.1729  0.1939
18271SOL    HW156254   2.768   3.404   7.304 -0.9446 -0.3903 -1.0777
18271SOL    HW256255   2.662   3.296   7.315 -0.2792 -0.9275  0.1763
18272SOL     OW56256   0.476   1.312   3.294 -0.2108 -0.1774 -0.0899
18272SOL    HW156257   0.523   1.243   3.340 -1.2537 -1.2062 -0.5221
18272SOL    HW256258   0.384   1.295   3.312 -0.4900  1.3299  0.0906
18273SOL     OW56259   0.205   5.306   8.668 -0.6147 -0.4915 -0.3702
18273SOL    HW156260   0.167   5.380   8.622 -0.4230 -0.2784 -0.1851
18273SOL    HW256261   0.144   5.234   8.652 -1.9091  0.2134  1.1873
18274SOL     OW56262   3.269   6.685   1.267  0.0552  0.0260 -0.4004
18274SOL    HW156263   3.336   6.753   1.279 -0.2943  0.1396  1.1598
18274SOL    HW256264   3.232   6.703   1.181  1.2035  0.7037 -0.7766
18275SOL     OW56265   5.444   4.777   5.663  0.1352  0.4522  0.3784
18275SOL    HW156266   5.426   4.693   5.622  0.9784 -0.5484  1.9843
18275SOL    HW256267   5.526   4.806   5.623  0.8386 -0.4125  1.1732
18276SOL     OW56268   7.899   3.234   8.050  0.2189 -0.1230  0.3072
18276SOL    HW156269   7.881   3.326   8.067 -0.2822 -0.4404  1.7302
18276SOL    HW256270   7.826   3.205   7.996  1.6030  0.8254 -2.1985
18277SOL     OW56271   1.352   0.147   3.623 -0.1418  0.2707  0.1689
18277SOL    HW156272   1.359   0.053   3.612 -2.0044 -0.0131  1.0764
18277SOL    HW256273   1.258   0.165   3.627  0.0337  2.4719 -2.2124
18278SOL     OW56274   2.444   1.475   1.248 -0.0275 -0.0068  0.1881
18278SOL    HW156275   2.407   1.391   1.275  2.2428 -1.2983 -0.3835
18278SOL    HW256276   2.386   1.541   1.286 -1.0287 -1.8064  1.9723
18279SOL     OW56277   7.675   0.208   9.555 -0.1799 -0.5512 -0.4209
18279SOL    HW156278   7.651   0.297   9.529  1.3175  0.1443  0.4543
18279SOL    HW256279   7.764   0.216   9.588 -0.4642 -2.1461  0.8649
18280SOL     OW56280   4.248   2.928   9.235  0.1403  0.5971  0.4169
18280SOL    HW156281   4.279   3.016   9.211 -2.8930  1.9192  0.8858
18280SOL    HW256282   4.192   2.902   9.162  1.1388 -1.0711  0.2129
18281SOL     OW56283   7.328   7.708   5.108  0.1103 -0.1380  0.6598
18281SOL    HW156284   7.245   7.752   5.087  0.1490 -0.4424 -0.1637
18281SOL    HW256285   7.302   7.630   5.156 -0.0043  0.3704  1.4399
18282SOL     OW56286   4.397   4.757   4.473 -0.0274 -0.0117  0.2077
18282SOL    HW156287   4.308   4.736   4.501  0.0241  0.2805  0.5879
18282SOL    HW256288   4.439   4.794   4.550 -0.2319  1.8772 -0.5444
18283SOL     OW56289   2.923   2.174   1.716  0.4852 -0.1949 -0.0754
18283SOL    HW156290   3.009   2.206   1.687  0.4788 -0.5140 -0.4476
18283SOL    HW256291   2.914   2.209   1.805  0.0212  1.7755 -0.8337
18284SOL     OW56292   0.660   0.057  11.561 -0.2393  0.3400 -0.4782
18284SOL    HW156293   0.721  -0.015  11.579  0.4703  0.8723 -0.7474
18284SOL    HW256294   0.597   0.052  11.633  0.2897 -0.0284 -0.0276
18285SOL     OW56295   1.261   1.442   0.783 -0.8849 -0.2649 -0.2447
18285SOL    HW156296   1.318   1.517   0.801 -1.9063  0.8123 -1.3329
18285SOL    HW256297   1.320   1.374   0.749  0.2732 -0.5301  2.1069
18286SOL     OW56298   2.991   5.299   8.396 -0.8339 -0.1064  0.2400
18286SOL    HW156299   2.949   5.265   8.475  0.1880  2.1034  1.8346
18286SOL    HW256300   2.924   5.354   8.355 -1.3522 -1.2230 -0.4507
18287SOL     OW56301   0.465   0.895   1.692  0.1194 -0.3727  0.0065
18287SOL    HW156302   0.522   0.827   1.728 -0.5893 -1.2151 -0.4180
18287SOL    HW256303   0.380   0.879   1.733 -0.6546 -1.2271 -1.8114
18288SOL     OW56304   0.151   7.547   6.571  0.2536  0.1677 -0.0500
18288SOL    HW156305   0.199   7.491   6.632  0.4769 -0.5791 -0.8867
18288SOL    HW256306   0.186   7.635   6.586  0.1588  0.0346  1.0214
18289SOL     OW56307   4.402   7.570   4.944 -1.0525 -0.0641 -0.1857
18289SOL    HW156308   4.452   7.623   4.882 -0.4476  0.1267  0.4581
18289SOL    HW256309   4.414   7.480   4.914 -0.1866 -0.0357  0.0566
18290SOL     OW56310   2.231   2.307   0.023 -0.2545 -0.5030 -0.7075
18290SOL    HW156311   2.319   2.271   0.009 -0.5784 -2.5285  1.7148
18290SOL    HW256312   2.174   2.229   0.028 -1.7581  0.6045  0.4004
18291SOL     OW56313   3.817   1.237   1.719  0.2435  0.3155 -0.6305
18291SOL    HW156314   3.851   1.237   1.808 -2.5158  0.6471  0.5497
18291SOL    HW256315   3.869   1.173   1.672  2.0811  0.4876  1.0803
18292SOL     OW56316   7.278   0.538   1.910 -0.0408  1.0247 -0.2392
18292SOL    HW156317   7.287   0.458   1.963 -2.3996  2.1180  2.0578
18292SOL    HW256318   7.348   0.532   1.846  1.6934 -1.5017  1.6684
18293SOL     OW56319   1.867   3.089   0.903  0.5679 -0.1270 -0.1097
18293SOL    HW156320   1.882   3.028   0.976  0.7704  0.9178  0.7578
18293SOL    HW256321   1.935   3.156   0.913 -0.3048  0.8288 -0.3738
18294SOL     OW56322   1.040   2.876   0.150 -0.3499  0.3394  0.4726
18294SOL    HW156323   1.004   2.829   0.075 -0.9622  0.4233  0.7114
18294SOL    HW256324   1.124   2.833   0.166 -0.2944  0.2045 -0.1446
18295SOL     OW56325   1.210   5.692   6.992  0.2136 -0.2362 -0.2914
18295SOL    HW156326   1.294   5.654   7.018  0.6527 -0.8007 -2.4092
18295SOL    HW256327   1.166   5.624   6.942 -0.2440  1.0198 -1.6785
18296SOL     OW56328   7.445   3.262   4.947 -0.2016 -0.2395  0.2824
18296SOL    HW156329   7.401   3.347   4.958 -0.4062 -0.3555  0.3643
18296SOL    HW256330   7.376   3.203   4.918 -0.2051 -0.5373  0.8929
18297SOL     OW56331   5.053   1.605   4.952  0.1296  0.5849 -0.0181
18297SOL    HW156332   4.958   1.611   4.956 -0.0724 -0.9465 -1.4069
18297SOL    HW256333   5.071   1.543   4.881  2.1190 -0.3089  1.1556
18298SOL     OW56334   4.851   5.322   2.896  0.1860  0.2856  0.1784
18298SOL    HW156335   4.845   5.400   2.840  1.9082  0.3063 -0.0285
18298SOL    HW256336   4.810   5.349   2.978 -0.2952  1.0215 -0.2893
18299SOL     OW56337   5.784   1.210   0.734 -0.6553  0.4741 -0.2904
18299SOL    HW156338   5.840   1.259   0.675  0.1136  0.3436  0.3172
18299SOL    HW256339   5.829   1.212   0.818 -1.5902  0.4165  0.2300
18300SOL     OW56340   7.246   5.202   4.076  0.1986  0.2570 -0.3993
18300SOL    HW156341   7.337   5.179   4.058  0.6243  1.0901  0.5733
18300SOL    HW256342   7.251   5.283   4.126 -1.2181  1.9939 -2.8670
18301SOL     OW56343   7.626   2.843   6.207  0.4432  0.0685 -0.0003
18301SOL    HW156344   7.573   2.769   6.234  0.1057  0.3755  0.1825
18301SOL    HW256345   7.713   2.824   6.243  0.1310  0.2124  0.8656
18302SOL     OW56346   4.739   4.341   2.779  0.5214  0.1985  0.0416
18302SOL    HW156347   4.657   4.308   2.816  0.1871  0.3520 -0.5499
18302SOL    HW256348   4.798   4.266   2.781  0.8395  0.4485  1.7929
18303SOL     OW56349   4.655   2.239   9.662  0.5730 -0.2442 -0.0639
18303SOL    HW156350   4.653   2.150   9.696  0.1433 -0.3011 -0.2370
18303SOL    HW256351   4.685   2.229   9.571 -0.9243 -0.3825 -0.5805
18304SOL     OW56352   4.186   7.072  11.965 -0.3413  0.5111  0.0190
18304SOL    HW156353   4.189   7.135  12.037  0.6694  1.3028 -0.7035
18304SOL    HW256354   4.255   7.008  11.987 -0.0437  0.7441 -0.2324
18305SOL     OW56355   6.917   5.150  11.689 -0.2346 -0.0201  0.0554
18305SOL    HW156356   6.930   5.166  11.595  0.4876  1.1827  0.3334
18305SOL    HW256357   6.856   5.077  11.693 -0.5711  0.1566 -1.3568
18306SOL     OW56358   4.004   0.725   7.152  0.3600  0.1892 -0.0004
18306SOL    HW156359   3.928   0.782   7.141  0.7861  0.4654 -1.8655
18306SOL    HW256360   4.037   0.712   7.063  1.7395 -0.9670  0.6447
18307SOL     OW56361   6.323   7.899   9.254 -0.5229 -0.1502  0.2790
18307SOL    HW156362   6.383   7.923   9.325 -0.2900  1.7151 -0.4725
18307SOL    HW256363   6.237   7.891   9.297 -0.5492  1.8240  0.7061
18308SOL     OW56364   3.139   3.050   0.270 -0.3159  0.0210 -0.0377
18308SOL    HW156365   3.046   3.029   0.266  0.0737 -1.7430 -1.2767
18308SOL    HW256366   3.156   3.065   0.363 -1.7806  0.0987  0.2407
18309SOL     OW56367   2.994   5.304  11.624  0.7994 -0.0065 -0.3597
18309SOL    HW156368   2.925   5.361  11.658  2.9701  1.7173  1.5524
18309SOL    HW256369   2.995   5.229  11.683  0.0357 -0.4971 -0.9419
18310SOL     OW56370   5.047   2.232   0.076  0.3733 -0.7551  0.1368
18310SOL    HW156371   5.014   2.283   0.002 -0.2937 -3.3207 -1.4573
18310SOL    HW256372   5.124   2.280   0.106 -1.6945  2.5991  0.5737
18311SOL     OW56373   6.188   5.782   5.846 -0.0438 -0.5341 -0.0537
18311SOL    HW156374   6.235   5.761   5.926 -0.9736 -1.8328  0.1763
18311SOL    HW256375   6.206   5.875   5.831  1.3200 -0.6395  0.8485
18312SOL     OW56376   2.210   2.525   9.720 -0.2985  0.1412 -0.8207
18312SOL    HW156377   2.186   2.603   9.770  1.4605  0.3489 -0.2150
18312SOL    HW256378   2.202   2.453   9.782  0.6938  0.2387 -0.5473
18313SOL     OW56379   6.823   4.259   1.904 -0.1785 -0.0626 -0.3650
18313SOL    HW156380   6.742   4.278   1.951  0.2559  0.8928  0.0175
18313SOL    HW256381   6.892   4.299   1.957  0.3685  0.6218 -1.5630
18314SOL     OW56382   5.380   5.762   7.623  0.4662 -0.2311 -0.4148
18314SOL    HW156383   5.313   5.774   7.556 -0.5895 -2.7241  0.0943
18314SOL    HW256384   5.381   5.845   7.671 -1.0693  0.4402 -1.4603
18315SOL     OW56385   3.706   3.968   5.659  1.1322  0.3668 -0.4669
18315SOL    HW156386   3.653   4.015   5.596  3.0702  0.7095 -1.9257
18315SOL    HW256387   3.688   3.875   5.641 -0.1727  0.4667  0.1838
18316SOL     OW56388   5.900   7.286   7.797 -0.1985 -0.0605  0.4061
18316SOL    HW156389   5.945   7.225   7.739 -2.5223  1.3855 -3.3603
18316SOL    HW256390   5.830   7.234   7.837  0.4295 -0.7484  0.6294
18317SOL     OW56391   0.729   5.943   7.184  0.3770 -0.4293 -0.3537
18317SOL    HW156392   0.715   6.027   7.227  1.1212  0.0383 -0.9850
18317SOL    HW256393   0.692   5.879   7.243 -2.7031  0.5319 -1.0744
18318SOL     OW56394   6.569   5.874   3.139  0.4976 -0.3406 -0.2448
18318SOL    HW156395   6.622   5.847   3.214  0.4291  1.3681  0.4482
18318SOL    HW256396   6.611   5.831   3.064  1.0381 -1.4313  0.6494
18319SOL     OW56397   3.557   1.626   6.377  0.5828 -0.2078  0.5974
18319SOL    HW156398   3.568   1.684   6.302  1.8774  0.5511  1.3357
18319SOL    HW256399   3.617   1.660   6.443 -0.6658 -0.7395  2.0638
18320SOL     OW56400   4.165   0.140   1.572 -0.3755 -0.0186 -0.1908
18320SOL    HW156401   4.243   0.186   1.542 -0.6300 -1.3585 -3.2828
18320SOL    HW256402   4.193   0.049   1.580 -1.1762 -0.2065  0.6270
18321SOL     OW56403   7.519   4.760   8.264  0.0342  0.5031 -0.3960
18321SOL    HW156404   7.507   4.831   8.326 -2.6687  0.0245 -0.2599
18321SOL    HW256405   7.481   4.793   8.182 -1.6168 -0.8623 -0.2253
18322SOL     OW56406   6.677   5.266   6.767  0.4447 -0.6116  0.2380
18322SOL    HW156407   6.713   5.250   6.680  1.3311  2.2387 -0.0079
18322SOL    HW256408   6.652   5.179   6.798  4.0383 -2.3078 -1.0962
18323SOL     OW56409   2.412   7.673   0.376  0.5691 -0.1739  0.1223
18323SOL    HW156410   2.376   7.598   0.329  3.1927 -1.4995  0.0559
18323SOL    HW256411   2.382   7.661   0.466  0.1131 -0.7324 -0.0946
18324SOL     OW56412   0.209   5.851   0.932  0.0565 -0.3217  0.3492
18324SOL    HW156413   0.299   5.818   0.930  0.1374 -0.0746 -0.5339
18324SOL    HW256414   0.155   5.773   0.943  0.4135 -0.3644  2.2910
18325SOL     OW56415   5.754   7.310   6.917 -0.0818 -0.4847 -0.5516
18325SOL    HW156416   5.696   7.235   6.906 -0.8162 -0.3992  2.1891
18325SOL    HW256417   5.724   7.353   6.997  2.0233  1.2098 -0.5707
18326SOL     OW56418   7.495   4.803   5.976  0.0749  0.0826  0.0016
18326SOL    HW156419   7.538   4.881   6.010 -0.8384 -0.1260  1.7599
18326SOL    HW256420   7.555   4.768   5.910  0.7539  1.9311 -0.4011
18327SOL     OW56421   5.701   2.300   3.858 -0.3244 -0.6065  0.2856
18327SOL    HW156422   5.698   2.283   3.764  1.6003 -0.9921  0.2515
18327SOL    HW256423   5.659   2.385   3.869 -1.5499 -1.0491 -0.7636
18328SOL     OW56424   3.351   2.349   9.774 -0.5818 -0.1634 -0.0546
18328SOL    HW156425   3.301   2.425   9.744 -1.0209 -0.1114  0.8037
18328SOL    HW256426   3.290   2.275   9.767 -0.6694 -0.1585  0.6635
18329SOL     OW56427   2.414   6.206   1.611  0.2816 -0.4388 -0.8848
18329SOL    HW156428   2.377   6.232   1.695 -1.3149 -1.3112 -1.2552
18329SOL    HW256429   2.502   6.243   1.610 -0.4183  1.3929  0.2716
18330SOL     OW56430   6.761   3.583   0.956 -0.2084 -0.0165  0.1262
18330SOL    HW156431   6.742   3.577   1.050  2.0061 -0.1158  0.6209
18330SOL    HW256432   6.763   3.493   0.926  0.6429 -0.0761  0.3452
18331SOL     OW56433   7.562   6.127   4.679  0.4976  0.6825  0.3576
18331SOL    HW156434   7.609   6.082   4.749  0.7459  1.8946  0.9931
18331SOL    HW256435   7.544   6.058   4.614  0.8691 -0.3194  1.2826
18332SOL     OW56436   3.766   0.978   4.042 -0.2396 -0.4882  0.3059
18332SOL    HW156437   3.830   1.008   3.977 -2.3098 -1.0954 -2.1848
18332SOL    HW256438   3.818   0.934   4.109  2.0305  0.1126 -0.9730
18333SOL     OW56439   6.381   4.252   2.233 -0.3779 -0.5130 -0.5163
18333SOL    HW156440   6.317   4.322   2.216 -1.3970 -1.5503 -1.1565
18333SOL    HW256441   6.435   4.286   2.304 -0.2436  1.2944 -1.4246
18334SOL     OW56442   5.337   1.981  11.377 -0.3569  0.0576 -0.2947
18334SOL    HW156443   5.281   2.034  11.321 -1.3754 -0.3013  0.3526
18334SOL    HW256444   5.316   1.891  11.354 -0.2530 -0.0853  0.1577
18335SOL     OW56445   1.518   5.958   4.722  0.0419  0.1039 -0.1538
18335SOL    HW156446   1.446   5.979   4.782  0.8799  0.7962  0.6445
18335SOL    HW256447   1.518   6.030   4.659 -0.2755 -0.1573 -0.4533
18336SOL     OW56448   5.672   0.779  12.297  0.0722  0.4055  0.8344
18336SOL    HW156449   5.615   0.840  12.250  2.8595  1.1039 -1.9929
18336SOL    HW256450   5.658   0.694  12.254  0.0679  0.2649  1.1144
18337SOL     OW56451   2.789   6.312  10.952  0.1014  0.0645  0.5060
18337SOL    HW156452   2.814   6.367  11.026  0.1288  0.4903  0.1823
18337SOL    HW256453   2.786   6.223  10.988 -0.5601  0.3554  1.1790
18338SOL     OW56454   6.130   7.823   1.729 -0.3121  0.3443 -0.1777
18338SOL    HW156455   6.192   7.754   1.703 -2.2248 -1.5099 -0.0712
18338SOL    HW256456   6.044   7.789   1.704 -1.5051  1.9502  1.4589
18339SOL     OW56457   2.057   6.129  12.273  0.1075  0.3005 -0.5581
18339SOL    HW156458   2.097   6.193  12.332 -0.0118 -0.2797  0.1486
18339SOL    HW256459   2.034   6.055  12.328  0.2542 -0.3706 -1.3778
18340SOL     OW56460   6.446   7.174   7.568  0.9285 -0.4497  0.4894
18340SOL    HW156461   6.391   7.140   7.497  0.2413  0.6885  0.4481
18340SOL    HW256462   6.535   7.149   7.544  0.5003 -1.7666  0.2258
18341SOL     OW56463   2.308   5.362   2.047 -0.2285  0.2394 -0.0364
18341SOL    HW156464   2.401   5.384   2.055 -0.1061 -0.1272 -0.3903
18341SOL    HW256465   2.288   5.378   1.955  0.0830 -1.8931 -0.5284
18342SOL     OW56466   1.970   2.094   8.369 -0.4575  0.4936 -0.3560
18342SOL    HW156467   1.991   2.095   8.275  0.0978 -0.0523 -0.2473
18342SOL    HW256468   1.941   2.004   8.386  2.4055 -0.3610  0.5879
18343SOL     OW56469   4.672   1.272   3.089 -0.1116 -0.3530  0.3006
18343SOL    HW156470   4.724   1.193   3.100  1.3672  0.3239 -1.3772
18343SOL    HW256471   4.721   1.325   3.027 -1.6905  1.3481  0.4092
18344SOL     OW56472   5.235   5.436   9.209  0.3035 -0.8160  0.4151
18344SOL    HW156473   5.160   5.493   9.190  0.9381  0.0277  0.4188
18344SOL    HW256474   5.204   5.380   9.281 -0.1166 -0.0396  0.8583
18345SOL     OW56475   6.674   2.121   4.907  0.6006  0.4875 -0.0953
18345SOL    HW156476   6.641   2.167   4.985  0.0303  1.7313 -1.0366
18345SOL    HW256477   6.659   2.182   4.835  1.9050 -0.2947 -1.0691
18346SOL     OW56478   7.240   5.323   6.808  0.0986 -0.5018  0.0824
18346SOL    HW156479   7.328   5.287   6.819  1.3964  2.2625 -0.2210
18346SOL    HW256480   7.212   5.292   6.723  0.6202 -1.7053  0.3233
18347SOL     OW56481   3.575   2.311  11.444 -0.2722 -0.3643  0.0231
18347SOL    HW156482   3.514   2.341  11.376  0.4049 -0.1968 -0.5228
18347SOL    HW256483   3.634   2.385  11.458  0.9386 -1.1413 -0.7843
18348SOL     OW56484   1.375   3.647   1.393 -0.3670  0.3346  0.3125
18348SOL    HW156485   1.309   3.662   1.460 -1.6385  2.2668 -1.2506
18348SOL    HW256486   1.457   3.679   1.432 -0.8622  0.3997  1.3194
18349SOL     OW56487   5.296   4.114   5.920 -0.3809 -0.6848 -0.5136
18349SOL    HW156488   5.222   4.132   5.977 -0.4818  0.1938 -0.9097
18349SOL    HW256489   5.258   4.074   5.843 -0.3492 -0.9763 -0.3806
18350SOL     OW56490   2.549   3.741   7.396  0.0359  0.0399  0.2263
18350SOL    HW156491   2.590   3.788   7.323 -0.4900  0.8175  0.4099
18350SOL    HW256492   2.533   3.809   7.461  0.5326 -0.6569  1.0915
18351SOL     OW56493   3.297   7.217   8.537 -0.2946 -0.0816  0.5726
18351SOL    HW156494   3.358   7.246   8.469 -1.2630 -0.1061 -0.3343
18351SOL    HW256495   3.352   7.193   8.611  0.7770  0.0342 -0.1783
18352SOL     OW56496   4.819   7.654   8.467 -0.3109 -0.2850  0.1867
18352SOL    HW156497   4.864   7.575   8.437 -2.0681 -0.2453 -3.0445
18352SOL    HW256498   4.730   7.624   8.487 -0.0108  0.2916  2.6038
18353SOL     OW56499   5.663   3.246   7.226 -0.0917  0.0619 -0.7447
18353SOL    HW156500   5.616   3.178   7.178 -0.5139 -0.7443  0.7436
18353SOL    HW256501   5.609   3.325   7.215 -1.1975 -0.5728 -0.0463
18354SOL     OW56502   2.198   5.196   0.782 -0.4199  0.3199  0.2673
18354SOL    HW156503   2.197   5.100   0.779 -2.0549  0.3275 -1.0333
18354SOL    HW256504   2.290   5.219   0.778  0.1289 -1.2009  2.4482
18355SOL     OW56505   3.442   7.909   4.164 -0.6236  0.5149  0.1529
18355SOL    HW156506   3.512   7.969   4.190 -1.3168  0.9224  1.1648
18355SOL    HW256507   3.437   7.916   4.069 -0.3424  1.6820  0.2099
18356SOL     OW56508   0.841   4.764   2.184 -0.0924 -0.1755 -0.2331
18356SOL    HW156509   0.851   4.855   2.156  1.1088 -0.3209 -0.3485
18356SOL    HW256510   0.810   4.718   2.106  0.5276 -0.0769 -0.5486
18357SOL     OW56511   0.765   7.155   8.305  0.2709 -0.2488  0.3583
18357SOL    HW156512   0.727   7.118   8.384  0.2232 -0.4509  0.2417
18357SOL    HW256513   0.849   7.190   8.333  0.0553  0.0909  0.5927
18358SOL     OW56514   7.802   0.476  11.064  0.2031  0.8937  0.2255
18358SOL    HW156515   7.708   0.494  11.059  0.3565  1.6059 -0.3392
18358SOL    HW256516   7.808   0.381  11.068 -0.5171  0.7746 -0.8958
18359SOL     OW56517   7.581   1.742   8.080 -0.5206 -0.4605 -0.1772
18359SOL    HW156518   7.570   1.832   8.111 -0.8172 -0.4098 -0.4262
18359SOL    HW256519   7.675   1.732   8.070 -0.5167 -0.0298 -0.5894
18360SOL     OW56520   0.936   2.031   3.791  0.1993 -0.3898 -0.2236
18360SOL    HW156521   0.996   2.067   3.725  0.2761 -0.9028 -0.4323
18360SOL    HW256522   0.921   2.104   3.851  2.5260 -0.7420  0.9030
18361SOL     OW56523   7.776   3.753  11.272 -0.5198 -0.0158  0.2640
18361SOL    HW156524   7.854   3.785  11.227 -0.2457  1.3387  1.6212
18361SOL    HW256525   7.766   3.662  11.242  0.7858  0.2186 -0.9531
18362SOL     OW56526   6.436   4.372   0.462  0.1484 -0.2255  0.1699
18362SOL    HW156527   6.478   4.434   0.404 -0.3035  1.5929  1.6874
18362SOL    HW256528   6.366   4.422   0.504 -0.8340 -2.0218  0.7770
18363SOL     OW56529   4.649   1.549  10.742 -0.5127  0.4284 -0.4476
18363SOL    HW156530   4.722   1.565  10.683 -0.4804  0.1920 -0.4704
18363SOL    HW256531   4.594   1.627  10.732 -0.3062  0.5712 -0.4893
18364SOL     OW56532   7.378   0.194   0.621 -0.2083 -0.0147  0.1694
18364SOL    HW156533   7.412   0.278   0.653  0.1240 -0.2262  0.3740
18364SOL    HW256534   7.338   0.215   0.536 -0.1268  0.3505  0.2194
18365SOL     OW56535   0.288   1.947  10.845  0.5672  0.1521 -0.1028
18365SOL    HW156536   0.288   1.894  10.925 -1.7354 -0.1578 -0.2256
18365SOL    HW256537   0.330   1.891  10.780 -0.3573 -0.9209  0.1709
18366SOL     OW56538   1.135   4.173   2.455  0.6343 -0.5619 -0.3652
18366SOL    HW156539   1.231   4.170   2.465  0.6266 -1.2451 -0.4463
18366SOL    HW256540   1.121   4.215   2.371  0.7605  2.8908  1.1806
18367SOL     OW56541   4.440   6.435   4.782 -0.4406  0.1546  0.5670
18367SOL    HW156542   4.421   6.343   4.762  0.0027  0.2514 -0.3308
18367SOL    HW256543   4.356   6.472   4.810 -0.4940 -0.6745  1.5829
18368SOL     OW56544   3.636   2.550   3.218 -0.0207  0.1046  0.0019
18368SOL    HW156545   3.684   2.598   3.286  1.6068 -1.9810  0.4343
18368SOL    HW256546   3.587   2.483   3.266 -1.1441  0.3966 -0.6942
18369SOL     OW56547   1.745   5.130  11.555  0.4672  0.3466  0.2067
18369SOL    HW156548   1.694   5.067  11.504  0.6833  0.2592  0.0983
18369SOL    HW256549   1.748   5.208  11.499  1.9679 -0.2378 -0.5859
18370SOL     OW56550   2.176   4.174   7.412 -0.0138 -0.2636  0.4111
18370SOL    HW156551   2.227   4.162   7.493  2.1728 -2.5698 -1.1515
18370SOL    HW256552   2.087   4.149   7.437  0.9218 -2.6094  1.7956
18371SOL     OW56553   7.765   3.488  11.170 -0.1996 -0.8250  0.9308
18371SOL    HW156554   7.770   3.398  11.201 -0.2056 -0.5900  1.6146
18371SOL    HW256555   7.780   3.482  11.075  1.3526 -1.3691  1.2024
18372SOL     OW56556   4.876   6.132   8.595  0.1072 -0.1011  1.2645
18372SOL    HW156557   4.963   6.154   8.630 -0.4101 -0.3216  2.7768
18372SOL    HW256558   4.844   6.063   8.654 -0.0515 -1.8830 -0.8088
18373SOL     OW56559   3.748   3.714   5.326 -0.0141  0.3849 -0.0921
18373SOL    HW156560   3.740   3.628   5.367  1.9278 -0.4538 -1.3481
18373SOL    HW256561   3.664   3.726   5.282 -0.1452 -1.1035 -0.3158
18374SOL     OW56562   7.153   5.276   7.967  0.3767 -0.1288 -0.2544
18374SOL    HW156563   7.087   5.215   8.001  0.3602 -1.1869 -2.0228
18374SOL    HW256564   7.175   5.241   7.881  3.7683 -0.2182  0.5053
18375SOL     OW56565   0.277   5.160   7.364  0.1832 -0.4293 -0.1922
18375SOL    HW156566   0.197   5.108   7.373  0.0804 -0.2886 -0.2828
18375SOL    HW256567   0.348   5.095   7.362  0.0296 -0.5879 -0.6492
18376SOL     OW56568   1.541   5.537  11.407 -0.8175 -0.2692 -0.5439
18376SOL    HW156569   1.508   5.610  11.353 -1.3890  0.1945  0.4077
18376SOL    HW256570   1.621   5.572  11.447  0.2119 -0.9779 -1.8917
18377SOL     OW56571   5.859   5.968   2.499 -0.7973 -0.3691  0.6589
18377SOL    HW156572   5.939   5.945   2.452 -1.4844 -0.5902 -0.4726
18377SOL    HW256573   5.888   5.998   2.585  0.6790  1.9448 -0.5529
18378SOL     OW56574   3.902   1.169  12.382 -0.1613 -0.1462 -0.2147
18378SOL    HW156575   3.928   1.241  12.440  0.7757 -0.5237 -0.1568
18378SOL    HW256576   3.984   1.129  12.354 -0.6199 -0.3306 -1.3638
18379SOL     OW56577   4.981   7.491   1.631 -0.1843 -0.3239 -0.3505
18379SOL    HW156578   4.940   7.428   1.690  0.1194 -0.6927 -0.5291
18379SOL    HW256579   5.007   7.439   1.555  2.2554 -0.4875  0.4964
18380SOL     OW56580   0.047   0.313   5.901  0.2976 -0.5961 -0.1762
18380SOL    HW156581   0.116   0.255   5.869  1.4268  1.5950 -1.9740
18380SOL    HW256582  -0.033   0.281   5.858  1.3878  0.8135 -3.6582
18381SOL     OW56583   1.510   4.766   8.241 -0.1139  1.2146 -0.1135
18381SOL    HW156584   1.419   4.766   8.267 -0.2454 -0.6521 -0.4012
18381SOL    HW256585   1.508   4.751   8.146  0.4709  0.1091  0.0243
18382SOL     OW56586   0.683   7.189  11.747 -0.2446 -0.4536 -0.9211
18382SOL    HW156587   0.655   7.190  11.839  0.2362  0.9314 -0.7748
18382SOL    HW256588   0.620   7.244  11.702  0.2976 -0.0334 -1.1761
18383SOL     OW56589   7.296   6.898   5.050 -0.3223 -0.2050  0.0651
18383SOL    HW156590   7.383   6.859   5.038 -0.2143 -0.0539  0.3671
18383SOL    HW256591   7.284   6.952   4.972 -0.6929 -1.2489 -0.6287
18384SOL     OW56592   4.878   4.172   4.342  0.0684 -0.1598 -0.1072
18384SOL    HW156593   4.849   4.212   4.259  3.3629  0.9253 -0.9021
18384SOL    HW256594   4.894   4.247   4.400 -0.1211 -0.7852  0.7656
18385SOL     OW56595   3.038   5.578   6.738 -0.6823 -0.0117  0.4750
18385SOL    HW156596   2.980   5.541   6.671  0.9968 -2.1803  0.0847
18385SOL    HW256597   2.989   5.570   6.819 -1.9716  0.7781 -0.2005
18386SOL     OW56598   1.581   7.474   9.893 -0.0074  0.2073  0.2412
18386SOL    HW156599   1.611   7.383   9.896  2.3525  0.9188  0.4211
18386SOL    HW256600   1.556   7.488   9.802 -2.2407 -1.1022  0.5827
18387SOL     OW56601   7.871   0.030  12.270  0.5960  0.3110 -0.1516
18387SOL    HW156602   7.783   0.066  12.283  1.5032  2.0768  1.6377
18387SOL    HW256603   7.856  -0.052  12.223 -2.1063 -0.0001  1.0323
18388SOL     OW56604   1.472   1.381   5.055 -0.0098  0.2720  0.4981
18388SOL    HW156605   1.547   1.434   5.028  0.7910 -1.4780 -0.9393
18388SOL    HW256606   1.396   1.431   5.025  0.7741 -0.1570 -2.5730
18389SOL     OW56607   3.806   0.063   0.268  0.0151  0.1748  0.2012
18389SOL    HW156608   3.790  -0.031   0.254 -0.7972  0.4356 -0.6973
18389SOL    HW256609   3.796   0.075   0.362 -1.4709 -0.3618  0.1339
18390SOL     OW56610   7.647   5.694   5.207 -0.5032  0.1623 -0.1365
18390SOL    HW156611   7.724   5.738   5.172  0.1955  0.1294  1.3084
18390SOL    HW256612   7.622   5.746   5.284 -0.4580 -1.1899  0.8296
18391SOL     OW56613   0.094   4.834  11.686  0.6681  0.4189  0.4765
18391SOL    HW156614   0.020   4.790  11.644  1.5701 -0.7513  0.0485
18391SOL    HW256615   0.141   4.876  11.614  0.4931  1.0582  0.7314
18392SOL     OW56616   0.927   4.657   0.217  0.3621  0.1024  0.2879
18392SOL    HW156617   0.865   4.703   0.161 -0.6259 -0.5344  0.8328
18392SOL    HW256618   1.000   4.718   0.228 -0.4426  1.1135  0.1375
18393SOL     OW56619   4.541   3.642   8.687 -0.5473  0.0420 -0.4512
18393SOL    HW156620   4.596   3.716   8.711  1.3221 -1.3519 -0.2451
18393SOL    HW256621   4.601   3.578   8.648 -2.4394 -0.4804 -2.7657
18394SOL     OW56622   0.056   0.513   1.652 -0.3981 -0.8153  0.1576
18394SOL    HW156623   0.091   0.579   1.593  0.9761 -1.1820  0.5308
18394SOL    HW256624  -0.023   0.480   1.608 -0.3145  0.0593 -0.6796
18395SOL     OW56625   0.608   0.301   9.292  0.1638  0.4752  0.2997
18395SOL    HW156626   0.622   0.296   9.386 -0.2215 -1.1087  0.3158
18395SOL    HW256627   0.513   0.297   9.281  0.2556 -1.9002 -0.1928
18396SOL     OW56628   7.724   4.309   0.581  0.0304  0.4049  0.3561
18396SOL    HW156629   7.748   4.283   0.670 -0.0219 -1.2411 -0.0712
18396SOL    HW256630   7.703   4.227   0.537 -1.3100  1.3064 -0.7873
18397SOL     OW56631   1.607   6.351   3.113  0.3306  0.3698  0.2593
18397SOL    HW156632   1.633   6.283   3.050  1.3626  0.8723  0.1270
18397SOL    HW256633   1.543   6.307   3.169 -0.8817  0.0135 -1.3393
18398SOL     OW56634   7.445   7.923   3.646 -0.1341 -0.4056  0.3022
18398SOL    HW156635   7.398   7.932   3.729  0.7527  0.8256  0.6864
18398SOL    HW256636   7.498   8.002   3.640  1.4752 -1.5027 -0.3811
18399SOL     OW56637   2.407   4.051   5.635 -0.4380 -0.0997 -0.3036
18399SOL    HW156638   2.312   4.050   5.634 -0.4644  0.9092 -1.5026
18399SOL    HW256639   2.432   4.050   5.542  0.6901  0.6038 -0.0323
18400SOL     OW56640   6.052   3.024   4.893 -0.8960 -0.2826 -0.2815
18400SOL    HW156641   6.017   3.104   4.934 -1.1248 -0.9500  0.8850
18400SOL    HW256642   6.057   2.961   4.965  1.7031 -0.5652 -0.6145
18401SOL     OW56643   0.714   3.329   2.665 -0.5481 -0.0060 -0.1946
18401SOL    HW156644   0.676   3.407   2.624 -1.1657 -0.2749 -0.1427
18401SOL    HW256645   0.640   3.287   2.709 -0.0102 -0.0424  0.6964
18402SOL     OW56646   1.432   6.493   1.678 -0.1643 -0.3217  0.5819
18402SOL    HW156647   1.520   6.457   1.680 -0.1144 -0.2934 -0.4718
18402SOL    HW256648   1.389   6.457   1.755  0.3785 -1.3461  0.4187
18403SOL     OW56649   0.158   6.937   3.700 -0.1263  0.0032  0.4656
18403SOL    HW156650   0.112   6.925   3.617  0.6414  1.5487 -0.2163
18403SOL    HW256651   0.153   7.031   3.717  0.3578 -0.1927  1.8217
18404SOL     OW56652   4.525   1.281   8.580  0.1495 -0.5524 -0.6466
18404SOL    HW156653   4.538   1.313   8.491  0.1025 -0.5477 -0.6517
18404SOL    HW256654   4.610   1.291   8.622  0.2934 -0.9825 -0.8274
18405SOL     OW56655   3.575   0.286   1.204  0.5486 -0.0650 -0.4817
18405SOL    HW156656   3.536   0.215   1.256 -0.7181  0.1940 -1.0242
18405SOL    HW256657   3.667   0.263   1.196  0.0921 -1.8334 -0.9420
18406SOL     OW56658   2.117   5.326   0.078  0.0091  0.2463 -0.2847
18406SOL    HW156659   2.172   5.397   0.111 -1.8863  1.4059  0.5758
18406SOL    HW256660   2.090   5.278   0.157 -1.2101  0.5013 -0.5189
18407SOL     OW56661   7.887   1.176   7.749 -0.2907  0.5661 -0.2033
18407SOL    HW156662   7.924   1.091   7.727 -0.3756 -0.0090  1.6547
18407SOL    HW256663   7.812   1.185   7.690  0.2112 -0.2599 -0.9951
18408SOL     OW56664   0.260   1.913   5.593  0.1772 -0.2604 -0.3544
18408SOL    HW156665   0.216   1.994   5.619 -0.1160 -1.0080  1.6426
18408SOL    HW256666   0.305   1.936   5.512  1.7785  2.5052  1.1518
18409SOL     OW56667   5.608   5.358   7.180 -0.2738  0.0968 -0.1083
18409SOL    HW156668   5.608   5.327   7.271 -1.9124  1.9769  0.6297
18409SOL    HW256669   5.618   5.280   7.127 -2.3225 -1.4652  1.6341
18410SOL     OW56670   1.477   5.055   7.731 -0.1358  0.0229  0.3774
18410SOL    HW156671   1.425   5.133   7.752  0.5226  0.3649  0.7606
18410SOL    HW256672   1.414   4.995   7.690 -0.6618  0.7238  0.1417
18411SOL     OW56673   5.944   6.663   7.505 -0.4421 -0.2650  0.1423
18411SOL    HW156674   5.952   6.707   7.589 -0.3609  0.8447 -0.4200
18411SOL    HW256675   5.994   6.581   7.515 -1.9528 -1.0459  1.7286
18412SOL     OW56676   4.197   4.063   4.820 -0.0629 -0.4176  0.3903
18412SOL    HW156677   4.138   4.077   4.894 -0.4611  1.2062 -0.1881
18412SOL    HW256678   4.281   4.099   4.849 -0.3207  0.5758 -0.0677
18413SOL     OW56679   4.711   3.241   7.338  0.1525  0.4107 -0.2685
18413SOL    HW156680   4.723   3.334   7.324  1.1008  0.5810  1.4689
18413SOL    HW256681   4.616   3.230   7.344  0.0711  1.4723  0.7243
18414SOL     OW56682   2.677   7.612   0.060  0.8508 -0.2752  0.2355
18414SOL    HW156683   2.748   7.670   0.033 -1.1482  4.0369  3.2339
18414SOL    HW256684   2.697   7.589   0.151 -1.0653  0.3504  0.8734
18415SOL     OW56685   1.100   1.919   6.691 -0.1301  0.0099  0.7823
18415SOL    HW156686   1.068   1.915   6.782 -0.0269 -0.3885  0.8011
18415SOL    HW256687   1.025   1.889   6.639  0.2391 -1.0576  0.8353
18416SOL     OW56688   3.480   6.411   4.274 -0.0613 -0.2007  0.6539
18416SOL    HW156689   3.457   6.445   4.361 -0.9990  0.8816  0.0218
18416SOL    HW256690   3.541   6.475   4.238 -1.6832  0.8249 -0.4702
18417SOL     OW56691   5.549   3.597   0.839 -0.0951  0.6895 -0.1105
18417SOL    HW156692   5.494   3.564   0.769 -0.9856  0.1304  0.8303
18417SOL    HW256693   5.606   3.524   0.863 -1.0003  0.2896  0.9160
18418SOL     OW56694   0.590   7.576  11.702  0.4471  1.0274  0.1900
18418SOL    HW156695   0.522   7.633  11.738  0.7088  0.9452  0.8202
18418SOL    HW256696   0.647   7.635  11.654  0.4918  1.2442  0.5059
18419SOL     OW56697   4.644   0.831  11.189  0.2211 -0.0383 -1.0418
18419SOL    HW156698   4.703   0.817  11.263  0.5776 -0.3429 -1.3821
18419SOL    HW256699   4.563   0.862  11.229  0.5827  0.3153 -0.5617
18420SOL     OW56700   0.452   5.878   4.382 -0.0054 -0.0379 -0.0322
18420SOL    HW156701   0.476   5.795   4.340  0.0726 -0.0721  0.0814
18420SOL    HW256702   0.451   5.859   4.475 -2.8728 -0.6926 -0.1058
18421SOL     OW56703   3.019   4.272   2.412  0.4152 -1.1978 -0.0374
18421SOL    HW156704   3.030   4.191   2.463 -1.5421 -1.2912  0.2985
18421SOL    HW256705   2.925   4.288   2.412  0.8233  1.8013  0.9825
18422SOL     OW56706   1.711   5.726   8.987 -0.2276  0.3223 -0.1863
18422SOL    HW156707   1.733   5.810   9.027  1.0362  0.1750 -0.5132
18422SOL    HW256708   1.765   5.723   8.907  1.5286 -1.7671  0.9690
18423SOL     OW56709   3.593   7.324   2.884 -0.3949 -0.2575 -0.2840
18423SOL    HW156710   3.557   7.366   2.806 -1.6340  0.2025  0.5104
18423SOL    HW256711   3.602   7.396   2.947  1.1738 -0.5091 -0.1754
18424SOL     OW56712   4.293   7.568   9.386  0.2417 -0.3080  0.4703
18424SOL    HW156713   4.346   7.622   9.445  0.8198  0.1686 -0.4534
18424SOL    HW256714   4.319   7.596   9.298 -0.0445 -1.5419 -0.0253
18425SOL     OW56715   4.113   2.279   9.294 -0.3997  0.1064 -0.3004
18425SOL    HW156716   4.072   2.344   9.237 -1.8837 -1.4746 -1.1557
18425SOL    HW256717   4.086   2.303   9.382  3.2542  3.5535  0.1416
18426SOL     OW56718   2.852   2.047  12.299 -0.3218  0.5978 -0.4039
18426SOL    HW156719   2.761   2.030  12.323 -0.2702 -1.0492 -1.1932
18426SOL    HW256720   2.877   1.972  12.244  1.6658  0.7316  0.2201
18427SOL     OW56721   2.059   5.929   9.969 -0.2982  0.2756  0.2474
18427SOL    HW156722   1.969   5.959   9.981  0.0063  1.6816 -0.7587
18427SOL    HW256723   2.112   6.005   9.990  0.5933 -0.0934 -0.5949
18428SOL     OW56724   6.589   0.761  11.955 -0.6579  0.0487 -0.3614
18428SOL    HW156725   6.668   0.709  11.943  0.0828  0.9599  0.4046
18428SOL    HW256726   6.619   0.852  11.948 -1.5383  0.4195  0.4696
18429SOL     OW56727   3.989   2.788   4.792 -0.2219  0.7796  0.0178
18429SOL    HW156728   3.944   2.837   4.860 -0.8319  0.4919 -0.1781
18429SOL    HW256729   3.995   2.699   4.825  1.6039  1.1074  0.7294
18430SOL     OW56730   0.239   6.578   0.373 -0.0657  0.5023 -0.2638
18430SOL    HW156731   0.221   6.519   0.446 -1.1135  0.2732 -0.6812
18430SOL    HW256732   0.210   6.529   0.295 -2.5100  2.1114 -0.5010
18431SOL     OW56733   7.108   1.135   4.108  0.6035  0.7116 -0.2293
18431SOL    HW156734   7.034   1.195   4.120  0.6372  0.5244  1.0173
18431SOL    HW256735   7.078   1.073   4.041 -0.1288  0.9991 -0.1778
18432SOL     OW56736   5.086   2.604  10.263 -0.5316  0.1891 -0.2568
18432SOL    HW156737   5.059   2.569  10.178  0.6889  0.8616 -0.9690
18432SOL    HW256738   5.149   2.674  10.240 -1.1462  1.2522  1.1597
18433SOL     OW56739   3.156   1.367   3.515  0.5236 -0.6157 -0.2615
18433SOL    HW156740   3.145   1.369   3.420  0.7764 -0.2890 -0.2835
18433SOL    HW256741   3.097   1.436   3.547 -1.8877 -2.6634  0.0532
18434SOL     OW56742   4.677   7.409   0.219 -0.0196 -0.1760 -0.0491
18434SOL    HW156743   4.597   7.405   0.271 -0.2748 -2.1341 -0.4869
18434SOL    HW256744   4.647   7.392   0.129  0.9376 -1.7763 -0.1060
18435SOL     OW56745   5.277   6.160   9.494 -0.5410 -0.4152  0.8976
18435SOL    HW156746   5.236   6.160   9.408  2.3437 -0.4671 -0.6002
18435SOL    HW256747   5.261   6.248   9.528  0.2394  0.4340 -0.7854
18436SOL     OW56748   2.779   7.637   2.456 -0.0509  0.6070 -0.0696
18436SOL    HW156749   2.717   7.701   2.491 -2.6182 -1.9321  0.3914
18436SOL    HW256750   2.767   7.641   2.361 -0.8771  0.1984  0.0107
18437SOL     OW56751   0.896   2.404  10.084 -0.5291 -0.0649 -0.3545
18437SOL    HW156752   0.880   2.372  10.173  0.3315 -0.2400 -0.2538
18437SOL    HW256753   0.810   2.435  10.053 -0.8011  0.1413  0.5884
18438SOL     OW56754   0.276   1.717   4.831 -0.0425 -0.1371 -0.2527
18438SOL    HW156755   0.194   1.767   4.836  0.9787  1.5286  0.7761
18438SOL    HW256756   0.331   1.756   4.899  1.9125 -0.6454 -1.4871
18439SOL     OW56757   6.252   5.979   6.871  0.3961 -0.1688  0.4310
18439SOL    HW156758   6.239   5.895   6.828 -0.7967 -0.3039  1.0026
18439SOL    HW256759   6.265   5.956   6.964  1.4901  0.2040  0.3918
18440SOL     OW56760   0.479   4.459   6.260  0.2624  0.7508  0.1090
18440SOL    HW156761   0.482   4.369   6.293  1.0449 -0.0966 -2.0473
18440SOL    HW256762   0.521   4.511   6.329  2.5190 -1.0099  0.2139
18441SOL     OW56763   4.686   1.499   1.082 -1.0646 -0.2235  0.2541
18441SOL    HW156764   4.774   1.511   1.046 -0.5020  1.0182  1.8965
18441SOL    HW256765   4.692   1.534   1.171 -2.9872 -0.9919  0.7352
18442SOL     OW56766   0.482   2.308   1.785 -0.0556  0.0044 -0.3002
18442SOL    HW156767   0.397   2.341   1.816 -0.8750 -0.1365 -2.2615
18442SOL    HW256768   0.493   2.225   1.831 -2.1542 -1.1502 -1.7155
18443SOL     OW56769   1.674   3.794  11.816  0.3009 -0.2456  0.7039
18443SOL    HW156770   1.644   3.809  11.726  0.1857 -3.9478 -0.0321
18443SOL    HW256771   1.601   3.823  11.871 -0.0883  1.0227 -0.4412
18444SOL     OW56772   2.065   0.218  10.650 -0.1145 -0.0372 -0.5001
18444SOL    HW156773   2.138   0.231  10.710  0.5922  0.0239 -1.3563
18444SOL    HW256774   2.056   0.301  10.604  0.1344 -0.4567 -1.3280
18445SOL     OW56775   0.003   1.099   9.281 -0.6554 -0.5267 -0.1767
18445SOL    HW156776   0.049   1.065   9.358  0.9203 -1.0928 -1.3220
18445SOL    HW256777   0.051   1.178   9.258 -1.2385 -0.2532 -0.4710
18446SOL     OW56778   3.227   7.188  10.783 -0.0712  0.4390 -0.1704
18446SOL    HW156779   3.225   7.228  10.696 -1.2918 -3.3551 -2.0993
18446SOL    HW256780   3.135   7.175  10.806  0.2628 -0.1890  0.8832
18447SOL     OW56781   5.215   2.938  10.772  0.2328 -0.0128  0.2505
18447SOL    HW156782   5.209   2.842  10.767  0.7501 -0.0231 -0.2584
18447SOL    HW256783   5.139   2.964  10.824 -2.3161 -0.3663 -2.9720
18448SOL     OW56784   1.782   7.141  10.687  0.1318  0.2893  0.4841
18448SOL    HW156785   1.773   7.046  10.685 -0.6246  0.3308  1.5136
18448SOL    HW256786   1.831   7.159  10.767  0.3828  0.7686  0.2311
18449SOL     OW56787   4.836   7.294   6.185 -0.1619  0.4108  0.3872
18449SOL    HW156788   4.777   7.286   6.110  0.1476  0.4109  0.1407
18449SOL    HW256789   4.920   7.319   6.147  0.7608 -2.3223  0.4232
18450SOL     OW56790   2.382   7.669   6.895  0.6218  0.3493  0.1327
18450SOL    HW156791   2.386   7.599   6.960  1.4354  0.2877  0.0182
18450SOL    HW256792   2.289   7.673   6.871  0.5250 -0.5147  0.3300
18451SOL     OW56793   4.291   3.381   5.949 -0.5452 -0.8859 -0.5678
18451SOL    HW156794   4.205   3.414   5.923 -0.3962  0.6400  0.7143
18451SOL    HW256795   4.272   3.303   6.001 -1.1866 -0.3477  0.0261
18452SOL     OW56796   3.401   4.555   1.890 -0.0435 -0.4214 -0.3002
18452SOL    HW156797   3.384   4.469   1.852 -0.4226  0.2137 -1.6841
18452SOL    HW256798   3.484   4.546   1.935  1.3735 -0.8559 -2.7835
18453SOL     OW56799   7.605   1.724   4.606  0.4833 -0.1000 -0.5937
18453SOL    HW156800   7.656   1.683   4.676  0.5832 -1.2760 -1.3197
18453SOL    HW256801   7.654   1.703   4.526 -0.8764 -0.8730 -1.2644
18454SOL     OW56802   1.223   5.761   0.172 -0.7339  0.3660  0.0651
18454SOL    HW156803   1.189   5.826   0.233  0.4206  0.8237  0.2547
18454SOL    HW256804   1.215   5.802   0.086  0.0759  0.8200  0.1935
18455SOL     OW56805   4.442   0.703  10.681 -0.4077 -0.1121  0.6867
18455SOL    HW156806   4.412   0.641  10.748  0.8358 -0.9267  0.5237
18455SOL    HW256807   4.498   0.764  10.729  0.3510 -0.5992  0.4479
18456SOL     OW56808   0.949   0.414   9.496  0.8535 -0.2972 -0.7096
18456SOL    HW156809   0.898   0.463   9.432 -0.6356 -1.0357 -0.1413
18456SOL    HW256810   0.927   0.454   9.580  1.7129 -0.2232 -0.5134
18457SOL     OW56811   0.908   7.216  11.623 -0.6615 -0.4971 -0.4815
18457SOL    HW156812   0.955   7.134  11.610 -0.2495 -0.2044 -0.8800
18457SOL    HW256813   0.831   7.192  11.675  0.1996 -0.9018  0.6606
18458SOL     OW56814   3.564   1.540  10.813 -0.0767  0.3555 -0.0956
18458SOL    HW156815   3.515   1.514  10.735  0.3089  0.2594 -0.3041
18458SOL    HW256816   3.546   1.471  10.877  0.7648 -0.3204 -0.5700
18459SOL     OW56817   0.408   1.481  11.349 -0.7061  0.1294 -0.3177
18459SOL    HW156818   0.451   1.404  11.313 -0.7368  0.0314 -0.1442
18459SOL    HW256819   0.350   1.511  11.279  0.7949  1.1926 -1.1565
18460SOL     OW56820   4.237   4.170   8.387 -0.0655 -0.0613 -0.4212
18460SOL    HW156821   4.314   4.138   8.434 -0.1792 -2.3881 -1.6519
18460SOL    HW256822   4.273   4.214   8.310  0.0508  1.8679  0.6566
18461SOL     OW56823   6.279   4.585   6.352 -0.5577 -0.5896 -0.0999
18461SOL    HW156824   6.245   4.620   6.434 -1.2594 -2.2516  0.3547
18461SOL    HW256825   6.203   4.577   6.294 -0.3745 -1.0755 -0.2867
18462SOL     OW56826   0.051   4.370  11.667  0.1046 -0.1769  0.3587
18462SOL    HW156827   0.078   4.290  11.712  0.6915 -0.0748  0.1952
18462SOL    HW256828  -0.042   4.378  11.687  0.1148 -0.7205  0.6517
18463SOL     OW56829   3.003   3.644   7.354 -0.0987 -0.2471  0.2429
18463SOL    HW156830   3.065   3.687   7.413 -0.0158  1.3234 -0.9320
18463SOL    HW256831   2.966   3.715   7.301 -0.3082 -1.5596 -1.4704
18464SOL     OW56832   4.204   6.663  11.414 -0.1802  0.5377  0.1570
18464SOL    HW156833   4.112   6.654  11.436  0.3420 -0.6118  2.0931
18464SOL    HW256834   4.230   6.747  11.453 -0.3589  0.7677 -0.2188
18465SOL     OW56835   4.011   5.775  10.629  0.1757 -0.1452  0.4749
18465SOL    HW156836   4.072   5.719  10.677 -0.3592 -0.3007  0.9826
18465SOL    HW256837   3.933   5.777  10.683 -0.5615 -0.5784 -0.5368
18466SOL     OW56838   3.643   2.513   6.362 -0.1799 -0.1173  0.1951
18466SOL    HW156839   3.624   2.595   6.407  0.3988  0.4298 -0.5418
18466SOL    HW256840   3.705   2.468   6.419  0.8651  0.7537 -0.2332
18467SOL     OW56841   1.846   3.472   1.285  0.5815  0.0489 -0.0810
18467SOL    HW156842   1.840   3.457   1.191  0.6725  1.3506 -0.3132
18467SOL    HW256843   1.938   3.495   1.300  0.4455  0.4183  0.2265
18468SOL     OW56844   4.883   5.521  10.686  0.1585  0.2087 -0.7738
18468SOL    HW156845   4.826   5.503  10.611 -0.8279 -0.3616  0.0953
18468SOL    HW256846   4.826   5.515  10.762  1.1812  0.6073  0.0528
18469SOL     OW56847   3.609   6.910  12.332 -0.2389  0.1518 -0.5362
18469SOL    HW156848   3.539   6.926  12.396  0.2634 -3.2185  1.0918
18469SOL    HW256849   3.563   6.897  12.249 -1.3483  0.2409  0.0434
18470SOL     OW56850   6.686   5.024   7.815 -0.0485  0.0628  0.7854
18470SOL    HW156851   6.654   4.951   7.761  1.7941 -0.9770  1.0108
18470SOL    HW256852   6.671   4.996   7.905  0.2848  0.1539  0.8687
18471SOL     OW56853   6.231   6.733  10.023  0.1782 -0.3353  0.3333
18471SOL    HW156854   6.313   6.720   9.977 -0.4621  0.1273 -0.9915
18471SOL    HW256855   6.212   6.826  10.012 -1.0468 -0.6377 -0.3291
18472SOL     OW56856   7.422   4.306   3.457  0.5636  0.1452  0.2625
18472SOL    HW156857   7.386   4.221   3.482  1.1786 -0.4173 -0.6670
18472SOL    HW256858   7.486   4.285   3.389  1.3359  1.2831  0.6181
18473SOL     OW56859   2.238   2.074  12.175 -0.3755  0.9613 -0.1115
18473SOL    HW156860   2.220   2.094  12.267 -2.2854  2.4078 -0.7433
18473SOL    HW256861   2.228   1.979  12.169  0.0901  0.8020  1.2173
18474SOL     OW56862   6.959   3.785   2.933 -0.4937 -0.2616  0.1315
18474SOL    HW156863   7.031   3.769   2.993 -2.8037 -0.8090  3.0328
18474SOL    HW256864   6.959   3.880   2.921 -0.8981  0.0962  2.4394
18475SOL     OW56865   2.280   5.901   8.682  0.6403 -0.1727  0.0766
18475SOL    HW156866   2.332   5.966   8.728 -2.1793  1.2442  1.5458
18475SOL    HW256867   2.297   5.819   8.728  2.3880 -0.0306 -0.2520
18476SOL     OW56868   6.461   5.190   0.433  0.0802  0.0801  0.4588
18476SOL    HW156869   6.533   5.223   0.380 -1.8318  0.5912 -2.0028
18476SOL    HW256870   6.387   5.184   0.372 -1.8564 -0.8447  2.7410
18477SOL     OW56871   7.076   1.903   4.048  0.0032 -0.2554 -0.6666
18477SOL    HW156872   7.109   1.968   4.110 -1.3484 -0.2148  0.0536
18477SOL    HW256873   7.137   1.830   4.056 -0.7452 -0.7160  1.6088
18478SOL     OW56874   2.896   5.593   9.745  0.6187  0.2337  0.1655
18478SOL    HW156875   2.928   5.585   9.835  0.1360 -0.3472  0.2918
18478SOL    HW256876   2.951   5.662   9.706  2.0415 -0.7440  0.3528
18479SOL     OW56877   6.721   7.443   9.609 -0.1956  0.0494 -0.2098
18479SOL    HW156878   6.720   7.378   9.539  0.2346 -0.3575  0.1595
18479SOL    HW256879   6.715   7.527   9.563 -3.0040 -0.2649 -0.6171
18480SOL     OW56880   3.210   2.595   9.734 -0.0576 -0.1256 -0.2791
18480SOL    HW156881   3.285   2.629   9.686 -1.0766  0.3714 -1.5747
18480SOL    HW256882   3.208   2.646   9.814  1.3297 -0.5664  0.0770
18481SOL     OW56883   5.241   1.116   0.194  0.7518  0.1475  0.3758
18481SOL    HW156884   5.196   1.199   0.212  0.4486  0.2824 -0.8790
18481SOL    HW256885   5.188   1.075   0.125  2.2591  0.0889 -0.8063
18482SOL     OW56886   2.859   5.094   2.351 -0.2884  0.0694  0.1681
18482SOL    HW156887   2.861   5.149   2.430  0.1523 -0.5347  0.5853
18482SOL    HW256888   2.807   5.145   2.288  0.0384  0.9260  0.5685
18483SOL     OW56889   7.522   2.176   2.012 -0.2416  0.2226  0.0278
18483SOL    HW156890   7.440   2.221   1.988 -2.6437 -2.5174  2.2531
18483SOL    HW256891   7.513   2.088   1.976  1.7988 -0.1357  0.2811
18484SOL     OW56892   1.999   1.774  10.996  0.2389 -0.0900 -0.3321
18484SOL    HW156893   2.010   1.799  11.088  0.9140  0.6934 -0.6067
18484SOL    HW256894   2.005   1.857  10.948  1.6025 -0.6570 -1.2143
18485SOL     OW56895   2.795   2.753   2.460  0.4270  0.1887 -0.6654
18485SOL    HW156896   2.862   2.778   2.524 -1.2418 -0.1171  1.3405
18485SOL    HW256897   2.799   2.658   2.458 -0.4747  0.1180  0.1323
18486SOL     OW56898   1.198   4.726   2.296 -0.0644  0.6139 -0.2081
18486SOL    HW156899   1.124   4.704   2.353  0.4306  1.0712  0.6373
18486SOL    HW256900   1.275   4.698   2.345  0.3323  0.0065 -1.1406
18487SOL     OW56901   5.925   0.395   8.150  0.2353 -0.3141 -0.1798
18487SOL    HW156902   5.891   0.433   8.069  0.1211  0.4900  0.2343
18487SOL    HW256903   5.848   0.362   8.196  0.3320 -1.0663 -0.5293
18488SOL     OW56904   7.147   3.531   0.810  0.0960  0.1480 -0.1311
18488SOL    HW156905   7.075   3.546   0.748  0.7109 -1.5163 -1.3350
18488SOL    HW256906   7.201   3.465   0.767  2.0322  0.9170  1.0161
18489SOL     OW56907   4.380   4.844   1.729 -0.2527 -0.1406 -0.1940
18489SOL    HW156908   4.374   4.916   1.666 -1.4811  0.8174  0.9906
18489SOL    HW256909   4.311   4.784   1.703 -0.8891  0.3506  0.3489
18490SOL     OW56910   7.738   6.398   8.282  0.1361  0.3388  0.4782
18490SOL    HW156911   7.739   6.305   8.306 -1.8001  0.3628  0.8577
18490SOL    HW256912   7.795   6.440   8.346  1.8064 -0.6790 -0.2818
18491SOL     OW56913   4.621   4.909   2.331 -0.7839 -0.4933 -0.2255
18491SOL    HW156914   4.635   4.998   2.365  0.9763 -1.5479  2.0946
18491SOL    HW256915   4.538   4.882   2.369 -0.0343 -0.7487  1.3077
18492SOL     OW56916   1.770   1.312  10.137 -0.6174  0.0784 -0.1665
18492SOL    HW156917   1.837   1.246  10.153 -1.1244 -0.3747  0.1087
18492SOL    HW256918   1.689   1.263  10.131 -1.2044  0.7935  1.4334
18493SOL     OW56919   6.391   3.229   8.338 -0.2035 -0.6102 -0.7366
18493SOL    HW156920   6.328   3.160   8.359  0.3239 -0.8521  0.1394
18493SOL    HW256921   6.338   3.300   8.300 -0.8470 -1.2094 -0.9677
18494SOL     OW56922   4.577   6.741   7.147 -0.3266  0.1591  0.0680
18494SOL    HW156923   4.510   6.685   7.107  0.4495 -0.3309 -0.5851
18494SOL    HW256924   4.635   6.764   7.074  1.1840 -0.8222  0.8977
18495SOL     OW56925   1.493   7.233  11.341 -0.1842 -0.3981  0.3956
18495SOL    HW156926   1.551   7.274  11.406 -1.5161 -0.7229  1.8606
18495SOL    HW256927   1.551   7.206  11.271  1.2633  0.4218  1.2218
18496SOL     OW56928   0.460   3.575   1.373  0.1358  0.4698  0.0123
18496SOL    HW156929   0.422   3.648   1.324  1.1814  0.8654 -0.2551
18496SOL    HW256930   0.489   3.514   1.306 -0.9718 -0.3347  0.2437
18497SOL     OW56931   1.143   7.511   1.932  0.3246 -0.2127 -0.2013
18497SOL    HW156932   1.143   7.580   1.866  1.1327 -0.9632 -1.0107
18497SOL    HW256933   1.109   7.554   2.011  2.8111  1.7223 -0.0419
18498SOL     OW56934   0.496   4.155   4.609 -0.1120  0.4470  0.4495
18498SOL    HW156935   0.474   4.230   4.665 -0.0078  0.7098  0.1427
18498SOL    HW256936   0.424   4.149   4.547  0.6790  1.3410 -0.5881
18499SOL     OW56937   2.288   6.281   6.855  0.3361 -0.1149 -0.3218
18499SOL    HW156938   2.243   6.209   6.899 -0.8352 -0.7953 -2.4974
18499SOL    HW256939   2.325   6.334   6.926 -2.5224 -0.4173  1.5264
18500SOL     OW56940   4.693   6.231   6.391  0.2765 -0.0442  0.1255
18500SOL    HW156941   4.721   6.243   6.301 -1.3733  1.5775 -0.2377
18500SOL    HW256942   4.670   6.319   6.421 -0.2931 -0.6998  1.7553
18501SOL     OW56943   3.078   1.090   2.250  0.1443  0.2484 -0.2883
18501SOL    HW156944   3.169   1.060   2.246  0.0674  0.1121 -2.0249
18501SOL    HW256945   3.031   1.020   2.294  0.7480 -0.0253 -0.0610
18502SOL     OW56946   0.728   3.539   8.615 -0.3668 -0.2878  0.1691
18502SOL    HW156947   0.701   3.552   8.524  1.6149 -0.1027 -0.4524
18502SOL    HW256948   0.725   3.444   8.627 -1.1389 -0.2768  0.0770
18503SOL     OW56949   1.788   7.445   1.921  0.0126 -0.2874  0.7426
18503SOL    HW156950   1.748   7.411   1.841 -0.0273 -0.0904  0.6767
18503SOL    HW256951   1.756   7.388   1.991 -2.0317  1.0394  0.9948
18504SOL     OW56952   4.979   6.702   1.525 -0.8189  0.0646 -0.5294
18504SOL    HW156953   5.074   6.705   1.513 -0.2864  0.7776  2.7662
18504SOL    HW256954   4.953   6.618   1.487  1.0647 -0.0841 -1.6439
18505SOL     OW56955   1.090   2.966   2.421 -0.0361 -0.4717 -0.2046
18505SOL    HW156956   1.124   2.977   2.332  1.3987 -1.4681  0.2026
18505SOL    HW256957   0.994   2.966   2.410  0.1146 -0.2957 -1.6951
18506SOL     OW56958   1.041   1.666  11.392  0.6765 -0.0223 -0.2746
18506SOL    HW156959   1.042   1.753  11.433 -1.6431 -0.6872  1.3374
18506SOL    HW256960   0.993   1.680  11.310  0.0491  0.1681  0.1191
18507SOL     OW56961   6.656   3.029   0.031  0.0271  0.3072 -0.3374
18507SOL    HW156962   6.621   3.039   0.119  2.0005  0.7240  0.4701
18507SOL    HW256963   6.676   3.118   0.003  0.9287  0.0698 -0.5081
18508SOL     OW56964   3.805   3.759  11.946  0.3343  0.5642 -0.4714
18508SOL    HW156965   3.749   3.753  12.024 -1.1598 -1.3925 -1.6160
18508SOL    HW256966   3.809   3.853  11.927 -0.2117  0.9935  1.2750
18509SOL     OW56967   2.254   2.891  10.568 -0.5943 -0.7149  0.0722
18509SOL    HW156968   2.267   2.835  10.492 -1.6995 -0.6438 -0.1877
18509SOL    HW256969   2.307   2.851  10.637 -1.5930 -2.2470 -0.0272
18510SOL     OW56970   7.560   5.729  12.360  0.3708  0.0296 -0.4338
18510SOL    HW156971   7.485   5.674  12.379  0.2032 -0.0188 -1.1728
18510SOL    HW256972   7.626   5.704  12.424 -0.2093  0.0044  0.1569
18511SOL     OW56973   5.844   7.836   3.455 -0.7497  0.0789 -0.1241
18511SOL    HW156974   5.920   7.825   3.513  0.0377  0.4095 -1.0576
18511SOL    HW256975   5.881   7.831   3.367 -1.6743  1.2434 -0.5936
18512SOL     OW56976   6.846   3.198   1.371  0.4594 -0.3524  0.3866
18512SOL    HW156977   6.807   3.284   1.358 -1.8616 -1.5236 -1.0196
18512SOL    HW256978   6.892   3.205   1.455  0.6560  2.3059  0.1512
18513SOL     OW56979   1.375   7.267  10.543 -0.4643 -0.0245  0.0079
18513SOL    HW156980   1.334   7.248  10.459 -1.7758  0.2884  0.5526
18513SOL    HW256981   1.343   7.197  10.601 -0.0829  0.1262  0.4017
18514SOL     OW56982   3.099   1.385  10.648  0.5545  0.2623  0.6352
18514SOL    HW156983   3.128   1.447  10.582  1.1828 -0.6915 -0.0164
18514SOL    HW256984   3.022   1.342  10.609  1.2660 -0.7040  0.2595
18515SOL     OW56985   4.980   3.217   2.434  0.5308 -0.5293 -0.1685
18515SOL    HW156986   5.074   3.214   2.454  0.4611 -1.2146  0.0935
18515SOL    HW256987   4.945   3.136   2.471  0.1954 -1.3318 -2.0855
18516SOL     OW56988   4.450   5.926   6.606  0.5126  0.0687  0.0365
18516SOL    HW156989   4.487   5.894   6.688  1.1289  0.8893  0.0940
18516SOL    HW256990   4.359   5.944   6.627 -0.0654 -2.2644 -0.1866
18517SOL     OW56991   0.225   0.535   3.339  0.7312 -0.4591 -0.0960
18517SOL    HW156992   0.271   0.526   3.422  0.6087 -1.9756 -0.1638
18517SOL    HW256993   0.292   0.564   3.277  0.6166  1.6872  0.6934
18518SOL     OW56994   2.774   1.100   9.522  0.4338 -0.6756  0.2087
18518SOL    HW156995   2.849   1.147   9.485  1.0462  0.0791  2.2482
18518SOL    HW256996   2.699   1.130   9.471  1.0279  1.3974  0.4617
18519SOL     OW56997   5.115   4.158  11.942 -1.0879 -0.2726 -0.2132
18519SOL    HW156998   5.103   4.212  12.020  0.1478  0.4587 -0.4984
18519SOL    HW256999   5.030   4.161  11.898 -1.7206 -0.4750  0.9467
18520SOL     OW57000   0.276   1.626   3.549  0.0217 -0.6697 -0.2875
18520SOL    HW157001   0.338   1.611   3.478  0.4128 -1.1885  0.1573
18520SOL    HW257002   0.327   1.668   3.618 -0.5236  0.5305 -0.5838
18521SOL     OW57003   4.741   5.938   8.312 -0.1296 -0.0173 -0.2843
18521SOL    HW157004   4.718   6.012   8.256  2.1940  1.7129  0.8435
18521SOL    HW257005   4.834   5.923   8.295 -0.0653 -1.3851  0.9917
18522SOL     OW57006   4.427   6.846   5.893  0.2027 -0.0665 -0.4168
18522SOL    HW157007   4.519   6.868   5.911  0.5301 -1.4774 -0.2957
18522SOL    HW257008   4.379   6.884   5.966  0.7492  0.2133 -0.1929
18523SOL     OW57009   6.226   6.315   4.090 -0.3372 -0.0189  0.5628
18523SOL    HW157010   6.147   6.334   4.040 -0.2995  0.2035  0.5892
18523SOL    HW257011   6.243   6.394   4.141 -0.8095 -0.5066  1.5077
18524SOL     OW57012   6.325   4.100   5.250 -0.0493  0.2825 -0.2661
18524SOL    HW157013   6.268   4.029   5.281  0.5016 -0.1058 -0.1400
18524SOL    HW257014   6.300   4.176   5.303  0.6091 -0.2676  0.8776
18525SOL     OW57015   0.375   3.913  10.437 -0.3765 -0.0436 -0.1056
18525SOL    HW157016   0.383   3.851  10.364  0.3798 -1.0911  0.8300
18525SOL    HW257017   0.309   3.976  10.407  0.6022  0.1326 -2.0816
18526SOL     OW57018   2.737   5.347   4.819  0.0267  0.4146  0.0612
18526SOL    HW157019   2.654   5.307   4.846  0.3501 -1.7853 -1.8132
18526SOL    HW257020   2.804   5.304   4.872  0.2368 -0.4967 -0.8967
18527SOL     OW57021   2.294   0.946   3.130 -0.1554 -0.5764  0.0214
18527SOL    HW157022   2.265   0.985   3.212  1.5744  1.9130 -0.4426
18527SOL    HW257023   2.367   0.888   3.155 -0.3222 -0.6463  0.3477
18528SOL     OW57024   3.294   6.911   4.036  0.0508  0.2449 -0.2454
18528SOL    HW157025   3.200   6.916   4.053  0.1344 -2.8012  1.9748
18528SOL    HW257026   3.330   6.991   4.076 -1.4929  1.0723 -0.4378
18529SOL     OW57027   6.000   3.637   1.988 -0.9494 -0.0073 -0.2011
18529SOL    HW157028   6.032   3.711   2.040  1.6930 -1.0264 -0.2357
18529SOL    HW257029   6.013   3.664   1.897  3.0501 -1.5418 -0.2575
18530SOL     OW57030   2.773   5.585   6.209 -0.0864  0.4273 -0.0451
18530SOL    HW157031   2.815   5.603   6.125  3.6572 -1.8596  1.1094
18530SOL    HW257032   2.810   5.651   6.268  1.1026 -0.9363  0.7709
18531SOL     OW57033   5.213   0.809   8.299 -0.2121 -0.0466  0.3615
18531SOL    HW157034   5.280   0.785   8.363 -0.2805  0.2711  0.5510
18531SOL    HW257035   5.131   0.809   8.349 -0.5533 -1.6716 -0.1274
18532SOL     OW57036   2.492   1.652  10.376  0.4624  0.2013  0.1509
18532SOL    HW157037   2.401   1.645  10.406  1.0351  0.0556  1.9385
18532SOL    HW257038   2.505   1.746  10.362  0.2419  0.2953  0.5588
18533SOL     OW57039   2.208   0.207   7.618 -0.1363  1.0520  0.0294
18533SOL    HW157040   2.116   0.189   7.601 -0.2758 -0.5709  2.0997
18533SOL    HW257041   2.254   0.129   7.584  0.4142  1.5020 -0.2866
18534SOL     OW57042   2.313   0.945  11.551 -0.7517 -0.7347 -0.8068
18534SOL    HW157043   2.394   0.993  11.535  0.6952 -3.1748 -1.2951
18534SOL    HW257044   2.300   0.949  11.646  0.2931 -0.8086 -0.6491
18535SOL     OW57045   4.855   5.488   1.757  0.2975  0.2370  0.3145
18535SOL    HW157046   4.832   5.564   1.704 -0.6019  0.1328  0.5446
18535SOL    HW257047   4.821   5.413   1.708 -0.3964  0.1290  0.9506
18536SOL     OW57048   2.948   5.335   1.883  0.6575 -0.0484  0.0826
18536SOL    HW157049   2.944   5.431   1.877  3.6188  0.1690 -0.3609
18536SOL    HW257050   2.975   5.318   1.973 -0.4057 -0.5185  0.3187
18537SOL     OW57051   6.231   4.256   8.613 -0.1041  0.2087 -0.8775
18537SOL    HW157052   6.280   4.275   8.533 -0.3228  0.6058 -0.9216
18537SOL    HW257053   6.236   4.161   8.623  1.4905  0.3119 -0.3539
18538SOL     OW57054   3.749   3.021   3.292  0.0879  0.0135 -0.2799
18538SOL    HW157055   3.758   2.939   3.341  0.4877 -0.1191 -0.5763
18538SOL    HW257056   3.770   2.998   3.202  2.8399  0.9462  0.0220
18539SOL     OW57057   2.249   3.375   9.955 -0.1839  0.0265 -0.4508
18539SOL    HW157058   2.222   3.313  10.023 -0.3111 -0.8748 -1.2991
18539SOL    HW257059   2.343   3.359   9.944 -0.1102  0.3522 -0.3184
18540SOL     OW57060   6.999   6.958  11.328 -0.2378  0.4029 -0.1259
18540SOL    HW157061   7.021   6.959  11.421  0.3455  2.2670 -0.2543
18540SOL    HW257062   7.078   6.924  11.286  0.2034  1.3227 -0.0720
18541SOL     OW57063   5.616   2.320   5.907  0.2622 -0.3096  0.0458
18541SOL    HW157064   5.685   2.350   5.848 -0.4425 -0.2179 -0.7516
18541SOL    HW257065   5.536   2.363   5.875 -0.2377 -0.7369  0.6871
18542SOL     OW57066   5.507   4.367   5.188  0.0946  0.3846 -0.7475
18542SOL    HW157067   5.494   4.437   5.252  0.2653 -0.4775  0.2534
18542SOL    HW257068   5.518   4.413   5.104 -1.8419  1.4749 -0.4734
18543SOL     OW57069   3.120   5.194  11.925 -0.3151 -0.1225 -1.1819
18543SOL    HW157070   3.193   5.246  11.890  2.3983 -2.0653  1.0775
18543SOL    HW257071   3.139   5.105  11.896 -1.7013 -0.7302 -0.3312
18544SOL     OW57072   2.574   7.810   7.929 -0.6133  0.0811  0.5611
18544SOL    HW157073   2.560   7.896   7.968  1.8757  1.0762 -0.5842
18544SOL    HW257074   2.548   7.821   7.838  2.0664  0.4473 -0.2414
18545SOL     OW57075   1.767   0.504   8.157 -0.3917  0.2965 -0.0336
18545SOL    HW157076   1.844   0.550   8.191 -0.9584  0.4706  1.0522
18545SOL    HW257077   1.802   0.442   8.093  0.5753  0.8557 -0.0685
18546SOL     OW57078   6.106   4.185   7.096  0.4210 -0.4062  0.3744
18546SOL    HW157079   6.087   4.214   7.186 -1.8370 -0.7457  0.0622
18546SOL    HW257080   6.180   4.239   7.069  1.6594 -0.8170  2.6751
18547SOL     OW57081   2.695   1.639   1.751  0.5070  0.0695  0.5234
18547SOL    HW157082   2.756   1.565   1.753  1.7278  1.0423  0.6312
18547SOL    HW257083   2.608   1.599   1.754  1.0886 -1.4318 -0.9196
18548SOL     OW57084   4.806   4.166   5.011  0.1478  0.2848  0.2472
18548SOL    HW157085   4.892   4.177   5.052  0.7380  2.1453 -1.3369
18548SOL    HW257086   4.744   4.201   5.074  0.5999 -0.4908  1.1451
18549SOL     OW57087   1.406   4.518  11.456  0.1331  0.4873  0.4043
18549SOL    HW157088   1.452   4.524  11.539  1.7099  0.8412 -0.4529
18549SOL    HW257089   1.476   4.508  11.391 -1.1138 -1.4355 -0.7330
18550SOL     OW57090   4.229   2.607   6.228 -0.4103  0.2203  0.1061
18550SOL    HW157091   4.148   2.563   6.200 -0.4514 -0.1201  0.7297
18550SOL    HW257092   4.299   2.556   6.189 -0.2981 -2.4219  3.3113
18551SOL     OW57093   1.275   6.741  11.124 -0.8974 -0.3547 -0.3656
18551SOL    HW157094   1.211   6.678  11.156 -0.0387 -0.6827  0.8094
18551SOL    HW257095   1.274   6.731  11.029 -1.9863 -0.9260 -0.3060
18552SOL     OW57096   2.856   4.869   8.523 -0.4352  0.3535 -0.7088
18552SOL    HW157097   2.769   4.830   8.519 -0.7863  1.1289 -0.7641
18552SOL    HW257098   2.916   4.795   8.510 -1.1166  0.0478 -2.4552
18553SOL     OW57099   7.413   5.941   4.962  0.3443  0.6230  0.2257
18553SOL    HW157100   7.460   5.990   5.029 -0.0932 -0.1825  1.1398
18553SOL    HW257101   7.472   5.940   4.887  1.2365  0.7216  0.9115
18554SOL     OW57102   4.183   3.434  11.357 -0.1282  0.2170  0.2974
18554SOL    HW157103   4.110   3.426  11.418 -0.8414 -1.3227 -0.6787
18554SOL    HW257104   4.226   3.348  11.360  1.0226  0.7669  0.0914
18555SOL     OW57105   3.669   2.721   0.344 -0.0984  0.3872  0.4452
18555SOL    HW157106   3.730   2.767   0.402 -0.1961  0.8396  0.1863
18555SOL    HW257107   3.607   2.787   0.316  0.2041  0.2749 -0.5325
18556SOL     OW57108   3.006   7.594   2.094 -0.5767 -0.3352 -0.3373
18556SOL    HW157109   3.090   7.557   2.067 -0.4554 -0.2590 -0.0751
18556SOL    HW257110   2.988   7.663   2.030  0.7355  1.2766  0.9319
18557SOL     OW57111   4.010   4.190   2.012  0.2928  0.4834 -0.7389
18557SOL    HW157112   4.067   4.200   2.089 -0.2024 -2.7693  0.2182
18557SOL    HW257113   3.924   4.168   2.048  0.1662 -1.6386 -2.1560
18558SOL     OW57114   5.988   0.933   1.897  0.5787 -0.1261  0.2789
18558SOL    HW157115   6.054   0.912   1.964  0.8246  0.3893  0.1990
18558SOL    HW257116   5.905   0.902   1.935  0.7131  0.1772  0.8307
18559SOL     OW57117   6.375   1.197  11.222  0.1254 -0.5708 -0.2055
18559SOL    HW157118   6.315   1.244  11.280  0.4075 -0.6467  0.1525
18559SOL    HW257119   6.414   1.129  11.278  0.8635 -0.2456 -0.3182
18560SOL     OW57120   6.072   2.898   8.000 -0.9478 -0.1840 -0.2959
18560SOL    HW157121   6.146   2.865   7.949  0.3428  1.8405  0.1565
18560SOL    HW257122   6.019   2.947   7.937 -0.7690  0.1113 -0.2193
18561SOL     OW57123   5.500   6.279   7.708  0.1947 -0.1665 -0.5464
18561SOL    HW157124   5.543   6.194   7.718  0.6896  0.2382  1.0475
18561SOL    HW257125   5.417   6.259   7.665  0.0078 -1.5613  0.4054
18562SOL     OW57126   7.719   1.659  12.163  0.1293 -0.0351 -0.0801
18562SOL    HW157127   7.761   1.745  12.160  0.0631 -0.0105 -0.3268
18562SOL    HW257128   7.644   1.671  12.222  1.3299 -0.4690  1.5907
18563SOL     OW57129   1.750   2.234   7.736  0.2018  0.1027  0.2328
18563SOL    HW157130   1.743   2.188   7.652 -0.2325  0.2199  0.1994
18563SOL    HW257131   1.670   2.286   7.740 -1.4140 -2.2987  2.1658
18564SOL     OW57132   5.660   0.513   1.598 -0.0475  0.1598 -0.1830
18564SOL    HW157133   5.747   0.473   1.601  0.3528  1.0413  0.5326
18564SOL    HW257134   5.603   0.448   1.639 -0.2127 -1.4741 -2.7860
18565SOL     OW57135   1.642   7.896   5.227 -0.1377 -0.3495  0.0171
18565SOL    HW157136   1.565   7.949   5.246 -1.2805 -0.9591 -2.5334
18565SOL    HW257137   1.678   7.933   5.147  0.2028 -2.1448 -0.7133
18566SOL     OW57138   4.765   0.916   1.314 -0.0709 -0.1156 -0.3494
18566SOL    HW157139   4.736   0.864   1.239 -0.6658  0.4902 -0.5542
18566SOL    HW257140   4.695   0.906   1.379  0.5015 -0.7419  0.1820
18567SOL     OW57141   6.569   2.060   5.389 -0.2106  0.3005 -0.1426
18567SOL    HW157142   6.653   2.067   5.344  0.6386  0.2442  1.3400
18567SOL    HW257143   6.543   2.151   5.407  0.2948  0.2913  0.6932
18568SOL     OW57144   4.235   0.327  11.375 -0.1631 -0.4686 -0.2893
18568SOL    HW157145   4.199   0.242  11.400 -1.3869  0.4361  1.2548
18568SOL    HW257146   4.198   0.388  11.439  0.6669  1.2341 -1.3587
18569SOL     OW57147   3.564   6.767  10.706 -0.0948 -0.7332 -0.1681
18569SOL    HW157148   3.512   6.842  10.734  0.4388 -0.4104 -0.0343
18569SOL    HW257149   3.634   6.804  10.653  0.4853 -1.0749  0.3433
18570SOL     OW57150   6.644   6.164   3.792  0.0448  0.8442 -0.2471
18570SOL    HW157151   6.600   6.098   3.739  0.1676  0.9034 -0.4243
18570SOL    HW257152   6.722   6.188   3.741  0.6751  0.2125  0.3886
18571SOL     OW57153   2.627   5.483   4.385  0.0957 -0.1197  0.5418
18571SOL    HW157154   2.652   5.567   4.346 -1.6027 -0.4990 -1.5406
18571SOL    HW257155   2.710   5.443   4.411  0.9990  1.8010  0.8241
18572SOL     OW57156   6.787   2.734   0.343 -0.6218  0.4833 -0.1047
18572SOL    HW157157   6.716   2.669   0.348  1.6679 -2.2569 -0.5119
18572SOL    HW257158   6.835   2.723   0.425  1.0171  0.1148 -1.0771
18573SOL     OW57159   0.052   2.183   9.003  0.2516 -0.0304  0.0260
18573SOL    HW157160   0.063   2.264   9.053 -1.4715 -0.5813  1.4106
18573SOL    HW257161   0.004   2.209   8.925 -0.3544  0.2984  0.4990
18574SOL     OW57162   4.429   5.005   6.452  0.1386  0.7484 -0.3976
18574SOL    HW157163   4.432   5.098   6.474  2.8270  0.2397  1.9672
18574SOL    HW257164   4.451   5.002   6.359  1.3826  2.4516 -0.2217
18575SOL     OW57165   0.823   4.830   3.197 -0.0462  0.1096 -0.1820
18575SOL    HW157166   0.838   4.772   3.122 -0.0528  0.8812 -0.7816
18575SOL    HW257167   0.899   4.816   3.253 -0.0593 -0.5027 -0.2999
18576SOL     OW57168   3.658   5.874   1.646 -0.2088  0.2756  0.1250
18576SOL    HW157169   3.733   5.874   1.706  0.2692 -0.9079 -0.4279
18576SOL    HW257170   3.609   5.952   1.669  0.1950  0.0930  1.7707
18577SOL     OW57171   7.539   0.941   3.164 -0.3957  0.4830  0.4468
18577SOL    HW157172   7.554   1.006   3.096  2.0818 -1.2886 -0.8662
18577SOL    HW257173   7.622   0.934   3.210 -0.7649 -1.2732  0.9372
18578SOL     OW57174   5.091   7.294   0.355 -0.2814  0.0702 -0.0630
18578SOL    HW157175   5.059   7.330   0.273  0.7157  1.9879  0.3061
18578SOL    HW257176   5.105   7.371   0.411  1.3313 -0.9591  1.0527
18579SOL     OW57177   3.059   6.956   0.463 -0.6353 -0.1769  1.3761
18579SOL    HW157178   3.108   7.035   0.485 -1.3055  0.5158  0.4502
18579SOL    HW257179   3.106   6.886   0.509  1.1960  0.4638  0.6068
18580SOL     OW57180   6.844   1.537   2.126  0.5684  0.1395 -0.0879
18580SOL    HW157181   6.918   1.597   2.139  1.8480 -1.5535  0.8730
18580SOL    HW257182   6.859   1.467   2.190 -0.8213 -1.2375 -1.2095
18581SOL     OW57183   7.575   1.046   7.828 -0.2488 -0.0409  0.1825
18581SOL    HW157184   7.498   0.999   7.859 -0.3082  0.1725  0.3632
18581SOL    HW257185   7.540   1.127   7.790 -0.1857 -0.3437 -0.5355
18582SOL     OW57186   3.292   1.564   3.956 -0.5563  0.2794 -0.4959
18582SOL    HW157187   3.264   1.506   3.884 -1.2884  1.3154 -1.0807
18582SOL    HW257188   3.214   1.573   4.010 -0.9003  1.8569 -1.2119
18583SOL     OW57189   5.305   4.285  10.046 -0.2955 -0.1381  0.5870
18583SOL    HW157190   5.339   4.362  10.091  1.2368 -0.8177  0.6445
18583SOL    HW257191   5.216   4.310  10.020  0.0036  1.4710  1.0061
18584SOL     OW57192   4.479   0.544  12.014  0.0700 -0.2129  0.0014
18584SOL    HW157193   4.535   0.535  11.937  0.0632 -1.0907  0.0812
18584SOL    HW257194   4.528   0.500  12.084 -1.1396 -1.9295 -0.1631
18585SOL     OW57195   5.236   7.328   6.749 -0.6915  0.5385  0.4212
18585SOL    HW157196   5.288   7.268   6.696 -0.0475 -0.6725  2.3206
18585SOL    HW257197   5.164   7.274   6.783  0.8692  0.2107  3.6118
18586SOL     OW57198   5.043   0.137   3.709  0.3794 -0.6894 -0.1195
18586SOL    HW157199   5.117   0.101   3.661  0.1002 -0.3250 -0.8386
18586SOL    HW257200   4.968   0.123   3.652  0.1880  0.5943 -0.2278
18587SOL     OW57201   4.855   0.685   7.110 -0.1658  0.0802 -0.1877
18587SOL    HW157202   4.928   0.722   7.161  1.2947 -0.6710 -1.6353
18587SOL    HW257203   4.847   0.743   7.034  1.4251 -1.8124 -1.9152
18588SOL     OW57204   6.433   1.897   0.784  0.6940  0.1327  0.0442
18588SOL    HW157205   6.470   1.935   0.863 -1.5109  0.8638  0.7950
18588SOL    HW257206   6.465   1.807   0.783  0.0225 -0.1835  2.3167
18589SOL     OW57207   6.592   2.271   9.264 -0.1290 -0.1793 -0.2752
18589SOL    HW157208   6.606   2.347   9.208  2.7561 -0.8262 -0.6304
18589SOL    HW257209   6.591   2.196   9.204 -1.3761 -0.5509  0.1942
18590SOL     OW57210   7.443   0.155   7.904 -0.1495 -0.1767 -0.0830
18590SOL    HW157211   7.464   0.086   7.966  0.9675  0.9920  0.8867
18590SOL    HW257212   7.450   0.113   7.818 -0.7762 -1.5717  0.5136
18591SOL     OW57213   3.817   6.900   4.094 -0.4635 -0.1030  0.4205
18591SOL    HW157214   3.849   6.812   4.073  0.7878  0.2834  0.5860
18591SOL    HW257215   3.823   6.947   4.010 -1.0109 -0.1411  0.3597
18592SOL     OW57216   7.794   1.416   6.293 -0.0739 -0.0653 -0.1875
18592SOL    HW157217   7.873   1.370   6.322 -0.5909 -0.3483  0.8099
18592SOL    HW257218   7.819   1.455   6.209  0.8076 -0.9878 -0.3763
18593SOL     OW57219   3.650   3.565   3.132 -0.1183  0.2853  0.6111
18593SOL    HW157220   3.713   3.612   3.078  0.7922 -0.9655  0.5614
18593SOL    HW257221   3.694   3.555   3.217 -0.8498  0.6981  1.0538
18594SOL     OW57222   1.636   6.234   9.603 -0.0838 -1.0154 -0.3804
18594SOL    HW157223   1.575   6.304   9.627  0.3210 -1.1241  1.0833
18594SOL    HW257224   1.580   6.158   9.587 -0.4232 -0.7525 -0.4631
18595SOL     OW57225   2.986   0.909   5.092  0.1275  0.5784 -0.4148
18595SOL    HW157226   3.004   0.849   5.164  1.7945  2.1591  0.5790
18595SOL    HW257227   2.955   0.853   5.021 -2.6224 -0.9637  1.7814
18596SOL     OW57228   4.696   1.577   5.240  0.5022  0.2986  0.0702
18596SOL    HW157229   4.669   1.486   5.257  0.0343  0.5382  0.6433
18596SOL    HW257230   4.780   1.585   5.284  1.0358 -0.1465 -0.8372
18597SOL     OW57231   7.675   6.259   7.809 -1.3196 -0.3915 -0.2103
18597SOL    HW157232   7.683   6.167   7.831 -2.0526 -0.1301  1.2262
18597SOL    HW257233   7.607   6.261   7.741  0.2933 -1.0971 -1.9473
18598SOL     OW57234   5.817   5.870   0.393 -0.1581 -0.1696  0.6253
18598SOL    HW157235   5.784   5.794   0.346  3.1939 -2.1612  1.2248
18598SOL    HW257236   5.826   5.938   0.325 -0.7470 -1.1222 -0.4425
18599SOL     OW57237   6.303   4.427  10.826  0.1411  0.2555  0.6633
18599SOL    HW157238   6.289   4.351  10.770 -0.9590  0.4962  0.5797
18599SOL    HW257239   6.354   4.394  10.900  0.7739 -0.2756 -0.0033
18600SOL     OW57240   6.601   7.678   7.607 -0.4997  0.1714  0.3615
18600SOL    HW157241   6.679   7.729   7.630  0.3131 -0.5097 -0.7812
18600SOL    HW257242   6.528   7.729   7.642  0.4398  0.8424  1.4322
18601SOL     OW57243   7.451   0.832   8.230 -0.0050 -0.3284  0.3538
18601SOL    HW157244   7.386   0.776   8.273 -0.3174 -0.5273 -0.3538
18601SOL    HW257245   7.444   0.916   8.275 -0.4872 -0.4644  0.5403
18602SOL     OW57246   2.409   3.629   9.112  0.0924 -0.5791 -0.4890
18602SOL    HW157247   2.459   3.700   9.074  0.5723 -1.9369 -2.5931
18602SOL    HW257248   2.454   3.608   9.194 -0.6688  2.1246  0.7111
18603SOL     OW57249   7.165   2.117   9.218 -0.3691  0.2410  0.1768
18603SOL    HW157250   7.090   2.076   9.174  0.2171  0.4913 -1.1027
18603SOL    HW257251   7.182   2.060   9.293  0.1240 -1.6329 -1.2702
18604SOL     OW57252   5.859   7.395   5.128  0.0459 -0.1128  0.3466
18604SOL    HW157253   5.796   7.407   5.057 -0.1025  0.3815  0.5559
18604SOL    HW257254   5.902   7.481   5.136 -0.6285  0.1390  1.5121
18605SOL     OW57255   6.238   2.698   4.958 -0.1090  0.3004 -0.5044
18605SOL    HW157256   6.173   2.757   4.997 -1.5852 -1.2933 -0.4449
18605SOL    HW257257   6.189   2.646   4.894  0.7164 -1.9706  0.5893
18606SOL     OW57258   4.197   0.052  11.418 -0.2959  1.0172  1.0523
18606SOL    HW157259   4.143  -0.023  11.441 -1.2084  0.7140 -1.7555
18606SOL    HW257260   4.287   0.021  11.427 -0.6579 -0.2770  0.4080
18607SOL     OW57261   3.477   2.964   9.507 -0.1782 -0.5474  0.3418
18607SOL    HW157262   3.437   3.003   9.585  1.2625 -1.6684  1.7187
18607SOL    HW257263   3.463   3.029   9.438 -2.0558  0.2138  1.3432
18608SOL     OW57264   7.774   5.038   0.008  0.0502 -0.1351  0.0709
18608SOL    HW157265   7.820   5.109   0.053  0.5378  0.0240 -0.6600
18608SOL    HW257266   7.823   4.959   0.031  0.3433 -0.0440 -0.2363
18609SOL     OW57267   2.335   5.381   6.306  0.1052 -0.3708 -0.0861
18609SOL    HW157268   2.333   5.469   6.344 -0.7410  0.2815 -1.5388
18609SOL    HW257269   2.423   5.349   6.324 -0.1267  0.0187  2.0505
18610SOL     OW57270   3.341   7.349   7.387  0.2735 -0.0471  0.0690
18610SOL    HW157271   3.359   7.427   7.440 -2.7250  1.2150 -0.6046
18610SOL    HW257272   3.338   7.277   7.451 -0.7165  1.0267  1.2836
18611SOL     OW57273   1.882   2.465   0.031  0.0787 -0.1716  0.0273
18611SOL    HW157274   1.964   2.496  -0.006 -0.0290 -0.4534 -0.4396
18611SOL    HW257275   1.839   2.417  -0.039  0.0164 -0.9807  0.6002
18612SOL     OW57276   5.631   3.403   6.270  0.4073 -0.0786 -0.5668
18612SOL    HW157277   5.545   3.362   6.265 -0.6255  1.8782  0.1773
18612SOL    HW257278   5.625   3.479   6.212  1.5296  0.2510 -0.2835
18613SOL     OW57279   6.823   3.797   4.655  0.8440 -0.1416  0.2630
18613SOL    HW157280   6.910   3.792   4.694  1.3441  1.0807 -0.6226
18613SOL    HW257281   6.828   3.871   4.595 -0.8417  0.0208  0.2664
18614SOL     OW57282   5.128   6.057   8.258 -0.5250  0.5800 -0.3030
18614SOL    HW157283   5.116   6.031   8.167 -0.4805 -0.6872  0.0340
18614SOL    HW257284   5.099   5.981   8.308  1.9848  0.1913  0.6979
18615SOL     OW57285   5.420   2.216   8.986 -0.0720 -0.1508 -0.2498
18615SOL    HW157286   5.497   2.232   9.041 -0.8646  0.7498  0.6329
18615SOL    HW257287   5.375   2.300   8.982 -0.3752 -0.3560 -1.7872
18616SOL     OW57288   1.254   2.010   8.912 -0.3902  0.3627 -0.2986
18616SOL    HW157289   1.242   1.951   8.838 -0.1396 -0.0332 -0.0286
18616SOL    HW257290   1.183   1.988   8.972 -0.1601  0.1677 -0.0938
18617SOL     OW57291   6.225   6.785   7.951  0.3004 -0.1820  0.1305
18617SOL    HW157292   6.243   6.780   7.857  1.6068  0.8539  0.2956
18617SOL    HW257293   6.218   6.878   7.969  0.1332 -0.3685  1.0832
18618SOL     OW57294   7.736   7.305   9.976 -0.1320  0.4308 -0.2127
18618SOL    HW157295   7.688   7.387   9.960 -1.8975 -0.6356 -0.6401
18618SOL    HW257296   7.675   7.236   9.950  1.4170 -1.0350 -0.1198
18619SOL     OW57297   5.784   1.813  11.300 -0.4786  0.1166 -0.2683
18619SOL    HW157298   5.772   1.718  11.310  0.1386  0.1410  0.9036
18619SOL    HW257299   5.872   1.822  11.263 -0.2158  0.2463  0.3748
18620SOL     OW57300   1.783   1.230   3.903 -0.7504  0.0336 -0.3387
18620SOL    HW157301   1.732   1.207   3.981 -0.6219  1.1243  0.0816
18620SOL    HW257302   1.828   1.311   3.927  0.2680 -0.2735 -1.1159
18621SOL     OW57303   6.788   4.385   1.264 -0.5352 -0.0324 -0.0168
18621SOL    HW157304   6.738   4.306   1.282 -1.3360  0.5538  0.4019
18621SOL    HW257305   6.867   4.354   1.220 -0.9515 -1.0369 -0.0861
18622SOL     OW57306   3.905   3.962   3.823  0.7311 -0.3418 -0.0351
18622SOL    HW157307   3.998   3.938   3.821  1.2288  1.4969 -0.6849
18622SOL    HW257308   3.870   3.926   3.742  0.8644 -1.0569  0.2182
18623SOL     OW57309   5.542   7.064   0.764  0.5311 -0.0994  0.7605
18623SOL    HW157310   5.599   7.026   0.697  0.0946  0.6200 -0.0423
18623SOL    HW257311   5.455   7.031   0.743  0.0849  1.5719 -0.1693
18624SOL     OW57312   4.745   2.067   7.966  0.5011 -0.2787  0.6457
18624SOL    HW157313   4.808   2.065   7.893 -0.6119 -0.5822 -0.3306
18624SOL    HW257314   4.789   2.117   8.034  0.8959  1.5327 -0.8819
18625SOL     OW57315   0.272   3.215   0.658  0.4433 -0.7199  0.2816
18625SOL    HW157316   0.221   3.288   0.623  1.7091 -0.5761 -1.4274
18625SOL    HW257317   0.207   3.150   0.684 -0.6808  0.6764  1.0837
18626SOL     OW57318   1.572   2.991   1.719 -0.1489  0.0488  0.1409
18626SOL    HW157319   1.524   2.913   1.691 -1.0338  0.5280  0.2763
18626SOL    HW257320   1.632   3.009   1.647  0.2091 -0.8651  0.1957
18627SOL     OW57321   1.113   5.427   6.854  0.4704 -0.3017 -0.4765
18627SOL    HW157322   1.113   5.373   6.775  2.1553 -0.0067 -0.7074
18627SOL    HW257323   1.075   5.510   6.828  0.6510 -0.3477 -0.8863
18628SOL     OW57324   1.601   2.370  10.161  0.1282  0.2682  0.4699
18628SOL    HW157325   1.672   2.404  10.107 -0.1072  1.3035  0.7749
18628SOL    HW257326   1.521   2.404  10.120 -0.1854 -0.7090  0.2495
18629SOL     OW57327   4.222   0.493   6.147 -0.2546  0.1176 -0.0525
18629SOL    HW157328   4.128   0.493   6.164 -0.6399  0.2927 -1.8765
18629SOL    HW257329   4.237   0.415   6.093  0.5001  0.4829 -0.3927
18630SOL     OW57330   4.075   4.278   4.619  0.0550  0.5552 -0.2960
18630SOL    HW157331   4.127   4.311   4.545 -0.1943  2.0328  0.1592
18630SOL    HW257332   4.140   4.249   4.683  0.2951  1.1930 -0.2522
18631SOL     OW57333   5.881   3.194   8.759 -0.3756  0.1534 -0.3795
18631SOL    HW157334   5.907   3.135   8.689 -2.3749 -1.4539  0.1238
18631SOL    HW257335   5.894   3.143   8.839  0.1220  1.2812  0.2692
18632SOL     OW57336   1.545   5.246   3.055  0.0593  0.3683  0.2232
18632SOL    HW157337   1.565   5.189   3.128  1.8389  0.7097  0.0328
18632SOL    HW257338   1.553   5.335   3.090 -1.2405  0.5322  0.1479
18633SOL     OW57339   3.651   7.623   9.760  0.3555  0.0945  0.5919
18633SOL    HW157340   3.567   7.625   9.806  0.5894  0.1088  1.0149
18633SOL    HW257341   3.673   7.715   9.747 -0.9516  0.1637 -1.8343
18634SOL     OW57342   4.819   3.947   0.318 -0.2861  0.4338  0.1503
18634SOL    HW157343   4.819   4.010   0.390  1.9033  2.0034 -1.0989
18634SOL    HW257344   4.772   3.992   0.247 -0.0633  0.0249 -0.2622
18635SOL     OW57345   1.479   6.212  11.170  0.3142  0.5525 -0.5785
18635SOL    HW157346   1.467   6.293  11.219 -0.0464  0.0614  0.1652
18635SOL    HW257347   1.537   6.236  11.097  0.4310  1.4101 -0.2142
18636SOL     OW57348   5.898   3.597   4.917 -0.7427  0.6523  0.2730
18636SOL    HW157349   5.875   3.572   5.007  3.6736 -1.5051  1.0750
18636SOL    HW257350   5.935   3.685   4.926 -1.0806  0.7807  0.4246
18637SOL     OW57351   0.436   0.660   4.381 -0.4345  0.7024  0.1253
18637SOL    HW157352   0.371   0.655   4.312  0.0608  0.7658 -0.3554
18637SOL    HW257353   0.409   0.734   4.435 -1.0580  0.3883  0.2443
18638SOL     OW57354   6.192   6.340   9.718 -0.1009 -0.0167  0.5364
18638SOL    HW157355   6.135   6.302   9.651  0.2785  0.9319 -0.3586
18638SOL    HW257356   6.251   6.270   9.743 -1.0509 -0.7441  0.7884
18639SOL     OW57357   2.683   2.792   8.819 -0.1536 -0.2006 -0.1137
18639SOL    HW157358   2.768   2.772   8.782 -0.3513 -0.3514 -0.4945
18639SOL    HW257359   2.702   2.835   8.903  0.3407  1.4986 -1.0443
18640SOL     OW57360   4.868   4.662   6.326  0.3952  0.3488 -0.6179
18640SOL    HW157361   4.789   4.609   6.338  1.6023 -1.3426  0.3998
18640SOL    HW257362   4.837   4.741   6.282 -1.9643  0.0538  0.3293
18641SOL     OW57363   0.391   0.655   3.113 -0.2494 -0.0566 -0.1438
18641SOL    HW157364   0.368   0.746   3.096 -0.1657 -0.1150 -0.5706
18641SOL    HW257365   0.428   0.623   3.031 -0.7240 -0.6152 -0.1500
18642SOL     OW57366   7.416   3.825   2.371  0.1437 -0.0556  0.3708
18642SOL    HW157367   7.380   3.738   2.387 -0.1918 -0.3945 -1.8690
18642SOL    HW257368   7.403   3.872   2.453 -3.2399 -0.9091  0.4881
18643SOL     OW57369   1.775   5.487   1.696 -0.1301 -0.8175 -0.1781
18643SOL    HW157370   1.842   5.515   1.634  0.9354  0.5044  1.4865
18643SOL    HW257371   1.800   5.397   1.718 -0.0368 -1.0036 -0.9985
18644SOL     OW57372   6.190   4.179   4.033  0.3322  0.0704  0.1945
18644SOL    HW157373   6.166   4.207   3.945  0.3619 -2.7220 -0.7739
18644SOL    HW257374   6.106   4.174   4.080  0.0832 -0.3974 -0.2953
18645SOL     OW57375   6.231   7.879   5.079 -0.0159 -0.4134 -0.3837
18645SOL    HW157376   6.273   7.793   5.084 -0.3808 -0.5333  0.7644
18645SOL    HW257377   6.266   7.927   5.154 -0.1241  0.3084 -0.7862
18646SOL     OW57378   3.303   3.767   4.514  0.1078 -0.6346 -0.2191
18646SOL    HW157379   3.382   3.766   4.568  0.0401 -2.3315 -0.0819
18646SOL    HW257380   3.250   3.838   4.551  1.6647  0.7378 -0.5112
18647SOL     OW57381   0.230   7.880  11.638  0.4797  0.1255  0.6803
18647SOL    HW157382   0.196   7.837  11.716 -1.0321  1.4429  0.7775
18647SOL    HW257383   0.199   7.826  11.565 -1.2077  0.8528  0.8156
18648SOL     OW57384   2.011   2.137   7.117  0.0596 -0.1151 -0.3878
18648SOL    HW157385   2.071   2.210   7.104 -1.8503  1.6994  0.3842
18648SOL    HW257386   1.927   2.170   7.086 -1.2751 -1.2752  1.7413
18649SOL     OW57387   7.641   1.724   2.375 -0.3951 -0.3315  0.3305
18649SOL    HW157388   7.666   1.714   2.283  1.9117  2.2698  0.5594
18649SOL    HW257389   7.716   1.690   2.424 -0.6152  0.3790  1.1894
18650SOL     OW57390   0.732   4.828   8.335  0.3038  0.1063 -0.4997
18650SOL    HW157391   0.660   4.829   8.272 -1.0017 -0.5556  0.9163
18650SOL    HW257392   0.741   4.919   8.363  0.8346  0.3879 -1.5474
18651SOL     OW57393   0.566   6.177  11.781 -0.6011 -0.1743  0.3244
18651SOL    HW157394   0.509   6.105  11.807 -2.1519  0.5782 -0.8039
18651SOL    HW257395   0.609   6.205  11.861  1.2446 -3.2901  0.5834
18652SOL     OW57396   1.052   1.840  10.634 -0.4969  0.4957  0.3808
18652SOL    HW157397   1.040   1.749  10.607 -1.1367  0.8954 -0.7518
18652SOL    HW257398   0.977   1.857  10.691  0.0994  0.0693  1.3228
18653SOL     OW57399   3.976   7.384   6.986  0.0248 -0.0604 -0.0813
18653SOL    HW157400   3.934   7.468   6.972  0.6148  0.0848 -1.0664
18653SOL    HW257401   3.922   7.341   7.053 -0.0373  1.2527  0.7448
18654SOL     OW57402   6.496   7.852   3.896  0.0457  0.3652  0.2387
18654SOL    HW157403   6.494   7.893   3.982  1.5353  2.8271 -0.7858
18654SOL    HW257404   6.589   7.849   3.873  0.2100 -4.5218  0.4982
18655SOL     OW57405   6.729   5.101   0.236  0.4078  0.6859 -0.7095
18655SOL    HW157406   6.806   5.043   0.240  0.5578  0.9434  1.2955
18655SOL    HW257407   6.654   5.042   0.233  0.6205  0.4100 -0.6268
18656SOL     OW57408   2.231   1.199   3.056  0.1388 -0.0278  0.1736
18656SOL    HW157409   2.252   1.110   3.084  1.1434 -0.0164 -0.5238
18656SOL    HW257410   2.183   1.188   2.974  2.6111  0.1246 -1.3723
18657SOL     OW57411   4.179   2.553   0.703 -0.1498  0.6024 -0.0287
18657SOL    HW157412   4.111   2.609   0.738  0.6130  0.5529  1.6010
18657SOL    HW257413   4.163   2.551   0.608 -2.0465  1.0233  0.2608
18658SOL     OW57414   3.212   1.937   0.598  0.0689  0.5396 -0.0952
18658SOL    HW157415   3.226   1.888   0.517  1.6276  0.2716  0.3104
18658SOL    HW257416   3.169   1.875   0.657 -3.3896  1.4306 -1.4208
18659SOL     OW57417   5.182   3.480   2.333  0.2447 -0.1566 -0.0092
18659SOL    HW157418   5.208   3.452   2.245 -1.5328  0.2749 -0.7113
18659SOL    HW257419   5.136   3.563   2.319 -1.6725 -0.9795  1.1141
18660SOL     OW57420   7.786   1.066   1.653  0.6368  0.3741 -0.0328
18660SOL    HW157421   7.744   1.001   1.598 -0.1231  0.3963  0.5083
18660SOL    HW257422   7.721   1.136   1.662  0.7941  0.4304  0.7775
18661SOL     OW57423   2.504   0.932   2.904 -0.2999  0.2534  0.2355
18661SOL    HW157424   2.556   1.011   2.915  1.8406 -1.4261  4.0803
18661SOL    HW257425   2.433   0.940   2.968 -0.5158 -0.6087  0.1214
18662SOL     OW57426   5.021   1.611   6.347  0.1115  0.2132  0.4649
18662SOL    HW157427   5.058   1.535   6.301 -0.8386  0.9170 -1.5731
18662SOL    HW257428   5.093   1.674   6.350 -0.2417  0.7584 -1.5409
18663SOL     OW57429   7.170   6.955   1.638  0.0428 -0.0695  0.2557
18663SOL    HW157430   7.114   7.005   1.578  0.2435  1.8841  1.5967
18663SOL    HW257431   7.114   6.936   1.713  0.2796 -0.9857  0.2127
18664SOL     OW57432   1.286   3.139   8.201  0.2639  0.2333  0.1245
18664SOL    HW157433   1.200   3.152   8.162  1.0924  2.8925 -1.0419
18664SOL    HW257434   1.329   3.077   8.142  0.2407  1.4390 -1.2307
18665SOL     OW57435   2.894   4.255   3.268 -0.1001  0.2238  0.2180
18665SOL    HW157436   2.814   4.212   3.236 -0.7190  1.0707  0.5999
18665SOL    HW257437   2.949   4.183   3.300 -0.9020 -0.3296  0.3728
18666SOL     OW57438   3.027   5.172  10.316 -0.1716  0.0865 -0.1613
18666SOL    HW157439   3.101   5.189  10.259  0.0756 -0.4093  0.0096
18666SOL    HW257440   3.059   5.193  10.404 -0.5802  0.9455 -0.1982
18667SOL     OW57441   0.333   7.733   1.862 -0.2917 -0.3039  0.0258
18667SOL    HW157442   0.376   7.812   1.896  0.7702 -0.1483 -1.5457
18667SOL    HW257443   0.242   7.760   1.847  0.1599  0.7890 -0.9106
18668SOL     OW57444   7.915   4.563   8.756  0.0471  0.2310  0.1505
18668SOL    HW157445   7.892   4.532   8.843  2.2313 -1.0093  0.3700
18668SOL    HW257446   7.858   4.514   8.696 -0.7035  0.2843  0.8117
18669SOL     OW57447   1.960   4.058   5.211 -0.0069  0.2521  0.2263
18669SOL    HW157448   1.923   4.132   5.162  0.4661  1.1383  1.1795
18669SOL    HW257449   1.905   3.983   5.186 -1.4882  1.2233  0.4482
18670SOL     OW57450   0.302   5.855   8.540  0.1009 -0.6032 -0.0251
18670SOL    HW157451   0.309   5.782   8.478 -1.0041 -1.3245  0.6677
18670SOL    HW257452   0.389   5.895   8.539  0.7111 -1.8697 -0.4896
18671SOL     OW57453   0.869   4.327   1.610  0.0435  0.2752  0.0912
18671SOL    HW157454   0.951   4.355   1.569  0.1029 -2.7541 -2.1588
18671SOL    HW257455   0.800   4.366   1.557 -0.0117  1.4054  0.9493
18672SOL     OW57456   0.146   4.509   8.454  0.2297 -0.4843  0.1477
18672SOL    HW157457   0.142   4.452   8.531  0.2615 -0.8275 -0.0991
18672SOL    HW257458   0.055   4.512   8.422  0.5548 -2.2201 -1.1270
18673SOL     OW57459   2.781   3.672   6.731 -0.0495 -0.1955 -0.7805
18673SOL    HW157460   2.841   3.628   6.671 -0.1364  0.4333 -1.3470
18673SOL    HW257461   2.695   3.640   6.708 -0.0458 -0.2290 -0.7475
18674SOL     OW57462   4.337   4.663   3.164  0.0853 -0.3002 -0.3855
18674SOL    HW157463   4.269   4.643   3.229  1.1040  0.4528  0.9561
18674SOL    HW257464   4.294   4.722   3.102 -0.1876  1.1765  1.1392
18675SOL     OW57465   1.917   7.697  12.040 -0.3047 -0.3037  0.1579
18675SOL    HW157466   1.982   7.719  11.974 -0.2944  0.5004  0.4212
18675SOL    HW257467   1.833   7.715  11.998 -0.3964 -1.7818 -0.3426
18676SOL     OW57468   3.434   6.490   6.770  0.0683  0.5831  0.4486
18676SOL    HW157469   3.396   6.478   6.683  1.2766  1.1921 -0.1993
18676SOL    HW257470   3.390   6.567   6.805 -0.4413  0.3235  0.3849
18677SOL     OW57471   4.918   5.086   3.276 -0.9496 -0.0682  0.3753
18677SOL    HW157472   4.948   5.173   3.304  1.1056 -0.5712 -0.0434
18677SOL    HW257473   4.864   5.055   3.347 -1.2886  1.3365  0.7715
18678SOL     OW57474   3.237   5.223  10.113 -0.3496  0.1863  0.0131
18678SOL    HW157475   3.275   5.191  10.031 -0.0376  0.8664 -0.1142
18678SOL    HW257476   3.311   5.256  10.163 -0.6526  0.7334  0.1208
18679SOL     OW57477   4.819   6.076  11.635  0.1467  0.2209 -0.3359
18679SOL    HW157478   4.842   6.106  11.723 -1.5246  1.9950 -0.4466
18679SOL    HW257479   4.724   6.069  11.636  0.1872 -0.8461 -1.6816
18680SOL     OW57480   0.364   4.015   0.177  0.0730  0.4110  0.3300
18680SOL    HW157481   0.329   4.063   0.252 -1.8269  1.3326 -1.0602
18680SOL    HW257482   0.371   3.924   0.208 -2.6897  0.3447  1.0601
18681SOL     OW57483   3.435   1.469   9.200  0.6259  0.0642  0.8566
18681SOL    HW157484   3.435   1.414   9.278 -0.5052  0.4787  1.1692
18681SOL    HW257485   3.417   1.557   9.233  1.5519  0.4883  0.2730
18682SOL     OW57486   6.490   2.867   1.692 -0.7687  0.1430 -0.2290
18682SOL    HW157487   6.503   2.776   1.717  0.5696  0.3408 -0.1061
18682SOL    HW257488   6.571   2.911   1.719 -0.8298  1.0982 -1.4816
18683SOL     OW57489   5.790   0.640   7.682  0.0163  0.4419  0.6050
18683SOL    HW157490   5.733   0.717   7.687 -0.5162  0.1409 -0.5160
18683SOL    HW257491   5.871   0.672   7.644 -0.2989  0.4095 -0.1068
18684SOL     OW57492   1.903   7.183   6.341  0.0376 -0.0413 -0.3115
18684SOL    HW157493   1.867   7.106   6.298 -0.7460  0.3888 -0.4530
18684SOL    HW257494   1.848   7.255   6.310 -0.1727  0.3644  0.9525
18685SOL     OW57495   2.054   4.770   8.094 -0.0088 -0.2210 -0.7061
18685SOL    HW157496   2.063   4.700   8.158 -2.6906  0.3228  0.4024
18685SOL    HW257497   2.119   4.835   8.121 -0.6839 -0.2602  1.1615
18686SOL     OW57498   2.893   6.713  10.446  0.7277  0.3752 -0.4592
18686SOL    HW157499   2.820   6.714  10.384  0.3934  0.5608 -0.0711
18686SOL    HW257500   2.872   6.784  10.508  0.7403 -0.2039  0.2241
18687SOL     OW57501   2.338   4.693   2.936  0.0910 -0.2580 -0.1839
18687SOL    HW157502   2.371   4.776   2.901  0.5191 -0.2600  0.2073
18687SOL    HW257503   2.412   4.656   2.983  0.0075 -1.0446 -0.6673
18688SOL     OW57504   1.676   7.917  11.126  0.0966  0.2753  0.1999
18688SOL    HW157505   1.698   7.827  11.104  1.6300  0.4740  0.8256
18688SOL    HW257506   1.604   7.940  11.067  0.3572 -1.0236 -0.6485
18689SOL     OW57507   5.361   4.341   7.713  0.3146 -0.2880 -0.1614
18689SOL    HW157508   5.429   4.400   7.745  2.1161 -2.8191  1.0493
18689SOL    HW257509   5.313   4.316   7.792  0.7856 -1.8384 -0.3469
18690SOL     OW57510   7.050   4.037   2.493  0.0456  0.0308  0.2428
18690SOL    HW157511   6.971   4.053   2.441  0.3114  1.2185  0.1733
18690SOL    HW257512   7.054   3.942   2.503 -1.4181 -0.0410  0.2975
18691SOL     OW57513   6.236   2.350   2.977 -0.5983 -0.4838 -0.6898
18691SOL    HW157514   6.186   2.376   2.900 -0.6408 -0.2539 -0.5834
18691SOL    HW257515   6.173   2.355   3.049 -0.5402 -0.6285 -0.6284
18692SOL     OW57516   7.485   7.926   2.052  0.4659  0.5815 -0.3392
18692SOL    HW157517   7.424   7.910   1.980  0.9599  0.6264 -0.7762
18692SOL    HW257518   7.430   7.954   2.125 -0.3582 -1.9131  0.1205
18693SOL     OW57519   2.349   3.278   5.879 -0.3890 -0.2184 -0.1247
18693SOL    HW157520   2.334   3.213   5.811 -0.6083 -0.9780  0.6309
18693SOL    HW257521   2.419   3.333   5.845 -1.8680  0.7079 -1.8528
18694SOL     OW57522   4.468   3.518  10.720 -0.6071 -0.3020  0.2310
18694SOL    HW157523   4.436   3.570  10.646 -0.1412 -1.1080 -0.5630
18694SOL    HW257524   4.503   3.439  10.680 -0.6190 -0.8976  1.3510
18695SOL     OW57525   3.642   6.479   9.472 -0.2343 -0.5566  0.1597
18695SOL    HW157526   3.715   6.541   9.476  0.6735 -1.5202 -0.8214
18695SOL    HW257527   3.656   6.420   9.546  0.0251 -0.7737 -0.0599
18696SOL     OW57528   4.498   5.845   8.727  0.5372 -0.2038 -0.0135
18696SOL    HW157529   4.510   5.907   8.655 -0.8082 -0.7078 -0.7252
18696SOL    HW257530   4.408   5.814   8.716  1.0174 -1.9119  0.6068
18697SOL     OW57531   4.414   6.309   2.970  0.4209 -0.1200 -0.4074
18697SOL    HW157532   4.411   6.327   3.064  0.2265  1.7564 -0.7343
18697SOL    HW257533   4.326   6.277   2.948 -0.1181  1.2065 -0.2521
18698SOL     OW57534   0.999   5.087  11.605  0.1125 -0.2428 -0.3127
18698SOL    HW157535   0.996   5.012  11.546 -0.4607 -0.1432 -0.4172
18698SOL    HW257536   0.992   5.164  11.548  0.0511 -0.1313 -0.1579
18699SOL     OW57537   1.164   7.821   1.356  0.0657  0.2532  0.0746
18699SOL    HW157538   1.191   7.899   1.404 -1.2509  0.6589  0.1675
18699SOL    HW257539   1.202   7.748   1.406 -0.6913  0.7074  1.3530
18700SOL     OW57540   4.135   0.450   6.697 -0.2302 -0.5847  0.7249
18700SOL    HW157541   4.126   0.437   6.603  0.8287 -0.1765  0.5442
18700SOL    HW257542   4.089   0.532   6.715 -0.3256 -0.5989  0.5418
18701SOL     OW57543   1.340   6.537   0.011  0.3508  0.4399  0.0306
18701SOL    HW157544   1.370   6.514   0.099  1.1080  0.1096 -0.3072
18701SOL    HW257545   1.413   6.515  -0.046 -0.9176 -1.4033 -0.9736
18702SOL     OW57546   2.701   7.846   9.680 -0.7343 -0.5551 -0.0638
18702SOL    HW157547   2.671   7.893   9.758  0.1184 -0.1397  0.0268
18702SOL    HW257548   2.792   7.874   9.669 -0.1299 -2.3292  0.1004
18703SOL     OW57549   2.402   7.319   9.832  1.1227  0.6797  0.1691
18703SOL    HW157550   2.382   7.412   9.841 -2.1397  0.1587 -0.5502
18703SOL    HW257551   2.409   7.286   9.922 -1.1183  1.0349  0.5128
18704SOL     OW57552   2.357   7.708   6.029  0.5570  0.0572  0.1144
18704SOL    HW157553   2.338   7.619   6.000 -2.0749  0.7304 -0.5096
18704SOL    HW257554   2.298   7.763   5.978 -1.3345  1.7303  3.6906
18705SOL     OW57555   5.202   4.436   7.493 -0.3439 -0.1139  0.5996
18705SOL    HW157556   5.258   4.412   7.567  0.7600  1.9116  0.4897
18705SOL    HW257557   5.126   4.480   7.534 -0.4828 -0.3559  0.6030
18706SOL     OW57558   5.633   7.823   7.567 -0.6318 -0.1469 -0.1159
18706SOL    HW157559   5.606   7.915   7.562 -0.9140 -0.0229  2.3609
18706SOL    HW257560   5.645   7.807   7.661 -0.0982 -2.5116 -0.5317
18707SOL     OW57561   5.491   3.340   3.125  0.0794  0.3272  0.3123
18707SOL    HW157562   5.398   3.361   3.110  0.4152  0.4851 -1.9494
18707SOL    HW257563   5.531   3.425   3.143  0.0751  0.5521 -0.6584
18708SOL     OW57564   1.512   5.984   9.867 -0.4071  0.4981 -0.0811
18708SOL    HW157565   1.497   5.983   9.772 -0.6826 -0.3996 -0.0354
18708SOL    HW257566   1.460   5.911   9.900 -0.1467  0.6792  0.7395
18709SOL     OW57567   1.597   5.672   1.179 -0.1063  0.0346  0.0495
18709SOL    HW157568   1.554   5.643   1.098  1.3612 -1.5178 -0.2488
18709SOL    HW257569   1.589   5.767   1.178  0.7017  0.1422 -2.4455
18710SOL     OW57570   7.412   6.480   7.835  0.3884 -0.0502 -0.1847
18710SOL    HW157571   7.449   6.459   7.921  2.2810  1.5573 -0.5454
18710SOL    HW257572   7.341   6.541   7.854  1.5221  1.1847  0.2066
18711SOL     OW57573   3.227   2.490   8.701  0.1573  0.3398 -0.4247
18711SOL    HW157574   3.297   2.530   8.649  1.8735 -1.5637  0.2666
18711SOL    HW257575   3.184   2.564   8.744  0.3726  1.7460 -2.4458
18712SOL     OW57576   2.376   5.664   9.592  0.1258  0.0030  0.0027
18712SOL    HW157577   2.311   5.601   9.622 -0.3554  0.4887 -0.0073
18712SOL    HW257578   2.371   5.660   9.496 -0.3547  0.5048  0.0007
18713SOL     OW57579   3.905   2.836   0.464  0.6053 -0.1369  0.2205
18713SOL    HW157580   3.915   2.863   0.556 -2.6657 -1.2323  1.0349
18713SOL    HW257581   3.965   2.763   0.454 -0.2156 -1.1223  2.0653
18714SOL     OW57582   0.734   0.962   7.459  0.1358  0.4538  0.1658
18714SOL    HW157583   0.732   0.871   7.431  0.6841  0.3968  0.2960
18714SOL    HW257584   0.657   0.973   7.514 -0.1452  0.1741 -0.1697
18715SOL     OW57585   5.537   5.597   7.460  0.0525  0.5203 -0.2739
18715SOL    HW157586   5.480   5.595   7.382 -0.9812 -0.2796  0.4689
18715SOL    HW257587   5.489   5.651   7.522  0.8669  1.1378 -0.1699
18716SOL     OW57588   7.685   0.736   0.755  0.4000  0.1250 -0.4090
18716SOL    HW157589   7.753   0.673   0.732 -1.9289 -3.3065  1.0852
18716SOL    HW257590   7.646   0.699   0.835 -3.0466  1.9407 -1.0820
18717SOL     OW57591   0.926   5.778  10.102 -0.7515 -0.7491  0.0981
18717SOL    HW157592   0.872   5.856  10.089 -1.8702 -1.6832 -1.0179
18717SOL    HW257593   0.912   5.725  10.024  2.9208 -0.4146 -0.9905
18718SOL     OW57594   0.120   6.319   6.652  0.1602  0.2880 -0.4265
18718SOL    HW157595   0.066   6.247   6.620 -0.1290  0.0946  0.4628
18718SOL    HW257596   0.208   6.281   6.660  0.3103  0.4337 -1.2963
18719SOL     OW57597   0.504   4.084   8.803  0.2731 -0.6976  0.1960
18719SOL    HW157598   0.451   4.163   8.813  2.7695  0.9889  1.1957
18719SOL    HW257599   0.469   4.023   8.869 -2.5012 -1.0331 -1.4300
18720SOL     OW57600   1.793   2.746   2.887  0.6594  0.1802 -0.8323
18720SOL    HW157601   1.819   2.676   2.826 -0.3219  0.1018 -1.1803
18720SOL    HW257602   1.828   2.826   2.849  0.6909  0.0357 -1.1070
18721SOL     OW57603   6.601   4.622   9.721  0.0178 -0.3405  0.0799
18721SOL    HW157604   6.676   4.579   9.678  0.5261  0.3763  0.2278
18721SOL    HW257605   6.615   4.605   9.814  0.8833  1.1157  0.2530
18722SOL     OW57606   0.861   0.399  10.179  0.1931 -0.0854 -0.2741
18722SOL    HW157607   0.861   0.476  10.236 -1.6186  0.2168 -0.6336
18722SOL    HW257608   0.807   0.335  10.224  0.9341 -0.8313 -0.4149
18723SOL     OW57609   3.795   6.951  10.245 -0.4463  0.4126  0.4738
18723SOL    HW157610   3.821   7.043  10.234  1.2679 -0.1622 -0.6802
18723SOL    HW257611   3.716   6.955  10.299 -0.3186  2.5501  0.5957
18724SOL     OW57612   1.313   3.645  12.352 -0.1295  0.0931  0.6336
18724SOL    HW157613   1.266   3.728  12.349  1.4481  1.0154  0.1975
18724SOL    HW257614   1.305   3.616  12.443 -1.6030  0.1454  0.5451
18725SOL     OW57615   4.790   4.904   6.249 -0.0931  0.1925  0.3867
18725SOL    HW157616   4.825   4.967   6.311  0.4389 -1.2646  1.6250
18725SOL    HW257617   4.841   4.918   6.169 -0.2107  1.5206  0.5297
18726SOL     OW57618   3.706   2.148   3.907  0.0762 -0.2658  1.1166
18726SOL    HW157619   3.731   2.058   3.931 -1.0901 -0.7838  0.4755
18726SOL    HW257620   3.726   2.154   3.814  0.4133  0.2482  1.2183
18727SOL     OW57621   1.415   2.474  10.005  0.5159  0.2260  0.3853
18727SOL    HW157622   1.323   2.501  10.010  0.0283 -1.6364  2.7854
18727SOL    HW257623   1.429   2.457   9.912 -1.4138  0.9627 -0.0998
18728SOL     OW57624   1.525   1.362   3.474  0.1556 -0.5226 -0.0491
18728SOL    HW157625   1.504   1.342   3.383  0.9830 -0.2447 -0.3107
18728SOL    HW257626   1.493   1.286   3.523  2.3173 -2.0854 -0.8990
18729SOL     OW57627   4.467   6.649   7.686  0.2387 -0.0983 -0.0189
18729SOL    HW157628   4.388   6.702   7.699  0.1549 -0.2072 -0.0805
18729SOL    HW257629   4.466   6.628   7.592  1.5195  1.7629 -0.5155
18730SOL     OW57630   3.944   2.364   0.408  0.9411  0.0579  0.0505
18730SOL    HW157631   4.000   2.441   0.417 -1.4835  1.7750  2.1484
18730SOL    HW257632   3.868   2.395   0.359 -0.8395 -0.3954  2.3089
18731SOL     OW57633   6.847   3.715   3.766  0.3207 -0.1260  0.3364
18731SOL    HW157634   6.762   3.674   3.749  0.5293 -1.8649  2.8704
18731SOL    HW257635   6.830   3.809   3.762 -1.2523 -0.4281 -1.1390
18732SOL     OW57636   4.977   4.256  10.589  0.4625 -0.0461 -0.0799
18732SOL    HW157637   5.014   4.175  10.554  0.6666 -0.0388  0.1213
18732SOL    HW257638   5.018   4.267  10.675 -0.6231 -0.4803  0.5067
18733SOL     OW57639   0.530   7.458  10.500 -0.1605 -0.1638 -0.2103
18733SOL    HW157640   0.610   7.413  10.473 -0.4966 -1.2754  0.5723
18733SOL    HW257641   0.534   7.460  10.595  0.0977  1.9979 -0.2155
18734SOL     OW57642   7.452   4.218  11.884 -0.2121  0.0895 -0.2501
18734SOL    HW157643   7.465   4.301  11.930 -1.7388  0.1444  0.1440
18734SOL    HW257644   7.394   4.169  11.941 -0.5590 -0.6386 -1.2124
18735SOL     OW57645   4.117   5.304   2.564  0.5115 -0.0252  0.0784
18735SOL    HW157646   4.082   5.359   2.494 -1.4579 -2.6225 -1.1614
18735SOL    HW257647   4.172   5.240   2.518 -1.8849 -2.6271  0.5380
18736SOL     OW57648   4.396   0.788   0.860 -0.7843 -0.3143  0.1842
18736SOL    HW157649   4.421   0.704   0.899  0.1438 -0.2899 -0.3164
18736SOL    HW257650   4.465   0.806   0.796 -1.4054  0.4409 -0.2908
18737SOL     OW57651   5.960   3.470   8.140  0.4575 -0.0965 -0.1267
18737SOL    HW157652   5.953   3.539   8.073  1.1643  1.1849  1.0610
18737SOL    HW257653   5.877   3.475   8.188 -0.3754 -1.5413 -1.3438
18738SOL     OW57654   2.134   4.101  11.537 -0.3677 -0.3869 -0.2709
18738SOL    HW157655   2.226   4.125  11.522  0.0513 -1.5978  0.2657
18738SOL    HW257656   2.136   4.046  11.615 -1.4315 -1.2617 -0.8416
18739SOL     OW57657   7.812   3.439   9.132  0.2351  0.2820 -0.0662
18739SOL    HW157658   7.828   3.476   9.218 -1.4195 -0.2237  0.4985
18739SOL    HW257659   7.895   3.400   9.106  1.9380  3.8759 -0.4833
18740SOL     OW57660   6.369   2.996  12.318 -0.0548 -0.3325  0.3616
18740SOL    HW157661   6.347   3.020  12.228  0.0967  1.7249  0.8434
18740SOL    HW257662   6.461   2.971  12.315  0.1620  0.4878  0.0767
18741SOL     OW57663   4.404   1.940   7.883 -0.3526 -0.9645  0.8596
18741SOL    HW157664   4.313   1.951   7.858  0.5916 -1.0375 -3.2098
18741SOL    HW257665   4.427   2.023   7.925 -0.7987  1.9241 -3.8526
18742SOL     OW57666   5.601   1.967   7.087  0.2889  0.2999  0.1758
18742SOL    HW157667   5.588   1.916   7.007  1.8200 -0.2645  0.2692
18742SOL    HW257668   5.522   2.021   7.093  0.3782  0.7708 -2.0296
18743SOL     OW57669   7.723   5.732   1.473  0.0088 -0.3281 -0.3715
18743SOL    HW157670   7.787   5.752   1.541 -0.7193 -1.5141  0.7038
18743SOL    HW257671   7.653   5.796   1.486  0.0639 -0.2863 -0.2803
18744SOL     OW57672   4.587   6.671  11.567  0.1931 -0.4156 -0.2288
18744SOL    HW157673   4.650   6.716  11.624  0.1730 -0.8942  0.1698
18744SOL    HW257674   4.553   6.600  11.620 -1.4353  0.4221 -0.0915
18745SOL     OW57675   5.991   5.108   1.073 -0.0041  0.5487  0.7764
18745SOL    HW157676   6.010   5.189   1.025  0.6309  0.6528  1.1859
18745SOL    HW257677   6.046   5.114   1.151  0.0900 -0.3054  0.7809
18746SOL     OW57678   0.589   0.616   3.721  0.3183 -0.1252 -0.0040
18746SOL    HW157679   0.581   0.668   3.801 -0.4661  1.6597 -1.1620
18746SOL    HW257680   0.661   0.657   3.673 -1.0937  0.7468 -1.4886
18747SOL     OW57681   7.269   4.092   8.738 -0.1438 -0.4560  0.1140
18747SOL    HW157682   7.300   4.147   8.810 -0.9166  0.4661 -0.2400
18747SOL    HW257683   7.184   4.129   8.715  0.7348  0.2252 -2.2710
18748SOL     OW57684   5.680   1.787   0.857  0.2931  0.1832 -0.4985
18748SOL    HW157685   5.621   1.714   0.875 -0.4333  0.9375  0.2754
18748SOL    HW257686   5.754   1.747   0.811  0.9648 -1.4449  1.8113
18749SOL     OW57687   5.347   5.391   6.709 -0.5493  0.1809  0.4079
18749SOL    HW157688   5.289   5.454   6.752  2.3699  1.8962  2.1874
18749SOL    HW257689   5.392   5.442   6.642 -0.1451 -0.7339 -0.0307
18750SOL     OW57690   0.933   2.554   8.810  0.7497  0.6120 -0.0148
18750SOL    HW157691   0.877   2.483   8.843  2.8894 -0.6727  1.0558
18750SOL    HW257692   0.930   2.620   8.878  0.3429  0.6589 -0.0770
18751SOL     OW57693   3.525   7.754   2.704  0.4084 -0.7107 -0.3853
18751SOL    HW157694   3.526   7.806   2.624  0.1684  0.4356  0.3447
18751SOL    HW257695   3.598   7.788   2.756 -1.0186  0.3514  0.9948
18752SOL     OW57696   3.661   7.598   5.316 -0.0587 -0.7266  0.0239
18752SOL    HW157697   3.660   7.687   5.280  1.6863  0.0409  1.6575
18752SOL    HW257698   3.631   7.609   5.407  2.1994 -1.3905  0.9280
18753SOL     OW57699   4.531   0.366   7.598  0.1246  0.8504  0.2369
18753SOL    HW157700   4.463   0.316   7.643  0.8108  0.0294  0.3762
18753SOL    HW257701   4.490   0.394   7.516 -0.1790 -0.1803  0.0234
18754SOL     OW57702   0.451   0.595  11.310 -0.1156  0.3207  0.1012
18754SOL    HW157703   0.516   0.582  11.380  1.2753 -1.6562 -1.4639
18754SOL    HW257704   0.501   0.635  11.239 -1.2261  1.0884 -0.2641
18755SOL     OW57705   6.968   0.028   4.609  0.0278  0.5612  0.1415
18755SOL    HW157706   7.030  -0.011   4.670 -0.1122 -0.6777 -0.4748
18755SOL    HW257707   6.994   0.120   4.604  1.9932  0.0178 -0.3273
18756SOL     OW57708   5.487   5.665   1.139 -0.3338 -0.7802  0.4234
18756SOL    HW157709   5.428   5.589   1.145 -0.3677 -0.8072 -0.2253
18756SOL    HW257710   5.476   5.697   1.049  0.8899 -0.9809  0.1907
18757SOL     OW57711   2.610   3.064   3.082  0.5123 -0.3835 -0.0251
18757SOL    HW157712   2.515   3.054   3.076  0.7011 -1.7362 -1.1897
18757SOL    HW257713   2.625   3.158   3.074 -0.8406  0.1048  2.3572
18758SOL     OW57714   3.247   6.646   9.846  0.1269  0.0066 -0.3899
18758SOL    HW157715   3.229   6.623   9.755  0.8168  0.8958 -0.7708
18758SOL    HW257716   3.335   6.610   9.862 -0.0174 -0.1979 -0.0544
18759SOL     OW57717   1.995   4.442   3.180  0.1253  0.2019  0.4351
18759SOL    HW157718   1.916   4.469   3.133  2.3111  3.0623 -2.0043
18759SOL    HW257719   2.050   4.403   3.113  1.1217 -1.1216  1.9510
18760SOL     OW57720   4.401   5.381   0.734 -0.1697 -0.1046  0.2602
18760SOL    HW157721   4.397   5.287   0.753 -1.5491 -0.4160 -1.3817
18760SOL    HW257722   4.421   5.421   0.819 -1.6991 -1.7138  1.4523
18761SOL     OW57723   3.346   4.067   9.625 -0.2869  0.1243 -0.2591
18761SOL    HW157724   3.253   4.061   9.643 -0.3959 -4.0868 -1.2170
18761SOL    HW257725   3.352   4.128   9.551 -1.8722  2.3526  1.3040
18762SOL     OW57726   3.869   7.315   8.282  0.0652  0.2257  0.8801
18762SOL    HW157727   3.797   7.315   8.345 -1.7218  1.7087 -1.0293
18762SOL    HW257728   3.912   7.399   8.295  0.9245 -0.2787  1.3959
18763SOL     OW57729   2.374   5.083   9.067 -0.5716 -0.1414  0.0263
18763SOL    HW157730   2.352   5.174   9.047  1.4909  0.0568 -1.7205
18763SOL    HW257731   2.356   5.036   8.985 -0.7773 -1.1440  0.6362
18764SOL     OW57732   1.322   6.485   1.423 -0.1463  0.3626 -0.0468
18764SOL    HW157733   1.359   6.488   1.511 -1.8475  0.3569  0.7190
18764SOL    HW257734   1.283   6.571   1.410  0.1216  0.3760 -0.8196
18765SOL     OW57735   2.872   6.840   8.339  0.4227  0.3229  0.4987
18765SOL    HW157736   2.837   6.814   8.425 -0.3054 -1.1241 -0.2081
18765SOL    HW257737   2.938   6.775   8.320 -1.7507 -1.4595 -1.5248
18766SOL     OW57738   5.253   5.389   0.273 -0.1562  0.2001  0.1852
18766SOL    HW157739   5.196   5.418   0.201 -0.8797  0.0038  0.6704
18766SOL    HW257740   5.199   5.397   0.351  0.6986  0.6316  0.7490
18767SOL     OW57741   1.037   1.969   8.261 -0.0048 -0.4712 -0.4291
18767SOL    HW157742   1.012   2.009   8.344  1.6654 -0.5811  0.1576
18767SOL    HW257743   1.025   2.039   8.196 -0.4217 -0.0983  0.0492
18768SOL     OW57744   5.914   7.571  10.839  0.1209 -0.0608  0.0776
18768SOL    HW157745   6.008   7.558  10.825 -0.5773 -5.0389 -2.0270
18768SOL    HW257746   5.901   7.554  10.933  1.1517 -1.3067  0.0169
18769SOL     OW57747   0.244   1.067   1.955 -0.1872  0.0400  0.0817
18769SOL    HW157748   0.322   1.116   1.930 -1.2715  1.0472 -1.5752
18769SOL    HW257749   0.250   1.057   2.050  2.1624 -0.3534 -0.0624
18770SOL     OW57750   5.657   5.917  12.265 -0.2732 -0.5280 -0.1324
18770SOL    HW157751   5.602   5.865  12.322 -0.1601  0.6623  1.1323
18770SOL    HW257752   5.744   5.877  12.271  0.0386  0.3159  1.5993
18771SOL     OW57753   0.856   3.303   2.159  0.2941 -0.5370  0.1143
18771SOL    HW157754   0.859   3.280   2.252  2.3556 -1.5367 -0.1555
18771SOL    HW257755   0.892   3.392   2.155 -0.9627  0.0045  0.3749
18772SOL     OW57756   5.276   0.491   8.474  0.2387 -0.2415 -0.3311
18772SOL    HW157757   5.322   0.574   8.456 -0.5003  0.1203 -0.6010
18772SOL    HW257758   5.338   0.441   8.527  0.8706  0.3110 -0.5169
18773SOL     OW57759   0.889   0.139   6.211  0.0110  0.6885 -0.2967
18773SOL    HW157760   0.890   0.154   6.306 -0.0727  0.1594 -0.2071
18773SOL    HW257761   0.918   0.048   6.201  1.2058  1.1061 -0.8602
18774SOL     OW57762   0.870   7.366   9.990 -0.6676  0.1794  0.7530
18774SOL    HW157763   0.821   7.318   9.923  0.3337  0.8799 -0.5218
18774SOL    HW257764   0.803   7.398  10.051 -1.8235  1.1721 -0.9789
18775SOL     OW57765   7.634   5.710   9.181  0.0418  0.2461 -0.7447
18775SOL    HW157766   7.569   5.640   9.172 -0.0821  0.3723 -0.8517
18775SOL    HW257767   7.688   5.683   9.255 -1.3370  1.0880  0.6293
18776SOL     OW57768   1.660   7.436   8.524  0.1388  0.2427 -0.7224
18776SOL    HW157769   1.654   7.468   8.614 -2.6149  1.0313 -1.0876
18776SOL    HW257770   1.706   7.506   8.477 -0.9332  1.1790 -0.4329
18777SOL     OW57771   3.398   1.270   9.942 -0.2381  0.4669 -0.4187
18777SOL    HW157772   3.486   1.305   9.957  0.0901  0.3407 -1.8361
18777SOL    HW257773   3.392   1.195  10.000  0.8838  0.0489 -0.8037
18778SOL     OW57774   4.441   6.700   9.832  0.4197  0.3385 -0.3536
18778SOL    HW157775   4.509   6.712   9.765  0.3690 -0.5712 -0.5733
18778SOL    HW257776   4.426   6.606   9.834  1.6915  0.1038  2.2040
18779SOL     OW57777   6.380   4.031   6.780 -0.5138  0.1979 -0.0287
18779SOL    HW157778   6.398   4.083   6.702 -1.1327  0.1182 -0.2325
18779SOL    HW257779   6.317   4.084   6.830  0.8756  0.8761  1.0909
18780SOL     OW57780   3.308   2.998   9.241  0.2302  0.2530 -0.1422
18780SOL    HW157781   3.394   3.031   9.268  0.1583  1.5256 -1.3229
18780SOL    HW257782   3.246   3.065   9.272  0.0281  1.0732 -2.1924
18781SOL     OW57783   3.718   0.141   7.001 -0.4087  0.8561 -0.2678
18781SOL    HW157784   3.811   0.117   6.992 -0.3694  0.8760  0.1004
18781SOL    HW257785   3.695   0.115   7.090 -0.7780  0.7832 -0.3844
18782SOL     OW57786   4.816   6.327   0.487  0.2140 -0.6447 -0.5001
18782SOL    HW157787   4.820   6.415   0.449  0.4734 -0.3151  0.2674
18782SOL    HW257788   4.784   6.272   0.416  2.2084 -0.3487 -1.6979
18783SOL     OW57789   0.106   1.583   0.475  0.1371 -0.2214  0.7459
18783SOL    HW157790   0.188   1.536   0.460 -0.7306 -1.5573  0.0229
18783SOL    HW257791   0.039   1.515   0.476 -1.3054  1.0677 -1.3438
18784SOL     OW57792   5.192   5.872   5.784 -0.2986 -0.0355 -0.0181
18784SOL    HW157793   5.214   5.953   5.830  0.4416  0.0693 -0.5379
18784SOL    HW257794   5.277   5.837   5.757 -0.7197 -0.0182 -1.4172
18785SOL     OW57795   4.407   0.725   2.956 -0.2197  0.0255 -0.2329
18785SOL    HW157796   4.488   0.776   2.953  0.9477 -1.7794 -1.6536
18785SOL    HW257797   4.379   0.729   3.047  2.8889 -1.3383  0.9276
18786SOL     OW57798   2.178   2.188   7.590 -0.3168 -0.0437 -0.1149
18786SOL    HW157799   2.260   2.155   7.552 -0.6765 -0.8187 -0.2299
18786SOL    HW257800   2.110   2.159   7.530 -0.5541  2.0818 -0.9640
18787SOL     OW57801   6.738   3.309   9.274 -0.2133  0.0312  0.5036
18787SOL    HW157802   6.824   3.322   9.236  0.5346 -0.7019  1.8906
18787SOL    HW257803   6.679   3.359   9.217  0.8720 -0.7998 -1.4345
18788SOL     OW57804   1.682   1.898   5.453 -0.6549 -0.0059  0.5567
18788SOL    HW157805   1.663   1.836   5.382  4.3662 -0.4165 -0.8293
18788SOL    HW257806   1.714   1.843   5.524  0.2391  0.7240  0.7398
18789SOL     OW57807   5.037   3.035  10.251  0.9783  0.2679  0.1556
18789SOL    HW157808   5.046   3.067  10.341 -0.0712  0.4400  0.2164
18789SOL    HW257809   4.977   3.097  10.209 -0.3495 -1.0392  0.0051
18790SOL     OW57810   3.938   7.254  11.924 -0.2714  0.3557  0.0961
18790SOL    HW157811   4.010   7.314  11.947  0.0232 -0.3839  1.1710
18790SOL    HW257812   3.865   7.282  11.979 -0.4143  0.2866 -0.0573
18791SOL     OW57813   6.425   0.063   8.579 -0.6475 -0.0738 -0.2932
18791SOL    HW157814   6.450   0.029   8.665 -2.6095 -0.7275  0.0572
18791SOL    HW257815   6.365   0.135   8.598 -0.8943 -0.0521 -1.1156
18792SOL     OW57816   7.388   6.652   5.688 -0.8487 -0.5009  0.5362
18792SOL    HW157817   7.409   6.560   5.706 -1.3473 -0.4269  1.5981
18792SOL    HW257818   7.453   6.702   5.737  0.6844 -0.2376 -1.6212
18793SOL     OW57819   7.007   0.700  11.294 -0.1648 -0.2053  0.1801
18793SOL    HW157820   7.068   0.677  11.364 -0.3190 -0.0914  0.3509
18793SOL    HW257821   6.934   0.743  11.338 -0.1203  0.1446 -0.0820
18794SOL     OW57822   3.065   3.850   7.785 -0.2235 -0.1415 -0.0644
18794SOL    HW157823   3.148   3.858   7.833  0.3161 -0.1561 -0.9838
18794SOL    HW257824   3.011   3.795   7.841 -0.2311  1.2507  1.3679
18795SOL     OW57825   2.863   2.769   3.494 -0.3266 -0.1157  0.1130
18795SOL    HW157826   2.883   2.783   3.401  3.0934  0.6074  0.8363
18795SOL    HW257827   2.771   2.795   3.503 -0.5688  0.4302 -2.9126
18796SOL     OW57828   5.970   4.503  11.075  0.6440  0.2009 -0.0212
18796SOL    HW157829   6.041   4.532  11.132  1.4732 -1.2633 -0.2484
18796SOL    HW257830   5.989   4.410  11.058 -1.4610 -0.3208  0.1156
18797SOL     OW57831   1.789   2.386   3.046  0.7635  0.4831 -0.3675
18797SOL    HW157832   1.867   2.371   2.993  1.2766 -0.6860  0.6807
18797SOL    HW257833   1.810   2.350   3.132 -0.7806  0.5191  0.0643
18798SOL     OW57834   1.509   0.460   6.545  0.4193 -0.6298 -0.4863
18798SOL    HW157835   1.427   0.507   6.557  0.2674 -1.0397  0.0910
18798SOL    HW257836   1.484   0.368   6.542  1.0855 -0.9656  2.1020
18799SOL     OW57837   7.282   3.552  12.160 -0.0846 -0.3452  0.5822
18799SOL    HW157838   7.358   3.573  12.107  0.9175  1.3845  2.5569
18799SOL    HW257839   7.303   3.468  12.201  0.3429 -0.3178  0.4166
18800SOL     OW57840   6.217   4.157   7.529 -0.0657  0.0770  0.5762
18800SOL    HW157841   6.272   4.095   7.578  1.8585  0.1100 -1.3671
18800SOL    HW257842   6.257   4.242   7.545  0.3033  0.1478 -0.6021
18801SOL     OW57843   6.937   3.278   7.573 -0.4303 -0.1802 -0.7747
18801SOL    HW157844   6.997   3.223   7.625  0.2391  1.1019 -0.1448
18801SOL    HW257845   6.960   3.259   7.482  1.4906  0.8405 -0.5454
18802SOL     OW57846   6.659   3.010   6.568  0.4428 -0.0439 -1.1401
18802SOL    HW157847   6.573   2.967   6.570  0.2561  0.3104  0.8172
18802SOL    HW257848   6.722   2.938   6.569  0.1436 -0.4651  2.7830
18803SOL     OW57849   7.288   2.707   6.247  0.6301 -0.1502 -0.7617
18803SOL    HW157850   7.321   2.788   6.286 -0.0439 -0.3795  0.3133
18803SOL    HW257851   7.358   2.643   6.262 -0.5144 -0.8701  2.3143
18804SOL     OW57852   0.229   6.669   5.232  0.2721 -0.4605 -0.3371
18804SOL    HW157853   0.263   6.758   5.246 -3.1552  0.8686  0.5587
18804SOL    HW257854   0.182   6.674   5.149 -2.5345 -0.4217  1.1355
18805SOL     OW57855   7.149   3.835  12.218  0.4588 -0.4945 -0.2071
18805SOL    HW157856   7.168   3.743  12.199  0.7267 -0.4818  0.0109
18805SOL    HW257857   7.069   3.852  12.168  1.6111 -0.2154 -2.0730
18806SOL     OW57858   5.625   1.481   9.070  0.3792  0.0040 -0.6454
18806SOL    HW157859   5.611   1.575   9.056  0.7356  0.0394 -0.7838
18806SOL    HW257860   5.685   1.477   9.145  0.2488 -0.1189 -0.5478
18807SOL     OW57861   6.604   7.379  11.615  0.7048 -0.1684  0.2791
18807SOL    HW157862   6.695   7.394  11.589  0.0772  0.0190 -1.9850
18807SOL    HW257863   6.577   7.303  11.564 -1.5269  2.1014 -2.2625
18808SOL     OW57864   1.916   7.027   9.986 -0.0654 -0.3940 -0.8453
18808SOL    HW157865   2.007   7.053   9.976  0.3106 -0.4013  1.8201
18808SOL    HW257866   1.909   6.945   9.937  2.2404 -2.0081  1.2623
18809SOL     OW57867   3.427   5.316   3.862 -0.1110 -0.6470  0.2150
18809SOL    HW157868   3.346   5.265   3.856 -1.0083  0.7404  0.0822
18809SOL    HW257869   3.497   5.251   3.853 -1.1851 -1.9758  1.0048
18810SOL     OW57870   2.513   2.184   1.397  0.1211  0.1377 -0.1707
18810SOL    HW157871   2.485   2.275   1.402 -1.9133 -0.3672 -1.2139
18810SOL    HW257872   2.457   2.139   1.461  0.4467 -0.5261 -0.3454
18811SOL     OW57873   2.536   5.792   5.967 -0.0406 -0.1322  0.1818
18811SOL    HW157874   2.520   5.751   6.052 -0.4056  0.2616  0.3035
18811SOL    HW257875   2.514   5.884   5.980 -1.3762 -0.3037 -0.6920
18812SOL     OW57876   4.964   7.137   7.335 -0.3287  0.8655  0.1513
18812SOL    HW157877   4.903   7.067   7.357  0.5136 -0.2861 -0.9935
18812SOL    HW257878   4.922   7.217   7.366 -2.0318  0.0195  0.1246
18813SOL     OW57879   4.634   6.878   6.459 -0.0978 -0.1004 -0.1333
18813SOL    HW157880   4.685   6.946   6.414  0.4903 -0.1501  0.4468
18813SOL    HW257881   4.621   6.810   6.393 -1.1081  0.7757 -0.8706
18814SOL     OW57882   2.685   7.244   3.262 -0.1770 -0.1308  0.7163
18814SOL    HW157883   2.663   7.244   3.169  1.2857  1.5115  0.3071
18814SOL    HW257884   2.601   7.255   3.306 -0.6376  2.7651 -0.6043
18815SOL     OW57885   4.878   2.815   1.899  0.0986  0.1759 -0.2936
18815SOL    HW157886   4.868   2.735   1.848  1.6798 -1.1011  1.2959
18815SOL    HW257887   4.790   2.832   1.933 -0.0516 -1.5704  0.2963
18816SOL     OW57888   3.214   2.735   1.783  0.1053 -0.7340 -0.3860
18816SOL    HW157889   3.256   2.686   1.854  1.0941 -0.0774 -0.5088
18816SOL    HW257890   3.138   2.776   1.825 -1.8244 -3.6890 -0.6299
18817SOL     OW57891   1.098   3.290   4.336  0.2704 -0.1653  0.3136
18817SOL    HW157892   1.189   3.313   4.315  0.7799 -2.0292  0.2328
18817SOL    HW257893   1.047   3.320   4.261  1.1128 -0.7418 -0.5179
18818SOL     OW57894   3.324   6.393   8.279  0.0114  0.1090 -0.3232
18818SOL    HW157895   3.269   6.429   8.210  1.0648 -0.4142 -1.4844
18818SOL    HW257896   3.338   6.465   8.340 -2.2269  0.1565  0.2248
18819SOL     OW57897   0.609   2.253   8.213 -0.1601  0.1305  0.2361
18819SOL    HW157898   0.562   2.192   8.157  1.7224 -0.5866 -0.6800
18819SOL    HW257899   0.654   2.312   8.151 -1.7148  2.3402  1.0826
18820SOL     OW57900   7.838   4.175   5.510  0.1565  0.1368  0.5458
18820SOL    HW157901   7.751   4.212   5.523  0.3307  1.6646 -1.9029
18820SOL    HW257902   7.824   4.081   5.500 -1.6179  0.5817 -2.1422
18821SOL     OW57903   5.447   3.722   6.831 -0.9949 -0.3208  0.1676
18821SOL    HW157904   5.447   3.683   6.743  1.2409 -0.0928  0.0067
18821SOL    HW257905   5.389   3.798   6.822 -0.0855  0.2499 -1.4135
18822SOL     OW57906   6.966   0.942  11.739 -0.5756 -0.0705  0.6329
18822SOL    HW157907   6.944   0.937  11.832 -0.5631 -0.7379  0.6050
18822SOL    HW257908   6.969   0.851  11.710  2.0094 -0.0332  0.5876
18823SOL     OW57909   2.578   1.661   6.478 -0.0776 -0.2636 -0.1297
18823SOL    HW157910   2.612   1.574   6.458 -0.2508 -0.4486  0.3506
18823SOL    HW257911   2.649   1.703   6.528  0.7822  0.5794 -1.9646
18824SOL     OW57912   7.879   5.420   1.881 -0.8445  0.2788  0.2949
18824SOL    HW157913   7.923   5.336   1.876  0.2555  0.8498  0.0868
18824SOL    HW257914   7.802   5.411   1.825 -0.4387 -0.4068 -0.1626
18825SOL     OW57915   0.101   2.739   7.054  0.2438  0.4983  0.0327
18825SOL    HW157916   0.141   2.663   7.011 -1.1209 -0.2403  0.0156
18825SOL    HW257917   0.138   2.738   7.142  1.0216  0.4329 -0.2841
18826SOL     OW57918   6.212   7.390   6.048 -1.0484 -0.0018  0.1056
18826SOL    HW157919   6.219   7.308   6.097  1.4164  0.2385  0.2729
18826SOL    HW257920   6.132   7.380   5.996 -1.2573 -2.1581  0.7359
18827SOL     OW57921   7.803   7.482   6.967 -0.1685 -0.2102 -0.0419
18827SOL    HW157922   7.708   7.497   6.968 -0.2025  0.0518 -2.1191
18827SOL    HW257923   7.812   7.387   6.975 -0.6817 -0.3368 -0.7861
18828SOL     OW57924   7.003   6.835   4.463 -0.2575  0.2706 -0.6612
18828SOL    HW157925   7.018   6.926   4.439  0.6221  0.1399 -0.6329
18828SOL    HW257926   6.915   6.834   4.501 -0.0378  1.2134 -0.1128
18829SOL     OW57927   6.918   7.251   6.485  0.3824 -0.2384 -0.6556
18829SOL    HW157928   6.968   7.317   6.534 -0.3798 -0.8862  1.0610
18829SOL    HW257929   6.841   7.298   6.452 -0.5433 -0.3956  1.1981
18830SOL     OW57930   5.002   6.243   4.488 -0.0831 -0.3569 -0.6466
18830SOL    HW157931   4.925   6.300   4.501  1.2118  1.0975  1.2960
18830SOL    HW257932   5.059   6.294   4.431  0.2487 -0.5607 -0.4973
18831SOL     OW57933   6.735   7.778   6.319 -0.2714 -0.3973 -0.2967
18831SOL    HW157934   6.668   7.818   6.263  0.5417 -0.1114 -1.0801
18831SOL    HW257935   6.818   7.809   6.283  0.2928 -0.7758  0.6435
18832SOL     OW57936   1.201   2.238   0.652  0.0351  0.1310  0.5932
18832SOL    HW157937   1.143   2.162   0.663 -0.2053 -0.1890 -2.2054
18832SOL    HW257938   1.289   2.202   0.663 -0.1121 -0.4261  0.0373
18833SOL     OW57939   4.956   0.321   5.702  0.2228 -0.2504  0.9791
18833SOL    HW157940   4.951   0.311   5.607 -1.5798 -0.3831  1.0593
18833SOL    HW257941   4.989   0.410   5.716 -1.3299  0.4839  0.1978
18834SOL     OW57942   3.493   1.939   6.777 -0.2968  0.6446  0.0831
18834SOL    HW157943   3.447   1.974   6.853  0.5062  0.1896  0.8130
18834SOL    HW257944   3.445   1.859   6.754 -0.2501  0.5122  0.4383
18835SOL     OW57945   1.657   4.102   3.449 -0.1522  0.5148  0.2723
18835SOL    HW157946   1.687   4.068   3.533  0.3955 -1.2365 -0.5805
18835SOL    HW257947   1.737   4.106   3.395 -0.5969  0.9859 -0.3710
18836SOL     OW57948   5.005   4.538   4.738 -0.1490  1.0830  0.1828
18836SOL    HW157949   4.922   4.535   4.785  0.7679 -0.2013  1.7939
18836SOL    HW257950   4.983   4.511   4.649 -1.3106 -0.2265  0.8324
18837SOL     OW57951   1.268   5.840   8.518  0.5713  0.5732  0.0363
18837SOL    HW157952   1.307   5.825   8.432  1.9599 -0.5359  0.8168
18837SOL    HW257953   1.182   5.878   8.499 -0.3350 -2.1484 -1.9579
18838SOL     OW57954   3.443   1.178  11.918 -0.1712 -0.5758  0.0249
18838SOL    HW157955   3.420   1.251  11.976 -1.3088 -0.9864  0.1118
18838SOL    HW257956   3.372   1.174  11.854 -0.6315 -2.1808  0.5849
18839SOL     OW57957   4.490   6.374  11.469 -0.4758 -0.0490 -0.0348
18839SOL    HW157958   4.577   6.379  11.510  0.2542  0.1035 -1.5438
18839SOL    HW257959   4.441   6.445  11.510 -0.0493 -0.4052  1.1519
18840SOL     OW57960   1.941   0.594   1.726  0.2394  0.1297  0.7477
18840SOL    HW157961   1.924   0.653   1.652  0.3329 -0.8180 -0.0500
18840SOL    HW257962   1.857   0.587   1.771 -0.0721 -0.1026  0.1264
18841SOL     OW57963   4.101   4.036   4.161  0.3292  0.3523 -0.3874
18841SOL    HW157964   4.050   4.093   4.104 -0.1623  0.3243  0.0168
18841SOL    HW257965   4.094   3.949   4.121 -1.5649 -0.0402  0.6825
18842SOL     OW57966   2.378   6.642  11.221 -0.4692 -0.5687  0.4768
18842SOL    HW157967   2.340   6.679  11.301 -1.7809 -0.5894 -0.1162
18842SOL    HW257968   2.469   6.624  11.244 -1.2064 -2.1263  2.5022
18843SOL     OW57969   1.036   3.720  10.345  0.4515  0.2574  0.2749
18843SOL    HW157970   1.081   3.794  10.385 -0.5838  2.6954 -2.7294
18843SOL    HW257971   0.988   3.757  10.271 -0.6896 -3.3303 -1.0168
18844SOL     OW57972   1.066   0.114   3.347 -0.3435  0.0882 -0.2190
18844SOL    HW157973   1.052   0.112   3.442 -1.8821  1.7182 -0.3537
18844SOL    HW257974   1.143   0.060   3.333 -0.1278 -0.2579  1.9543
18845SOL     OW57975   5.491   5.953   2.055 -0.3068  0.6593 -0.2725
18845SOL    HW157976   5.479   5.884   1.991 -1.1813  0.9933 -0.4891
18845SOL    HW257977   5.583   5.978   2.048 -0.5304  1.1068 -1.8390
18846SOL     OW57978   2.593   3.873   9.684  0.1844  0.0987 -0.3776
18846SOL    HW157979   2.666   3.866   9.622  0.7572 -0.5288  0.3570
18846SOL    HW257980   2.629   3.922   9.758 -0.3986  0.5422 -0.3815
18847SOL     OW57981   3.030   4.192   1.715 -0.0236  0.5571 -0.1253
18847SOL    HW157982   3.122   4.175   1.696  0.1568 -0.0431  1.1377
18847SOL    HW257983   3.025   4.287   1.726  0.9970  0.4014  2.2556
18848SOL     OW57984   1.623   6.188   6.162 -0.2301  0.0559  0.3775
18848SOL    HW157985   1.647   6.237   6.240  0.0637 -0.2816  0.5012
18848SOL    HW257986   1.705   6.179   6.113 -0.6156  1.2262 -0.5148
18849SOL     OW57987   6.068   5.658   2.760 -0.0219  0.7470  0.2755
18849SOL    HW157988   6.110   5.726   2.707  1.4024 -1.0960 -1.1252
18849SOL    HW257989   6.091   5.680   2.850  0.2350  2.1886 -0.1113
18850SOL     OW57990   0.316   5.582   9.302 -0.0737  0.1524  0.6414
18850SOL    HW157991   0.316   5.676   9.284 -0.2134  0.0557  0.0905
18850SOL    HW257992   0.402   5.563   9.337 -0.0945  0.5129  0.8855
18851SOL     OW57993   6.630   0.961   7.658 -0.1215  0.4285 -0.1098
18851SOL    HW157994   6.716   0.926   7.635 -0.5191  0.3487 -1.6467
18851SOL    HW257995   6.569   0.890   7.635 -0.6034  0.4770  0.9639
18852SOL     OW57996   6.224   1.418  11.377 -0.3466 -0.4671  0.6236
18852SOL    HW157997   6.306   1.468  11.373 -0.5240 -0.2377 -0.4531
18852SOL    HW257998   6.157   1.480  11.350 -0.5305 -1.3486 -1.0840
18853SOL     OW57999   0.384   7.718  10.974  0.0206 -0.5533 -0.2615
18853SOL    HW158000   0.385   7.654  11.045  0.6864  0.9983  1.1964
18853SOL    HW258001   0.303   7.699  10.925 -1.3543 -0.6274  1.9244
18854SOL     OW58002   4.722   3.075   1.036  0.3726  0.0007  0.3173
18854SOL    HW158003   4.640   3.060   0.989  0.7499 -0.8874 -0.0931
18854SOL    HW258004   4.725   3.169   1.050 -0.0207  0.2202 -0.9568
18855SOL     OW58005   0.972   5.993   1.351  0.0461 -0.6454  0.3161
18855SOL    HW158006   0.977   5.897   1.359 -0.4520 -0.6219  0.9668
18855SOL    HW258007   0.881   6.014   1.368 -0.0138 -0.1152 -0.6399
18856SOL     OW58008   7.504   3.624   9.875 -0.0096  0.1490  0.1577
18856SOL    HW158009   7.424   3.573   9.866 -0.7401  1.5960 -2.3341
18856SOL    HW258010   7.558   3.599   9.800  0.9205  0.8487  0.5692
18857SOL     OW58011   7.172   4.649   1.738 -0.2046  0.2000 -0.3305
18857SOL    HW158012   7.181   4.577   1.800 -0.3511 -0.8319 -1.4803
18857SOL    HW258013   7.078   4.661   1.727 -0.1814 -0.1671 -0.9652
18858SOL     OW58014   4.607   3.068   5.253  0.0135  0.0324 -0.2788
18858SOL    HW158015   4.555   3.100   5.327  2.1510  2.2731  0.3521
18858SOL    HW258016   4.677   3.017   5.293  0.3972  0.1001 -0.8522
18859SOL     OW58017   3.253   7.408   5.736  0.2869  0.1038 -0.8446
18859SOL    HW158018   3.305   7.461   5.796 -1.0400  0.9648 -0.4026
18859SOL    HW258019   3.305   7.402   5.656  2.2318 -1.2947  0.4341
18860SOL     OW58020   1.129   1.039   4.307  1.0064  0.8009  0.1849
18860SOL    HW158021   1.179   1.019   4.386  0.2743 -1.3880  0.1585
18860SOL    HW258022   1.038   1.019   4.331  0.9172 -1.1210 -1.5556
18861SOL     OW58023   6.852   0.162   3.159 -0.1465  0.1200  0.5128
18861SOL    HW158024   6.878   0.070   3.150 -1.0955 -0.2173  1.0916
18861SOL    HW258025   6.933   0.211   3.145  0.7532 -0.8810  1.9887
18862SOL     OW58026   2.035   0.632   8.628 -0.2441  0.0403  0.0239
18862SOL    HW158027   2.052   0.659   8.537  0.3666 -0.3579  0.0079
18862SOL    HW258028   2.100   0.680   8.679 -2.1447  2.1443  0.5730
18863SOL     OW58029   1.964   5.214  10.354  0.7218 -0.0622  0.2241
18863SOL    HW158030   2.018   5.168  10.289 -0.4407 -2.3441  0.7698
18863SOL    HW258031   1.876   5.212  10.318  0.0241 -1.5151  1.8704
18864SOL     OW58032   7.434   3.894   3.911  0.2728 -0.9708 -0.3667
18864SOL    HW158033   7.429   3.896   4.006  0.1306 -1.4594 -0.3606
18864SOL    HW258034   7.511   3.947   3.890  0.8256 -1.5839  0.0648
18865SOL     OW58035   2.411   3.350   8.151  0.8425 -0.1634  0.4499
18865SOL    HW158036   2.334   3.387   8.195  1.8493  0.1843  1.9737
18865SOL    HW258037   2.453   3.296   8.218  1.8206 -0.5098 -0.4236
18866SOL     OW58038   3.552   5.811   0.317  0.8223  0.5321  0.6518
18866SOL    HW158039   3.523   5.720   0.321  0.8200  0.4555 -0.8160
18866SOL    HW258040   3.557   5.838   0.409 -0.7655 -0.4452  1.0703
18867SOL     OW58041   4.070   2.960   1.731 -0.2554  0.6132 -0.3415
18867SOL    HW158042   4.146   2.952   1.672  1.0599  0.4009  1.2921
18867SOL    HW258043   4.082   3.045   1.773 -0.2367  0.0622  0.8012
18868SOL     OW58044   0.736   0.583   8.946 -0.2058  0.2392  0.0124
18868SOL    HW158045   0.776   0.574   8.860 -1.0563 -1.8806 -0.2351
18868SOL    HW258046   0.652   0.625   8.929  0.0092  0.6374 -0.0689
18869SOL     OW58047   7.507   3.949   1.262 -0.0446 -0.4532  0.0792
18869SOL    HW158048   7.460   4.012   1.209  0.6067 -0.1307 -0.1303
18869SOL    HW258049   7.450   3.872   1.266 -0.7640  0.0850  0.1963
18870SOL     OW58050   6.036   0.566   2.447 -0.0551  0.5088  0.0717
18870SOL    HW158051   6.068   0.655   2.433  1.6234 -0.0572  0.0123
18870SOL    HW258052   5.992   0.543   2.366  0.7043  0.8168 -0.4424
18871SOL     OW58053   2.608   2.793  11.819  0.3616  0.0989 -0.1501
18871SOL    HW158054   2.628   2.884  11.796 -0.9949  0.0492 -1.6629
18871SOL    HW258055   2.683   2.765  11.871  0.6999  2.1552  0.5798
18872SOL     OW58056   6.349   6.650   9.387  0.4560  0.5338  0.2174
18872SOL    HW158057   6.363   6.732   9.341 -1.6151 -0.1868 -1.9252
18872SOL    HW258058   6.425   6.596   9.366  0.3697  0.8478 -0.9700
18873SOL     OW58059   2.401   5.928   0.168 -0.3789  0.2937  0.5482
18873SOL    HW158060   2.450   5.920   0.086 -1.3966  1.9847 -0.2967
18873SOL    HW258061   2.461   5.896   0.235  1.3440  0.9206 -0.6061
18874SOL     OW58062   4.417   6.807   6.699 -0.1266  0.0888 -0.4292
18874SOL    HW158063   4.482   6.817   6.630 -1.2184  1.1097 -1.3489
18874SOL    HW258064   4.343   6.764   6.657  0.3830 -2.3004  0.9243
18875SOL     OW58065   4.234   5.956  10.098 -0.1917  0.0783  0.0281
18875SOL    HW158066   4.226   5.991  10.186 -0.5356 -1.6591  0.7290
18875SOL    HW258067   4.309   5.898  10.101 -0.9820 -1.0086 -0.4389
18876SOL     OW58068   7.439   2.460   5.424 -0.2303  0.2262 -0.1677
18876SOL    HW158069   7.507   2.463   5.356 -0.7504  0.7469 -0.6776
18876SOL    HW258070   7.397   2.374   5.411  0.8969 -0.4872  0.7312
18877SOL     OW58071   2.475   3.964  11.363  0.1772  0.1606  0.6982
18877SOL    HW158072   2.569   3.954  11.350  0.1751 -0.5017  1.1599
18877SOL    HW258073   2.467   4.018  11.442  0.1677  0.9212  0.1869
18878SOL     OW58074   4.817   1.513   4.706 -0.1827 -0.5569 -0.1558
18878SOL    HW158075   4.790   1.520   4.798 -0.1815  0.6484 -0.2360
18878SOL    HW258076   4.752   1.454   4.667 -0.1842 -1.0826  0.6105
18879SOL     OW58077   1.704   0.617  11.896  0.2923 -0.5945  0.4273
18879SOL    HW158078   1.726   0.705  11.925 -0.3507 -0.5029  0.6444
18879SOL    HW258079   1.630   0.591  11.951 -0.0842 -0.9333 -0.2255
18880SOL     OW58080   2.010   2.873   7.005 -0.4273 -0.3436  0.0045
18880SOL    HW158081   1.982   2.872   7.096  0.1653  0.6055  0.2100
18880SOL    HW258082   1.929   2.865   6.955 -0.8861  0.3907  0.6067
18881SOL     OW58083   5.118   6.152   1.284 -0.0742 -0.0066  0.4914
18881SOL    HW158084   5.066   6.185   1.210 -0.7250 -1.1762  0.3950
18881SOL    HW258085   5.059   6.157   1.359  0.9144  2.1144  1.1762
18882SOL     OW58086   1.077   7.867   6.735 -0.5417  0.3435  0.3849
18882SOL    HW158087   1.069   7.781   6.693  0.6924 -0.1774  1.1543
18882SOL    HW258088   0.993   7.880   6.780 -0.4857 -0.8087  0.8627
18883SOL     OW58089   5.554   2.732   8.047  0.3825 -0.7030  0.0766
18883SOL    HW158090   5.649   2.728   8.036  0.3852 -0.1041 -0.1858
18883SOL    HW258091   5.521   2.763   7.962  0.1271  0.9718  0.7289
18884SOL     OW58092   0.946   3.297   5.002  0.1050  0.1783  0.3720
18884SOL    HW158093   1.014   3.342   5.052  0.3779 -0.1562  0.3072
18884SOL    HW258094   0.875   3.360   4.996  0.8446  0.9574 -0.5313
18885SOL     OW58095   7.693   5.887   9.752 -0.3736 -0.2405 -0.0797
18885SOL    HW158096   7.770   5.831   9.741  0.6714  1.1333 -0.0233
18885SOL    HW258097   7.693   5.943   9.674 -1.1184  0.0023  0.0904
18886SOL     OW58098   7.742   3.157   9.960 -0.5707 -0.5571  0.0780
18886SOL    HW158099   7.688   3.197  10.028  1.9296  2.6827  0.3877
18886SOL    HW258100   7.705   3.069   9.949 -4.3072  0.5656  1.8803
18887SOL     OW58101   2.149   3.599   6.531 -0.1431 -0.2053 -0.6037
18887SOL    HW158102   2.220   3.548   6.492 -0.1579 -0.5251 -0.2208
18887SOL    HW258103   2.186   3.686   6.545  0.4459 -0.6011  0.3786
18888SOL     OW58104   2.903   5.158   7.972 -0.0803  0.0492 -0.3014
18888SOL    HW158105   2.991   5.174   8.005 -0.0207 -1.0074  0.0862
18888SOL    HW258106   2.875   5.242   7.938  1.3759  0.2243 -1.1545
18889SOL     OW58107   3.051   7.903   9.328 -0.3257  0.2859  0.3832
18889SOL    HW158108   3.030   7.886   9.236 -2.0044  0.1948  0.7509
18889SOL    HW258109   3.136   7.947   9.325 -0.0099 -0.3515 -1.1557
18890SOL     OW58110   2.460   5.105   0.102 -0.1230  0.5341  0.9728
18890SOL    HW158111   2.457   5.128   0.195  0.9512  0.1618  1.1214
18890SOL    HW258112   2.478   5.011   0.102 -3.8190 -0.3063  0.3905
18891SOL     OW58113   6.790   5.218   9.064  0.2521 -0.2542  0.2519
18891SOL    HW158114   6.809   5.300   9.110  1.6718 -0.9662  0.9984
18891SOL    HW258115   6.714   5.239   9.008  1.0635  1.7904 -0.1894
18892SOL     OW58116   4.326   4.738   8.652 -0.3802 -0.8177 -0.2784
18892SOL    HW158117   4.350   4.687   8.729 -1.6626  0.1741  0.8223
18892SOL    HW258118   4.336   4.829   8.679 -1.4195 -0.4390 -1.0795
18893SOL     OW58119   3.308   0.537  10.114 -0.2955  0.0853 -0.1693
18893SOL    HW158120   3.254   0.504  10.042 -2.1140 -1.5395  1.8257
18893SOL    HW258121   3.318   0.462  10.173  0.1717  1.6407  1.8246
18894SOL     OW58122   0.662   4.026  11.714 -0.6833 -0.4454  0.1623
18894SOL    HW158123   0.688   4.021  11.806 -3.7181  1.1715  1.2384
18894SOL    HW258124   0.634   4.116  11.701 -1.0766 -0.8285 -2.1589
18895SOL     OW58125   1.778   6.870   9.583 -0.0461 -0.1116 -0.6410
18895SOL    HW158126   1.840   6.797   9.583  0.3193  0.1327  1.1765
18895SOL    HW258127   1.752   6.878   9.675 -0.3602  1.8195 -0.8696
18896SOL     OW58128   4.502   7.683   0.677 -0.1892 -0.4466 -0.0152
18896SOL    HW158129   4.486   7.677   0.771 -1.9007 -2.9271 -0.3774
18896SOL    HW258130   4.518   7.593   0.649  0.6156  0.2701 -2.0700
18897SOL     OW58131   7.431   7.769  11.885  0.0563  0.2785 -0.1966
18897SOL    HW158132   7.439   7.864  11.894 -0.9380  0.4357 -0.7291
18897SOL    HW258133   7.348   7.757  11.838  0.2548 -0.8470 -0.2852
18898SOL     OW58134   1.772   4.565   1.799  0.2394  0.0145  0.8359
18898SOL    HW158135   1.685   4.558   1.758  0.2415 -1.7897  1.0752
18898SOL    HW258136   1.800   4.474   1.810  2.0894  0.5769  0.9442
18899SOL     OW58137   0.320   0.905   3.127 -0.2979  0.7435 -0.0348
18899SOL    HW158138   0.369   0.921   3.046 -0.7170 -0.5287 -0.5761
18899SOL    HW258139   0.241   0.958   3.119 -0.5900  0.2221 -0.7268
18900SOL     OW58140   4.101   4.782   6.381 -0.2233 -0.5468  0.0678
18900SOL    HW158141   4.187   4.741   6.373  1.1496  2.0775  0.2438
18900SOL    HW258142   4.093   4.803   6.474  0.0078  1.2320 -0.2790
18901SOL     OW58143   7.902   2.755  11.663 -0.1651 -0.7038  0.1655
18901SOL    HW158144   7.914   2.788  11.574  0.8850  3.5207  1.6506
18901SOL    HW258145   7.990   2.734  11.694 -0.6150 -3.1522 -0.0067
18902SOL     OW58146   0.388   6.131  10.289 -0.2668  0.2596 -0.0397
18902SOL    HW158147   0.317   6.077  10.256 -0.7125  0.4684  0.5522
18902SOL    HW258148   0.467   6.079  10.273 -0.7670 -1.0463  1.4181
18903SOL     OW58149   2.081   0.061   0.761 -0.6867  0.1596  0.2450
18903SOL    HW158150   2.016   0.119   0.723 -2.8213 -1.2761  1.4780
18903SOL    HW258151   2.140   0.040   0.689 -0.8062  2.5182 -0.6046
18904SOL     OW58152   0.981   2.216   8.141  0.0440 -0.1203 -0.0329
18904SOL    HW158153   0.988   2.269   8.221  0.6729  0.6773 -0.6054
18904SOL    HW258154   0.987   2.279   8.070  2.8303 -1.1013 -0.7883
18905SOL     OW58155   1.416   3.710   2.012 -0.1265 -0.2370  0.0807
18905SOL    HW158156   1.334   3.735   2.054 -0.0922  1.7570 -0.8875
18905SOL    HW258157   1.461   3.656   2.076 -1.0081  0.9165  1.7464
18906SOL     OW58158   6.104   3.911   7.082 -0.0175  0.0531 -0.7386
18906SOL    HW158159   6.096   4.004   7.104 -0.6650 -0.2688  0.4543
18906SOL    HW258160   6.191   3.887   7.114  0.6082  0.4800 -2.0314
18907SOL     OW58161   5.289   5.461  12.135 -0.6230  0.2895  0.2044
18907SOL    HW158162   5.318   5.550  12.114 -0.8443  0.6008  1.1859
18907SOL    HW258163   5.194   5.467  12.142 -0.4777  0.6340  3.0602
18908SOL     OW58164   3.004   1.278   4.065  0.3255 -0.0666 -0.5037
18908SOL    HW158165   2.946   1.260   4.138 -0.9213  0.5945 -1.3062
18908SOL    HW258166   3.092   1.264   4.100 -0.1636  1.4722  1.4740
18909SOL     OW58167   3.827   7.835   3.387  0.1840  0.2849  0.0399
18909SOL    HW158168   3.919   7.812   3.394 -0.1837 -1.5958 -0.6413
18909SOL    HW258169   3.808   7.886   3.466  1.6961  0.3548  0.3813
18910SOL     OW58170   4.114   6.205  11.716 -0.0234  0.1544  0.3787
18910SOL    HW158171   4.056   6.238  11.647  0.6806  0.5008 -0.0655
18910SOL    HW258172   4.176   6.277  11.730  0.7857 -0.5174  0.2741
18911SOL     OW58173   7.341   0.930   1.008 -0.3044  0.3883 -0.2371
18911SOL    HW158174   7.322   0.839   0.983  0.3700 -0.1974  1.2978
18911SOL    HW258175   7.264   0.958   1.057 -0.0097  0.2263  0.3269
18912SOL     OW58176   2.760   4.784   4.938 -0.0001 -0.2049 -0.1774
18912SOL    HW158177   2.736   4.809   5.027  1.2336 -1.2672  0.4838
18912SOL    HW258178   2.825   4.715   4.949 -1.5600 -2.0697 -1.9100
18913SOL     OW58179   0.966   1.404   1.652 -0.1379  0.4888 -0.0732
18913SOL    HW158180   1.061   1.415   1.644  0.0442 -0.3168  0.7870
18913SOL    HW258181   0.943   1.451   1.732 -0.4241  0.4647 -0.1408
18914SOL     OW58182   2.376   4.884   2.618 -0.1670  0.5302 -0.1085
18914SOL    HW158183   2.431   4.895   2.695  1.9841 -0.8838 -1.3338
18914SOL    HW258184   2.287   4.889   2.651  0.6694  0.7739  2.3221
18915SOL     OW58185   1.008   5.745   1.637 -0.2653  0.0637 -0.2611
18915SOL    HW158186   0.915   5.761   1.654 -0.2117 -0.4180  0.5238
18915SOL    HW258187   1.045   5.722   1.722 -0.1144 -3.0622 -1.0454
18916SOL     OW58188   7.434   6.083   2.169  0.0817  0.1933  0.2169
18916SOL    HW158189   7.454   6.081   2.262 -1.2651  0.9122  0.5399
18916SOL    HW258190   7.433   6.176   2.147 -2.0305  0.1684  0.0518
18917SOL     OW58191   6.333   2.987  11.051  0.0311 -0.1202 -0.1364
18917SOL    HW158192   6.263   2.936  11.009 -0.5201  1.0660 -0.7074
18917SOL    HW258193   6.413   2.937  11.032 -0.2079  0.2859 -2.5512
18918SOL     OW58194   4.193   4.814   3.397 -0.3200 -0.1217  0.0777
18918SOL    HW158195   4.263   4.826   3.461 -1.6386  1.4946  1.2934
18918SOL    HW258196   4.164   4.723   3.411 -0.7350  0.2474  2.0187
18919SOL     OW58197   1.839   7.574   5.000  0.0309 -0.1499 -0.3606
18919SOL    HW158198   1.764   7.554   5.055  1.1719 -0.7076  1.0493
18919SOL    HW258199   1.811   7.651   4.949 -1.4384 -0.2790  0.1994
18920SOL     OW58200   4.933   0.844   8.496  0.0867  0.5553  0.6167
18920SOL    HW158201   4.971   0.762   8.527  0.1892 -0.0538 -0.9871
18920SOL    HW258202   4.872   0.870   8.564 -0.0821 -0.9709  1.0810
18921SOL     OW58203   2.734   2.761   6.148 -0.1091 -0.1955  0.3363
18921SOL    HW158204   2.762   2.739   6.237  0.8030  1.1942  0.4246
18921SOL    HW258205   2.752   2.854   6.140 -0.8033 -0.1595 -1.0967
18922SOL     OW58206   0.035   5.614   5.377 -0.0327  0.2198  0.2180
18922SOL    HW158207  -0.021   5.682   5.339 -0.6690  0.9660  2.3395
18922SOL    HW258208   0.116   5.660   5.400 -0.6886  0.4913  2.2156
18923SOL     OW58209   3.551   3.674   8.454  0.2562 -0.2818 -0.1679
18923SOL    HW158210   3.560   3.634   8.368  0.4364  0.2520 -0.3946
18923SOL    HW258211   3.462   3.652   8.482  0.4610 -1.1223 -0.1489
18924SOL     OW58212   0.050   7.858   7.329 -0.0726 -0.3070  0.4346
18924SOL    HW158213  -0.029   7.864   7.383 -1.0818  0.0063 -1.0046
18924SOL    HW258214   0.066   7.764   7.320 -1.0544 -0.4273 -0.2865
18925SOL     OW58215   1.397   4.621   1.895  0.2376 -0.3563 -0.5707
18925SOL    HW158216   1.380   4.548   1.835 -0.1682 -0.5442 -0.2416
18925SOL    HW258217   1.438   4.580   1.971  0.5566 -0.1524 -0.6344
18926SOL     OW58218   5.602   7.694  11.342 -0.4627 -0.5450 -0.4346
18926SOL    HW158219   5.564   7.692  11.254  1.2256 -2.5126 -1.1723
18926SOL    HW258220   5.664   7.622  11.344  1.6524  1.1713  1.4415
18927SOL     OW58221   1.674   5.750   6.617  0.2243  0.0900  0.9654
18927SOL    HW158222   1.636   5.686   6.677  1.3412 -1.6960 -0.1337
18927SOL    HW258223   1.768   5.742   6.630  0.4074  0.9354  0.2284
18928SOL     OW58224   3.376   6.524   7.280 -0.4219 -0.3513  0.2423
18928SOL    HW158225   3.299   6.571   7.248 -0.5546  0.0653  1.1430
18928SOL    HW258226   3.451   6.574   7.245 -0.5170 -1.4483 -1.6522
18929SOL     OW58227   7.214   3.040   8.379 -0.0612  0.0830  0.3559
18929SOL    HW158228   7.162   3.088   8.315  1.2112  0.6760 -0.2874
18929SOL    HW258229   7.248   2.964   8.331  0.7004  0.4006  0.3733
18930SOL     OW58230   2.163   2.268   1.812 -0.2462 -0.9191 -0.4329
18930SOL    HW158231   2.085   2.241   1.860 -0.6101  1.1077  0.2035
18930SOL    HW258232   2.178   2.358   1.839  0.8479 -0.4327 -2.4583
18931SOL     OW58233   0.756   2.043   1.704  0.4759 -0.3095  0.1142
18931SOL    HW158234   0.680   2.074   1.655  0.7975 -0.6813 -0.6419
18931SOL    HW258235   0.831   2.075   1.654  0.8164 -0.4163  0.5484
18932SOL     OW58236   4.842   4.508  10.564  0.7300 -0.4089  0.5283
18932SOL    HW158237   4.861   4.575  10.498 -0.5890 -2.0593 -1.7066
18932SOL    HW258238   4.903   4.437  10.543 -0.1476 -1.2108  0.6493
18933SOL     OW58239   2.359   5.759  11.490 -0.0953 -0.5614 -0.5285
18933SOL    HW158240   2.398   5.673  11.504  0.1476 -0.4944 -0.7779
18933SOL    HW258241   2.276   5.742  11.445 -0.2039 -0.6856 -0.2805
18934SOL     OW58242   6.533   7.610   9.510 -0.6009  0.0012  0.6664
18934SOL    HW158243   6.537   7.591   9.416  1.7759 -2.8923  1.2408
18934SOL    HW258244   6.565   7.700   9.517  1.4223 -0.4970 -1.1516
18935SOL     OW58245   1.989   5.834   0.559 -0.1097  0.0325  0.4116
18935SOL    HW158246   1.915   5.869   0.607 -0.3567  0.1497 -0.0477
18935SOL    HW258247   1.967   5.849   0.467 -1.8348 -4.2270 -0.1429
18936SOL     OW58248   6.849   0.320   1.612 -0.3421  0.0725 -0.4134
18936SOL    HW158249   6.800   0.242   1.584 -1.3167  0.5175 -0.0073
18936SOL    HW258250   6.841   0.381   1.539  0.8133 -0.3552 -0.9231
18937SOL     OW58251   4.049   7.094   1.453  0.1089 -0.6660  0.8340
18937SOL    HW158252   4.033   7.127   1.365 -1.1793  0.7674  1.5627
18937SOL    HW258253   4.143   7.101   1.465  0.4802 -1.9860 -0.8120
18938SOL     OW58254   4.204   5.585  10.707  0.0417 -0.2671  0.4844
18938SOL    HW158255   4.243   5.507  10.668 -0.4440 -0.4651  0.3892
18938SOL    HW258256   4.213   5.572  10.801 -2.0567 -1.5102  0.5599
18939SOL     OW58257   1.745   5.498  10.161  0.0452 -0.2318  0.7342
18939SOL    HW158258   1.656   5.482  10.129  0.0583 -0.1342  0.6486
18939SOL    HW258259   1.741   5.481  10.255 -0.0111 -0.4492  0.6922
18940SOL     OW58260   0.462   0.089   4.576  0.2103 -1.0285 -0.1372
18940SOL    HW158261   0.554   0.115   4.572  0.3007 -1.2479  0.4504
18940SOL    HW258262   0.424   0.123   4.495  1.0231 -1.7976 -0.8577
18941SOL     OW58263   1.876   3.319   6.922  0.8343  0.0624  0.0669
18941SOL    HW158264   1.957   3.366   6.900  0.3753  1.2914  0.8813
18941SOL    HW258265   1.877   3.313   7.018  0.1554 -0.2519  0.0594
18942SOL     OW58266   1.052   4.079  11.249 -0.3484 -0.3634 -0.1200
18942SOL    HW158267   0.993   4.020  11.203 -1.2564 -0.2664  0.8804
18942SOL    HW258268   0.997   4.121  11.316  1.1611 -1.4643  1.9186
18943SOL     OW58269   0.848   6.509   6.326  0.4704 -0.3637  0.5695
18943SOL    HW158270   0.776   6.467   6.279  1.4196 -1.3108 -0.1018
18943SOL    HW258271   0.903   6.436   6.356  1.2938  0.3389  0.8368
18944SOL     OW58272   6.044   4.220   8.357 -0.2170  0.0972 -0.8490
18944SOL    HW158273   6.061   4.309   8.388 -1.5525 -0.3261  1.3606
18944SOL    HW258274   5.960   4.196   8.397  0.6097 -2.5422 -0.4528
18945SOL     OW58275   5.096   1.052  10.030 -0.3030 -0.5126 -0.5300
18945SOL    HW158276   5.182   1.055   9.989 -0.6147  1.8833 -1.1528
18945SOL    HW258277   5.071   1.144  10.041 -1.2877 -1.0187  2.8564
18946SOL     OW58278   3.374   5.452   5.333  0.3050  0.1389  0.5021
18946SOL    HW158279   3.303   5.502   5.293 -0.2100  0.2973  1.5882
18946SOL    HW258280   3.415   5.406   5.260  0.1715  1.3766 -0.3740
18947SOL     OW58281   6.426   5.605   6.668  0.0239  0.3127  0.4648
18947SOL    HW158282   6.518   5.630   6.654 -0.3158  0.8768 -0.9380
18947SOL    HW258283   6.412   5.532   6.607 -0.4345  0.1797  0.7309
18948SOL     OW58284   0.690   6.193   3.451  0.4020  0.2776 -0.0219
18948SOL    HW158285   0.650   6.144   3.379  0.5376  0.1953 -0.0406
18948SOL    HW258286   0.727   6.271   3.409 -1.3025  1.2805  0.2303
18949SOL     OW58287   1.718   4.071   0.172  0.1905 -0.9633  0.2482
18949SOL    HW158288   1.652   4.139   0.157 -0.9483 -1.9528  0.5557
18949SOL    HW258289   1.794   4.098   0.120 -0.0242  0.8084  0.7846
18950SOL     OW58290   0.461   2.746   6.826  0.0012 -0.5871 -0.2136
18950SOL    HW158291   0.525   2.776   6.762 -0.9185 -1.5214 -1.6413
18950SOL    HW258292   0.384   2.800   6.810 -0.4609 -1.2839 -0.3846
18951SOL     OW58293   7.916   3.250   4.639  0.5875 -0.3291 -0.1742
18951SOL    HW158294   7.890   3.158   4.639  1.9139 -0.7343  0.2994
18951SOL    HW258295   7.841   3.297   4.604  0.7414 -1.8565 -2.7964
18952SOL     OW58296   6.460   7.004   1.515  0.0286 -0.1819  0.3179
18952SOL    HW158297   6.544   7.034   1.549 -0.3363  1.7866 -0.4206
18952SOL    HW258298   6.411   7.084   1.496 -0.4940 -1.1546 -3.1221
18953SOL     OW58299   0.114   4.144   8.072  0.7222 -0.1470 -0.7363
18953SOL    HW158300   0.076   4.150   8.160 -1.1226 -1.2402 -1.4230
18953SOL    HW258301   0.170   4.066   8.075 -0.3136 -0.9123 -0.8595
18954SOL     OW58302   3.245   5.549   6.337  0.0440 -0.3882 -0.2965
18954SOL    HW158303   3.177   5.486   6.313  0.5292 -0.6642 -0.9867
18954SOL    HW258304   3.265   5.530   6.429 -0.3219 -0.7610 -0.2926
18955SOL     OW58305   2.927   3.461   1.764 -0.1112 -0.2793 -0.0668
18955SOL    HW158306   3.012   3.433   1.799 -0.1859 -0.0290  0.3126
18955SOL    HW258307   2.909   3.543   1.808 -0.2862 -0.0427 -0.5755
18956SOL     OW58308   7.508   5.997  10.812 -0.2017 -0.2481 -0.5211
18956SOL    HW158309   7.521   5.910  10.850 -0.7697 -0.9292 -1.8336
18956SOL    HW258310   7.414   6.012  10.816  0.0150  1.0076  1.1112
18957SOL     OW58311   5.452   3.960   0.297  0.1837 -0.0525 -0.1609
18957SOL    HW158312   5.494   3.923   0.374  1.9238 -0.5442 -1.2868
18957SOL    HW258313   5.367   3.917   0.293 -0.6460  1.1551  2.3318
18958SOL     OW58314   7.778   5.035   3.898  0.3977  0.2179  0.6090
18958SOL    HW158315   7.718   5.106   3.920 -0.6961 -0.2256 -0.8224
18958SOL    HW258316   7.782   4.981   3.977 -0.0553  0.9667  1.1495
18959SOL     OW58317   1.783   5.871   5.446  0.3052  0.3461  0.0150
18959SOL    HW158318   1.769   5.936   5.516 -0.2805  0.0794  0.1555
18959SOL    HW258319   1.838   5.916   5.382  0.3880  0.7852  0.3868
18960SOL     OW58320   2.168   1.291   7.088 -0.0663 -0.0495  0.0411
18960SOL    HW158321   2.215   1.223   7.137 -0.5483 -1.1373 -0.9632
18960SOL    HW258322   2.146   1.357   7.154  1.1907 -0.4289  0.8778
18961SOL     OW58323   4.756   1.270   8.738 -0.6339 -0.5476  0.0891
18961SOL    HW158324   4.700   1.240   8.810 -0.6391  2.3097  1.4144
18961SOL    HW258325   4.832   1.211   8.741 -0.4288 -0.2764  2.7683
18962SOL     OW58326   2.087   2.349  11.444  0.4634  0.4365 -0.6169
18962SOL    HW158327   2.181   2.360  11.429  0.5767  0.6377  0.1951
18962SOL    HW258328   2.081   2.309  11.531 -0.2077  0.5467 -0.6093
18963SOL     OW58329   1.149   7.366   6.177 -0.6660  0.1748 -0.0718
18963SOL    HW158330   1.088   7.339   6.109 -1.0708 -0.3440  0.4867
18963SOL    HW258331   1.219   7.411   6.130 -1.2050  0.2945 -0.7722
18964SOL     OW58332   2.925   2.663   4.352  0.7340 -0.3211  0.3562
18964SOL    HW158333   2.946   2.659   4.259 -1.1556 -0.2218 -0.1008
18964SOL    HW258334   2.853   2.601   4.364 -0.5327  1.2523  1.2997
18965SOL     OW58335   0.334   0.302  10.626 -0.1925 -0.1870  0.1524
18965SOL    HW158336   0.410   0.290  10.570 -0.1981 -0.0505  0.1149
18965SOL    HW258337   0.358   0.259  10.708 -0.4670 -1.0274 -0.1977
18966SOL     OW58338   3.247   1.900   0.047  0.0347 -0.1778  0.4563
18966SOL    HW158339   3.206   1.982   0.017  0.7515 -0.7786 -2.4394
18966SOL    HW258340   3.316   1.929   0.107  0.0801  1.3401 -0.2685
18967SOL     OW58341   7.420   3.963  10.955  0.8121  0.0808  0.0830
18967SOL    HW158342   7.426   3.868  10.957 -1.1035 -0.1122 -0.8074
18967SOL    HW258343   7.350   3.984  11.017  1.4619  0.9410  0.5429
18968SOL     OW58344   5.939   3.932   6.662 -0.5860 -0.2251 -0.1077
18968SOL    HW158345   5.934   3.842   6.696 -0.1544 -0.8282 -1.5719
18968SOL    HW258346   5.964   3.984   6.738 -2.6249 -1.0284  1.2152
18969SOL     OW58347   3.347   7.318   7.985  0.4705 -0.6583  0.1888
18969SOL    HW158348   3.254   7.343   7.979  0.3338 -1.4414 -1.3950
18969SOL    HW258349   3.394   7.401   7.988 -0.1839 -0.2266 -0.9306
18970SOL     OW58350   2.860   2.240   1.979  0.6558 -0.2306  0.6158
18970SOL    HW158351   2.772   2.274   1.993  0.6239 -0.0856  0.0956
18970SOL    HW258352   2.867   2.165   2.038 -0.1464 -0.7995  0.0138
18971SOL     OW58353   3.412   7.128   4.189 -0.1940  0.2355 -0.7925
18971SOL    HW158354   3.474   7.195   4.160  0.1764  0.0160 -0.5183
18971SOL    HW258355   3.344   7.177   4.236  0.3849  0.3659 -0.0769
18972SOL     OW58356   2.191   0.762  10.938 -0.4813 -0.2398  0.4368
18972SOL    HW158357   2.273   0.755  10.987  1.0055  1.5257 -1.6185
18972SOL    HW258358   2.174   0.673  10.907  0.6435 -0.6491  0.9370
18973SOL     OW58359   2.361   3.017   3.665 -0.0772  0.1132 -0.4035
18973SOL    HW158360   2.271   3.044   3.643  0.4228  3.2285  0.8384
18973SOL    HW258361   2.407   3.018   3.581 -1.2803 -2.1744 -1.1601
18974SOL     OW58362   1.628   0.305  10.707  0.3440 -0.9629  0.3143
18974SOL    HW158363   1.679   0.322  10.628 -1.6225 -0.6762 -0.9556
18974SOL    HW258364   1.667   0.362  10.773  2.3112 -1.5275 -0.2762
18975SOL     OW58365   0.461   4.566  10.214  1.0859  0.6186 -0.2732
18975SOL    HW158366   0.409   4.501  10.166  1.2399 -0.6411  1.1934
18975SOL    HW258367   0.470   4.639  10.152 -2.6060  1.0371 -0.5752
18976SOL     OW58368   1.818   0.350   4.772  0.1052 -0.1275  0.0090
18976SOL    HW158369   1.837   0.389   4.686  0.8786 -0.5828 -0.0396
18976SOL    HW258370   1.892   0.376   4.827 -0.2544 -0.0605  0.4635
18977SOL     OW58371   2.341   6.267   9.603  0.1719 -0.1342  0.3214
18977SOL    HW158372   2.355   6.362   9.607 -2.1242  0.3669 -1.3556
18977SOL    HW258373   2.328   6.241   9.694 -0.8960  1.5164  0.6898
18978SOL     OW58374   0.460   2.628   3.628  0.3560 -0.5749 -0.1574
18978SOL    HW158375   0.502   2.553   3.671  0.8027 -0.3898 -0.2689
18978SOL    HW258376   0.413   2.590   3.554 -1.5297 -1.0966  1.1970
18979SOL     OW58377   6.325   6.727  11.588 -0.0220 -0.1779  0.1035
18979SOL    HW158378   6.317   6.643  11.633  0.4823 -0.9884 -1.2748
18979SOL    HW258379   6.314   6.707  11.496  1.7359  0.9944 -0.4189
18980SOL     OW58380   2.510   3.696   5.523  0.4788  0.1740 -0.1080
18980SOL    HW158381   2.419   3.694   5.493 -0.2341  0.5236  1.8721
18980SOL    HW258382   2.545   3.610   5.498 -0.2119  0.2301 -1.3569
18981SOL     OW58383   0.095   5.610   0.116 -0.3413 -0.3248 -0.4443
18981SOL    HW158384   0.091   5.558   0.197 -0.9661  0.2733 -0.0772
18981SOL    HW258385   0.019   5.668   0.122  0.6044  0.9630 -0.6216
18982SOL     OW58386   0.596   6.789   0.168 -0.1439 -0.3382  0.4249
18982SOL    HW158387   0.545   6.822   0.094  0.6668 -0.5744 -0.2636
18982SOL    HW258388   0.678   6.759   0.128 -0.4862 -2.3468  1.1376
18983SOL     OW58389   2.843   5.354   4.542  0.0537  0.5905  0.0349
18983SOL    HW158390   2.771   5.323   4.597  0.1628  1.0306  0.4363
18983SOL    HW258391   2.897   5.406   4.601 -0.3069  1.8249 -0.6906
18984SOL     OW58392   1.861   3.553   8.506 -0.0745 -0.6716 -0.8220
18984SOL    HW158393   1.925   3.549   8.435 -0.3683 -1.6523 -1.0502
18984SOL    HW258394   1.805   3.627   8.483 -0.1022 -0.9128 -1.5777
18985SOL     OW58395   2.953   3.231   4.134  0.0374  0.4175 -0.0256
18985SOL    HW158396   2.888   3.210   4.201  0.2124  1.6386  0.5600
18985SOL    HW258397   3.019   3.162   4.141  0.4608  0.9361  1.6454
18986SOL     OW58398   1.851   3.918  12.308  0.1111  0.4485  0.5425
18986SOL    HW158399   1.767   3.898  12.349 -0.6948  1.2796 -0.6378
18986SOL    HW258400   1.864   3.848  12.244 -0.0047  0.6634  0.2803
18987SOL     OW58401   2.832   6.290   1.762 -0.7065  0.1758  0.1307
18987SOL    HW158402   2.839   6.371   1.811 -0.1430  0.2369 -0.0345
18987SOL    HW258403   2.854   6.221   1.825 -1.6898  0.0993  0.4042
18988SOL     OW58404   1.335   2.686   2.753 -0.3750 -0.1332  0.3233
18988SOL    HW158405   1.251   2.699   2.709 -0.2738 -0.1499  0.1225
18988SOL    HW258406   1.328   2.736   2.834 -1.3179 -1.7312  1.2836
18989SOL     OW58407   5.330   5.717  12.053 -0.3331  0.8744  0.1301
18989SOL    HW158408   5.355   5.694  11.963 -1.1932 -0.3490  0.1800
18989SOL    HW258409   5.377   5.798  12.070  0.1006  0.9681 -1.3140
18990SOL     OW58410   3.350   0.581   9.534 -0.0856 -0.0206  0.0556
18990SOL    HW158411   3.410   0.605   9.463 -0.2294 -0.2839 -0.1559
18990SOL    HW258412   3.265   0.613   9.504 -0.7231 -2.6334 -1.2440
18991SOL     OW58413   3.484   0.155   9.455 -0.4238 -0.2187  0.0866
18991SOL    HW158414   3.512   0.066   9.475 -0.6814 -0.3494 -0.1248
18991SOL    HW258415   3.551   0.190   9.397 -1.1259 -0.8338 -1.1349
18992SOL     OW58416   2.818   5.663   0.421 -0.3024  0.1756  0.0979
18992SOL    HW158417   2.794   5.609   0.346 -1.9008  0.6167  0.2559
18992SOL    HW258418   2.909   5.686   0.405  0.9018 -3.4909  0.6002
18993SOL     OW58419   1.862   5.962   3.685  0.3850  0.3866 -0.1240
18993SOL    HW158420   1.894   5.915   3.762  4.0381  2.5784 -0.0503
18993SOL    HW258421   1.860   5.896   3.615  1.2260 -0.7537  0.8995
18994SOL     OW58422   1.369   3.509  11.210 -0.0295 -0.4277 -0.2227
18994SOL    HW158423   1.357   3.583  11.270  0.5994 -1.9343  1.8974
18994SOL    HW258424   1.306   3.444  11.242  0.6831 -1.4610 -0.9053
18995SOL     OW58425   6.842   4.687   7.937 -0.1220 -0.0615  0.4835
18995SOL    HW158426   6.812   4.734   7.859 -1.9681 -1.0666  0.5428
18995SOL    HW258427   6.769   4.631   7.962  1.4911 -1.9587  1.2423
18996SOL     OW58428   4.132   7.120   3.432  0.3823 -0.6196 -0.3745
18996SOL    HW158429   4.172   7.207   3.432 -1.8176  0.4846  1.2722
18996SOL    HW258430   4.206   7.059   3.440  1.8703  1.1818  0.1851
18997SOL     OW58431   1.854   4.274   4.364  0.0143  0.5524 -0.2028
18997SOL    HW158432   1.833   4.293   4.456  0.9975 -2.6419  0.8244
18997SOL    HW258433   1.770   4.277   4.319 -1.1869 -1.6032  1.6624
18998SOL     OW58434   2.516   1.812  12.140  0.4878  0.1030  0.3995
18998SOL    HW158435   2.422   1.803  12.127  0.2834  0.4564  1.5673
18998SOL    HW258436   2.552   1.812  12.051 -0.5399 -0.6935 -0.0390
18999SOL     OW58437   3.106   1.514   9.774 -0.4278  0.0318 -0.0575
18999SOL    HW158438   3.147   1.557   9.699 -1.2163 -0.8332 -1.0226
18999SOL    HW258439   3.086   1.425   9.742  0.3148 -0.7591  1.5588
19000SOL     OW58440   2.006   3.474   7.651  0.2541  0.0013 -0.4035
19000SOL    HW158441   2.101   3.477   7.666  0.0266  1.2496  1.1510
19000SOL    HW258442   1.969   3.450   7.736 -0.9292  2.3795 -0.1507
19001SOL     OW58443   6.889   1.081   3.916  0.7229  0.3965  0.4496
19001SOL    HW158444   6.815   1.029   3.886  1.4593 -1.1710  1.2011
19001SOL    HW258445   6.873   1.093   4.010  0.8402  1.0728  0.3870
19002SOL     OW58446   6.783   4.419  11.189  0.4265 -0.3124  0.2907
19002SOL    HW158447   6.742   4.480  11.128 -0.3443  0.5466  1.6353
19002SOL    HW258448   6.785   4.336  11.141  1.2670  0.6691 -1.4738
19003SOL     OW58449   0.360   5.537  11.337  0.0361  0.0059 -0.0040
19003SOL    HW158450   0.447   5.575  11.351  0.3530 -0.5874 -0.3458
19003SOL    HW258451   0.327   5.521  11.426  1.1157 -1.6555  0.1446
19004SOL     OW58452   4.348   6.934   3.393  0.1131 -0.2192 -0.2164
19004SOL    HW158453   4.392   7.009   3.433 -0.8736  0.8612 -1.0821
19004SOL    HW258454   4.368   6.860   3.451  0.0886  0.9518  1.3389
19005SOL     OW58455   4.242   2.265   6.119  0.7260  0.4653  0.6188
19005SOL    HW158456   4.297   2.208   6.065  2.9392 -0.0117  3.1161
19005SOL    HW258457   4.163   2.214   6.136  1.4108 -0.6873  0.4507
19006SOL     OW58458   4.671   1.510   1.933 -0.1216  0.5604  0.3793
19006SOL    HW158459   4.725   1.506   1.854 -1.3230  0.5796 -0.4556
19006SOL    HW258460   4.674   1.601   1.960  0.7363  0.4540  0.6954
19007SOL     OW58461   3.976   4.580   0.613 -0.0052  0.2667 -0.5491
19007SOL    HW158462   4.007   4.588   0.523  2.2291 -0.0824  0.1260
19007SOL    HW258463   3.938   4.665   0.633  1.5223  1.1202 -1.1233
19008SOL     OW58464   4.021   1.572   2.503  0.0987 -0.2068  0.3095
19008SOL    HW158465   4.069   1.650   2.477 -0.3687  0.2003  0.6327
19008SOL    HW258466   4.082   1.522   2.557  0.8352 -0.7126 -0.9623
19009SOL     OW58467   1.601   0.450   2.460 -0.5250 -0.0117  0.3710
19009SOL    HW158468   1.508   0.442   2.477 -0.4397 -1.0581  0.3881
19009SOL    HW258469   1.610   0.534   2.415 -1.2268  1.0357  2.0908
19010SOL     OW58470   7.047   0.998   9.115 -0.2921 -0.4816 -0.2753
19010SOL    HW158471   7.090   0.970   9.034  1.7556  1.5773 -0.0209
19010SOL    HW258472   7.118   0.999   9.180 -1.5267 -0.4382  1.1153
19011SOL     OW58473   5.543   0.701   1.254  0.3109  0.1079  0.1212
19011SOL    HW158474   5.568   0.609   1.246  0.6729  0.2501 -0.3945
19011SOL    HW258475   5.458   0.706   1.211  0.5420  0.1237 -0.3354
19012SOL     OW58476   0.476   5.224   8.300  0.3285 -0.3407  0.3480
19012SOL    HW158477   0.465   5.312   8.337  0.8871  0.1642 -0.6319
19012SOL    HW258478   0.461   5.236   8.206 -1.4769 -1.6615  0.4223
19013SOL     OW58479   7.198   1.281  11.081 -0.2827 -0.5023  0.4783
19013SOL    HW158480   7.164   1.370  11.093 -0.4176 -0.2378 -1.5395
19013SOL    HW258481   7.292   1.289  11.099  0.0389  0.4830 -1.4232
19014SOL     OW58482   4.497   1.250  10.798 -0.2798 -0.0074  0.0387
19014SOL    HW158483   4.436   1.177  10.798  0.0493 -0.3414 -1.8717
19014SOL    HW258484   4.478   1.297  10.717  0.1606  1.4791  0.7639
19015SOL     OW58485   1.671   6.551   9.534  0.7624  0.6526  0.5436
19015SOL    HW158486   1.700   6.507   9.455 -1.7821  0.9956 -0.6943
19015SOL    HW258487   1.741   6.612   9.556  2.7948 -1.4604  0.2787
19016SOL     OW58488   7.211   5.086  10.578  0.2642  0.6244  0.0427
19016SOL    HW158489   7.292   5.044  10.607  1.7387  1.7289 -2.2245
19016SOL    HW258490   7.155   5.013  10.550  0.7163 -0.1163  1.0190
19017SOL     OW58491   5.477   7.618   8.145  0.2201  0.1083  0.2853
19017SOL    HW158492   5.457   7.576   8.229 -0.0229  0.0755  0.2135
19017SOL    HW258493   5.394   7.614   8.096  0.8878 -1.8473 -0.8117
19018SOL     OW58494   6.423   4.612  10.612  0.0643 -0.0171  0.0002
19018SOL    HW158495   6.396   4.531  10.655  0.3377 -1.2327 -1.9569
19018SOL    HW258496   6.479   4.656  10.675 -0.8231 -0.9028  1.4551
19019SOL     OW58497   4.352   7.237   0.826 -0.1723 -0.0391  0.8865
19019SOL    HW158498   4.279   7.280   0.782 -0.1285  0.3478  1.1894
19019SOL    HW258499   4.420   7.304   0.832  1.0155 -0.9657 -1.2623
19020SOL     OW58500   6.272   7.717   3.816 -0.0260 -0.0350  0.2704
19020SOL    HW158501   6.308   7.644   3.765 -1.5465  0.1598 -1.1870
19020SOL    HW258502   6.348   7.767   3.844  0.9866 -1.5511  0.3297
19021SOL     OW58503   1.851   4.179   6.816  0.4409 -0.1660  0.0188
19021SOL    HW158504   1.908   4.237   6.766 -0.8451  0.3092 -0.9395
19021SOL    HW258505   1.785   4.236   6.854 -0.0097 -0.8246  0.2483
19022SOL     OW58506   2.847   5.431   3.343 -0.0644  0.0922 -0.0222
19022SOL    HW158507   2.890   5.345   3.342  0.8730  0.5354  0.3813
19022SOL    HW258508   2.895   5.483   3.279 -0.7323  0.2816 -0.3836
19023SOL     OW58509   6.615   6.367   1.099  0.2317 -0.8475 -0.2394
19023SOL    HW158510   6.544   6.384   1.161  0.3719  0.8717 -0.5010
19023SOL    HW258511   6.586   6.409   1.018 -0.8829 -4.7454 -2.0616
19024SOL     OW58512   1.710   0.644  10.132 -0.2781 -0.1122  0.1899
19024SOL    HW158513   1.616   0.633  10.151 -0.0659  0.5708  1.8040
19024SOL    HW258514   1.754   0.610  10.210  0.9505 -2.3017 -1.3204
19025SOL     OW58515   1.009   1.387   2.261 -0.5923 -0.4843 -0.4819
19025SOL    HW158516   1.032   1.319   2.198  0.9706 -2.1144  1.7291
19025SOL    HW258517   1.014   1.344   2.346 -2.7662  1.5869  0.8183
19026SOL     OW58518   5.651   3.429   7.650 -0.3350 -0.2777  0.2837
19026SOL    HW158519   5.709   3.474   7.589 -0.4606 -0.2443  0.1891
19026SOL    HW258520   5.599   3.370   7.596 -0.1917 -0.5146  0.4045
19027SOL     OW58521   4.887   0.188   2.637 -0.0689 -0.3662  0.0388
19027SOL    HW158522   4.855   0.101   2.613  0.0578 -0.6183  0.7657
19027SOL    HW258523   4.904   0.183   2.731  0.6854  0.2110 -0.0532
19028SOL     OW58524   5.334   4.793   9.882 -0.0216 -0.2954 -0.5028
19028SOL    HW158525   5.298   4.709   9.856 -0.5087  0.1268 -1.2364
19028SOL    HW258526   5.331   4.792   9.978  0.5972 -1.3645 -0.4800
19029SOL     OW58527   5.717   6.193   3.983  0.5153  0.0330  0.8560
19029SOL    HW158528   5.733   6.214   3.891 -1.8315 -3.0862 -0.4439
19029SOL    HW258529   5.625   6.215   3.997  0.2790 -1.3731  1.7881
19030SOL     OW58530   7.144   6.404   5.485  0.6170  0.0709 -0.2772
19030SOL    HW158531   7.056   6.408   5.521  0.8829  0.0816  0.3718
19030SOL    HW258532   7.159   6.490   5.447 -0.6154 -0.6810 -2.7172
19031SOL     OW58533   5.532   3.852   1.474  0.3935  0.0116 -0.4502
19031SOL    HW158534   5.566   3.931   1.515  0.7417 -0.2554 -0.2243
19031SOL    HW258535   5.607   3.793   1.470 -0.2014 -0.8654  0.7300
19032SOL     OW58536   3.459   3.357   0.049 -0.7762  0.1154  0.2379
19032SOL    HW158537   3.373   3.318   0.065 -1.4927  1.3314 -0.4654
19032SOL    HW258538   3.498   3.365   0.136 -1.4610 -0.2657  0.5891
19033SOL     OW58539   3.362   5.484  10.906 -0.2242 -0.2042  0.7260
19033SOL    HW158540   3.438   5.429  10.926  1.8181  1.1311 -2.5419
19033SOL    HW258541   3.393   5.573  10.921 -1.9155  0.3117  1.3715
19034SOL     OW58542   2.262   6.423   0.534 -0.2803  0.4779  0.0613
19034SOL    HW158543   2.203   6.499   0.532 -0.7648  0.0950 -0.6142
19034SOL    HW258544   2.297   6.423   0.623 -0.2331  1.5237  0.0595
19035SOL     OW58545   4.984   0.754   2.522  0.3685 -0.0856  0.0872
19035SOL    HW158546   5.037   0.705   2.459  1.0780  0.4481  0.2610
19035SOL    HW258547   5.038   0.759   2.601  0.3776  1.1057  0.0206
19036SOL     OW58548   4.063   0.148   6.862  0.1040  0.0652  0.3633
19036SOL    HW158549   4.021   0.093   6.928 -0.8333  2.6148  2.0982
19036SOL    HW258550   4.144   0.177   6.904  0.3304  0.3715 -0.2801
19037SOL     OW58551   6.282   3.736   8.300  0.1442  0.3379 -0.6201
19037SOL    HW158552   6.355   3.718   8.359 -0.3028  1.7776  0.4023
19037SOL    HW258553   6.204   3.728   8.354 -0.4037 -0.0907 -1.4470
19038SOL     OW58554   5.995   5.622   1.018 -0.3282  0.4988  0.1346
19038SOL    HW158555   6.053   5.670   1.076  0.2129 -1.4776  1.3164
19038SOL    HW258556   5.947   5.562   1.076 -3.2656  1.7134 -0.8404
19039SOL     OW58557   1.133   6.364  11.418  0.3094  0.4594  0.4152
19039SOL    HW158558   1.213   6.384  11.467  1.8634  1.1664 -2.2624
19039SOL    HW258559   1.086   6.447  11.415 -0.3966  0.1362  1.6427
19040SOL     OW58560   4.722   6.303   2.627  0.2577  0.4410 -0.5665
19040SOL    HW158561   4.636   6.294   2.667  0.1263  1.4736 -0.6040
19040SOL    HW258562   4.704   6.316   2.534  0.5402 -1.2494 -0.9039
19041SOL     OW58563   3.701   5.886  12.311  0.1313 -0.2878 -0.6193
19041SOL    HW158564   3.641   5.831  12.261 -1.7118  1.0657 -0.0189
19041SOL    HW258565   3.779   5.832  12.324 -1.5356 -2.7318 -0.1161
19042SOL     OW58566   4.548   6.621   8.559 -0.7792  0.1623 -0.5133
19042SOL    HW158567   4.630   6.584   8.527  0.4324 -1.6095  3.9136
19042SOL    HW258568   4.572   6.703   8.600 -1.4652  0.2236 -0.2183
19043SOL     OW58569   1.730   1.698  10.044 -0.1614  0.3259 -0.7556
19043SOL    HW158570   1.703   1.742   9.963  0.4931  0.5008 -0.8819
19043SOL    HW258571   1.808   1.650  10.020 -0.6007 -0.5340 -0.4941
19044SOL     OW58572   1.231   4.101  10.100 -0.0414  0.5335 -0.4640
19044SOL    HW158573   1.137   4.092  10.110 -0.0188  1.4263  0.8002
19044SOL    HW258574   1.267   4.067  10.182  0.7271  0.5271 -0.7911
19045SOL     OW58575   6.843   4.791  10.108 -0.3876  0.6503 -0.8812
19045SOL    HW158576   6.913   4.733  10.136 -0.3869  0.2962 -1.6101
19045SOL    HW258577   6.849   4.866  10.167 -1.7327 -0.9865  1.5101
19046SOL     OW58578   5.324   5.289   4.066  0.1404 -0.8954  0.2449
19046SOL    HW158579   5.357   5.375   4.091 -0.3658 -0.9684  1.1859
19046SOL    HW258580   5.400   5.231   4.073  0.7297 -0.3802 -1.3241
19047SOL     OW58581   7.006   6.028   9.684  0.2342 -0.4287 -0.2644
19047SOL    HW158582   6.939   6.036   9.752 -0.1775  0.2066 -0.7380
19047SOL    HW258583   7.039   5.939   9.694  1.5172  0.2112  2.0056
19048SOL     OW58584   6.675   5.403  11.041 -0.1232  0.0935  0.1086
19048SOL    HW158585   6.662   5.352  10.961  0.8608  0.0312 -0.0218
19048SOL    HW258586   6.763   5.439  11.032 -0.6470  1.5224  0.3641
19049SOL     OW58587   1.326   4.998  12.357  0.2307  0.2431 -0.4020
19049SOL    HW158588   1.394   4.972  12.296  1.1622 -1.4089  1.2355
19049SOL    HW258589   1.262   4.926  12.354  0.1655  0.2607  0.3630
19050SOL     OW58590   5.386   4.129   5.160  0.0392 -0.0616 -0.3683
19050SOL    HW158591   5.460   4.068   5.167 -0.0291 -0.0576  0.5512
19050SOL    HW258592   5.425   4.215   5.178 -0.4379 -0.2364  1.6942
19051SOL     OW58593   3.562   6.980   0.766 -0.1598  0.3534  0.2098
19051SOL    HW158594   3.581   6.899   0.813 -2.7463 -0.3518  0.1781
19051SOL    HW258595   3.503   7.028   0.824  1.3671  2.2895  0.2388
19052SOL     OW58596   3.679   4.814   9.645  0.4228  0.0070 -0.1724
19052SOL    HW158597   3.696   4.727   9.681 -0.5644 -0.3237 -0.4787
19052SOL    HW258598   3.766   4.855   9.640  0.8660 -0.8528  0.2302
19053SOL     OW58599   6.739   2.852   0.836  0.1827 -0.2878 -0.0722
19053SOL    HW158600   6.731   2.767   0.793 -0.2543 -0.6929  0.7949
19053SOL    HW258601   6.705   2.838   0.924 -1.0950  1.1031 -0.3117
19054SOL     OW58602   2.370   7.412   8.089  0.6166 -0.1876  0.3108
19054SOL    HW158603   2.361   7.502   8.060 -0.1937 -0.5928 -0.7657
19054SOL    HW258604   2.291   7.368   8.056  0.7550 -1.1790  1.2384
19055SOL     OW58605   2.412   5.541   9.939 -0.3699 -0.3390 -0.2429
19055SOL    HW158606   2.403   5.452   9.905  0.1977 -0.0064 -1.3262
19055SOL    HW258607   2.394   5.597   9.863  0.7395  0.4359  0.0450
19056SOL     OW58608   4.130   7.775   8.749 -0.1686 -0.0864  0.0785
19056SOL    HW158609   4.113   7.863   8.715  0.3595  0.1943  0.5214
19056SOL    HW258610   4.141   7.787   8.843 -0.4219 -0.6772  0.1863
19057SOL     OW58611   1.822   7.682   4.006 -0.1536 -0.3143  0.4443
19057SOL    HW158612   1.833   7.637   4.090 -0.1724  1.3441  1.3689
19057SOL    HW258613   1.910   7.707   3.981 -0.2642  0.1742  0.5371
19058SOL     OW58614   3.301   5.548   9.233  0.3281 -0.0948 -0.3339
19058SOL    HW158615   3.235   5.585   9.174 -0.8582 -2.0313 -0.3033
19058SOL    HW258616   3.251   5.503   9.300  1.6925 -1.1228  0.0308
19059SOL     OW58617   4.389   4.300   0.886 -0.5296 -0.2674 -0.2021
19059SOL    HW158618   4.400   4.328   0.977  2.1566 -1.8839  0.0566
19059SOL    HW258619   4.327   4.228   0.891 -0.4677 -0.2902  0.3242
19060SOL     OW58620   4.300   7.713   7.109  0.4078 -0.4777 -0.3377
19060SOL    HW158621   4.276   7.624   7.087 -0.5038  0.0832 -1.7418
19060SOL    HW258622   4.228   7.767   7.077  1.5588  0.8802 -0.7748
19061SOL     OW58623   1.039   6.223   2.303 -0.6019 -0.6805  0.3432
19061SOL    HW158624   1.064   6.271   2.224  0.1923 -1.0690  0.3480
19061SOL    HW258625   0.945   6.240   2.313 -0.1975  1.5207  0.7996
19062SOL     OW58626   6.146   0.785  10.424 -0.9307 -0.0740  0.0449
19062SOL    HW158627   6.229   0.829  10.402 -0.4544 -0.4329  1.0721
19062SOL    HW258628   6.136   0.719  10.356  0.1444 -0.6918  0.4562
19063SOL     OW58629   1.775   4.905   9.474 -0.8024  0.6040  0.1126
19063SOL    HW158630   1.865   4.874   9.463  0.2955  3.8251 -1.3462
19063SOL    HW258631   1.773   4.938   9.564 -1.7469 -2.6610  1.4037
19064SOL     OW58632   2.740   6.675   5.342  0.0493  0.0821 -0.1647
19064SOL    HW158633   2.711   6.742   5.404  0.7072  1.0010 -0.8255
19064SOL    HW258634   2.735   6.718   5.256 -1.2201 -1.2878 -0.8223
19065SOL     OW58635   2.126   0.160   1.461  0.0075 -0.4314  0.2944
19065SOL    HW158636   2.185   0.085   1.465 -0.7744 -1.0140  1.7426
19065SOL    HW258637   2.166   0.219   1.397  0.8109 -1.9290 -0.6452
19066SOL     OW58638   1.238   1.611   7.422 -0.2084 -0.1405 -0.0324
19066SOL    HW158639   1.248   1.648   7.510  1.6796  0.3413 -0.3976
19066SOL    HW258640   1.327   1.607   7.387 -0.6482 -2.3333 -1.1333
19067SOL     OW58641   5.711   6.581   2.590  0.1929  0.2042 -0.1696
19067SOL    HW158642   5.723   6.499   2.638 -0.6031  0.3289  0.2649
19067SOL    HW258643   5.646   6.629   2.641 -1.4279 -0.0783 -1.8910
19068SOL     OW58644   5.683   6.596   4.837 -0.0280  0.6487  0.2818
19068SOL    HW158645   5.733   6.587   4.918  1.2171  1.2315 -0.3905
19068SOL    HW258646   5.610   6.653   4.860  1.1344  2.0326  0.6653
19069SOL     OW58647   4.166   6.996  12.339  0.7582 -0.0751  0.3584
19069SOL    HW158648   4.153   7.014  12.433 -1.6179 -1.1178  0.2987
19069SOL    HW258649   4.113   7.063  12.295 -0.9263 -1.6259 -0.0902
19070SOL     OW58650   0.944   3.034   2.882  0.0253 -0.1028 -0.1287
19070SOL    HW158651   0.916   2.946   2.855 -0.6133  0.0473  0.0208
19070SOL    HW258652   0.997   3.019   2.960 -1.4637 -0.2608  0.9043
19071SOL     OW58653   7.409   7.318   0.197 -0.1438  0.8618  0.3856
19071SOL    HW158654   7.418   7.315   0.293  3.4721  1.5289  0.1904
19071SOL    HW258655   7.481   7.265   0.164 -1.6908  0.1007 -2.0583
19072SOL     OW58656   6.956   3.554   2.247  0.4040 -0.0225  0.6903
19072SOL    HW158657   6.952   3.632   2.192 -0.2879 -0.0519  0.6878
19072SOL    HW258658   7.020   3.497   2.204 -0.7638 -0.4222 -0.5979
19073SOL     OW58659   2.342   6.887  11.558  0.0138 -0.3371  0.2922
19073SOL    HW158660   2.303   6.967  11.524  1.4653 -0.3903 -1.6449
19073SOL    HW258661   2.290   6.816  11.519  0.1474 -0.3613  0.1560
19074SOL     OW58662   5.998   7.448   1.061  0.0795 -0.6037 -0.1105
19074SOL    HW158663   6.038   7.535   1.063 -0.5354 -0.3068 -0.4294
19074SOL    HW258664   5.913   7.460   1.105 -1.9747 -0.0162 -3.8486
19075SOL     OW58665   7.016   7.254   1.880  1.1559  0.0230  1.1820
19075SOL    HW158666   7.019   7.158   1.872  0.0454  0.0779 -0.6788
19075SOL    HW258667   6.940   7.270   1.937  1.6966 -0.2053  1.9751
19076SOL     OW58668   4.250   2.185   9.038  0.2435  0.0181 -0.3768
19076SOL    HW158669   4.203   2.266   9.021 -0.2229  0.1526  1.3150
19076SOL    HW258670   4.336   2.213   9.071  0.3585 -0.1825 -0.5011
19077SOL     OW58671   6.666   6.433   7.099  0.5885 -0.1374 -0.2815
19077SOL    HW158672   6.574   6.456   7.097  0.6392  0.0612 -0.2725
19077SOL    HW258673   6.697   6.460   7.185 -0.0482 -2.9173  0.9532
19078SOL     OW58674   2.938   2.743   9.959 -0.2548  0.2652 -0.4508
19078SOL    HW158675   2.938   2.836   9.938  0.1582  0.4032  0.1316
19078SOL    HW258676   3.030   2.722   9.975 -0.2366 -0.4322 -1.3596
19079SOL     OW58677   7.297   2.621  10.549 -0.0811  0.1557  0.1354
19079SOL    HW158678   7.371   2.646  10.493 -1.0459  1.3441 -0.6499
19079SOL    HW258679   7.332   2.627  10.638  1.0276 -0.2024 -0.2554
19080SOL     OW58680   6.145   0.921   6.614 -0.2931  0.4802 -0.0898
19080SOL    HW158681   6.240   0.919   6.603 -0.1754  1.2823  0.7590
19080SOL    HW258682   6.120   1.012   6.599 -0.8225  0.4386  0.4736
19081SOL     OW58683   6.138   0.616   8.017  0.1062 -0.1403  0.1217
19081SOL    HW158684   6.109   0.570   8.096 -1.2620 -1.6622 -1.1762
19081SOL    HW258685   6.110   0.707   8.031 -0.0384 -0.3593  1.4153
19082SOL     OW58686   6.245   6.985   3.599 -0.2057 -0.1783 -0.5685
19082SOL    HW158687   6.327   6.965   3.645 -0.4988 -1.2025 -0.4571
19082SOL    HW258688   6.222   7.073   3.628 -0.2212 -0.6789  1.0371
19083SOL     OW58689   5.244   1.026  11.819 -0.0193 -0.0461 -0.2841
19083SOL    HW158690   5.326   1.075  11.822  0.8970 -1.5338  0.0846
19083SOL    HW258691   5.241   0.988  11.731  0.5335 -1.3316  0.2266
19084SOL     OW58692   2.961   5.701  11.141 -0.1730 -0.2247 -0.7355
19084SOL    HW158693   2.925   5.696  11.053 -1.7723  0.6833 -0.1874
19084SOL    HW258694   2.884   5.696  11.198  0.5688  1.6456  0.5128
19085SOL     OW58695   2.278   3.417   0.805 -0.0630 -0.3616 -0.3950
19085SOL    HW158696   2.290   3.508   0.780  0.1341  0.0895  1.2123
19085SOL    HW258697   2.353   3.398   0.861 -0.7318 -1.1307  0.2630
19086SOL     OW58698   7.750   5.591   8.766  0.0010  0.2744 -0.2870
19086SOL    HW158699   7.728   5.504   8.734  1.1322 -0.2047  0.1952
19086SOL    HW258700   7.679   5.647   8.734 -0.6597 -0.7874 -0.7262
19087SOL     OW58701   7.779   3.930   6.942  0.5884 -0.3653 -0.0364
19087SOL    HW158702   7.775   3.835   6.928 -1.7684 -0.3509  0.1006
19087SOL    HW258703   7.758   3.968   6.856 -0.2858 -0.0245  0.3161
19088SOL     OW58704   3.082   4.709   7.039 -0.1909  0.3858 -0.2847
19088SOL    HW158705   3.082   4.740   7.130 -0.4109  0.4758 -0.3157
19088SOL    HW258706   3.033   4.627   7.042 -3.8081  2.3147 -0.9761
19089SOL     OW58707   3.963   5.946   4.625  0.0553  0.5003  0.4702
19089SOL    HW158708   3.978   6.038   4.648  2.2448  0.0912  0.9133
19089SOL    HW258709   4.011   5.934   4.543 -1.8349  0.1832 -0.6494
19090SOL     OW58710   5.036   4.924   1.920 -0.2876  0.4924  0.0478
19090SOL    HW158711   5.108   4.985   1.903 -0.4037  0.6911  0.2644
19090SOL    HW258712   4.995   4.957   2.000 -1.3778  1.0955 -0.7237
19091SOL     OW58713   7.378   3.310  12.265 -0.2980  0.2042  0.4554
19091SOL    HW158714   7.350   3.322  12.356 -1.1671  0.3214  0.1874
19091SOL    HW258715   7.459   3.260  12.271  0.0054  0.7660  1.3222
19092SOL     OW58716   4.671   7.055  11.564 -1.1203 -0.6391 -0.0068
19092SOL    HW158717   4.767   7.057  11.572 -0.8303  0.2748 -2.7362
19092SOL    HW258718   4.643   7.142  11.594 -1.0404 -0.6841  0.2023
19093SOL     OW58719   2.105   5.336  10.994 -0.2879  0.2507 -0.3938
19093SOL    HW158720   2.114   5.382  11.077 -1.1882  0.2658 -0.2971
19093SOL    HW258721   2.122   5.404  10.928 -0.6515  0.4904 -0.2403
19094SOL     OW58722   5.147   1.057  11.215  0.3192  0.4683  0.6357
19094SOL    HW158723   5.128   0.992  11.147  1.0421  0.6259  0.2694
19094SOL    HW258724   5.061   1.087  11.244 -0.0068  0.0465  0.1249
19095SOL     OW58725   3.126   1.490  10.412  0.1723 -0.0989 -0.3242
19095SOL    HW158726   3.131   1.397  10.387 -0.8171  0.0192 -0.9917
19095SOL    HW258727   3.037   1.516  10.391  0.1979  0.8010  0.6353
19096SOL     OW58728   2.934   4.794  11.897 -0.0256 -0.0361  0.5258
19096SOL    HW158729   2.867   4.862  11.905  0.4392  0.3524  1.1460
19096SOL    HW258730   3.007   4.826  11.949  1.2114  0.2408 -1.2668
19097SOL     OW58731   4.832   6.604   5.475  0.3828 -0.2309 -0.1171
19097SOL    HW158732   4.777   6.599   5.397 -1.5827 -1.3614  1.2411
19097SOL    HW258733   4.885   6.525   5.473  1.8391  0.7382 -1.3047
19098SOL     OW58734   6.132   3.761  10.574 -0.8915  0.5464 -0.7582
19098SOL    HW158735   6.063   3.828  10.570  0.0772  1.5171 -2.0201
19098SOL    HW258736   6.182   3.783  10.652 -1.8886 -0.0756  0.0849
19099SOL     OW58737   1.326   6.550  12.098 -0.5018  0.4433 -0.4549
19099SOL    HW158738   1.284   6.583  12.177 -0.2570 -2.1316  0.8493
19099SOL    HW258739   1.394   6.614  12.078 -0.0489  0.7946  1.9101
19100SOL     OW58740   5.146   1.850   4.783 -0.8991  0.0786  0.4651
19100SOL    HW158741   5.129   1.899   4.703  0.0095  1.0509  0.8307
19100SOL    HW258742   5.083   1.885   4.847 -0.5331  0.4932  0.6090
19101SOL     OW58743   1.464   4.097   4.963  0.0865 -0.4208 -0.1432
19101SOL    HW158744   1.460   4.027   4.898 -1.2595 -1.0479  0.5838
19101SOL    HW258745   1.408   4.166   4.928 -0.3572 -0.6172  0.1644
19102SOL     OW58746   1.074   1.042   5.588 -0.0988  0.3966 -0.1269
19102SOL    HW158747   1.058   0.979   5.517  0.7357  0.7667 -0.6677
19102SOL    HW258748   1.062   0.991   5.668  0.4975 -0.4462 -0.5514
19103SOL     OW58749   2.560   2.737   4.690  0.1047  0.4659 -0.2193
19103SOL    HW158750   2.523   2.815   4.731  0.6418  1.1527 -1.0036
19103SOL    HW258751   2.584   2.680   4.764 -2.8030 -0.2194  0.3480
19104SOL     OW58752   6.454   6.358   3.927 -0.3267  0.1147  0.5720
19104SOL    HW158753   6.494   6.282   3.885 -0.5663  0.4021 -0.1929
19104SOL    HW258754   6.366   6.329   3.950 -0.8673  0.5279 -0.8682
19105SOL     OW58755   4.449   6.128   7.688 -0.6940 -0.2752  0.0542
19105SOL    HW158756   4.386   6.154   7.621 -0.9121 -1.1736 -0.0894
19105SOL    HW258757   4.525   6.184   7.671 -0.7876 -0.4110 -0.8794
19106SOL     OW58758   1.982   4.532   1.437 -0.7085 -0.0132 -0.4193
19106SOL    HW158759   1.958   4.506   1.348 -0.8906 -0.4150 -0.2559
19106SOL    HW258760   2.057   4.591   1.425 -0.4373 -0.4222 -0.8191
19107SOL     OW58761   6.242   5.487   1.185 -0.4681  0.2511 -0.5106
19107SOL    HW158762   6.168   5.428   1.200 -0.4714  0.0803 -1.1541
19107SOL    HW258763   6.278   5.459   1.101 -0.6498  1.3535 -0.9807
19108SOL     OW58764   0.076   3.654   0.333  0.1837  0.0711  0.4702
19108SOL    HW158765   0.036   3.718   0.274  0.5453 -0.4973 -0.4098
19108SOL    HW258766   0.014   3.581   0.335  0.0278  0.2124  1.0468
19109SOL     OW58767   7.150   4.461   8.201 -0.2269 -0.3454  0.5766
19109SOL    HW158768   7.246   4.461   8.205 -0.2242  1.4367  3.3151
19109SOL    HW258769   7.123   4.386   8.254 -0.3030 -0.2050  0.7422
19110SOL     OW58770   0.415   7.287   2.007 -0.3379  0.0225 -0.0576
19110SOL    HW158771   0.384   7.373   1.978  1.6133  1.1297  0.9129
19110SOL    HW258772   0.495   7.273   1.956 -0.5098 -1.1184 -0.0212
19111SOL     OW58773   5.980   6.842   4.758 -0.5142  0.3177  0.1764
19111SOL    HW158774   6.074   6.844   4.771 -0.2623  1.8404 -1.5235
19111SOL    HW258775   5.947   6.788   4.830  1.6016 -0.0254  0.9564
19112SOL     OW58776   7.212   7.548   0.098  0.3903  0.1115  0.2640
19112SOL    HW158777   7.181   7.636   0.081 -2.2766 -0.9995 -1.1714
19112SOL    HW258778   7.199   7.535   0.192  1.6609  1.4922  0.6603
19113SOL     OW58779   5.835   5.832   7.480  0.0448  0.0056 -0.3718
19113SOL    HW158780   5.858   5.774   7.553 -0.4368 -0.1050 -0.3021
19113SOL    HW258781   5.762   5.885   7.514  0.4480  0.6155 -0.4533
19114SOL     OW58782   7.446   7.887  12.293  1.0442 -0.1395 -0.1620
19114SOL    HW158783   7.504   7.885  12.217  0.4797 -1.4545 -0.5844
19114SOL    HW258784   7.359   7.866  12.258  0.5062  0.6696  0.6301
19115SOL     OW58785   0.408   5.567   7.883  0.2316 -0.1612  0.4117
19115SOL    HW158786   0.406   5.564   7.787  0.8816 -0.0882  0.3912
19115SOL    HW258787   0.324   5.530   7.910  0.4347 -1.0945 -0.1683
19116SOL     OW58788   5.196   5.968   5.346 -0.1710 -0.1268  0.1627
19116SOL    HW158789   5.264   5.900   5.350  1.3886  1.4178  0.8224
19116SOL    HW258790   5.131   5.940   5.411  0.6163 -0.7965  0.6826
19117SOL     OW58791   6.562   3.717   3.979  0.3227  0.1468 -0.5712
19117SOL    HW158792   6.562   3.812   3.991  0.5944  0.0609  0.1303
19117SOL    HW258793   6.487   3.700   3.922 -0.4821  0.6515  0.3260
19118SOL     OW58794   2.070   0.770   9.619 -0.0700  0.1942 -0.2208
19118SOL    HW158795   2.137   0.838   9.622  0.0554  0.1043 -0.8035
19118SOL    HW258796   2.004   0.804   9.559  0.0527 -0.2471 -0.6117
19119SOL     OW58797   4.486   6.498   1.648  0.1074 -0.1737 -0.2561
19119SOL    HW158798   4.572   6.492   1.688  0.9914  0.0578 -2.0121
19119SOL    HW258799   4.500   6.472   1.557 -1.5930  0.2944 -0.6919
19120SOL     OW58800   2.136   4.135   2.768 -0.2777  0.4831 -1.0755
19120SOL    HW158801   2.076   4.183   2.711 -1.0560 -0.2921 -0.9363
19120SOL    HW258802   2.150   4.052   2.722 -0.3432  0.1440 -0.4949
19121SOL     OW58803   3.982   1.518   0.460 -0.0656 -0.5714 -0.0936
19121SOL    HW158804   3.896   1.560   0.453  0.5804  0.8914  0.3003
19121SOL    HW258805   3.986   1.485   0.550 -1.3983 -3.4594 -0.9955
19122SOL     OW58806   5.903   4.749   2.322  0.3163 -0.5483 -0.4722
19122SOL    HW158807   5.845   4.814   2.281  1.4723 -0.8050 -2.6469
19122SOL    HW258808   5.977   4.800   2.355 -0.4161 -0.3953  1.0403
19123SOL     OW58809   6.427   4.915   6.016  0.5873  0.1087  0.7049
19123SOL    HW158810   6.457   4.826   5.998  0.6427  0.6930 -2.7703
19123SOL    HW258811   6.496   4.971   5.981 -0.1299  1.5332  1.4910
19124SOL     OW58812   0.970   1.537   2.591 -0.5761 -0.8412  0.2168
19124SOL    HW158813   1.004   1.555   2.679  0.7059  0.2238 -0.4489
19124SOL    HW258814   1.015   1.457   2.564 -1.4401 -1.5276  0.7322
19125SOL     OW58815   5.289   4.016   9.821 -0.0730 -0.0474  0.4491
19125SOL    HW158816   5.224   4.073   9.779 -1.2893 -0.7983  1.2351
19125SOL    HW258817   5.300   3.944   9.759  1.3578  0.9245 -0.4796
19126SOL     OW58818   6.355   0.117   5.264  0.1157 -0.1344 -0.4918
19126SOL    HW158819   6.424   0.182   5.254  0.7921 -1.0238 -1.9156
19126SOL    HW258820   6.336   0.115   5.358  1.1775  0.9653 -0.2384
19127SOL     OW58821   2.341   4.162   8.584 -0.5023 -0.6072 -0.1164
19127SOL    HW158822   2.356   4.228   8.651 -0.1280  0.7669 -1.4951
19127SOL    HW258823   2.263   4.114   8.614 -1.5629  1.2841  0.3213
19128SOL     OW58824   4.076   1.282   9.064  0.2328 -0.2614 -0.1299
19128SOL    HW158825   4.162   1.277   9.106 -0.0687 -0.3277  0.4809
19128SOL    HW258826   4.075   1.208   9.004  0.2458 -0.8016  0.5316
19129SOL     OW58827   7.918   6.601   2.103  0.1412  0.3667  0.6537
19129SOL    HW158828   7.944   6.518   2.061 -1.7153  0.5941 -1.1040
19129SOL    HW258829   7.987   6.662   2.077  0.5166 -0.1695  0.3414
19130SOL     OW58830   1.320   7.272   1.295 -0.3559  0.2096 -0.2130
19130SOL    HW158831   1.262   7.267   1.371 -1.6549  1.9195 -1.0036
19130SOL    HW258832   1.289   7.203   1.237  0.5344 -0.9971  0.7032
19131SOL     OW58833   0.826   7.730   0.842 -0.1568 -0.8705 -0.0301
19131SOL    HW158834   0.871   7.701   0.762 -1.6585 -0.6526 -1.0024
19131SOL    HW258835   0.761   7.662   0.860 -2.7699  1.0159 -1.5416
19132SOL     OW58836   3.291   4.594   9.715  0.2601  0.0561 -0.2378
19132SOL    HW158837   3.375   4.588   9.670 -0.2916 -1.6801 -1.1350
19132SOL    HW258838   3.254   4.677   9.685  1.9582  1.2398  0.7916
19133SOL     OW58839   5.221   0.683   1.537 -0.7323 -0.5494  0.0989
19133SOL    HW158840   5.311   0.700   1.564 -0.8191 -3.0063  2.4474
19133SOL    HW258841   5.169   0.749   1.583 -0.2185  0.3491 -0.5880
19134SOL     OW58842   5.595   4.305   0.332  0.8860 -0.1975 -0.2035
19134SOL    HW158843   5.643   4.337   0.409  2.0105 -1.2640 -0.4438
19134SOL    HW258844   5.654   4.320   0.258 -1.2839  3.6209 -1.4629
19135SOL     OW58845   5.188   7.627   9.150 -0.0150  0.0968 -0.2820
19135SOL    HW158846   5.162   7.711   9.188  0.8455  0.0586  0.3935
19135SOL    HW258847   5.243   7.586   9.216 -0.6687 -1.1422 -0.4827
19136SOL     OW58848   5.059   2.168  11.479  0.0521  0.3674 -0.8794
19136SOL    HW158849   5.138   2.221  11.493  0.1471  0.9899 -3.3524
19136SOL    HW258850   5.060   2.105  11.551  2.4575  0.7656 -0.4820
19137SOL     OW58851   6.779   6.754   3.231 -0.5092  0.1615  0.3892
19137SOL    HW158852   6.868   6.786   3.247 -1.1833  1.3482  2.1263
19137SOL    HW258853   6.786   6.704   3.150  1.6977  0.3542  0.3836
19138SOL     OW58854   3.894   2.133   8.476 -0.3398 -0.0904  0.4544
19138SOL    HW158855   3.889   2.167   8.565  1.6406 -1.4105  1.1327
19138SOL    HW258856   3.980   2.161   8.444 -1.7145  1.9503 -1.8093
19139SOL     OW58857   6.061   7.782   3.303 -0.2027 -0.2130  0.0192
19139SOL    HW158858   6.121   7.708   3.313  0.5453  0.2888 -0.7093
19139SOL    HW258859   6.098   7.850   3.358  0.3406  0.3558 -1.0229
19140SOL     OW58860   1.337   0.367   8.964 -0.3568  0.0995 -0.4070
19140SOL    HW158861   1.242   0.356   8.968 -0.6029  1.6526  3.6583
19140SOL    HW258862   1.352   0.451   9.008  2.9753 -1.5081  1.9772
19141SOL     OW58863   6.967   5.669  12.287  0.2043 -0.1283  0.5341
19141SOL    HW158864   7.034   5.698  12.225 -2.5184  3.7851 -1.0037
19141SOL    HW258865   6.978   5.726  12.363 -0.7284 -0.1292  0.6801
19142SOL     OW58866   7.518   4.746   8.953 -0.3743 -0.0863  0.0582
19142SOL    HW158867   7.581   4.806   8.914 -1.4548  0.2730 -1.2124
19142SOL    HW258868   7.571   4.674   8.987  0.7166  0.2708 -0.8380
19143SOL     OW58869   5.640   7.418   8.579 -0.1769  0.0526  0.5299
19143SOL    HW158870   5.556   7.404   8.623 -1.2207  1.4011 -0.9135
19143SOL    HW258871   5.638   7.356   8.506 -0.5826  1.0564 -0.3331
19144SOL     OW58872   4.003   1.243   0.299 -0.0423  0.0749 -0.2111
19144SOL    HW158873   4.055   1.300   0.243  0.1956  0.9992  0.9188
19144SOL    HW258874   4.016   1.278   0.387  1.7837 -2.9217  0.8655
19145SOL     OW58875   0.983   6.565   1.435  0.6186  0.0262  0.1661
19145SOL    HW158876   1.010   6.656   1.422  0.8920 -0.0732  0.0266
19145SOL    HW258877   0.911   6.552   1.374 -0.4109  0.5810  1.2242
19146SOL     OW58878   5.670   0.266   8.875  0.0183  0.1649  0.1295
19146SOL    HW158879   5.764   0.271   8.890  0.0668 -0.3187  0.0116
19146SOL    HW258880   5.633   0.335   8.930  0.4141  0.1631  0.4034
19147SOL     OW58881   5.728   6.754   2.963 -0.7402  0.3733 -0.1863
19147SOL    HW158882   5.677   6.690   2.913  1.4518 -1.8685  0.2470
19147SOL    HW258883   5.709   6.733   3.054 -0.4379  0.7368 -0.0366
19148SOL     OW58884   0.121   5.353   8.983 -0.4436 -0.8488  0.6643
19148SOL    HW158885   0.110   5.278   8.924 -0.3504 -0.0471 -0.4006
19148SOL    HW258886   0.190   5.405   8.943 -0.7802  0.0108  1.1719
19149SOL     OW58887   7.216   6.617   2.600 -0.0751 -0.4415 -0.0748
19149SOL    HW158888   7.144   6.680   2.597 -0.0008 -0.1902  1.8465
19149SOL    HW258889   7.174   6.535   2.628  0.3366 -0.3594  0.8047
19150SOL     OW58890   7.762   3.080   5.861  0.1522  0.3805 -0.1871
19150SOL    HW158891   7.705   3.072   5.938 -0.9538  3.2119 -0.5874
19150SOL    HW258892   7.782   3.174   5.855 -0.2675  0.3825 -3.6500
19151SOL     OW58893   2.930   0.072   1.652  0.5001  0.4598 -0.7532
19151SOL    HW158894   2.835   0.063   1.648  0.5178  0.3259 -0.8862
19151SOL    HW258895   2.959   0.002   1.710  0.5339  0.3893 -0.8556
19152SOL     OW58896   0.280   3.516   5.484  0.0236  0.6466 -0.0474
19152SOL    HW158897   0.207   3.457   5.502  0.6206 -0.3064 -0.6507
19152SOL    HW258898   0.358   3.461   5.488  0.4708  1.0173 -2.2367
19153SOL     OW58899   0.902   1.072  11.292 -0.4413 -0.3091 -0.4102
19153SOL    HW158900   0.895   1.152  11.239 -1.6301  0.1845  0.4415
19153SOL    HW258901   0.930   1.005  11.230 -0.7079  0.4922 -1.4307
19154SOL     OW58902   6.634   1.477   9.795 -0.4568  0.0700 -0.0748
19154SOL    HW158903   6.555   1.489   9.848 -0.5554 -0.6913 -0.0354
19154SOL    HW258904   6.645   1.559   9.748 -1.5436  0.0197 -0.4397
19155SOL     OW58905   1.318   1.561   2.063  0.4519 -0.0435  0.0907
19155SOL    HW158906   1.391   1.501   2.046  0.2337 -1.0648  2.3940
19155SOL    HW258907   1.250   1.534   2.001  2.2175  1.5606 -2.8177
19156SOL     OW58908   5.445   7.140   9.573 -0.2578  0.1973 -0.1518
19156SOL    HW158909   5.355   7.170   9.563 -0.5076 -0.0698  1.0934
19156SOL    HW258910   5.472   7.114   9.485 -0.6653  2.2628 -0.9265
19157SOL     OW58911   4.395   3.070   3.873 -0.2059  0.2648  0.1367
19157SOL    HW158912   4.398   3.137   3.941  1.5101  0.1758  0.1738
19157SOL    HW258913   4.305   3.074   3.840 -0.9225  0.6447  2.0443
19158SOL     OW58914   6.575   2.007  11.523 -0.1595 -0.3300  0.2517
19158SOL    HW158915   6.589   2.083  11.466 -1.8520 -0.9747 -1.1037
19158SOL    HW258916   6.591   2.041  11.612 -0.7940  1.5923 -0.3116
19159SOL     OW58917   7.042   1.742   2.118 -0.1955  0.3643 -0.7320
19159SOL    HW158918   7.125   1.704   2.145 -0.1540  1.7119  1.2904
19159SOL    HW258919   7.065   1.826   2.078 -0.4936 -0.0827 -1.8785
19160SOL     OW58920   5.277   4.246   1.821 -0.9103  0.1970 -0.0055
19160SOL    HW158921   5.192   4.211   1.846 -0.4403 -0.1879  1.1449
19160SOL    HW258922   5.340   4.197   1.874 -0.0072  0.7983 -0.4795
19161SOL     OW58923   6.381   3.376  11.641 -0.4685  0.1281  0.2529
19161SOL    HW158924   6.320   3.303  11.656 -1.3510  0.9931  1.0649
19161SOL    HW258925   6.429   3.384  11.724 -0.9686  0.9927  0.4646
19162SOL     OW58926   2.352   2.737   6.968  0.1513  0.1152  0.1489
19162SOL    HW158927   2.290   2.665   6.976  0.4360 -0.0084  1.4166
19162SOL    HW258928   2.438   2.696   6.976  0.3382  0.5090  0.1752
19163SOL     OW58929   4.808   2.162   2.141  0.1723 -0.6817 -0.1865
19163SOL    HW158930   4.797   2.077   2.100  0.4656 -1.1641  0.6957
19163SOL    HW258931   4.841   2.142   2.229 -0.1060  0.3201  0.1652
19164SOL     OW58932   0.564   4.162   2.923  0.2186  0.2625 -0.0818
19164SOL    HW158933   0.542   4.196   2.836 -0.9393 -2.0568 -0.7720
19164SOL    HW258934   0.639   4.104   2.908 -0.3025 -0.5477  0.3520
19165SOL     OW58935   4.305   0.176   8.531 -0.2019  0.1603  0.0019
19165SOL    HW158936   4.385   0.125   8.542 -0.8651 -1.0067 -0.4350
19165SOL    HW258937   4.287   0.174   8.437 -0.6328  0.5965  0.0702
19166SOL     OW58938   5.445   6.205   5.612 -0.0382  0.2320 -0.2375
19166SOL    HW158939   5.454   6.299   5.599  0.0147  0.1830 -0.5708
19166SOL    HW258940   5.505   6.166   5.548 -1.6969 -0.0749 -1.6453
19167SOL     OW58941   4.912   6.907   4.701 -0.4234 -0.1726  0.6913
19167SOL    HW158942   4.959   6.972   4.753 -0.3992 -0.8648  1.5518
19167SOL    HW258943   4.820   6.930   4.711 -0.3103  1.4759 -1.3816
19168SOL     OW58944   6.875   5.572   8.326  0.3709  0.0124 -0.3491
19168SOL    HW158945   6.858   5.563   8.420  3.3029  1.7937  0.4938
19168SOL    HW258946   6.934   5.500   8.306 -0.0869 -0.2424 -0.7964
19169SOL     OW58947   6.980   5.291   5.706  0.0808 -0.0700 -0.0691
19169SOL    HW158948   7.060   5.282   5.655  0.4494  0.3326  0.4243
19169SOL    HW258949   6.916   5.328   5.645  0.2082 -0.5946 -0.5231
19170SOL     OW58950   1.900   1.165  11.127  0.4823  0.0643 -0.5249
19170SOL    HW158951   1.987   1.126  11.114  0.0745 -1.1653  0.2825
19170SOL    HW258952   1.847   1.128  11.057  0.2967 -0.2195 -0.2394
19171SOL     OW58953   1.764   0.854   4.209 -0.3962 -0.1695  0.0973
19171SOL    HW158954   1.716   0.832   4.129 -1.3921 -0.3613  0.7274
19171SOL    HW258955   1.830   0.917   4.182 -1.4949  0.6707 -0.6737
19172SOL     OW58956   6.951   1.885  11.633  0.4551  0.4029 -0.5143
19172SOL    HW158957   6.971   1.812  11.691 -1.0684 -0.5895 -1.1528
19172SOL    HW258958   6.971   1.963  11.684  2.8952 -0.4062 -0.0838
19173SOL     OW58959   4.826   3.165   1.551  0.3758  0.0870 -0.4456
19173SOL    HW158960   4.827   3.071   1.532 -0.6354  0.3665 -1.9971
19173SOL    HW258961   4.919   3.189   1.558  0.6453 -0.9561 -0.3103
19174SOL     OW58962   4.477   2.094   8.286 -0.0230 -0.3729 -0.0317
19174SOL    HW158963   4.519   2.171   8.325 -0.5872 -0.5194  0.8991
19174SOL    HW258964   4.424   2.057   8.357  1.4929 -2.5644  0.0638
19175SOL     OW58965   5.237   2.656  11.358  0.2540  0.1819 -0.8570
19175SOL    HW158966   5.254   2.688  11.447  3.1576  0.0192 -1.2863
19175SOL    HW258967   5.291   2.711  11.302 -0.8565 -0.3058 -2.4851
19176SOL     OW58968   6.985   4.021   1.511  0.2423  0.0360 -0.2933
19176SOL    HW158969   6.946   4.016   1.424 -0.5906 -0.9773  0.1216
19176SOL    HW258970   6.949   4.101   1.549  0.8486  0.6521 -0.9665
19177SOL     OW58971   7.387   0.738   1.366  0.0718 -0.1620 -0.6193
19177SOL    HW158972   7.466   0.711   1.319  0.7221  0.4700  0.0825
19177SOL    HW258973   7.316   0.717   1.306  0.6576 -1.8578 -0.7718
19178SOL     OW58974   0.910   2.637   8.305 -0.6907  0.0733  0.1060
19178SOL    HW158975   0.914   2.647   8.400 -0.8279 -1.2606  0.2646
19178SOL    HW258976   0.990   2.680   8.273 -0.1609 -0.2864  0.9059
19179SOL     OW58977   0.645   6.483   3.888  0.2657  0.2961  0.0923
19179SOL    HW158978   0.615   6.515   3.973 -0.3790 -1.3628  0.5291
19179SOL    HW258979   0.585   6.412   3.867 -0.2039  1.2705 -2.2246
19180SOL     OW58980   5.714   6.355   7.048  0.3083  0.5961 -0.2138
19180SOL    HW158981   5.678   6.413   6.981 -2.0561 -2.1444 -1.5082
19180SOL    HW258982   5.795   6.322   7.010  0.7851  1.6947 -0.1832
19181SOL     OW58983   3.191   0.500   8.514 -0.6280 -0.2231 -0.9814
19181SOL    HW158984   3.170   0.539   8.598 -1.2972  1.6966 -1.9922
19181SOL    HW258985   3.285   0.516   8.503 -0.9175  1.3386 -1.4475
19182SOL     OW58986   7.330   4.509   8.795  0.5319  0.0947  0.0861
19182SOL    HW158987   7.382   4.433   8.822 -1.8185 -0.9763  1.9617
19182SOL    HW258988   7.298   4.487   8.708  0.8228 -0.5375  0.1343
19183SOL     OW58989   3.394   1.760   9.236 -0.3086 -0.4253  0.3553
19183SOL    HW158990   3.414   1.821   9.308  0.0540  0.2164 -0.2762
19183SOL    HW258991   3.302   1.776   9.217 -0.2098 -0.0449  0.1755
19184SOL     OW58992   3.397   0.941   3.473  0.2454  0.2117 -0.3998
19184SOL    HW158993   3.348   0.894   3.406 -0.2182  0.0318  0.0555
19184SOL    HW258994   3.443   1.010   3.426 -1.0787  0.8951 -0.7460
19185SOL     OW58995   0.353   3.724   9.604  0.3274  0.1984  0.3554
19185SOL    HW158996   0.336   3.784   9.531  0.0590 -0.1530  0.1242
19185SOL    HW258997   0.446   3.737   9.625  0.3941  0.3395 -0.0204
19186SOL     OW58998   2.769   3.176   8.850 -0.3862  0.0452 -0.0803
19186SOL    HW158999   2.789   3.147   8.761  0.1488 -0.1532  0.1035
19186SOL    HW259000   2.706   3.247   8.838  1.8352  2.0345 -0.8038
19187SOL     OW59001   2.038   7.862  10.606  0.1120  0.6064  0.4645
19187SOL    HW159002   2.024   7.841  10.514  1.5391 -2.1848  0.7959
19187SOL    HW259003   2.063   7.955  10.605  1.5032  0.3044 -2.1409
19188SOL     OW59004   3.257   4.837   0.490  0.2876  0.4701  0.4915
19188SOL    HW159005   3.234   4.744   0.495  1.6062  0.0204 -1.0368
19188SOL    HW259006   3.275   4.861   0.581 -0.0911 -0.7692  0.9197
19189SOL     OW59007   3.306   7.783   1.411  0.8608 -0.2767 -0.1722
19189SOL    HW159008   3.324   7.757   1.321  1.1233 -0.5164 -0.0535
19189SOL    HW259009   3.215   7.814   1.410  0.5523 -1.1707 -0.3225
19190SOL     OW59010   1.197   3.834   5.965  0.5392  0.0265 -0.2743
19190SOL    HW159011   1.291   3.824   5.948  0.5183 -0.7526  0.0691
19190SOL    HW259012   1.157   3.759   5.923  0.0678  0.3145 -0.3468
19191SOL     OW59013   7.130   0.270   4.648  0.0358 -0.5145  0.0287
19191SOL    HW159014   7.127   0.363   4.624 -2.0666 -0.4917  0.1789
19191SOL    HW259015   7.149   0.271   4.742 -0.1834 -0.2226  0.0716
19192SOL     OW59016   6.618   3.941   3.285  0.2611  0.5114  0.5089
19192SOL    HW159017   6.713   3.942   3.274  0.2811 -1.5799  0.2212
19192SOL    HW259018   6.605   3.922   3.378  0.1392 -0.2199  0.3468
19193SOL     OW59019   3.163   2.191   5.086 -0.3075  0.2067  0.3009
19193SOL    HW159020   3.181   2.145   5.004  1.4852  1.9047 -0.3385
19193SOL    HW259021   3.249   2.210   5.122 -1.0257  1.3575  1.4970
19194SOL     OW59022   2.804   2.497   8.173 -0.6030 -0.4137  0.4154
19194SOL    HW159023   2.745   2.428   8.204  2.2021 -2.6747  1.0963
19194SOL    HW259024   2.882   2.451   8.143  0.8732  2.4125 -0.4531
19195SOL     OW59025   2.407   4.788   5.723  0.2403 -0.3204 -0.0584
19195SOL    HW159026   2.334   4.789   5.785 -0.8540  1.5245 -1.2607
19195SOL    HW259027   2.485   4.804   5.777 -0.4576 -0.5072  1.0339
19196SOL     OW59028   5.403   6.112   5.197  0.1422  0.3040  0.3978
19196SOL    HW159029   5.430   6.067   5.277  1.0465  0.1656  0.0245
19196SOL    HW259030   5.387   6.203   5.225  2.1283  0.6812  0.4406
19197SOL     OW59031   4.927   7.186   0.563  0.1316  0.1100  0.4890
19197SOL    HW159032   4.915   7.261   0.622 -1.0587  0.1781  0.1785
19197SOL    HW259033   4.998   7.213   0.505  0.1031  0.7705  0.7445
19198SOL     OW59034   5.526   1.013   0.729  0.4438  0.4413  0.0236
19198SOL    HW159035   5.550   1.025   0.821  0.7200 -0.9997  0.1730
19198SOL    HW259036   5.527   0.918   0.717 -2.8955  0.3524 -0.5745
19199SOL     OW59037   4.023   0.335   4.789  0.0949  0.4879  0.4419
19199SOL    HW159038   4.116   0.313   4.785 -0.2274 -0.9537  0.2758
19199SOL    HW259039   4.016   0.395   4.863  0.9661 -0.4681  1.3355
19200SOL     OW59040   7.624   6.766  12.353 -0.6203  0.1305  0.2582
19200SOL    HW159041   7.547   6.711  12.337 -0.5268 -0.3271  1.2736
19200SOL    HW259042   7.676   6.716  12.416  0.7873  0.1866 -0.8217
19201SOL     OW59043   1.648   2.238   9.783 -0.0885 -0.2198  0.2619
19201SOL    HW159044   1.568   2.190   9.760 -0.6046 -0.4530  2.2799
19201SOL    HW259045   1.692   2.181   9.846 -1.2443  2.2236  3.5828
19202SOL     OW59046   2.356   5.522   7.353  0.1163  0.2071  0.6907
19202SOL    HW159047   2.411   5.444   7.353  0.4543  0.4303  1.3527
19202SOL    HW259048   2.347   5.545   7.445 -0.4756  0.6046  0.5390
19203SOL     OW59049   5.761   3.700   1.415  0.2225  0.1206  0.1331
19203SOL    HW159050   5.754   3.611   1.450 -0.2969  0.3409  0.6049
19203SOL    HW259051   5.851   3.706   1.382  0.1103 -0.7424 -0.3740
19204SOL     OW59052   0.804   2.867   6.232  0.0516  0.2672  0.3387
19204SOL    HW159053   0.879   2.926   6.223  0.2359 -0.0596 -0.3327
19204SOL    HW259054   0.742   2.914   6.287  1.3584 -0.0289  2.1790
19205SOL     OW59055   5.680   5.532   5.971 -0.3206  0.2450  0.6834
19205SOL    HW159056   5.774   5.517   5.961 -0.2576  0.0685  1.4307
19205SOL    HW259057   5.671   5.627   5.966 -0.2716  0.1953 -0.6329
19206SOL     OW59058   3.620   3.748   0.183 -0.1632  0.1297 -0.3693
19206SOL    HW159059   3.638   3.839   0.158 -1.4586  0.0084 -1.8910
19206SOL    HW259060   3.537   3.752   0.231 -0.6042 -0.3205 -1.0816
19207SOL     OW59061   1.190   3.181   4.003  0.1740  0.5123 -0.7220
19207SOL    HW159062   1.236   3.253   4.045  1.0275 -0.4173 -0.0147
19207SOL    HW259063   1.229   3.102   4.040 -0.5895 -0.3272 -1.6302
19208SOL     OW59064   5.832   3.265   1.288  0.0547  0.3115  0.0010
19208SOL    HW159065   5.910   3.300   1.246  0.0490  0.2758 -0.0400
19208SOL    HW259066   5.797   3.202   1.225  0.1907  0.0669  0.1660
19209SOL     OW59067   6.380   7.435  10.595  0.3654 -0.1827 -0.1883
19209SOL    HW159068   6.418   7.498  10.533  0.8317  0.7058  0.9470
19209SOL    HW259069   6.450   7.419  10.658 -0.4544 -0.1632  0.7559
19210SOL     OW59070   7.092   0.185   1.854 -0.3052  0.3830  0.0288
19210SOL    HW159071   7.009   0.138   1.850 -1.5978  2.1543  2.7954
19210SOL    HW259072   7.095   0.235   1.772 -0.7426 -1.4947 -1.1895
19211SOL     OW59073   4.183   3.732   4.388  0.3940 -0.2137  0.0497
19211SOL    HW159074   4.129   3.657   4.412  0.3115  0.2713  1.4434
19211SOL    HW259075   4.167   3.796   4.457  0.5309  1.0644 -1.0661
19212SOL     OW59076   1.255   1.319   9.210 -0.1775  0.5198 -0.2213
19212SOL    HW159077   1.308   1.299   9.132 -0.6705 -3.0334  0.2123
19212SOL    HW259078   1.184   1.255   9.208 -0.3960  0.5107  2.9585
19213SOL     OW59079   4.747   2.071   3.853  0.0730  0.9714 -0.6346
19213SOL    HW159080   4.677   2.032   3.801 -0.9831  3.4275 -1.1853
19213SOL    HW259081   4.737   2.033   3.940  1.6289 -2.9488 -1.9148
19214SOL     OW59082   0.434   3.826   0.957 -0.1026 -0.3086  0.4357
19214SOL    HW159083   0.470   3.863   0.876 -1.0430 -0.6801 -0.1696
19214SOL    HW259084   0.425   3.732   0.939  1.1094 -0.6540  1.5208
19215SOL     OW59085   1.585   3.090   0.935  0.3500 -0.0138 -0.0573
19215SOL    HW159086   1.673   3.125   0.927  0.2190  0.4800  0.5817
19215SOL    HW259087   1.533   3.163   0.970 -0.2027 -0.4454  0.0375
19216SOL     OW59088   4.424   6.071  10.295 -0.2923  0.0990 -0.2837
19216SOL    HW159089   4.495   6.069  10.230 -0.7362  0.6595 -0.7859
19216SOL    HW259090   4.384   6.157  10.285 -1.1165 -0.2497 -0.0752
19217SOL     OW59091   7.875   6.514   7.152 -0.5971 -0.3312  0.0646
19217SOL    HW159092   7.818   6.529   7.076  0.6546  1.7199 -0.5505
19217SOL    HW259093   7.963   6.522   7.117  0.0121  1.5055  1.8625
19218SOL     OW59094   2.554   4.338   4.217  0.2887  0.0689 -0.5610
19218SOL    HW159095   2.618   4.357   4.149 -0.6146  1.3304 -1.0902
19218SOL    HW259096   2.492   4.276   4.176  1.2023 -1.2554 -0.0072
19219SOL     OW59097   6.793   7.842  10.754 -0.6643 -0.2736  0.9826
19219SOL    HW159098   6.739   7.874  10.826  0.1356  0.4744  1.2670
19219SOL    HW259099   6.883   7.845  10.787 -0.1601  1.1269 -0.3906
19220SOL     OW59100   7.016   6.937   0.074  0.3128 -0.2008  0.2935
19220SOL    HW159101   6.942   6.946   0.014  1.2881  3.2291 -0.6079
19220SOL    HW259102   7.090   6.917   0.018  0.9242  1.3064  0.5279
19221SOL     OW59103   6.719   7.861   4.786 -0.0469 -0.4396  0.0255
19221SOL    HW159104   6.641   7.835   4.737  0.5169 -2.1959 -0.0103
19221SOL    HW259105   6.763   7.924   4.730 -1.5668  0.8078  0.1746
19222SOL     OW59106   1.885   4.575   8.427  0.0639  0.3479 -0.3271
19222SOL    HW159107   1.973   4.583   8.464  0.3823  0.5554 -1.0983
19222SOL    HW259108   1.877   4.483   8.403  0.5601  0.5617 -1.3901
19223SOL     OW59109   5.378   6.868  10.079 -0.7625 -0.3656 -0.8804
19223SOL    HW159110   5.465   6.903  10.059  0.1852 -1.5356  0.9209
19223SOL    HW259111   5.319   6.917  10.022  0.8431  1.8253 -0.7920
19224SOL     OW59112   1.024   2.299   3.419 -0.3514  0.2254 -0.1084
19224SOL    HW159113   1.001   2.274   3.329  1.2699  1.4727 -0.9151
19224SOL    HW259114   0.950   2.352   3.449 -0.5900  0.4049 -0.9769
19225SOL     OW59115   1.015   0.982   3.305 -0.2738 -0.3050 -0.2207
19225SOL    HW159116   0.994   0.920   3.234  0.1140 -0.9148  0.1858
19225SOL    HW259117   1.104   1.012   3.285 -0.4660  0.1381 -0.4238
19226SOL     OW59118   5.242   7.558   6.356  0.2434 -0.1055 -0.2117
19226SOL    HW159119   5.327   7.598   6.373  0.6662 -1.4564  1.1435
19226SOL    HW259120   5.203   7.547   6.443 -1.8916  1.5795 -0.8571
19227SOL     OW59121   5.710   6.066   3.677  0.3183 -0.4048  0.1705
19227SOL    HW159122   5.723   6.031   3.588 -0.1498 -0.8411  0.2711
19227SOL    HW259123   5.793   6.046   3.722  0.5881 -0.1100 -0.1889
19228SOL     OW59124   4.891   2.263  10.750 -0.2069 -0.8269 -0.2084
19228SOL    HW159125   4.884   2.332  10.816  0.5705 -0.9846  0.0413
19228SOL    HW259126   4.845   2.299  10.674 -0.4628 -0.3412  0.1651
19229SOL     OW59127   6.270   7.612   9.973  0.0870 -0.7418  0.3859
19229SOL    HW159128   6.184   7.650   9.992  0.5008  0.0486  0.7400
19229SOL    HW259129   6.254   7.518   9.963 -0.5278 -0.8917  2.4046
19230SOL     OW59130   0.340   0.736   5.181 -0.5388 -0.2777  0.2970
19230SOL    HW159131   0.408   0.796   5.151 -0.3814 -0.8569 -0.5416
19230SOL    HW259132   0.277   0.792   5.227 -1.1261  0.7893 -1.6854
19231SOL     OW59133   2.276   4.356   1.576 -0.1390  0.2643 -0.1326
19231SOL    HW159134   2.314   4.436   1.613  1.0693 -0.5681  0.4761
19231SOL    HW259135   2.181   4.372   1.577  0.0549  1.5058  0.3732
19232SOL     OW59136   1.420   1.706   3.917  0.0507  0.3024  0.0258
19232SOL    HW159137   1.476   1.633   3.889  0.6212  0.5225  0.5772
19232SOL    HW259138   1.337   1.664   3.941  0.0392 -0.0495 -0.5969
19233SOL     OW59139   4.057   7.165   9.508  0.3799  0.6857  0.1053
19233SOL    HW159140   4.024   7.167   9.598  2.8721 -0.9638  1.1592
19233SOL    HW259141   4.132   7.224   9.510  0.2482  0.9114 -1.0350
19234SOL     OW59142   1.980   6.314   7.241 -0.1822  0.0669 -0.1377
19234SOL    HW159143   1.987   6.269   7.325  2.2845 -0.1689 -0.3926
19234SOL    HW259144   1.975   6.407   7.265  1.3210  0.0627  0.3105
19235SOL     OW59145   4.357   6.955   8.074 -0.1171 -0.2675 -0.0288
19235SOL    HW159146   4.403   7.009   8.010 -0.4871 -1.2557 -1.1776
19235SOL    HW259147   4.268   6.946   8.039 -0.5749 -0.1572  1.0580
19236SOL     OW59148   4.043   0.160   3.084  0.2616  0.3378  0.3811
19236SOL    HW159149   3.981   0.091   3.106 -0.0546  0.3425 -0.4715
19236SOL    HW259150   4.016   0.191   2.998  0.6801  1.2141  0.5500
19237SOL     OW59151   3.585   6.624   9.146  0.2099 -0.2295  0.3074
19237SOL    HW159152   3.676   6.649   9.163  0.2326 -1.5530  2.6101
19237SOL    HW259153   3.584   6.529   9.159 -1.4229 -0.2991 -0.1117
19238SOL     OW59154   5.043   2.280   5.155  0.4450  0.5981  0.0290
19238SOL    HW159155   5.027   2.314   5.067  1.7442 -1.7507 -1.2055
19238SOL    HW259156   4.972   2.218   5.171  1.8640 -1.3281 -0.7492
19239SOL     OW59157   2.146   3.979   8.621  0.2681  0.7540  0.2054
19239SOL    HW159158   2.190   3.898   8.595 -1.0574 -0.0232  0.2674
19239SOL    HW259159   2.060   3.950   8.651 -0.2073  2.1904  0.2898
19240SOL     OW59160   4.661   1.406   0.405  0.9497 -0.5701  0.9342
19240SOL    HW159161   4.696   1.317   0.395 -0.8955 -1.1778 -0.7108
19240SOL    HW259162   4.685   1.450   0.324  1.5219  0.3630  1.5839
19241SOL     OW59163   7.834   5.623   7.647 -0.1351 -0.0528 -0.1970
19241SOL    HW159164   7.796   5.706   7.677 -1.2416  0.1615 -2.0290
19241SOL    HW259165   7.838   5.568   7.725 -0.1200  1.4398  0.8970
19242SOL     OW59166   2.668   5.080   3.489 -0.6141  0.1932 -0.0136
19242SOL    HW159167   2.607   5.122   3.428 -0.2596 -0.6771 -0.9956
19242SOL    HW259168   2.624   4.999   3.514  0.3355 -0.6915 -1.1349
19243SOL     OW59169   0.194   1.617  10.114 -0.2255 -0.6186 -0.4138
19243SOL    HW159170   0.120   1.651  10.064 -0.9647 -0.3909  0.7773
19243SOL    HW259171   0.175   1.524  10.126  0.2951 -0.8235 -1.1250
19244SOL     OW59172   4.644   7.488   7.027  0.1641 -0.1469 -0.6034
19244SOL    HW159173   4.558   7.454   7.001 -0.2641  0.0238  0.5506
19244SOL    HW259174   4.703   7.457   6.958 -0.7902 -0.3912 -1.3399
19245SOL     OW59175   0.980   2.862   5.909 -0.0641  0.2633  0.1454
19245SOL    HW159176   1.040   2.879   5.981  0.8654  0.6493 -0.7031
19245SOL    HW259177   0.904   2.822   5.951  1.5312 -2.0330  1.0232
19246SOL     OW59178   4.806   1.459  11.077  0.1070  0.0239  0.2617
19246SOL    HW159179   4.839   1.440  11.164  0.4111 -0.8543 -0.0345
19246SOL    HW259180   4.867   1.524  11.042  1.5111 -1.4911 -0.2342
19247SOL     OW59181   0.358   1.035   7.299  0.2501  0.1685  0.0671
19247SOL    HW159182   0.267   1.065   7.305  0.4224  1.0044 -1.0306
19247SOL    HW259183   0.364   0.997   7.211  0.9491  0.1215  0.1330
19248SOL     OW59184   6.018   0.320   6.924  0.6150  0.0320  0.0932
19248SOL    HW159185   6.105   0.360   6.922 -0.1596  1.8114  0.0757
19248SOL    HW259186   5.990   0.320   6.832 -0.6759  2.5246  0.4115
19249SOL     OW59187   3.864   2.598   7.885  0.5110  0.2345  0.3531
19249SOL    HW159188   3.921   2.645   7.824  0.6805  1.1055  1.1491
19249SOL    HW259189   3.847   2.662   7.954  0.3816 -0.7444  1.2434
19250SOL     OW59190   2.495   2.238   7.205  0.3173 -0.6373  0.5200
19250SOL    HW159191   2.503   2.144   7.193  1.4840 -0.6681  1.3924
19250SOL    HW259192   2.494   2.274   7.116  1.2194 -1.3707  0.2051
19251SOL     OW59193   6.908   5.160   8.072 -0.3026 -0.6063  0.2302
19251SOL    HW159194   6.837   5.218   8.044 -0.1577 -0.7958 -0.5528
19251SOL    HW259195   6.867   5.101   8.135 -0.7387 -0.4384  0.1081
19252SOL     OW59196   0.764   4.180   4.497  0.2235  0.0715  0.5438
19252SOL    HW159197   0.674   4.195   4.528 -0.5010 -1.0463 -0.9043
19252SOL    HW259198   0.811   4.260   4.521 -0.9311  0.3244  2.0979
19253SOL     OW59199   0.670   2.402   2.398  0.2190 -0.0176 -0.2555
19253SOL    HW159200   0.690   2.310   2.386 -1.0640 -0.2597 -0.7682
19253SOL    HW259201   0.662   2.413   2.493 -1.5141 -0.8975 -0.2656
19254SOL     OW59202   0.831   1.437  10.808  0.3535  0.2191  0.0633
19254SOL    HW159203   0.905   1.387  10.842  0.2577 -0.8132 -1.1731
19254SOL    HW259204   0.819   1.508  10.871  1.2942 -0.5949  1.2026
19255SOL     OW59205   5.841   4.303  11.454  0.4577  0.0946 -0.7177
19255SOL    HW159206   5.886   4.379  11.418 -0.2278  1.6472  1.4423
19255SOL    HW259207   5.902   4.231  11.443  1.2118  0.9735 -2.6808
19256SOL     OW59208   0.754   7.574  11.416  0.1913  0.4058 -0.0543
19256SOL    HW159209   0.840   7.551  11.450  0.2334 -1.1284 -1.0700
19256SOL    HW259210   0.716   7.490  11.389 -0.8575  1.2431 -1.3225
19257SOL     OW59211   6.326   3.788   1.886 -0.2428  0.5217  0.0424
19257SOL    HW159212   6.254   3.822   1.833 -0.7293  0.5653  0.7175
19257SOL    HW259213   6.295   3.794   1.976 -0.3615 -1.6735  0.2200
19258SOL     OW59214   4.613   4.967   1.192  0.3618  0.3357 -0.4463
19258SOL    HW159215   4.670   4.984   1.118  0.6774  1.4420  0.0287
19258SOL    HW259216   4.599   5.053   1.232  0.5945 -0.2931  1.0515
19259SOL     OW59217   3.158   7.114   1.597 -0.5899 -0.0015 -0.2049
19259SOL    HW159218   3.164   7.020   1.581  0.4829  0.1792 -1.0251
19259SOL    HW259219   3.073   7.140   1.561  0.2219 -0.2411 -2.4189
19260SOL     OW59220   0.924   6.688   1.687 -0.9562  0.1052 -0.3559
19260SOL    HW159221   1.004   6.735   1.710 -0.7957 -0.7213  0.8951
19260SOL    HW259222   0.943   6.648   1.602 -0.5380  0.9910 -0.6935
19261SOL     OW59223   3.832   3.610   2.938 -0.7771 -0.5991 -0.1876
19261SOL    HW159224   3.809   3.632   2.848 -1.1861 -1.4737 -0.3067
19261SOL    HW259225   3.921   3.575   2.932 -0.4883  0.1016 -0.1271
19262SOL     OW59226   0.572   0.744   7.960  0.0836  0.0584 -0.3279
19262SOL    HW159227   0.654   0.791   7.945  0.1587 -0.6259 -2.2838
19262SOL    HW259228   0.507   0.790   7.908 -0.1708 -1.0367 -0.9995
19263SOL     OW59229   2.123   4.971  10.526  0.5294  0.1750  0.3414
19263SOL    HW159230   2.141   5.064  10.513  1.2192  0.2907  1.9704
19263SOL    HW259231   2.062   4.968  10.600 -0.3011 -0.6321 -0.3481
19264SOL     OW59232   2.427   7.604   8.492 -0.3124  0.1228  0.4037
19264SOL    HW159233   2.411   7.589   8.586 -1.5632  1.1768  0.3885
19264SOL    HW259234   2.344   7.582   8.451 -0.3073  1.3078 -0.2612
19265SOL     OW59235   0.976   0.557   5.271  0.3486  0.1839 -0.3511
19265SOL    HW159236   1.001   0.596   5.354  0.3303 -0.1133 -0.2062
19265SOL    HW259237   0.884   0.582   5.260  0.2709 -0.0146 -0.1473
19266SOL     OW59238   1.770   7.210   2.170 -0.1808  0.3057  0.1932
19266SOL    HW159239   1.770   7.207   2.265  0.7277  2.3239  0.3101
19266SOL    HW259240   1.802   7.123   2.143 -0.7868 -0.4136  1.6820
19267SOL     OW59241   1.160   3.128   8.963  0.0653  0.3824  0.1658
19267SOL    HW159242   1.145   3.129   8.869 -0.7068  2.2318  0.2598
19267SOL    HW259243   1.249   3.164   8.974  1.7285 -3.2383  0.0327
19268SOL     OW59244   7.527   4.380   6.222  0.0476  0.0131  0.6811
19268SOL    HW159245   7.486   4.462   6.194 -2.4983 -1.7149 -1.0708
19268SOL    HW259246   7.474   4.350   6.296  0.9350 -0.1114  1.2867
19269SOL     OW59247   0.851   4.933   3.639  0.2208  0.3308 -0.1104
19269SOL    HW159248   0.925   4.987   3.665 -0.7402  1.1996  0.9396
19269SOL    HW259249   0.795   4.930   3.717  0.4385 -2.5902  0.0636
19270SOL     OW59250   4.343   6.597   5.385  0.5663 -0.0838 -0.3127
19270SOL    HW159251   4.267   6.544   5.406  1.6021 -1.5819 -0.1754
19270SOL    HW259252   4.338   6.609   5.290 -1.2174  2.0964 -0.0046
19271SOL     OW59253   7.477   4.112   0.821 -0.2045  0.1179 -0.2796
19271SOL    HW159254   7.443   4.043   0.764 -1.5975  0.4390  0.1266
19271SOL    HW259255   7.512   4.066   0.897  0.4862 -0.2340 -0.8004
19272SOL     OW59256   2.638   5.545   9.216 -0.4142 -0.4001  0.4980
19272SOL    HW159257   2.558   5.592   9.241  0.0473  0.8129 -0.2186
19272SOL    HW259258   2.690   5.610   9.169  0.9314 -1.2211  0.8051
19273SOL     OW59259   0.125   1.922   8.885  0.8939 -0.2897 -0.5921
19273SOL    HW159260   0.099   1.981   8.957  2.7897  0.2191 -0.2608
19273SOL    HW259261   0.216   1.898   8.906  1.4437 -0.2570 -2.7407
19274SOL     OW59262   2.509   5.171   6.568 -0.4140  0.0751  0.7393
19274SOL    HW159263   2.509   5.265   6.585  0.2641  0.0442  0.9715
19274SOL    HW259264   2.580   5.137   6.622  1.2888 -0.1598 -1.4641
19275SOL     OW59265   0.245   6.916  10.833  0.0595 -0.0121 -0.1323
19275SOL    HW159266   0.236   6.938  10.740 -1.1141  1.1514  0.2335
19275SOL    HW259267   0.155   6.917  10.866  0.5510  0.6028  1.2353
19276SOL     OW59268   7.103   5.391   8.992  0.2467  0.0926 -0.3762
19276SOL    HW159269   7.166   5.421   8.927 -1.5048 -0.5947 -2.5251
19276SOL    HW259270   7.052   5.324   8.947 -0.6436 -0.9058  1.9554
19277SOL     OW59271   0.568   3.392  10.643 -0.4150 -0.2261 -0.4617
19277SOL    HW159272   0.648   3.436  10.614 -1.8286  1.5410 -2.0733
19277SOL    HW259273   0.592   3.301  10.654  1.3472 -0.1921 -3.1354
19278SOL     OW59274   2.962   0.177   8.833 -0.2346  0.6476  0.0122
19278SOL    HW159275   3.001   0.265   8.832  0.8153  0.3358  3.2127
19278SOL    HW259276   3.035   0.118   8.815 -0.8350  0.3368 -1.5897
19279SOL     OW59277   6.774   2.971   6.959  0.3459 -0.1088  0.0208
19279SOL    HW159278   6.819   2.887   6.949 -0.4577 -0.2884 -2.7680
19279SOL    HW259279   6.681   2.949   6.956 -0.0259  0.5334  3.2070
19280SOL     OW59280   5.069   2.542   0.322 -0.0235  0.0997  0.2906
19280SOL    HW159281   4.979   2.519   0.301  0.1192  0.0940 -0.3406
19280SOL    HW259282   5.068   2.637   0.334  0.1844  0.3364 -1.3606
19281SOL     OW59283   3.835   1.419  10.938 -0.0065  0.2564 -0.1829
19281SOL    HW159284   3.773   1.361  10.981 -0.3005  0.7982  0.1306
19281SOL    HW259285   3.846   1.382  10.850  0.8266 -1.0334  0.4243
19282SOL     OW59286   3.675   6.108   9.147  0.4606  0.3435  0.2953
19282SOL    HW159287   3.627   6.092   9.228 -0.2340  0.2875 -0.1092
19282SOL    HW259288   3.607   6.136   9.085  0.9643  0.3065 -0.2815
19283SOL     OW59289   4.680   0.339  10.876 -0.0552 -0.5370  0.4318
19283SOL    HW159290   4.598   0.386  10.857 -0.0453 -0.8341 -0.4317
19283SOL    HW259291   4.654   0.269  10.935 -0.8306 -1.8443 -1.3721
19284SOL     OW59292   1.756   3.127   9.208  0.4664  0.3426  0.1798
19284SOL    HW159293   1.757   3.160   9.118  0.6894  0.8967  0.3825
19284SOL    HW259294   1.671   3.082   9.216  1.1050 -1.1102 -0.7928
19285SOL     OW59295   4.502   1.493   2.547 -0.2682  0.0429  0.4741
19285SOL    HW159296   4.563   1.497   2.620  3.4979  0.4115 -2.3813
19285SOL    HW259297   4.498   1.583   2.514 -2.4703  0.0271  0.5432
19286SOL     OW59298   1.248   1.722   4.394  0.1582  0.0664 -0.1086
19286SOL    HW159299   1.291   1.656   4.339 -2.1325 -1.7288  0.1174
19286SOL    HW259300   1.184   1.673   4.445  1.2653  1.8606  3.2798
19287SOL     OW59301   3.843   4.090   0.957  0.2385  0.5324 -0.1476
19287SOL    HW159302   3.885   4.144   1.024 -0.5570  1.8886 -0.7077
19287SOL    HW259303   3.804   4.152   0.897 -2.0905 -0.6485  0.0193
19288SOL     OW59304   3.569   7.405   5.162  0.1911 -0.6530  0.4883
19288SOL    HW159305   3.561   7.332   5.224 -1.1712 -0.3269  0.7338
19288SOL    HW259306   3.609   7.475   5.213 -1.7926 -0.0646  1.3491
19289SOL     OW59307   5.159   1.123   5.972 -0.6478  0.1901 -0.0172
19289SOL    HW159308   5.222   1.118   5.901 -0.8847 -1.0413 -0.1692
19289SOL    HW259309   5.107   1.200   5.953 -0.3748  0.1612 -0.9048
19290SOL     OW59310   6.010   5.540   1.864  0.4384  0.1581 -0.0640
19290SOL    HW159311   6.056   5.591   1.930  2.8414 -2.3246  0.3816
19290SOL    HW259312   5.958   5.477   1.915  1.7133 -1.2692 -0.4386
19291SOL     OW59313   7.291   4.409  10.692  0.1688  0.1889 -0.1369
19291SOL    HW159314   7.281   4.328  10.743  1.5382  1.2279  1.9436
19291SOL    HW259315   7.291   4.380  10.601 -2.0104 -1.8279  0.3842
19292SOL     OW59316   1.143   7.172  12.275 -0.4584  0.1529 -0.3331
19292SOL    HW159317   1.161   7.114  12.201  0.4455  1.6558 -1.3472
19292SOL    HW259318   1.051   7.196  12.266 -0.9258 -1.3070  0.2693
19293SOL     OW59319   0.037   0.971   7.162  0.1866 -1.1102 -0.0268
19293SOL    HW159320   0.064   0.903   7.100  0.0853 -1.8990  0.7674
19293SOL    HW259321  -0.056   0.955   7.176  0.1686 -0.8276  0.1912
19294SOL     OW59322   7.724   3.835  10.667 -0.1502 -0.2962  0.0927
19294SOL    HW159323   7.677   3.914  10.638 -1.4245 -1.4132 -1.0488
19294SOL    HW259324   7.813   3.846  10.633 -0.5032  0.3402 -0.6659
19295SOL     OW59325   6.598   0.069   7.315 -0.1495  0.2548 -0.0869
19295SOL    HW159326   6.545   0.000   7.274  0.2076  0.2876 -0.6224
19295SOL    HW259327   6.586   0.145   7.258  0.2671  0.3348 -0.0692
19296SOL     OW59328   1.186   6.293   2.521 -0.5863 -0.2897  0.3586
19296SOL    HW159329   1.178   6.248   2.437  2.6057 -0.7221  0.1676
19296SOL    HW259330   1.144   6.378   2.507  0.7069  0.0378 -2.0322
19297SOL     OW59331   0.634   5.044   8.782  0.1848 -0.6956 -0.5839
19297SOL    HW159332   0.583   5.000   8.850  0.4495  1.0784  0.8239
19297SOL    HW259333   0.577   5.043   8.705 -0.9966 -0.8488  0.2655
19298SOL     OW59334   6.093   0.220   5.877  0.3040  0.0774 -0.0757
19298SOL    HW159335   6.024   0.219   5.943  0.5717 -0.1141  0.2051
19298SOL    HW259336   6.153   0.289   5.905 -0.2995  0.9464 -0.8731
19299SOL     OW59337   1.938   3.521   4.949 -0.0798  0.2034  0.3246
19299SOL    HW159338   1.865   3.460   4.955  0.4729 -0.4847  0.3044
19299SOL    HW259339   1.900   3.607   4.963 -1.2262  0.0886 -1.8046
19300SOL     OW59340   5.988   6.489   4.938 -0.1735 -0.3275 -0.2928
19300SOL    HW159341   6.070   6.538   4.942 -0.9187  1.3406 -2.8035
19300SOL    HW259342   5.931   6.532   5.002 -0.0179  0.5074 -0.6958
19301SOL     OW59343   7.535   0.532   7.493 -0.2115 -0.2607 -0.1782
19301SOL    HW159344   7.516   0.625   7.486  0.9857  0.0215  0.1922
19301SOL    HW259345   7.491   0.493   7.417 -0.0510  0.7069 -0.7820
19302SOL     OW59346   7.214   3.314   9.458  0.1197  0.5227 -0.4134
19302SOL    HW159347   7.199   3.408   9.470 -0.0866  0.3707  0.6212
19302SOL    HW259348   7.156   3.272   9.521  1.3110 -0.2461  0.2055
19303SOL     OW59349   1.068   2.385   8.373 -0.6228  0.3558 -0.0187
19303SOL    HW159350   1.138   2.333   8.413  0.0486  0.8439 -0.5524
19303SOL    HW259351   1.017   2.416   8.448 -2.0339 -2.3802  0.2804
19304SOL     OW59352   0.025   6.506   8.984 -0.3821  0.3045  0.2856
19304SOL    HW159353  -0.022   6.589   8.982  2.2703  1.9021 -1.3062
19304SOL    HW259354   0.116   6.530   8.998  0.6337 -2.2646 -1.2300
19305SOL     OW59355   1.373   1.693   1.778 -0.0002 -0.2042  0.3458
19305SOL    HW159356   1.412   1.729   1.858  0.3416  1.1922 -0.4164
19305SOL    HW259357   1.280   1.683   1.799  0.4011 -1.7795  1.5583
19306SOL     OW59358   0.364   0.654   1.407 -0.5875 -0.1039  0.5519
19306SOL    HW159359   0.408   0.606   1.337 -1.1624 -0.1008  0.1812
19306SOL    HW259360   0.421   0.643   1.483  1.2708  1.8474 -0.4670
19307SOL     OW59361   7.077   1.078   9.839  0.3181 -0.3878 -0.3343
19307SOL    HW159362   7.150   1.131   9.872 -0.3131 -0.2346  0.8834
19307SOL    HW259363   7.071   1.005   9.900 -0.9431 -0.0568 -0.0299
19308SOL     OW59364   0.592   0.337   2.605 -0.4549 -0.2491  0.3782
19308SOL    HW159365   0.616   0.399   2.675  0.6012 -1.4982  1.1646
19308SOL    HW259366   0.508   0.370   2.573  0.0538  1.5748  0.7791
19309SOL     OW59367   7.880   6.852  10.094  0.1870  0.1235 -0.1700
19309SOL    HW159368   7.806   6.794  10.075  0.2070 -0.0406  0.2481
19309SOL    HW259369   7.955   6.794  10.099 -0.0888 -0.1316  2.3118
19310SOL     OW59370   3.838   5.825   3.084  0.0224 -1.1366 -0.0102
19310SOL    HW159371   3.933   5.817   3.072  0.2585  0.5630  0.4596
19310SOL    HW259372   3.827   5.844   3.177 -0.6871 -0.3860 -0.2364
19311SOL     OW59373   5.048   3.313   5.913  0.6264 -0.3639  0.5696
19311SOL    HW159374   5.048   3.223   5.946  1.8704 -0.4572  0.3423
19311SOL    HW259375   4.988   3.310   5.838 -0.7880 -0.5588  1.6611
19312SOL     OW59376   0.455   0.545   8.932 -0.7372 -0.0775  0.2274
19312SOL    HW159377   0.464   0.457   8.895 -0.4229  0.6448 -1.5006
19312SOL    HW259378   0.367   0.573   8.905 -1.1534 -0.1396  1.4518
19313SOL     OW59379   3.811   7.915   9.541 -0.2448 -0.1329  0.1355
19313SOL    HW159380   3.853   7.896   9.624  0.9852  1.2089 -0.1316
19313SOL    HW259381   3.726   7.872   9.546 -0.0281 -0.4212  1.9064
19314SOL     OW59382   6.413   2.445   0.358 -0.8341  0.2450 -0.5524
19314SOL    HW159383   6.436   2.529   0.318 -0.9365  0.8462  0.6371
19314SOL    HW259384   6.472   2.437   0.433 -0.2445 -1.1504 -1.1160
19315SOL     OW59385   0.940   5.473   0.145 -0.2911  0.0248 -0.4374
19315SOL    HW159386   0.940   5.487   0.240 -1.3863  1.0790 -0.5755
19315SOL    HW259387   1.032   5.457   0.123  0.0950  0.6314  0.6740
19316SOL     OW59388   2.299   7.836  11.058 -0.3471  0.7610  0.5239
19316SOL    HW159389   2.327   7.744  11.052 -1.1515  0.5605 -0.4237
19316SOL    HW259390   2.380   7.885  11.074  0.3981  0.0770 -0.9209
19317SOL     OW59391   7.302   1.472   8.415  0.7935  0.6335 -0.9620
19317SOL    HW159392   7.299   1.502   8.324  0.9001 -1.1852 -1.6010
19317SOL    HW259393   7.229   1.518   8.458 -2.1222 -1.6444 -3.0279
19318SOL     OW59394   5.953   3.248   3.630 -0.2476 -0.1128  0.1173
19318SOL    HW159395   5.864   3.220   3.614 -0.2974 -0.5187  1.0924
19318SOL    HW259396   5.962   3.250   3.725  0.2346  1.6375  0.0805
19319SOL     OW59397   7.062   3.111   8.167 -0.0197  0.0405  0.1581
19319SOL    HW159398   7.002   3.166   8.118 -3.0154 -3.0531  0.0350
19319SOL    HW259399   7.130   3.086   8.104 -1.7103 -0.8074 -1.4014
19320SOL     OW59400   0.830   5.272   5.824 -0.1337  0.2887  0.4638
19320SOL    HW159401   0.827   5.256   5.730 -0.2929  0.4576  0.4390
19320SOL    HW259402   0.922   5.257   5.848  0.2687  1.7822 -0.0054
19321SOL     OW59403   6.064   1.273   6.067 -0.1199 -0.1153  0.4754
19321SOL    HW159404   6.138   1.325   6.035  0.5338 -2.0522 -1.3794
19321SOL    HW259405   6.093   1.242   6.153  0.7634  0.0847  0.2641
19322SOL     OW59406   5.459   0.482   6.228  0.0445 -0.0759  0.1429
19322SOL    HW159407   5.381   0.427   6.216 -1.1335  1.4874  0.2701
19322SOL    HW259408   5.449   0.520   6.315  1.9378 -1.2825  0.9439
19323SOL     OW59409   5.452   3.332   0.132 -0.3799 -0.0747 -0.1806
19323SOL    HW159410   5.533   3.330   0.081  0.7441 -0.1266  1.5344
19323SOL    HW259411   5.413   3.417   0.113  0.5849  0.3556 -0.3050
19324SOL     OW59412   0.705   6.135   2.020  0.1726  0.2378  0.3200
19324SOL    HW159413   0.787   6.096   1.989  0.1347  0.4795 -0.0917
19324SOL    HW259414   0.658   6.062   2.060  0.8002  0.2012  1.0115
19325SOL     OW59415   3.719   3.208   8.879 -0.5500 -0.1901 -0.0666
19325SOL    HW159416   3.658   3.281   8.887 -0.2693  0.3208 -2.0896
19325SOL    HW259417   3.676   3.148   8.817  0.2923 -0.5694 -0.2950
19326SOL     OW59418   2.136   1.358  11.773  0.0806  0.3773 -0.0928
19326SOL    HW159419   2.079   1.321  11.706 -1.9250  1.1451  1.0930
19326SOL    HW259420   2.184   1.283  11.809 -0.1722 -0.2913 -1.1141
19327SOL     OW59421   5.711   6.953  10.224  0.0762 -0.1877  0.1259
19327SOL    HW159422   5.674   6.982  10.141  2.8106  2.8477 -0.2272
19327SOL    HW259423   5.751   7.032  10.261  0.8181 -1.9027  3.3193
19328SOL     OW59424   3.654   0.937  10.968 -0.2228  0.0660  0.0837
19328SOL    HW159425   3.623   0.955  11.057 -2.3192 -4.1515  0.4524
19328SOL    HW259426   3.597   0.867  10.937  3.1140 -1.6023 -2.9786
19329SOL     OW59427   4.373   5.570   5.313  0.1504  0.0748  0.2052
19329SOL    HW159428   4.434   5.541   5.245 -0.0324  0.9995 -0.3760
19329SOL    HW259429   4.428   5.605   5.382  0.2928  1.4817 -0.5847
19330SOL     OW59430   7.056   7.303  12.077 -0.3932  0.4031 -0.0063
19330SOL    HW159431   7.016   7.313  11.991 -0.4332 -0.4486 -0.0887
19330SOL    HW259432   7.097   7.388  12.094  1.6982 -0.1246 -1.9193
19331SOL     OW59433   1.015   3.231   0.634  0.4599 -0.1741 -0.1226
19331SOL    HW159434   1.110   3.223   0.632  0.3454 -2.0992  0.5153
19331SOL    HW259435   0.983   3.143   0.652 -1.4611  0.4256 -0.3053
19332SOL     OW59436   0.403   2.841   7.688 -0.2110  0.6274 -0.4662
19332SOL    HW159437   0.460   2.805   7.621 -2.3135 -0.0886 -1.9561
19332SOL    HW259438   0.345   2.769   7.712  1.1313  0.4968  3.0114
19333SOL     OW59439   0.192   6.141   5.135  0.1627  0.0925 -0.2455
19333SOL    HW159440   0.261   6.177   5.191  0.6169  0.5705 -1.0932
19333SOL    HW259441   0.132   6.215   5.120  0.7981  0.3725 -1.5329
19334SOL     OW59442   1.695   5.395   5.431 -0.0053 -0.2238 -0.4426
19334SOL    HW159443   1.701   5.459   5.502  2.1112 -2.3811  1.5135
19334SOL    HW259444   1.779   5.404   5.385 -1.2940  1.0517 -2.7082
19335SOL     OW59445   1.709   6.876  10.685  0.1464 -0.4259  0.2053
19335SOL    HW159446   1.639   6.847  10.626 -0.9637  1.6830  0.4106
19335SOL    HW259447   1.669   6.877  10.772  0.6252  0.1608  0.4291
19336SOL     OW59448   7.605   3.810  10.236  0.4344 -0.3707  0.1466
19336SOL    HW159449   7.573   3.794  10.324 -1.0678 -0.5217 -0.4114
19336SOL    HW259450   7.643   3.727  10.208 -2.2388 -1.4310 -0.6207
19337SOL     OW59451   2.158   6.564   1.398  0.3093  0.7459 -0.0427
19337SOL    HW159452   2.093   6.536   1.334  2.8901  2.3247 -3.7100
19337SOL    HW259453   2.198   6.483   1.429 -0.8419 -0.0642 -0.6143
19338SOL     OW59454   3.299   2.511   1.282 -0.4670  0.2011 -0.8213
19338SOL    HW159455   3.232   2.577   1.298  1.5272  2.1298  0.0422
19338SOL    HW259456   3.366   2.556   1.231  0.7190 -1.3047 -0.6793
19339SOL     OW59457   3.365   4.051   1.341  0.6251  0.0403  0.1741
19339SOL    HW159458   3.315   3.994   1.284  0.9097 -0.9367  0.8757
19339SOL    HW259459   3.305   4.070   1.414  0.5932  0.4868  0.0319
19340SOL     OW59460   2.119   7.354   3.846  0.2240 -0.6045 -0.2492
19340SOL    HW159461   2.169   7.399   3.778  1.5024 -0.9740  0.4272
19340SOL    HW259462   2.110   7.419   3.916 -1.6252 -0.0148 -0.9724
19341SOL     OW59463   6.116   7.365   8.630  0.1619 -0.7445  0.0256
19341SOL    HW159464   6.035   7.376   8.680  0.0765 -0.6676 -0.1300
19341SOL    HW259465   6.103   7.419   8.552  0.3923 -0.6778  0.0349
19342SOL     OW59466   0.670   3.853   3.184 -0.7419 -0.2035  0.1873
19342SOL    HW159467   0.587   3.890   3.213 -0.8532  0.2480 -0.6834
19342SOL    HW259468   0.654   3.826   3.094  0.6239  1.7618 -0.6973
19343SOL     OW59469   3.663   4.325   1.748  0.6142  0.5761 -0.3641
19343SOL    HW159470   3.742   4.365   1.783  0.8401 -0.0076 -0.1913
19343SOL    HW259471   3.683   4.231   1.744 -0.6494  0.1939  1.2827
19344SOL     OW59472   4.961   0.339   9.119  0.4065  0.2177  0.4658
19344SOL    HW159473   5.047   0.312   9.085 -0.0793 -1.4079  0.4112
19344SOL    HW259474   4.979   0.366   9.209  1.3186  2.2225 -0.2463
19345SOL     OW59475   7.286   7.162   1.737 -0.0876 -0.2543  0.1506
19345SOL    HW159476   7.248   7.075   1.722  0.6110 -0.6442  0.5232
19345SOL    HW259477   7.216   7.212   1.779  0.0120 -1.1869  1.5257
19346SOL     OW59478   3.938   6.821   3.227  0.0033  0.3372 -0.0427
19346SOL    HW159479   3.855   6.867   3.213 -0.2854 -0.2404 -0.2826
19346SOL    HW259480   3.939   6.801   3.320 -1.1405 -1.5158 -0.3858
19347SOL     OW59481   6.056   5.413  12.109 -0.1606 -0.1435  0.2480
19347SOL    HW159482   6.081   5.370  12.191 -1.3208 -1.3635  0.0066
19347SOL    HW259483   5.984   5.359  12.076  0.0079  0.5860 -1.3579
19348SOL     OW59484   4.871   4.724  12.369 -0.0372  0.5704 -0.7862
19348SOL    HW159485   4.806   4.761  12.428  0.4074  1.1650 -0.6565
19348SOL    HW259486   4.939   4.689  12.427 -0.2761 -0.1297 -0.9168
19349SOL     OW59487   1.250   2.280   8.997 -0.1489  0.2242 -0.2067
19349SOL    HW159488   1.155   2.293   8.991 -0.1138  0.8874  0.4239
19349SOL    HW259489   1.260   2.187   9.017 -0.7876  0.4805  1.5424
19350SOL     OW59490   5.623   2.556  10.572  0.0009  0.6040 -0.0761
19350SOL    HW159491   5.684   2.586  10.504 -0.9983  1.2240 -0.7241
19350SOL    HW259492   5.539   2.550  10.527 -0.2543 -1.2011  0.5520
19351SOL     OW59493   0.017   4.161   1.402  0.3260  0.5716  0.2998
19351SOL    HW159494  -0.076   4.167   1.382  0.5218 -0.8529 -1.2929
19351SOL    HW259495   0.022   4.164   1.498 -1.4261 -0.0154  0.4365
19352SOL     OW59496   0.679   5.189   4.239 -0.2684 -0.7092 -0.1702
19352SOL    HW159497   0.764   5.222   4.209  0.1189 -1.5312 -0.0065
19352SOL    HW259498   0.697   5.152   4.325 -1.1190  0.4967  0.5639
19353SOL     OW59499   3.602   6.338   7.574 -0.2591  0.4149 -0.4702
19353SOL    HW159500   3.562   6.355   7.488 -0.7025 -0.2846 -0.4182
19353SOL    HW259501   3.563   6.255   7.601  0.6280  0.1342 -0.0339
19354SOL     OW59502   0.407   3.543   0.906  0.7229 -0.0367 -0.3965
19354SOL    HW159503   0.391   3.449   0.915  0.0413  0.0400 -0.7296
19354SOL    HW259504   0.441   3.553   0.818 -0.4688  0.1762 -0.8467
19355SOL     OW59505   2.718   3.307  10.641 -0.3524  0.2921 -0.3760
19355SOL    HW159506   2.740   3.268  10.557 -0.8912 -0.1188 -0.3309
19355SOL    HW259507   2.746   3.242  10.706 -1.1542  0.0222 -0.2956
19356SOL     OW59508   2.386   4.737   6.400 -0.2981 -0.0066  1.0494
19356SOL    HW159509   2.360   4.829   6.397 -0.1077  0.0369  0.6918
19356SOL    HW259510   2.482   4.739   6.402 -0.2757 -0.2027  0.5321
19357SOL     OW59511   7.137   6.890   7.419  0.0369  0.1107  0.0962
19357SOL    HW159512   7.183   6.835   7.484  0.0934 -1.7862 -1.4658
19357SOL    HW259513   7.093   6.827   7.362 -1.5249  1.7976 -0.6391
19358SOL     OW59514   5.362   1.504  12.233 -0.4531 -0.9017  0.4140
19358SOL    HW159515   5.280   1.502  12.283  0.9238 -0.6887  2.8586
19358SOL    HW259516   5.406   1.423  12.256 -0.2730 -1.3748 -1.4793
19359SOL     OW59517   7.317   4.160   1.052  0.2893 -0.1008  0.1202
19359SOL    HW159518   7.328   4.067   1.031  1.7802  0.2259 -0.6817
19359SOL    HW259519   7.316   4.204   0.967 -1.2796  0.5685  0.4431
19360SOL     OW59520   7.481   3.370  10.509  0.0576  0.2457  0.5874
19360SOL    HW159521   7.558   3.382  10.564 -1.1853  0.0976  2.4629
19360SOL    HW259522   7.414   3.336  10.569 -2.3144  2.9330 -0.3083
19361SOL     OW59523   3.812   5.098   6.927  0.6418 -0.2211  0.2962
19361SOL    HW159524   3.761   5.145   6.993  1.2964  1.4900 -0.3525
19361SOL    HW259525   3.768   5.013   6.918 -0.3028  0.0634  1.8642
19362SOL     OW59526   6.702   5.112   1.028  0.0397  0.5597  0.2644
19362SOL    HW159527   6.761   5.184   1.052 -0.5842  1.0200  0.4485
19362SOL    HW259528   6.689   5.122   0.934 -0.2025  0.8062  0.3243
19363SOL     OW59529   3.976   5.667   8.550 -0.2074 -0.1355  0.0480
19363SOL    HW159530   3.913   5.739   8.551  0.2195  0.2532 -0.4703
19363SOL    HW259531   3.948   5.611   8.478  0.9369  0.8747 -1.2375
19364SOL     OW59532   2.576   2.076   2.484 -0.1927  0.5185 -0.4804
19364SOL    HW159533   2.526   1.995   2.467 -0.8952  0.9048 -0.3117
19364SOL    HW259534   2.641   2.079   2.414  0.1842 -0.4578 -0.1998
19365SOL     OW59535   3.377   3.335   5.725  0.8176  0.1531 -0.2915
19365SOL    HW159536   3.378   3.389   5.646 -1.1731  0.6017 -0.0406
19365SOL    HW259537   3.285   3.315   5.740  1.2994 -1.2989  1.0112
19366SOL     OW59538   5.691   2.296   2.652 -0.7719 -0.3117 -0.2824
19366SOL    HW159539   5.784   2.285   2.633 -0.7418  1.1695 -1.1808
19366SOL    HW259540   5.653   2.326   2.570 -2.1012 -1.1013  0.0148
19367SOL     OW59541   3.691   1.741   5.044 -0.2900 -0.6788  0.0002
19367SOL    HW159542   3.775   1.724   5.087  0.2118 -1.6006 -1.2820
19367SOL    HW259543   3.713   1.802   4.974 -0.3509 -2.2156 -1.4095
19368SOL     OW59544   6.065   1.727   1.544 -0.4817 -0.3072  0.2386
19368SOL    HW159545   5.983   1.761   1.579 -1.6980 -3.1178  0.3594
19368SOL    HW259546   6.061   1.633   1.559  1.3090 -0.9930 -2.7497
19369SOL     OW59547   5.593   6.754   9.225  0.0386  0.7613  0.1374
19369SOL    HW159548   5.682   6.782   9.202 -0.1442  2.1799  1.0400
19369SOL    HW259549   5.605   6.672   9.273  0.9213  1.3151  0.8878
19370SOL     OW59550   5.765   0.459   0.517  0.6055 -0.4523 -0.2606
19370SOL    HW159551   5.763   0.544   0.562 -1.0329  1.0692 -2.9703
19370SOL    HW259552   5.687   0.413   0.551 -0.8343  0.8303 -1.6554
19371SOL     OW59553   5.203   7.447   2.976 -0.0471 -0.1052 -0.1836
19371SOL    HW159554   5.142   7.495   3.032 -1.0244 -0.9243 -0.5232
19371SOL    HW259555   5.147   7.396   2.918  0.9441 -1.5022  0.0383
19372SOL     OW59556   6.978   7.480   9.188  0.6653 -0.4882  0.1544
19372SOL    HW159557   7.016   7.439   9.265  1.8391  2.1709  1.0970
19372SOL    HW259558   7.039   7.549   9.164 -0.7786  0.2173 -1.8181
19373SOL     OW59559   5.390   2.218  12.305 -0.3454 -0.4689 -0.0083
19373SOL    HW159560   5.342   2.229  12.223 -0.8661 -1.6044  0.1150
19373SOL    HW259561   5.479   2.246  12.285 -0.1486 -1.8588 -1.3360
19374SOL     OW59562   3.776   1.772   2.815  0.4387  0.2223 -0.1297
19374SOL    HW159563   3.762   1.757   2.722  1.2605 -2.4024  0.0851
19374SOL    HW259564   3.859   1.819   2.819  0.9575 -0.6100 -0.7203
19375SOL     OW59565   3.284   7.312   3.311 -0.0428  0.5665 -0.1831
19375SOL    HW159566   3.376   7.286   3.306  0.0884  0.9885 -0.0207
19375SOL    HW259567   3.283   7.403   3.282 -0.5280  0.3273 -0.9438
19376SOL     OW59568   5.742   4.144  11.868 -0.1779 -0.1945  0.0074
19376SOL    HW159569   5.714   4.139  11.960 -0.9705  0.3620 -0.1897
19376SOL    HW259570   5.669   4.107  11.819 -0.2541  0.5604 -0.4711
19377SOL     OW59571   2.877   6.641  10.959 -0.2992  0.3095  0.3415
19377SOL    HW159572   2.918   6.698  10.894 -1.1682  0.0935 -0.4210
19377SOL    HW259573   2.792   6.619  10.921 -0.3005 -0.8643  0.9790
19378SOL     OW59574   2.197   1.273   4.697  1.1611 -0.1462  0.0906
19378SOL    HW159575   2.272   1.331   4.711  0.0852  1.6409 -1.0813
19378SOL    HW259576   2.166   1.295   4.609 -0.8503 -0.6425  0.6274
19379SOL     OW59577   6.149   7.005   4.954  0.1997  0.5170  0.2199
19379SOL    HW159578   6.189   6.919   4.943 -1.5790 -0.4684  0.9541
19379SOL    HW259579   6.218   7.059   4.992  1.7930 -0.1407 -1.5834
19380SOL     OW59580   3.897   5.745   6.499 -0.0467 -0.1128  0.2725
19380SOL    HW159581   3.938   5.713   6.580 -1.1179 -0.2605  0.7673
19380SOL    HW259582   3.805   5.755   6.521 -0.1676  0.9110 -0.6209
19381SOL     OW59583   0.295   5.446  10.387  0.1303  0.1215 -0.0437
19381SOL    HW159584   0.351   5.482  10.456  0.6769 -0.6189 -0.0874
19381SOL    HW259585   0.212   5.428  10.431 -0.7507  2.9070 -0.3701
19382SOL     OW59586   5.034   2.288   4.233  0.0896  0.1178 -0.0266
19382SOL    HW159587   5.013   2.370   4.278  0.2791  0.3720 -0.3980
19382SOL    HW259588   5.044   2.313   4.141  1.1521 -0.1346  0.0054
19383SOL     OW59589   7.495   5.151  12.324 -0.3260 -0.0271  0.0845
19383SOL    HW159590   7.502   5.243  12.299 -1.5419  0.2819  0.8404
19383SOL    HW259591   7.585   5.126  12.346  0.5275  0.1514 -2.8101
19384SOL     OW59592   2.026   7.803   8.075 -0.4264  0.0770  0.5611
19384SOL    HW159593   1.968   7.766   8.008 -0.6755 -1.4932  1.6010
19384SOL    HW259594   2.114   7.793   8.038 -0.7126  1.8312 -0.7202
19385SOL     OW59595   1.214   3.388   8.703  0.5129  0.0443  0.1245
19385SOL    HW159596   1.284   3.355   8.645  0.7819  0.7618  0.0354
19385SOL    HW259597   1.154   3.314   8.712  1.1344 -0.4878 -0.0378
19386SOL     OW59598   3.048   2.018   3.931 -0.4481  0.2140 -0.3651
19386SOL    HW159599   3.075   1.929   3.954  0.1780  0.7546  1.1423
19386SOL    HW259600   3.036   2.062   4.015  1.5490  2.2087 -1.0019
19387SOL     OW59601   4.066   7.210   1.914  0.1385 -0.4121 -0.3348
19387SOL    HW159602   4.016   7.155   1.854  1.6105 -0.8566 -1.2131
19387SOL    HW259603   4.004   7.275   1.945 -1.1089 -1.2838 -0.9365
19388SOL     OW59604   4.491   2.208   5.756  0.6317 -0.0484  0.4445
19388SOL    HW159605   4.560   2.142   5.759 -0.1972 -1.0139 -0.9393
19388SOL    HW259606   4.469   2.216   5.663 -0.8453  0.5413  0.8239
19389SOL     OW59607   0.465   3.190   8.774 -0.4392  0.3960 -0.4591
19389SOL    HW159608   0.463   3.098   8.748  1.4867  0.2217 -0.1439
19389SOL    HW259609   0.551   3.221   8.743 -1.2510  2.2288 -1.0011
19390SOL     OW59610   7.255   1.499   5.592  0.3540  0.1305  0.3526
19390SOL    HW159611   7.233   1.450   5.672  0.6916 -0.0339  0.3458
19390SOL    HW259612   7.255   1.434   5.523  2.0260 -0.1138  0.5355
19391SOL     OW59613   6.433   1.317   0.522 -0.0247 -0.0802  0.0289
19391SOL    HW159614   6.425   1.223   0.507  0.2573  0.0371 -0.9914
19391SOL    HW259615   6.411   1.330   0.614 -0.9222 -1.0390 -0.0365
19392SOL     OW59616   5.012   5.879   5.523  0.6928  0.2644 -0.3075
19392SOL    HW159617   5.067   5.805   5.548  1.3670  1.2282  1.1850
19392SOL    HW259618   4.943   5.840   5.470  1.3284 -1.3488 -0.0197
19393SOL     OW59619   4.316   4.529  11.859 -0.1538  0.0879  0.4807
19393SOL    HW159620   4.285   4.438  11.851 -0.7743  0.3329  0.0640
19393SOL    HW259621   4.382   4.525  11.929  0.3549 -0.8186 -0.0297
19394SOL     OW59622   7.540   1.404  10.305 -0.5112  0.1696 -0.0924
19394SOL    HW159623   7.524   1.370  10.218  2.1295 -1.1329 -0.1743
19394SOL    HW259624   7.636   1.410  10.312 -0.6478  0.9512  2.4457
19395SOL     OW59625   0.343   7.645  12.211  0.1135  0.2184  0.4655
19395SOL    HW159626   0.414   7.581  12.212 -0.4186 -0.4359 -1.2769
19395SOL    HW259627   0.372   7.712  12.149 -1.0678 -0.4210 -0.8225
19396SOL     OW59628   3.859   3.574   6.196  0.1286 -0.3397  0.5895
19396SOL    HW159629   3.945   3.532   6.189  0.8985  1.3533 -1.2281
19396SOL    HW259630   3.798   3.509   6.163  1.1513 -0.4763 -1.1809
19397SOL     OW59631   3.001   7.256  12.157  0.1729 -0.3576  0.0830
19397SOL    HW159632   3.045   7.340  12.146  0.2760 -0.6418 -2.4304
19397SOL    HW259633   3.064   7.202  12.205 -0.0276  1.0368  2.0041
19398SOL     OW59634   2.524   0.031   8.876  0.0588  0.6364 -0.0077
19398SOL    HW159635   2.550  -0.003   8.790 -0.9663 -1.4484  0.4467
19398SOL    HW259636   2.563   0.118   8.879  1.4332  0.1820 -1.9531
19399SOL     OW59637   7.880   5.757   6.294  0.9282  0.2569 -0.2618
19399SOL    HW159638   7.955   5.742   6.237 -0.6262 -0.2856 -2.2901
19399SOL    HW259639   7.830   5.675   6.291  0.2996  0.5374  1.1728
19400SOL     OW59640   0.487   3.184   2.155 -0.3764 -0.5486  0.0237
19400SOL    HW159641   0.442   3.102   2.176 -1.9622  0.9050  2.9472
19400SOL    HW259642   0.479   3.237   2.234  0.9440  2.3097 -1.5879
19401SOL     OW59643   3.945   0.281   7.718  0.5792 -0.5522  0.0065
19401SOL    HW159644   3.918   0.258   7.806  0.1341 -0.1040 -0.0099
19401SOL    HW259645   3.904   0.366   7.701  0.9404 -0.4712 -0.5026
19402SOL     OW59646   4.312   0.237   2.984  0.0011 -0.3269 -0.3414
19402SOL    HW159647   4.241   0.264   3.043  0.7866 -0.8601  0.8766
19402SOL    HW259648   4.346   0.319   2.948 -0.8129 -0.0268 -0.4484
19403SOL     OW59649   5.465   3.637  10.895 -0.6624 -0.4815 -0.4744
19403SOL    HW159650   5.512   3.716  10.922 -2.8836  0.5211  0.7456
19403SOL    HW259651   5.530   3.567  10.901  1.0787  1.0558 -0.5088
19404SOL     OW59652   3.815   1.760   2.533 -0.1542 -0.0839 -0.3363
19404SOL    HW159653   3.747   1.715   2.483 -0.3578 -0.6978  0.4596
19404SOL    HW259654   3.884   1.695   2.543 -0.1756 -0.0206  0.2825
19405SOL     OW59655   5.581   4.883  10.784 -0.2692  0.4868  0.0264
19405SOL    HW159656   5.610   4.970  10.810  0.9369 -0.3455  1.6545
19405SOL    HW259657   5.600   4.828  10.860 -1.1886 -1.1629 -0.8902
19406SOL     OW59658   4.232   1.638   0.771  0.3555  0.0197 -0.1044
19406SOL    HW159659   4.271   1.578   0.708 -0.9033  1.0459 -1.9508
19406SOL    HW259660   4.188   1.704   0.717 -0.3162  1.2608  1.8610
19407SOL     OW59661   7.003   1.426   0.829  0.5415  0.2243 -0.3837
19407SOL    HW159662   6.989   1.520   0.843  0.2885  0.5862 -2.7446
19407SOL    HW259663   7.095   1.412   0.853 -0.1621  0.3545  2.9977
19408SOL     OW59664   1.730   0.211   2.126 -0.2314  0.2430  0.4632
19408SOL    HW159665   1.819   0.242   2.110 -0.4727  0.4997 -0.4619
19408SOL    HW259666   1.704   0.170   2.044 -0.5381 -0.9262  1.1164
19409SOL     OW59667   1.177   2.212   4.092 -0.9722 -0.4368 -0.0541
19409SOL    HW159668   1.091   2.183   4.062 -0.9452  0.7420 -1.3500
19409SOL    HW259669   1.159   2.290   4.144 -0.7275 -0.5173  0.1529
19410SOL     OW59670   1.964   1.220   1.525 -0.6110  0.1383 -0.3658
19410SOL    HW159671   2.022   1.291   1.552 -1.6662  0.8544  0.0655
19410SOL    HW259672   2.011   1.140   1.550  0.3216  0.6894 -0.3110
19411SOL     OW59673   1.977   4.841   4.632  0.2593  0.4526  0.0034
19411SOL    HW159674   1.888   4.843   4.667  0.3207 -0.3565  0.2354
19411SOL    HW259675   1.972   4.783   4.556  0.5476  0.5427 -0.0865
19412SOL     OW59676   1.384   1.673   0.765 -0.5073  0.2649 -0.0581
19412SOL    HW159677   1.363   1.677   0.672 -1.3465  0.0389  0.1096
19412SOL    HW259678   1.479   1.674   0.768 -0.4139 -1.3822 -1.0240
19413SOL     OW59679   2.812   1.295  11.421 -0.7654 -0.1312  0.3886
19413SOL    HW159680   2.823   1.306  11.515 -0.6170 -1.3584  0.5250
19413SOL    HW259681   2.742   1.356  11.398  1.4391  2.7042  0.6799
19414SOL     OW59682   7.661   5.042   8.737  0.2416 -0.3849  0.7705
19414SOL    HW159683   7.680   5.073   8.648 -0.4210 -0.0183  0.7441
19414SOL    HW259684   7.746   5.023   8.775  0.4664 -3.1740 -0.8397
19415SOL     OW59685   1.315   1.268   7.008  0.4860  0.0198  0.5360
19415SOL    HW159686   1.296   1.183   6.968 -1.3024  0.0357  1.2863
19415SOL    HW259687   1.314   1.329   6.935  2.0636 -0.6030 -0.0536
19416SOL     OW59688   6.125   1.718   5.934  0.2249  0.4349  0.2245
19416SOL    HW159689   6.179   1.797   5.935  0.8697  0.0218  1.6750
19416SOL    HW259690   6.058   1.735   6.000 -0.1674  0.1223 -0.0944
19417SOL     OW59691   1.361   2.058   3.931  0.2888 -1.0547 -0.2669
19417SOL    HW159692   1.303   2.120   3.975  0.5556 -0.4875 -0.6990
19417SOL    HW259693   1.372   2.093   3.843 -0.3043 -2.2279 -0.8307
19418SOL     OW59694   2.889   3.106   8.567  0.4583 -0.1312  0.2318
19418SOL    HW159695   2.963   3.063   8.524 -0.8011 -0.5419 -1.6455
19418SOL    HW259696   2.929   3.165   8.630  2.4805  0.8161 -1.8110
19419SOL     OW59697   3.778   2.407   0.646 -0.6487  0.6198  0.3662
19419SOL    HW159698   3.728   2.330   0.621  1.0712 -0.3218 -0.2873
19419SOL    HW259699   3.847   2.414   0.580  0.2936  1.6713  1.4159
19420SOL     OW59700   0.715   3.105  11.805 -0.1687  0.3642 -0.1045
19420SOL    HW159701   0.679   3.051  11.734  1.3785  0.9224 -1.3528
19420SOL    HW259702   0.809   3.090  11.802  0.1577  2.1212  0.3913
19421SOL     OW59703   0.090   4.861   2.220 -0.2392 -0.0462  0.0420
19421SOL    HW159704   0.031   4.934   2.204 -0.0211  0.0163 -0.5106
19421SOL    HW259705   0.040   4.783   2.195 -0.3512 -0.0532  0.2945
19422SOL     OW59706   4.632   1.532   2.781  0.7042  0.8569 -0.0788
19422SOL    HW159707   4.715   1.507   2.740  1.3658  2.2422  0.3578
19422SOL    HW259708   4.656   1.602   2.842 -0.6892  0.7880  0.5674
19423SOL     OW59709   1.289   7.407   5.947 -0.0532  0.5152 -0.2402
19423SOL    HW159710   1.372   7.431   5.906  0.0175  1.3864  0.3978
19423SOL    HW259711   1.223   7.457   5.900 -0.4009 -1.0780 -1.5608
19424SOL     OW59712   4.372   0.967   8.872  0.4096 -0.1278  0.0207
19424SOL    HW159713   4.393   0.947   8.781 -1.3755  1.2459 -0.7652
19424SOL    HW259714   4.362   0.882   8.915 -2.7271 -0.9998 -2.0992
19425SOL     OW59715   0.291   0.561   8.102  0.2663 -0.0245  0.0565
19425SOL    HW159716   0.301   0.513   8.020  0.6690 -0.3119  0.2702
19425SOL    HW259717   0.262   0.496   8.165 -0.2357  0.2359  0.1002
19426SOL     OW59718   1.185   5.319   2.832 -0.3950  0.5365 -0.3371
19426SOL    HW159719   1.108   5.325   2.776 -0.4889  0.9174 -0.1718
19426SOL    HW259720   1.187   5.228   2.861 -0.5191  0.4133 -0.7103
19427SOL     OW59721   1.654   5.439   7.246 -0.0944  0.0279  0.1195
19427SOL    HW159722   1.693   5.418   7.331 -1.2056 -0.0970  0.6272
19427SOL    HW259723   1.724   5.481   7.197  0.1737  1.4576  1.6300
19428SOL     OW59724   4.282   6.831   0.215  0.3434  0.1314 -0.2775
19428SOL    HW159725   4.326   6.822   0.300  1.5569 -1.5532 -1.0232
19428SOL    HW259726   4.248   6.921   0.215  1.6000  0.6610  1.3767
19429SOL     OW59727   7.230   0.146  12.229 -0.6078 -0.2049 -0.0550
19429SOL    HW159728   7.150   0.184  12.265  0.3281  1.2909  0.5549
19429SOL    HW259729   7.207   0.056  12.209 -1.5908 -0.7942  3.1072
19430SOL     OW59730   3.546   3.911  11.540  0.4308  0.1610  0.8954
19430SOL    HW159731   3.568   3.849  11.471  0.8681  1.2096  0.0539
19430SOL    HW259732   3.507   3.858  11.609  1.3938 -1.1265  0.4910
19431SOL     OW59733   1.034   5.119   5.448 -0.5541  0.0852 -0.3337
19431SOL    HW159734   1.047   5.042   5.393 -0.9052 -0.4925  0.3754
19431SOL    HW259735   1.087   5.103   5.526 -1.4415  0.0559  0.2911
19432SOL     OW59736   6.876   4.591   0.770 -0.0235  0.2537  0.1783
19432SOL    HW159737   6.949   4.647   0.797 -0.7570  1.1181  0.4077
19432SOL    HW259738   6.912   4.538   0.699  1.3031 -0.5049  1.3715
19433SOL     OW59739   5.074   0.296  10.400 -0.0690  0.1610  0.0016
19433SOL    HW159740   5.057   0.212  10.442 -0.2801  1.3796  2.4770
19433SOL    HW259741   4.990   0.341  10.399  0.3939  1.0766  0.4125
19434SOL     OW59742   6.137   7.118   2.977  0.9441 -0.2322  0.1967
19434SOL    HW159743   6.189   7.048   3.016 -0.0072 -1.6721 -1.0060
19434SOL    HW259744   6.060   7.124   3.033  0.5867 -0.8205 -0.2176
19435SOL     OW59745   0.495   4.713   4.127  0.6662 -0.4460  0.2361
19435SOL    HW159746   0.414   4.721   4.178 -0.3852 -0.0200 -1.4046
19435SOL    HW259747   0.534   4.801   4.130 -0.4888  0.1693 -1.3487
19436SOL     OW59748   5.853   3.237  11.241 -0.3805 -0.0500  0.6492
19436SOL    HW159749   5.936   3.211  11.202 -0.4633  0.9899 -0.2750
19436SOL    HW259750   5.822   3.309  11.186 -0.4566  1.5692  2.6637
19437SOL     OW59751   5.149   1.698   1.519  0.3898 -0.1460 -0.0065
19437SOL    HW159752   5.220   1.698   1.455  0.8152 -1.3835  0.4309
19437SOL    HW259753   5.136   1.605   1.539  0.6242  0.2270  2.0666
19438SOL     OW59754   2.816   7.288   9.276  0.4715 -0.1870  0.2272
19438SOL    HW159755   2.779   7.365   9.319 -2.0459 -0.4034 -1.3265
19438SOL    HW259756   2.818   7.311   9.183  2.4230 -1.0011  0.0150
19439SOL     OW59757   1.509   7.168   6.393  0.3040  0.3354  0.2933
19439SOL    HW159758   1.522   7.082   6.354  0.5086  0.7980 -0.6763
19439SOL    HW259759   1.597   7.197   6.417  0.2062  0.1627  0.8905
19440SOL     OW59760   2.810   6.765   2.171 -0.6204  0.3781 -0.0971
19440SOL    HW159761   2.779   6.686   2.214  0.4460 -0.7929 -1.4005
19440SOL    HW259762   2.775   6.761   2.082 -0.8185  1.5456 -0.0988
19441SOL     OW59763   3.375   4.594   1.222  0.1172  0.0450  0.2263
19441SOL    HW159764   3.398   4.594   1.315  0.0405  1.0792  0.2611
19441SOL    HW259765   3.337   4.681   1.207  1.4108  0.4356 -1.0653
19442SOL     OW59766   5.893   0.895  10.496 -0.4112 -0.3774  0.4283
19442SOL    HW159767   5.979   0.879  10.457 -0.1231  1.8097  0.0050
19442SOL    HW259768   5.838   0.922  10.422 -1.1978 -0.8394  0.8384
19443SOL     OW59769   0.582   6.536   7.120  0.0936 -1.2333  0.6204
19443SOL    HW159770   0.573   6.464   7.057  0.3390 -0.2838 -0.5434
19443SOL    HW259771   0.494   6.570   7.130  0.1742 -0.9022  0.2009
19444SOL     OW59772   2.000   7.874   5.304 -0.0748 -0.2556 -0.0899
19444SOL    HW159773   1.944   7.949   5.326  1.0553  0.9169 -1.0277
19444SOL    HW259774   2.001   7.821   5.383 -0.9297  0.7085  0.5995
19445SOL     OW59775   6.517   4.234   4.218 -0.0018  0.1030  0.6953
19445SOL    HW159776   6.525   4.226   4.313 -2.8901 -0.7815  0.9582
19445SOL    HW259777   6.496   4.327   4.203  0.0337  0.1539  0.9670
19446SOL     OW59778   5.803   5.648   1.612 -0.2235 -0.1195 -0.3199
19446SOL    HW159779   5.789   5.574   1.672  1.4720 -0.3807 -0.2012
19446SOL    HW259780   5.715   5.683   1.597 -1.0903 -2.1559 -0.3887
19447SOL     OW59781   5.226   5.687   6.172 -0.0698 -0.1987  0.6070
19447SOL    HW159782   5.228   5.636   6.091 -1.1979  1.2149 -0.3604
19447SOL    HW259783   5.185   5.629   6.236 -0.3123 -0.9040 -0.1694
19448SOL     OW59784   4.685   6.654   7.861 -0.4094 -0.2226  0.2020
19448SOL    HW159785   4.611   6.634   7.805  0.0070 -0.2249 -0.3575
19448SOL    HW259786   4.646   6.689   7.941 -0.9979  0.0296 -0.1897
19449SOL     OW59787   2.677   6.008   7.033 -0.3007 -0.2957  0.3235
19449SOL    HW159788   2.703   6.099   7.041 -0.6364 -0.1999  0.3335
19449SOL    HW259789   2.752   5.965   6.990 -1.0049  0.4138 -1.7270
19450SOL     OW59790   6.145   0.107   0.624 -0.2264 -0.1027  0.8289
19450SOL    HW159791   6.085   0.159   0.678 -0.3417 -0.1403  0.7380
19450SOL    HW259792   6.230   0.118   0.666 -0.3771 -0.4199  1.2246
19451SOL     OW59793   1.731   7.627  10.397  0.0071 -0.3077  0.4185
19451SOL    HW159794   1.646   7.618  10.441  0.1867 -1.0702  0.6175
19451SOL    HW259795   1.713   7.683  10.321 -0.4863  0.2794  0.9572
19452SOL     OW59796   6.246   2.915  11.515 -0.1561 -0.2885 -0.2998
19452SOL    HW159797   6.172   2.857  11.503 -0.6555  0.2437  0.1405
19452SOL    HW259798   6.320   2.870  11.474 -0.4414 -1.4018  0.3927
19453SOL     OW59799   5.345   2.914   2.587 -0.1363 -0.1438 -0.2613
19453SOL    HW159800   5.290   2.876   2.519  0.0059  2.0141 -1.6884
19453SOL    HW259801   5.413   2.849   2.603 -0.6666 -1.0503 -1.5751
19454SOL     OW59802   4.660   0.286   6.952  0.5793  0.1803  0.3333
19454SOL    HW159803   4.648   0.194   6.929 -0.5604  0.3620  0.1551
19454SOL    HW259804   4.609   0.298   7.032 -1.2428  1.1805 -0.9069
19455SOL     OW59805   5.993   0.548   1.282 -0.2743  0.1499  0.4361
19455SOL    HW159806   6.033   0.478   1.334 -1.3772  1.0202  2.5753
19455SOL    HW259807   6.050   0.623   1.297 -2.0648  1.1597  2.7836
19456SOL     OW59808   1.246   7.483  11.968 -0.0380  0.0139 -0.2110
19456SOL    HW159809   1.248   7.468  12.063  1.5133  1.5429  0.0356
19456SOL    HW259810   1.245   7.578  11.959 -0.9038 -0.1140 -1.7478
19457SOL     OW59811   0.526   2.699   5.870  0.2141  0.3090  0.1408
19457SOL    HW159812   0.579   2.766   5.828  1.1914 -0.2595  0.4474
19457SOL    HW259813   0.572   2.679   5.951  0.0572 -0.8910 -0.0454
19458SOL     OW59814   2.754   1.791   2.207  0.1793 -0.4117  0.1466
19458SOL    HW159815   2.833   1.844   2.223 -0.0431  0.1251 -0.4762
19458SOL    HW259816   2.712   1.784   2.292 -1.1282  2.5937 -0.1446
19459SOL     OW59817   2.082   3.937   0.310  0.2367 -0.1343  0.1362
19459SOL    HW159818   2.102   3.942   0.217  2.6791  3.5160  0.6332
19459SOL    HW259819   2.161   3.902   0.350 -0.4285 -0.7544  0.9305
19460SOL     OW59820   6.699   0.225   4.778  0.1759 -0.3464 -0.2158
19460SOL    HW159821   6.696   0.196   4.869  1.6839 -0.2516 -0.0968
19460SOL    HW259822   6.761   0.298   4.779  2.0516 -1.7990 -1.6330
19461SOL     OW59823   4.816   7.293   5.842 -0.7470 -0.7831 -0.4512
19461SOL    HW159824   4.772   7.216   5.877 -0.5605 -0.8357 -0.3347
19461SOL    HW259825   4.907   7.283   5.867 -0.9991  0.3172  1.0833
19462SOL     OW59826   1.804   4.143   8.180 -0.0379 -0.5764  0.1132
19462SOL    HW159827   1.784   4.132   8.087 -1.2870 -1.3433  0.4526
19462SOL    HW259828   1.893   4.107   8.189  0.2285 -0.1869 -0.8294
19463SOL     OW59829   1.896   4.483   1.165  0.1415 -0.0752  0.5087
19463SOL    HW159830   1.806   4.488   1.132  0.7663  0.7399 -1.1572
19463SOL    HW259831   1.929   4.400   1.131  0.6798  0.6138 -0.7103
19464SOL     OW59832   4.603   7.482   8.527  0.4526 -0.3883  0.0823
19464SOL    HW159833   4.580   7.398   8.566 -1.2003  0.1689  0.3775
19464SOL    HW259834   4.584   7.547   8.595  1.0538  0.2985 -0.3749
19465SOL     OW59835   7.426   2.876   6.415  0.5099  0.5534 -0.5382
19465SOL    HW159836   7.376   2.947   6.454 -0.3208 -1.4107  2.2526
19465SOL    HW259837   7.516   2.890   6.446  1.0645  2.0192 -2.5655
19466SOL     OW59838   2.266   0.916   3.520 -0.1621 -0.4239 -0.4799
19466SOL    HW159839   2.212   0.851   3.565  0.1530  0.1118  0.7080
19466SOL    HW259840   2.328   0.865   3.468 -2.3412 -1.0805 -2.6593
19467SOL     OW59841   5.874   4.151   4.510 -0.3475 -0.1535  0.1555
19467SOL    HW159842   5.800   4.173   4.567 -0.4596  0.4713 -0.2165
19467SOL    HW259843   5.839   4.160   4.421 -0.1853 -1.1640 -0.0132
19468SOL     OW59844   1.363   2.396  12.052 -0.2136 -0.3690  0.3622
19468SOL    HW159845   1.306   2.362  12.120 -2.3147 -0.1836 -1.2277
19468SOL    HW259846   1.355   2.491  12.059 -0.1794 -0.3416  0.0667
19469SOL     OW59847   1.767   4.569   3.607  0.3789  0.0719  0.0571
19469SOL    HW159848   1.843   4.541   3.659  1.3550 -0.8083 -1.7364
19469SOL    HW259849   1.758   4.501   3.540 -1.3610  0.7161 -0.4002
19470SOL     OW59850   1.297   4.236   2.139  0.4601  0.2294 -0.4741
19470SOL    HW159851   1.251   4.318   2.153 -0.2271 -0.3905  1.1046
19470SOL    HW259852   1.351   4.251   2.061 -1.7548  1.2698 -1.8873
19471SOL     OW59853   0.540   3.348   8.456 -0.2021 -0.2124  0.1228
19471SOL    HW159854   0.524   3.280   8.391 -1.0241  1.0329 -1.0229
19471SOL    HW259855   0.604   3.309   8.516  1.6851 -0.9354 -2.1949
19472SOL     OW59856   2.932   3.228   6.307  0.3393 -0.1715  0.2211
19472SOL    HW159857   2.997   3.235   6.376  0.7676 -0.3902 -0.1572
19472SOL    HW259858   2.852   3.265   6.345  1.3528  2.6818 -0.2040
19473SOL     OW59859   4.818   4.451   1.041 -0.0969 -0.2983  0.7187
19473SOL    HW159860   4.777   4.480   0.960  0.1749  0.7688  0.9449
19473SOL    HW259861   4.798   4.357   1.046  0.2364 -0.4739 -0.7795
19474SOL     OW59862   2.630   2.209   1.761 -0.1030 -0.2786  0.2281
19474SOL    HW159863   2.681   2.137   1.726 -0.2797 -0.7023  0.8191
19474SOL    HW259864   2.566   2.168   1.819 -1.8825  0.1407 -1.3462
19475SOL     OW59865   1.621   4.874   7.947 -0.4574 -0.4112 -0.0218
19475SOL    HW159866   1.566   4.919   7.882  1.8568  1.0786 -1.0911
19475SOL    HW259867   1.710   4.902   7.926  0.6403 -1.9034  2.2634
19476SOL     OW59868   1.498   6.842   7.842  0.3159 -0.1548  0.3091
19476SOL    HW159869   1.434   6.831   7.912  0.8873  0.6340  0.9693
19476SOL    HW259870   1.477   6.772   7.779  0.3193 -1.3988  1.6378
19477SOL     OW59871   1.722   4.041   5.059 -0.0883  0.2883  0.0795
19477SOL    HW159872   1.635   4.046   5.018  0.1601  2.9741 -0.3484
19477SOL    HW259873   1.723   4.115   5.120  1.2677 -0.8226  1.4952
19478SOL     OW59874   4.841   1.287   5.699  0.4306  0.2465 -0.3288
19478SOL    HW159875   4.934   1.271   5.680  0.2576  0.0233 -1.0287
19478SOL    HW259876   4.799   1.202   5.688  0.5167 -0.3057  2.6590
19479SOL     OW59877   3.206   3.891  10.470 -0.0864  0.3161  0.2804
19479SOL    HW159878   3.219   3.802  10.501 -2.0781  0.2919  1.2072
19479SOL    HW259879   3.212   3.946  10.548 -2.9933  0.4859  0.5026
19480SOL     OW59880   7.800   2.006   4.884 -0.3639 -0.0077 -0.2470
19480SOL    HW159881   7.766   1.978   4.798 -0.5939  1.6667 -0.7300
19480SOL    HW259882   7.729   1.985   4.945 -0.9582  0.4708 -0.7549
19481SOL     OW59883   0.201   6.213   8.347 -0.1994 -0.3065 -0.4475
19481SOL    HW159884   0.212   6.227   8.253  0.0607  5.1094  0.0660
19481SOL    HW259885   0.291   6.211   8.381 -0.2581  1.2918 -0.1050
19482SOL     OW59886   5.223   4.696   2.958 -0.6372 -0.4521  0.3612
19482SOL    HW159887   5.155   4.682   3.024 -2.3998  2.6659 -0.6022
19482SOL    HW259888   5.298   4.729   3.008  0.0097 -3.0843  1.3186
19483SOL     OW59889   0.486   1.910   2.875  0.1330  0.5202 -0.4568
19483SOL    HW159890   0.551   1.980   2.867 -0.2994  0.8371 -1.3024
19483SOL    HW259891   0.530   1.832   2.841 -0.0497  0.8219 -1.4214
19484SOL     OW59892   2.658   1.090  10.548 -0.1901 -0.2695  1.0697
19484SOL    HW159893   2.646   1.185  10.552  1.6221  0.0574  0.0162
19484SOL    HW259894   2.592   1.061  10.485 -0.5699  0.3240  1.1810
19485SOL     OW59895   7.188   3.937   9.079  0.2216 -0.3581 -0.2191
19485SOL    HW159896   7.108   3.946   9.027  0.9187  0.0768 -1.2469
19485SOL    HW259897   7.163   3.967   9.166 -0.5393  0.5214 -0.7160
19486SOL     OW59898   3.388   5.430   3.606 -0.1755 -0.1165  0.1189
19486SOL    HW159899   3.353   5.512   3.639 -0.8945 -0.9201  1.4213
19486SOL    HW259900   3.406   5.378   3.684  0.8708 -0.9685 -0.6546
19487SOL     OW59901   0.018   3.980   3.810 -0.3803  0.4123 -0.3515
19487SOL    HW159902   0.080   4.051   3.826 -0.6166  1.0660 -2.1302
19487SOL    HW259903   0.068   3.914   3.762 -0.6864  0.2751 -0.4832
19488SOL     OW59904   6.441   7.173   5.960 -0.0432 -0.2299  0.1989
19488SOL    HW159905   6.350   7.160   5.988  0.3178 -0.0294  1.5608
19488SOL    HW259906   6.490   7.104   6.005  0.5093 -0.2040 -0.3526
19489SOL     OW59907   6.477   4.479   6.059 -0.3430  0.5846 -0.1016
19489SOL    HW159908   6.385   4.467   6.039 -0.2252  1.1195 -1.0217
19489SOL    HW259909   6.521   4.480   5.974  0.6951 -1.0015  0.3684
19490SOL     OW59910   6.812   5.592   3.116  0.3596 -0.1507 -0.1132
19490SOL    HW159911   6.869   5.658   3.078  0.0075  0.0226 -0.3418
19490SOL    HW259912   6.742   5.580   3.051 -1.5704  1.8563  1.4646
19491SOL     OW59913   0.742   1.073   3.163  0.0323  0.0123 -0.6240
19491SOL    HW159914   0.678   1.109   3.101 -0.9536 -0.2114  0.2322
19491SOL    HW259915   0.817   1.132   3.157 -0.7654  1.0483 -0.7135
19492SOL     OW59916   6.166   1.113  10.363 -0.1579 -0.2631  0.2104
19492SOL    HW159917   6.123   1.117  10.449 -1.0888  1.6056 -0.2844
19492SOL    HW259918   6.255   1.142  10.380  0.4043 -2.2306  0.9106
19493SOL     OW59919   0.596   0.916   8.182 -0.0510  0.1494  0.2340
19493SOL    HW159920   0.646   0.952   8.256  1.3981 -0.6171 -0.3205
19493SOL    HW259921   0.658   0.919   8.109 -0.7404 -1.0941 -0.4251
19494SOL     OW59922   5.313   5.848   7.349 -0.1964  0.2246 -0.0750
19494SOL    HW159923   5.264   5.918   7.306 -0.5428 -0.6509 -1.1785
19494SOL    HW259924   5.246   5.786   7.378  0.1888 -0.7286 -1.1247
19495SOL     OW59925   5.780   4.519   1.450 -0.0079 -0.2507  0.1209
19495SOL    HW159926   5.692   4.524   1.488 -0.4984  1.5559 -1.1236
19495SOL    HW259927   5.839   4.513   1.525 -1.0507  1.1940  1.1118
19496SOL     OW59928   5.866   3.177  12.021  0.1084 -0.2324  0.1547
19496SOL    HW159929   5.774   3.179  12.048  0.4625 -0.9437  1.4927
19496SOL    HW259930   5.902   3.259  12.053  0.0751 -0.2197  0.1599
19497SOL     OW59931   6.880   2.699  10.030 -0.0663 -0.1088 -0.0522
19497SOL    HW159932   6.838   2.711   9.945  0.4230 -2.1151 -0.6291
19497SOL    HW259933   6.937   2.775  10.040 -0.6958  0.5220 -1.1689
19498SOL     OW59934   4.024   7.616   3.595  0.3954 -0.2709 -0.0654
19498SOL    HW159935   4.015   7.642   3.503  0.0667 -0.3887 -0.0671
19498SOL    HW259936   4.010   7.698   3.644 -0.9627 -0.4776 -0.0571
19499SOL     OW59937   7.690   4.920  10.798  0.2231  0.0886 -0.1210
19499SOL    HW159938   7.707   5.013  10.807 -1.7670  0.5323 -0.5886
19499SOL    HW259939   7.595   4.912  10.793  0.3700 -1.8889 -0.9231
19500SOL     OW59940   5.256   0.178   9.738  0.0666 -0.0722 -0.1201
19500SOL    HW159941   5.257   0.083   9.721 -1.3552 -0.0591 -0.4322
19500SOL    HW259942   5.336   0.194   9.788  0.2875 -1.4576  0.0284
19501SOL     OW59943   6.571   2.318   7.703 -0.1489 -0.1873 -0.8604
19501SOL    HW159944   6.620   2.283   7.629  0.5085  1.9229 -1.4872
19501SOL    HW259945   6.521   2.391   7.666  0.6586  1.3009  0.8644
19502SOL     OW59946   2.240   1.523   8.708 -0.3312 -0.7837 -0.1250
19502SOL    HW159947   2.243   1.602   8.653 -0.2103 -0.7228 -0.0305
19502SOL    HW259948   2.231   1.556   8.797 -1.2389 -0.8936 -0.1602
19503SOL     OW59949   4.738   5.378   6.553 -0.1641 -0.1472 -0.6179
19503SOL    HW159950   4.819   5.345   6.515  0.0823 -1.1620  0.7438
19503SOL    HW259951   4.736   5.470   6.527  1.2889 -0.1662 -0.8961
19504SOL     OW59952   2.858   3.463   2.519 -0.0559 -0.2167  0.6285
19504SOL    HW159953   2.845   3.411   2.599  0.0715 -1.7021 -0.2798
19504SOL    HW259954   2.769   3.481   2.487 -0.0854 -0.9978  0.2581
19505SOL     OW59955   4.430   1.689  12.149 -0.6327 -0.1379  0.3743
19505SOL    HW159956   4.445   1.780  12.125 -1.1542  0.2322  1.3774
19505SOL    HW259957   4.513   1.645  12.129  1.0818  1.3504  3.4502
19506SOL     OW59958   5.030   2.765   9.865 -0.4884 -0.4421 -0.0122
19506SOL    HW159959   5.123   2.769   9.841 -1.0418  0.8496 -2.2266
19506SOL    HW259960   5.002   2.678   9.837 -0.5385  0.1598 -1.9804
19507SOL     OW59961   1.835   7.401   4.523  0.7027 -0.2784  0.0145
19507SOL    HW159962   1.869   7.368   4.606  1.2655  0.2589  0.0075
19507SOL    HW259963   1.851   7.495   4.526  1.2162 -0.3162 -0.9200
19508SOL     OW59964   5.224   0.874   9.381 -0.4844 -0.1749 -0.2096
19508SOL    HW159965   5.264   0.831   9.306 -0.8672 -2.0395  0.6171
19508SOL    HW259966   5.236   0.968   9.363  1.2054 -0.6024 -1.6070
19509SOL     OW59967   7.214   3.412   0.443 -0.4188  0.4497 -0.4367
19509SOL    HW159968   7.143   3.458   0.487 -0.3005  0.8675 -0.6741
19509SOL    HW259969   7.210   3.323   0.477 -2.0233  0.0428 -1.5592
19510SOL     OW59970   7.048   1.953   6.119  0.9161  0.0232 -0.0117
19510SOL    HW159971   7.096   1.954   6.201  0.9105  0.8094 -0.0093
19510SOL    HW259972   6.966   1.910   6.140  1.5743 -1.2518  0.0039
19511SOL     OW59973   0.004   4.022  11.207 -0.3826  0.5206 -0.2084
19511SOL    HW159974  -0.042   4.053  11.128 -0.0475  0.0552 -0.5945
19511SOL    HW259975   0.049   3.943  11.178 -1.1912 -0.3167  0.7433
19512SOL     OW59976   0.205   3.303  11.993 -0.6287 -0.3118  0.6978
19512SOL    HW159977   0.192   3.266  12.080 -0.5807 -1.0353  0.4089
19512SOL    HW259978   0.288   3.350  11.999 -0.5677 -0.4551  1.0163
19513SOL     OW59979   0.930   7.290   1.786 -0.4069 -0.5096  0.5225
19513SOL    HW159980   0.948   7.371   1.739  1.7929  0.5960  2.9877
19513SOL    HW259981   0.922   7.224   1.718 -0.0348  1.4017 -1.4811
19514SOL     OW59982   0.184   6.035   4.529  0.1853 -0.5580 -0.1107
19514SOL    HW159983   0.192   5.998   4.441  1.4820 -0.2881 -0.1340
19514SOL    HW259984   0.259   6.000   4.577 -0.5234 -0.7330  0.9086
19515SOL     OW59985   1.222   5.445   1.556  0.3434  0.7361  0.4485
19515SOL    HW159986   1.291   5.511   1.562 -0.8843  2.1835 -0.5585
19515SOL    HW259987   1.162   5.465   1.628  0.4906  0.0593  0.7668
19516SOL     OW59988   4.507   5.046   1.940 -0.0786  0.7409  0.1072
19516SOL    HW159989   4.414   5.066   1.944  0.0585  1.2214  1.4691
19516SOL    HW259990   4.544   5.087   2.018  0.8551 -1.6195  0.9889
19517SOL     OW59991   0.324   1.328   1.321  0.4180  0.1588 -0.1250
19517SOL    HW159992   0.401   1.277   1.345  0.7801  0.6340 -0.2877
19517SOL    HW259993   0.310   1.307   1.229  1.2274  1.2064 -0.4978
19518SOL     OW59994   5.615   6.786   4.601  0.2040  0.1024 -0.0080
19518SOL    HW159995   5.526   6.823   4.599 -0.3473 -1.1496  0.5157
19518SOL    HW259996   5.661   6.833   4.531 -0.9969  0.4351 -0.6206
19519SOL     OW59997   3.601   3.636   3.519 -0.0935 -0.0772  0.5286
19519SOL    HW159998   3.599   3.543   3.496 -0.1741  0.1519 -0.4291
19519SOL    HW259999   3.532   3.646   3.585 -1.8647 -0.2259 -1.2382
19520SOL     OW60000   1.087   5.534  11.650 -0.3378  0.0200 -0.8013
19520SOL    HW160001   1.100   5.620  11.611  0.5999 -0.4354 -1.5592
19520SOL    HW260002   1.047   5.551  11.735 -1.5737  1.1042 -1.5641
19521SOL     OW60003   5.786   5.946   5.732 -0.4754 -0.4264 -0.1929
19521SOL    HW160004   5.838   6.001   5.674 -1.0905  0.2633 -0.1046
19521SOL    HW260005   5.830   5.861   5.731 -0.4991 -0.4519 -1.7182
19522SOL     OW60006   4.321   7.270   7.935 -0.2664 -0.4112  0.2712
19522SOL    HW160007   4.348   7.299   8.022  1.9498 -1.9362  0.1741
19522SOL    HW260008   4.389   7.302   7.876  1.0203 -3.5087 -0.1322
19523SOL     OW60009   3.739   5.959  11.480 -0.4212 -0.0015 -0.1821
19523SOL    HW160010   3.778   5.875  11.504 -1.5291 -0.8031 -1.0850
19523SOL    HW260011   3.732   6.007  11.563 -0.6351 -1.1670  0.4859
19524SOL     OW60012   5.043   5.890   1.521  0.3266  0.3950  0.8069
19524SOL    HW160013   5.032   5.876   1.427  2.7949 -0.4653  0.5813
19524SOL    HW260014   5.051   5.803   1.559 -1.2668  0.6981  1.9505
19525SOL     OW60015   4.164   4.522   1.227  0.5490  0.3014 -0.1295
19525SOL    HW160016   4.171   4.432   1.196  0.4130  0.6455 -1.1992
19525SOL    HW260017   4.126   4.514   1.314 -1.1523 -0.6059 -0.8938
19526SOL     OW60018   2.161   4.492   5.416  0.1531  0.7451 -0.5118
19526SOL    HW160019   2.179   4.585   5.428 -0.6850  1.1361 -2.0331
19526SOL    HW260020   2.237   4.459   5.367 -0.1203  0.9178 -1.0622
19527SOL     OW60021   1.303   0.600   5.931  0.4447  0.1113 -0.0043
19527SOL    HW160022   1.209   0.614   5.919  0.4565  0.1585 -0.0407
19527SOL    HW260023   1.331   0.670   5.990  0.3034 -0.3831  0.6516
19528SOL     OW60024   1.223   1.738   2.810  0.0702  0.0727  0.6266
19528SOL    HW160025   1.268   1.739   2.726  0.3880  0.9609  0.7956
19528SOL    HW260026   1.255   1.659   2.854 -0.4776 -0.6663 -0.2772
19529SOL     OW60027   5.923   3.652   7.793 -0.9564  0.3246 -0.7543
19529SOL    HW160028   5.913   3.557   7.802 -0.7207  0.3790  0.1311
19529SOL    HW260029   5.881   3.688   7.871  0.9094  0.8348  0.0567
19530SOL     OW60030   0.904   3.852  11.147  0.3354 -0.1346  0.8924
19530SOL    HW160031   0.915   3.799  11.225 -0.0780 -0.9538  0.4056
19530SOL    HW260032   0.818   3.893  11.157 -0.2124 -1.1179  0.3691
19531SOL     OW60033   5.673   1.922   8.351  0.2049 -0.0296  0.5627
19531SOL    HW160034   5.755   1.939   8.398  0.5357  1.0615 -0.3558
19531SOL    HW260035   5.644   2.009   8.322 -0.8096 -0.5083  0.1076
19532SOL     OW60036   6.403   5.872  10.221 -0.3335 -0.4397  0.0043
19532SOL    HW160037   6.318   5.889  10.261 -0.0522  1.0452 -0.0028
19532SOL    HW260038   6.439   5.799  10.271 -1.0995 -0.3075  0.7614
19533SOL     OW60039   5.400   3.697   1.057 -0.4026 -0.1104 -0.1115
19533SOL    HW160040   5.447   3.644   1.121  1.4570  1.2534 -0.2432
19533SOL    HW260041   5.443   3.679   0.974 -0.3107  0.9287 -0.3017
19534SOL     OW60042   1.320   3.537   0.965 -0.2704 -0.7045 -0.4950
19534SOL    HW160043   1.233   3.563   0.935 -0.2130 -1.2464 -1.1542
19534SOL    HW260044   1.349   3.609   1.022 -0.7601 -0.0837 -1.0149
19535SOL     OW60045   6.293   5.120   0.197 -0.1322 -0.0055  0.3733
19535SOL    HW160046   6.301   5.187   0.129  0.9370 -0.2827  0.2099
19535SOL    HW260047   6.307   5.037   0.151  0.5097 -0.2005  0.9034
19536SOL     OW60048   3.905   7.442   5.335 -0.4356  0.7618 -0.1027
19536SOL    HW160049   3.942   7.487   5.411 -0.9805  0.9865  0.0355
19536SOL    HW260050   3.830   7.495   5.310 -1.8279 -0.6686  0.7996
19537SOL     OW60051   4.068   0.533  10.929 -0.0932  0.9442 -0.5538
19537SOL    HW160052   4.061   0.450  10.976  0.2948  1.3630  0.2819
19537SOL    HW260053   4.004   0.590  10.972  0.7985  1.5598  0.0005
19538SOL     OW60054   7.364   0.790   4.940 -0.2267  0.4014  0.0093
19538SOL    HW160055   7.292   0.844   4.907  0.3117  2.3971  1.8981
19538SOL    HW260056   7.389   0.831   5.023  0.7347 -2.3547  1.1890
19539SOL     OW60057   7.159   1.149  10.166  0.1722  0.2963  0.3969
19539SOL    HW160058   7.203   1.070  10.199  0.0771  0.5520  1.1523
19539SOL    HW260059   7.226   1.194  10.115 -0.0591 -0.7779 -0.9215
19540SOL     OW60060   2.478   0.808   4.889 -0.0238  0.6855 -0.3236
19540SOL    HW160061   2.395   0.856   4.888 -0.7422 -0.4725  0.7829
19540SOL    HW260062   2.545   0.876   4.901 -0.6008  1.8473 -2.8804
19541SOL     OW60063   0.724   6.950   8.090 -0.0287  0.3473  0.5143
19541SOL    HW160064   0.727   7.014   8.160 -0.1019  1.4367 -0.4524
19541SOL    HW260065   0.653   6.979   8.032  0.4307 -0.1637 -0.3402
19542SOL     OW60066   6.617   0.981   3.482  0.4678 -0.4803  0.1366
19542SOL    HW160067   6.697   1.010   3.439  0.1011 -0.9209 -0.8734
19542SOL    HW260068   6.553   0.972   3.411  0.2507 -2.6694  0.5472
19543SOL     OW60069   6.532   7.346   4.345  0.3115 -0.0847  0.4580
19543SOL    HW160070   6.627   7.347   4.344  0.3884 -1.1757  2.1345
19543SOL    HW260071   6.509   7.325   4.436 -1.5489  1.1345  0.3210
19544SOL     OW60072   3.267   2.638   4.256  0.0151 -0.2793 -0.5190
19544SOL    HW160073   3.238   2.608   4.342 -0.7343  1.0500 -0.2905
19544SOL    HW260074   3.188   2.634   4.201 -0.1075  1.2412 -0.4766
19545SOL     OW60075   5.421   5.832   1.810 -0.0168 -0.0670 -0.0902
19545SOL    HW160076   5.369   5.753   1.809 -2.4478  1.4309 -1.0128
19545SOL    HW260077   5.497   5.811   1.756  0.3138 -2.2537  1.1118
19546SOL     OW60078   6.145   3.423   7.863  0.6464  0.2940 -0.0193
19546SOL    HW160079   6.061   3.380   7.881  1.5108 -0.8288  1.6298
19546SOL    HW260080   6.164   3.401   7.772 -1.2843  1.4110 -0.7490
19547SOL     OW60081   0.119   6.556   6.483 -0.5034 -0.1550 -0.4706
19547SOL    HW160082   0.128   6.468   6.519  0.7759  0.3646  0.5806
19547SOL    HW260083   0.140   6.614   6.557 -1.5502  1.0475 -1.0673
19548SOL     OW60084   1.743   3.411  10.021  0.1557  0.1675 -0.0047
19548SOL    HW160085   1.762   3.360   9.943  0.1071 -1.7182  1.1616
19548SOL    HW260086   1.744   3.502   9.991 -1.3684 -0.5519 -2.4938
19549SOL     OW60087   7.741   3.197  12.142  0.1323  0.2536 -0.5795
19549SOL    HW160088   7.825   3.205  12.188 -0.7783  1.4907  0.9272
19549SOL    HW260089   7.742   3.269  12.079 -0.6845  1.6914  0.9717
19550SOL     OW60090   5.775   4.612  10.617 -0.1892  0.7014  0.3962
19550SOL    HW160091   5.841   4.548  10.590 -0.7023  0.3783 -0.0910
19550SOL    HW260092   5.799   4.634  10.707 -1.0855 -1.5725  1.2688
19551SOL     OW60093   7.585   3.471   2.658 -0.1475 -0.0538 -0.1692
19551SOL    HW160094   7.492   3.493   2.663 -0.0622  0.5587 -1.0918
19551SOL    HW260095   7.591   3.383   2.695 -1.0539  0.0132  0.1456
19552SOL     OW60096   1.326   0.716   9.974  0.1068  0.2419  0.5511
19552SOL    HW160097   1.254   0.664  10.010 -1.4689  1.5105 -0.6531
19552SOL    HW260098   1.331   0.689   9.883  1.0460  0.3124  0.5739
19553SOL     OW60099   2.795   6.184   5.483  0.4809  0.2091  0.0199
19553SOL    HW160100   2.787   6.214   5.574  0.1020  0.4488 -0.0919
19553SOL    HW260101   2.783   6.263   5.431 -1.5484 -0.2619 -0.3181
19554SOL     OW60102   6.038   7.214   2.668 -0.2559  0.0098 -0.5014
19554SOL    HW160103   6.094   7.291   2.677 -1.6542  1.2877 -2.1865
19554SOL    HW260104   6.037   7.176   2.756 -0.1614  2.3672  0.6088
19555SOL     OW60105   0.759   1.972  11.681 -0.4345 -0.2424 -0.4514
19555SOL    HW160106   0.838   1.925  11.707  0.1633  0.0700 -1.6581
19555SOL    HW260107   0.687   1.918  11.715  0.0921  1.8996  5.2218
19556SOL     OW60108   4.524   0.451   2.295  0.1922  0.4852 -0.0632
19556SOL    HW160109   4.474   0.484   2.221  0.0343  0.2200 -0.0739
19556SOL    HW260110   4.470   0.471   2.372  1.0667  2.2187  0.1539
19557SOL     OW60111   3.911   6.096   9.767  0.3531  0.0394 -0.5046
19557SOL    HW160112   4.004   6.106   9.789  0.3432  1.1849 -0.9209
19557SOL    HW260113   3.911   6.034   9.694  0.7597 -0.2066 -0.3016
19558SOL     OW60114   6.393   7.342  10.975  0.1468  0.0946  1.0720
19558SOL    HW160115   6.422   7.387  11.055  0.5689  0.1026  0.9196
19558SOL    HW260116   6.451   7.266  10.969 -0.8191 -0.6913  1.5390
19559SOL     OW60117   6.707   2.888   4.455 -0.4119  0.3244  0.5714
19559SOL    HW160118   6.708   2.979   4.425 -0.6720  0.0979 -0.1753
19559SOL    HW260119   6.799   2.866   4.469 -0.3218  0.6082  0.4411
19560SOL     OW60120   2.497   0.812   8.605  0.1012 -0.1548  0.2901
19560SOL    HW160121   2.436   0.828   8.533  0.2899 -1.4863 -0.1890
19560SOL    HW260122   2.583   0.837   8.570  0.5684 -2.9495 -0.8458
19561SOL     OW60123   4.961   4.989   0.471  0.1624  0.3089 -0.9027
19561SOL    HW160124   4.883   4.937   0.452 -0.8899  1.6357 -0.3911
19561SOL    HW260125   4.980   5.036   0.390  0.4417 -0.0080 -1.0248
19562SOL     OW60126   5.241   0.405  10.645  0.1389  0.8130  0.6763
19562SOL    HW160127   5.275   0.491  10.671 -0.3120  1.0530  0.4676
19562SOL    HW260128   5.246   0.405  10.550  0.7819  0.3413  0.7026
19563SOL     OW60129   6.935   2.291  10.658  0.2998 -0.6214  0.2118
19563SOL    HW160130   6.879   2.340  10.599 -0.4335  0.0918  1.4497
19563SOL    HW260131   7.018   2.338  10.657 -0.2449  0.3895  1.0092
19564SOL     OW60132   0.238   2.532   6.939 -0.4193  0.0633  0.6667
19564SOL    HW160133   0.324   2.501   6.913 -0.5934 -0.8392  1.1136
19564SOL    HW260134   0.221   2.488   7.023 -0.6912  1.3824  1.3221
19565SOL     OW60135   1.425   5.795   2.608 -0.0409 -0.4545  0.1305
19565SOL    HW160136   1.488   5.777   2.538  0.6085  2.0819 -0.0688
19565SOL    HW260137   1.399   5.886   2.592 -0.6953 -0.1642  2.5657
19566SOL     OW60138   2.175   4.849  11.807  0.0204  0.3177 -0.0104
19566SOL    HW160139   2.223   4.797  11.872 -1.0620 -1.3042 -0.4403
19566SOL    HW260140   2.190   4.803  11.724 -0.0245  1.3761 -0.6169
19567SOL     OW60141   3.299   0.659  10.543  0.4872 -0.2462 -0.0066
19567SOL    HW160142   3.372   0.682  10.599  0.4899 -1.4565  0.5292
19567SOL    HW260143   3.315   0.568  10.517 -0.8318 -0.5616  0.1660
19568SOL     OW60144   2.739   5.993   2.282 -0.0668 -0.0923  0.9244
19568SOL    HW160145   2.783   6.018   2.200  1.5951 -1.5011  1.3307
19568SOL    HW260146   2.672   6.060   2.294 -0.5392  0.0152 -1.7109
19569SOL     OW60147   1.313   3.782   2.723  0.0246  0.1737  0.3709
19569SOL    HW160148   1.331   3.688   2.735  0.3689  0.1491 -0.3112
19569SOL    HW260149   1.248   3.802   2.791  0.2277 -0.4716  0.7690
19570SOL     OW60150   2.893   3.937   8.050  0.1610 -0.4968  0.3749
19570SOL    HW160151   2.974   3.982   8.025  0.3606 -1.5702 -1.0467
19570SOL    HW260152   2.891   3.942   8.145  1.3222  0.5351  0.3632
19571SOL     OW60153   5.996   2.255   4.555  0.0592 -0.5057  0.6191
19571SOL    HW160154   6.013   2.255   4.461  2.0349  1.7121  0.8899
19571SOL    HW260155   5.901   2.253   4.562 -0.2825  1.9279 -1.5670
19572SOL     OW60156   0.446   1.792   5.045 -0.1565  0.1224 -0.0043
19572SOL    HW160157   0.468   1.885   5.039 -0.1016  0.0971 -0.1969
19572SOL    HW260158   0.499   1.760   5.118 -0.2795  0.2721  0.1509
19573SOL     OW60159   0.020   0.909   2.700 -0.2032 -0.6823 -0.4496
19573SOL    HW160160   0.006   0.878   2.789  0.0024 -2.3174 -0.9433
19573SOL    HW260161   0.018   0.829   2.646  0.1968  0.1994 -1.8389
19574SOL     OW60162   3.264   1.782   6.099 -0.4866  0.2108 -0.1144
19574SOL    HW160163   3.279   1.790   6.193  1.2994 -0.8644 -0.2647
19574SOL    HW260164   3.196   1.715   6.091 -0.1877 -0.1579  0.3925
19575SOL     OW60165   0.181   4.479   1.448  0.5739 -0.2641  0.1108
19575SOL    HW160166   0.168   4.408   1.512  1.1510 -1.4973 -1.0785
19575SOL    HW260167   0.229   4.546   1.496 -0.6914 -0.2951  1.5097
19576SOL     OW60168   3.204   0.512   7.360 -0.3510  0.0150  0.0326
19576SOL    HW160169   3.161   0.459   7.294 -2.2020 -0.0206  1.2109
19576SOL    HW260170   3.210   0.455   7.437  0.4726  0.5094  0.3508
19577SOL     OW60171   3.138   4.837   9.202  0.2410 -0.5807 -0.3696
19577SOL    HW160172   3.134   4.853   9.108  0.1659 -1.0281 -0.4484
19577SOL    HW260173   3.047   4.824   9.228  0.1835  0.3453 -0.0816
19578SOL     OW60174   3.970   7.828   3.752  0.2958 -0.5528 -0.5973
19578SOL    HW160175   4.007   7.834   3.841  0.0405 -1.6045 -0.4050
19578SOL    HW260176   3.900   7.892   3.751 -1.6282 -2.4746  0.9692
19579SOL     OW60177   5.105   3.534   6.418  0.4175  0.1071  0.5225
19579SOL    HW160178   5.190   3.557   6.455  0.1753  1.7432  0.1240
19579SOL    HW260179   5.123   3.512   6.327  0.2395  2.2627 -0.0976
19580SOL     OW60180   5.573   4.191   3.842 -0.1757  0.0313  0.1314
19580SOL    HW160181   5.608   4.235   3.764  0.0822  0.6805  0.6070
19580SOL    HW260182   5.592   4.250   3.914  0.6004 -1.0684  0.8690
19581SOL     OW60183   6.073   6.013   5.603 -0.7911 -0.0150 -0.2360
19581SOL    HW160184   6.083   6.108   5.597  1.8689 -0.2553 -1.0266
19581SOL    HW260185   6.037   5.987   5.518 -0.2672  0.1835 -0.5239
19582SOL     OW60186   7.457   4.555  11.308  0.0455  0.3335 -0.2025
19582SOL    HW160187   7.452   4.650  11.301  1.6057  0.4746  0.2020
19582SOL    HW260188   7.380   4.523  11.262 -0.4916  1.7905 -0.3591
19583SOL     OW60189   4.333   0.748  11.731  0.0767 -0.3780  0.1099
19583SOL    HW160190   4.419   0.748  11.774 -0.8405  0.2930  2.0755
19583SOL    HW260191   4.271   0.770  11.801 -2.1271 -4.0018 -0.4024
19584SOL     OW60192   7.661   2.703   7.056  0.4899 -0.1754 -0.0689
19584SOL    HW160193   7.605   2.628   7.036  0.8264 -0.1264 -1.2800
19584SOL    HW260194   7.746   2.665   7.075  1.0326 -0.0798 -2.0495
19585SOL     OW60195   1.604   5.205   3.657 -0.2585 -0.3165 -0.2779
19585SOL    HW160196   1.661   5.240   3.725  0.0308 -0.6224 -0.3570
19585SOL    HW260197   1.658   5.207   3.578 -1.3836  2.4115 -1.0971
19586SOL     OW60198   3.411   3.881   3.057  0.3791 -0.1946  0.0208
19586SOL    HW160199   3.367   3.846   3.134 -0.2683  0.4583 -0.0406
19586SOL    HW260200   3.472   3.812   3.030 -0.0125 -0.7744  0.6001
19587SOL     OW60201   2.773   2.127   9.497 -0.0695  0.3873 -0.2654
19587SOL    HW160202   2.690   2.176   9.495  0.0373  0.6375  0.9634
19587SOL    HW260203   2.793   2.111   9.405 -0.0128  2.8146 -0.7329
19588SOL     OW60204   0.787   0.573   8.081  0.4071 -0.1872  0.0724
19588SOL    HW160205   0.795   0.516   8.157  0.5819  2.1496  1.9548
19588SOL    HW260206   0.701   0.614   8.090  0.5140  0.2954 -0.8790
19589SOL     OW60207   5.386   7.771   2.780  0.0863  0.0332  0.1552
19589SOL    HW160208   5.324   7.786   2.851  0.8922  2.0108  0.5128
19589SOL    HW260209   5.374   7.846   2.722  1.3358 -0.1396 -0.3546
19590SOL     OW60210   3.410   6.720   0.088  0.1057  0.5834 -0.7943
19590SOL    HW160211   3.350   6.656   0.127 -0.0826  0.4517 -1.2967
19590SOL    HW260212   3.410   6.793   0.151 -0.1056  0.3282 -0.4917
19591SOL     OW60213   0.750   1.516   7.322 -0.0734  0.3280 -0.0736
19591SOL    HW160214   0.664   1.485   7.350  0.0813  1.5604  1.9122
19591SOL    HW260215   0.745   1.611   7.328  1.6298  0.4051  0.7684
19592SOL     OW60216   1.675   0.887   2.452 -0.2787  0.1874  0.1501
19592SOL    HW160217   1.666   0.821   2.383  1.2847  0.5834 -0.4791
19592SOL    HW260218   1.738   0.850   2.513 -0.0403  0.7318  0.2421
19593SOL     OW60219   1.117   5.151   1.946  0.0778 -0.0576  0.5538
19593SOL    HW160220   1.207   5.183   1.951 -0.7082  2.6413 -0.7174
19593SOL    HW260221   1.118   5.088   1.874  0.9216 -0.0353  0.5336
19594SOL     OW60222   5.732   4.417  12.147 -0.2181 -0.0820 -0.3079
19594SOL    HW160223   5.715   4.333  12.191 -1.2571 -1.0217 -2.3431
19594SOL    HW260224   5.646   4.456  12.137 -0.2722 -0.6669 -2.8258
19595SOL     OW60225   1.222   3.962  11.930 -0.0815 -0.4216  0.0063
19595SOL    HW160226   1.162   4.011  11.986 -0.5029  0.2808 -1.0186
19595SOL    HW260227   1.227   3.875  11.969 -2.3555 -0.7286 -0.2624
19596SOL     OW60228   1.189   5.847   2.199 -0.5488 -0.1651  0.0823
19596SOL    HW160229   1.110   5.873   2.246  0.3263  1.3076  0.8257
19596SOL    HW260230   1.233   5.785   2.257  0.5934  1.7428  1.4076
19597SOL     OW60231   7.924   4.555   0.171  0.2964 -0.0954 -0.1022
19597SOL    HW160232   7.906   4.530   0.081 -1.6367 -0.5726  0.3773
19597SOL    HW260233   7.867   4.500   0.224  1.5339  0.0244  1.4507
19598SOL     OW60234   1.546   7.184   0.335 -0.2407  0.0366 -0.3306
19598SOL    HW160235   1.563   7.234   0.414  0.5842 -0.4543 -0.1876
19598SOL    HW260236   1.571   7.243   0.263 -0.0442  0.1287 -0.1877
19599SOL     OW60237   6.226   6.916   6.804  0.5356  0.2053 -0.4324
19599SOL    HW160238   6.152   6.884   6.855  0.6322  0.8353  0.1194
19599SOL    HW260239   6.198   6.908   6.713  1.0359 -2.6333 -0.4161
19600SOL     OW60240   0.374   5.850   9.091 -0.3360  0.2805  0.4066
19600SOL    HW160241   0.293   5.802   9.074  0.8650 -1.5923 -0.4178
19600SOL    HW260242   0.373   5.867   9.186 -0.4039 -2.2824  0.9295
19601SOL     OW60243   1.214   3.381   9.767 -0.5920 -0.5809  0.2724
19601SOL    HW160244   1.168   3.391   9.850 -0.4487 -1.2670  0.4416
19601SOL    HW260245   1.170   3.442   9.708 -0.5120  0.1237  0.9203
19602SOL     OW60246   2.563   7.738   4.867  0.2615  0.0384  0.1264
19602SOL    HW160247   2.482   7.705   4.905 -0.1711  1.8209  0.8182
19602SOL    HW260248   2.535   7.796   4.797  0.9237  0.9433  0.6007
19603SOL     OW60249   2.100   5.351   2.204  0.2031 -0.6130  0.4671
19603SOL    HW160250   2.183   5.372   2.161  0.3451 -0.0466  1.0050
19603SOL    HW260251   2.103   5.257   2.217  0.9028 -0.5532  0.7626
19604SOL     OW60252   6.252   2.605   1.570  0.0682  0.4296  0.2609
19604SOL    HW160253   6.191   2.580   1.501  0.3865 -0.4949  0.3003
19604SOL    HW260254   6.198   2.648   1.636 -0.5334 -0.3134  0.2615
19605SOL     OW60255   2.512   2.387   5.714  0.3539 -0.0578  0.0223
19605SOL    HW160256   2.555   2.390   5.800  0.0115 -0.4719  0.2145
19605SOL    HW260257   2.482   2.296   5.705 -2.3925  0.6488  0.8670
19606SOL     OW60258   7.805   4.753   5.936 -0.0900  0.6314 -0.0556
19606SOL    HW160259   7.875   4.811   5.968 -0.4748  1.2360 -0.2963
19606SOL    HW260260   7.767   4.800   5.862 -1.4631  0.7952  0.7274
19607SOL     OW60261   2.297   7.767   9.111  0.1027  0.8550 -0.2713
19607SOL    HW160262   2.243   7.839   9.143 -1.3975 -0.8045  1.1868
19607SOL    HW260263   2.375   7.768   9.166 -1.8250 -1.1157  2.7893
19608SOL     OW60264   0.049   1.216   5.608 -0.2070  0.5827 -0.1739
19608SOL    HW160265   0.095   1.133   5.609 -0.7771  0.2550 -0.8199
19608SOL    HW260266  -0.021   1.205   5.544  0.0191  1.7222 -0.6649
19609SOL     OW60267   7.257   3.125   0.541 -1.1274 -0.6048 -0.0978
19609SOL    HW160268   7.274   3.135   0.635 -0.8872  0.4039 -0.2343
19609SOL    HW260269   7.190   3.056   0.535  0.7058 -2.5487  0.6433
19610SOL     OW60270   1.728   6.554   3.283  0.0968 -0.3944  0.1171
19610SOL    HW160271   1.718   6.481   3.223 -1.4980 -2.0978  2.2766
19610SOL    HW260272   1.674   6.624   3.246 -0.4943 -1.2377 -0.6491
19611SOL     OW60273   3.277   0.884   9.259  0.1282 -0.3456  0.2372
19611SOL    HW160274   3.270   0.885   9.354  2.6750  1.7297  0.5257
19611SOL    HW260275   3.337   0.812   9.240 -0.2801 -0.6780  0.1823
19612SOL     OW60276   7.144   5.661   2.050  0.4783  0.1782  0.4174
19612SOL    HW160277   7.124   5.601   1.978  0.9414  1.6394 -0.9934
19612SOL    HW260278   7.131   5.609   2.130 -0.0724 -1.4821 -0.7114
19613SOL     OW60279   0.948   0.763   6.813 -0.4332  0.1553  0.0583
19613SOL    HW160280   0.978   0.852   6.794  0.9473 -0.3058 -0.0589
19613SOL    HW260281   0.899   0.737   6.736 -0.8136  0.7964  0.0764
19614SOL     OW60282   1.195   1.209   5.123 -0.2758 -0.2209 -0.0908
19614SOL    HW160283   1.112   1.240   5.157 -0.1523 -1.4715  1.4933
19614SOL    HW260284   1.174   1.125   5.081 -0.0829  0.3314 -1.3454
19615SOL     OW60285   0.905   6.027   9.936 -0.5515 -0.1354  0.3066
19615SOL    HW160286   0.810   6.026   9.925 -0.3593  1.7229 -2.4857
19615SOL    HW260287   0.938   5.969   9.867  0.3873  2.0455 -1.1843
19616SOL     OW60288   6.459   1.177   9.323  0.0443 -0.4743  0.4500
19616SOL    HW160289   6.452   1.082   9.337  3.7260 -0.7451  1.6004
19616SOL    HW260290   6.464   1.187   9.228  2.0700 -1.7866  0.3630
19617SOL     OW60291   0.538   0.332   8.374 -0.0720 -0.2467 -0.0818
19617SOL    HW160292   0.450   0.369   8.383  0.0641 -0.0169  0.3357
19617SOL    HW260293   0.530   0.244   8.413 -0.1439 -0.2692 -0.1453
19618SOL     OW60294   4.453   3.519   6.990  0.6780 -0.3706  0.3875
19618SOL    HW160295   4.522   3.575   7.027  1.0209  0.2810 -1.1634
19618SOL    HW260296   4.392   3.580   6.949 -0.5292 -0.9857  1.2160
19619SOL     OW60297   6.407   0.626   9.524  0.3451 -0.3553  0.3137
19619SOL    HW160298   6.363   0.670   9.451 -1.5421  0.3284  1.7818
19619SOL    HW260299   6.460   0.694   9.565 -1.0829  0.1200  1.4399
19620SOL     OW60300   3.354   5.957   9.858 -0.0553  0.4106 -0.1459
19620SOL    HW160301   3.338   5.955   9.952 -1.5647  0.5510 -0.3741
19620SOL    HW260302   3.431   5.902   9.845  0.2007  0.4406  1.1734
19621SOL     OW60303   1.223   5.668   5.342 -0.0510 -0.3815  0.2035
19621SOL    HW160304   1.296   5.674   5.404  1.7299 -2.5133 -1.5143
19621SOL    HW260305   1.173   5.591   5.370 -0.8916  0.2826  0.5772
19622SOL     OW60306   7.884   1.337   9.835 -0.1658  0.2826 -0.1426
19622SOL    HW160307   7.880   1.426   9.870 -1.6769 -0.6858  2.4863
19622SOL    HW260308   7.906   1.349   9.743 -3.0132  3.6081 -0.6467
19623SOL     OW60309   6.813   5.104   7.345 -0.8109 -0.1154  0.2251
19623SOL    HW160310   6.802   5.136   7.435 -0.2857 -0.0573  0.2693
19623SOL    HW260311   6.806   5.183   7.291  0.9508  0.1666  0.3665
19624SOL     OW60312   3.829   1.410   6.033  0.3201  0.2864 -0.3224
19624SOL    HW160313   3.810   1.464   5.957 -1.5433 -0.8551 -0.7274
19624SOL    HW260314   3.819   1.469   6.108  1.2118  1.1826 -0.8994
19625SOL     OW60315   1.707   1.183   3.133 -0.1147 -0.1327  0.4723
19625SOL    HW160316   1.622   1.200   3.175 -1.1047 -1.1775 -0.9835
19625SOL    HW260317   1.684   1.142   3.050  1.8112  0.6744 -0.5116
19626SOL     OW60318   4.616   0.526  11.737 -0.6670  0.0887 -0.5551
19626SOL    HW160319   4.538   0.471  11.734 -0.2583 -0.5754  0.3327
19626SOL    HW260320   4.616   0.574  11.654 -0.0983 -2.5212 -2.1536
19627SOL     OW60321   0.663   5.871   7.797 -0.3070 -0.2140  0.1164
19627SOL    HW160322   0.639   5.834   7.882  0.3340 -0.8772  0.0179
19627SOL    HW260323   0.749   5.833   7.778  0.6164  1.6977  0.2414
19628SOL     OW60324   5.739   4.742  10.375 -0.3768  0.2295 -0.6151
19628SOL    HW160325   5.755   4.701  10.461  2.3685 -0.4047 -1.3384
19628SOL    HW260326   5.665   4.693  10.339 -1.5800  0.5035  1.3499
19629SOL     OW60327   6.136   2.721  10.917 -0.3281  0.5475  0.8340
19629SOL    HW160328   6.230   2.712  10.900 -0.4665  0.1889  0.2143
19629SOL    HW260329   6.097   2.728  10.830 -0.9865 -0.4427  1.0304
19630SOL     OW60330   5.347   4.632   8.698  0.0524 -0.0164 -0.0596
19630SOL    HW160331   5.330   4.727   8.696  1.2025  0.2055 -0.1435
19630SOL    HW260332   5.280   4.594   8.640 -1.0237  0.6312  0.7130
19631SOL     OW60333   6.186   4.977   5.888  0.5611  0.4770 -0.0719
19631SOL    HW160334   6.200   4.884   5.874 -1.5702  0.2513 -1.0109
19631SOL    HW260335   6.252   5.002   5.953  1.4811 -1.5541 -0.1634
19632SOL     OW60336   6.315   0.070  11.380 -0.1201  0.6184  0.0361
19632SOL    HW160337   6.258   0.048  11.454 -0.0981  1.6709  0.3882
19632SOL    HW260338   6.390   0.012  11.389 -0.7975 -0.2903 -0.0190
19633SOL     OW60339   7.480   6.159   3.392  0.3319  0.5823  0.3592
19633SOL    HW160340   7.393   6.172   3.430  0.3798 -0.0863  0.7205
19633SOL    HW260341   7.470   6.187   3.301 -0.7750 -1.1473 -0.1061
19634SOL     OW60342   6.571   2.061  10.119  0.1300  0.3331  0.1085
19634SOL    HW160343   6.498   2.003  10.140  0.5775 -0.0035  0.8237
19634SOL    HW260344   6.643   2.027  10.173  1.3107 -0.4301 -1.8659
19635SOL     OW60345   3.915   3.153   9.464 -0.5318 -0.1326 -0.3027
19635SOL    HW160346   3.915   3.234   9.515 -0.4348 -0.4383  0.1866
19635SOL    HW260347   3.883   3.179   9.378 -2.6412  0.0510  0.4680
19636SOL     OW60348   0.856   4.536   5.263 -0.0149  0.1698  0.2230
19636SOL    HW160349   0.789   4.469   5.255 -0.4390  0.6997 -0.8701
19636SOL    HW260350   0.908   4.528   5.183  2.0495 -1.0564  1.5916
19637SOL     OW60351   3.727   4.599  12.301  1.0263  0.2948  0.1298
19637SOL    HW160352   3.795   4.610  12.367  0.2807  1.0571  0.7896
19637SOL    HW260353   3.694   4.687  12.285  1.1657  0.1186 -1.2478
19638SOL     OW60354   5.772   4.517   5.183  0.1025  0.1194 -0.7941
19638SOL    HW160355   5.770   4.529   5.088 -1.5422 -3.0417 -1.2947
19638SOL    HW260356   5.682   4.537   5.211  0.2789 -0.0538 -0.0850
19639SOL     OW60357   5.475   0.431   8.673 -0.5412 -0.1289  0.6241
19639SOL    HW160358   5.521   0.459   8.752 -1.4216  1.0446  0.7384
19639SOL    HW260359   5.500   0.495   8.606  1.5493 -2.0525 -0.5745
19640SOL     OW60360   0.261   4.285   6.831 -0.1872  0.5142  0.2313
19640SOL    HW160361   0.221   4.351   6.775 -2.7602 -0.9034  0.2064
19640SOL    HW260362   0.204   4.282   6.908 -0.8643 -2.3323 -0.2521
19641SOL     OW60363   7.517   1.266   4.292 -0.0527  0.4424  0.0564
19641SOL    HW160364   7.466   1.330   4.341 -1.4358 -0.5782  0.0094
19641SOL    HW260365   7.455   1.230   4.228  0.7278 -0.8296 -0.0104
19642SOL     OW60366   6.071   5.472  10.560  0.3469 -0.6295  0.6567
19642SOL    HW160367   6.009   5.401  10.547 -1.2303  0.9004 -0.8128
19642SOL    HW260368   6.042   5.515  10.641 -0.0290 -0.4092  0.4096
19643SOL     OW60369   0.040   5.929   6.985 -0.0554  0.5754  0.1995
19643SOL    HW160370  -0.024   5.873   7.029  1.1504 -0.5824  0.5237
19643SOL    HW260371  -0.013   5.997   6.944 -1.3895  0.5633  1.7737
19644SOL     OW60372   2.301   2.472   0.999  0.0346 -0.3561  0.2535
19644SOL    HW160373   2.386   2.458   1.040  0.5482  0.3141 -0.5550
19644SOL    HW260374   2.238   2.433   1.060  0.7986  0.3186  1.5141
19645SOL     OW60375   5.401   6.223  11.377 -0.2835 -0.4655  0.4459
19645SOL    HW160376   5.326   6.183  11.421 -0.3445  0.6797  1.4430
19645SOL    HW260377   5.423   6.162  11.307 -2.6855 -0.4085 -0.4479
19646SOL     OW60378   6.463   1.585   1.417  0.5898 -0.8643 -0.0707
19646SOL    HW160379   6.533   1.565   1.355  2.2492  0.4981  1.2441
19646SOL    HW260380   6.409   1.649   1.372  1.2961 -0.5174 -0.4491
19647SOL     OW60381   2.384   6.951   9.351  0.4964  0.2996 -0.2080
19647SOL    HW160382   2.433   7.028   9.321  1.2943  0.0563  0.4465
19647SOL    HW260383   2.377   6.962   9.445  1.6608 -1.0165  0.0556
19648SOL     OW60384   4.745   4.995  10.953 -0.4325  0.7417 -0.3753
19648SOL    HW160385   4.715   4.983  10.863 -2.6756  2.4919  0.0300
19648SOL    HW260386   4.813   5.061  10.948  0.2088  0.0648 -0.8534
19649SOL     OW60387   2.897   1.382   5.302 -0.6322  0.1287  0.8246
19649SOL    HW160388   2.815   1.429   5.286 -1.9346 -2.5202 -1.1111
19649SOL    HW260389   2.876   1.319   5.372  0.1489  0.2803  1.2149
19650SOL     OW60390   7.644   4.014   8.797 -0.1101  0.1994 -0.3180
19650SOL    HW160391   7.584   4.082   8.828  1.7044  2.7527 -2.0065
19650SOL    HW260392   7.731   4.047   8.818  0.8717 -1.5616 -1.3451
19651SOL     OW60393   5.887   6.827   0.184 -0.1385  0.5859 -0.1683
19651SOL    HW160394   5.816   6.843   0.121 -1.9753  1.4583  1.9911
19651SOL    HW260395   5.961   6.878   0.151 -0.5209 -0.1712 -2.3727
19652SOL     OW60396   6.910   4.361   8.005  0.2199  0.0596 -0.2111
19652SOL    HW160397   6.857   4.326   8.077 -2.1075  1.1676 -1.2894
19652SOL    HW260398   6.893   4.303   7.931  1.9860 -0.6087 -0.1472
19653SOL     OW60399   0.850   1.313   3.858 -0.0223 -0.2150  0.2942
19653SOL    HW160400   0.816   1.382   3.801  1.8711 -0.1343 -0.7919
19653SOL    HW260401   0.888   1.361   3.932 -1.5015 -0.2781  1.1427
19654SOL     OW60402   2.602   0.529   2.961 -0.5502 -0.1888  0.6981
19654SOL    HW160403   2.565   0.562   2.879 -0.6055  0.6360  1.0437
19654SOL    HW260404   2.690   0.499   2.937 -0.4380  0.3607  0.3934
19655SOL     OW60405   2.838   6.055  11.069  0.0397 -0.0351 -0.1391
19655SOL    HW160406   2.843   6.045  11.165  0.8039  0.8030 -0.0745
19655SOL    HW260407   2.918   6.012  11.037 -0.8983 -1.5471 -0.5284
19656SOL     OW60408   5.629   0.345   5.445 -0.0753 -0.0987  0.4635
19656SOL    HW160409   5.577   0.271   5.412  1.0190 -0.5134 -0.3750
19656SOL    HW260410   5.578   0.422   5.421 -0.6306 -0.5265  0.2398
19657SOL     OW60411   3.973   6.177   6.490 -1.1084  0.1210  0.4828
19657SOL    HW160412   3.938   6.144   6.573 -0.3230  0.0437  0.7887
19657SOL    HW260413   3.995   6.098   6.440  0.6309  0.1419  1.1559
19658SOL     OW60414   7.096   3.770   1.501 -0.3917 -0.1416  0.4446
19658SOL    HW160415   7.052   3.854   1.487  0.1704  0.0669 -0.1369
19658SOL    HW260416   7.114   3.768   1.595 -2.7735 -0.8229  0.9614
19659SOL     OW60417   4.044   5.423   3.225 -0.1735  0.0861 -0.3698
19659SOL    HW160418   4.009   5.398   3.311  0.6571 -0.2579 -0.1182
19659SOL    HW260419   3.993   5.371   3.163 -0.3948 -0.0952 -0.0417
19660SOL     OW60420   2.077   7.398   8.428  0.6863  0.3476  0.2717
19660SOL    HW160421   2.027   7.457   8.485  1.3742 -2.2142  3.8713
19660SOL    HW260422   2.136   7.457   8.380 -0.9093  2.8318  1.1290
19661SOL     OW60423   4.895   2.109   2.894  0.3563  0.1093 -0.2515
19661SOL    HW160424   4.921   2.190   2.937 -1.7122  0.6461  0.1315
19661SOL    HW260425   4.870   2.137   2.805 -1.1823  0.0934  0.1439
19662SOL     OW60426   3.896   0.872  12.169  0.5436 -0.0105  0.1422
19662SOL    HW160427   3.951   0.849  12.243  2.3516 -1.0667 -1.4261
19662SOL    HW260428   3.944   0.942  12.124 -1.0995  1.4491  0.5653
19663SOL     OW60429   1.398   6.674   5.907 -0.3711 -0.3365  0.0758
19663SOL    HW160430   1.406   6.589   5.864  0.9502 -0.8995  1.3426
19663SOL    HW260431   1.488   6.703   5.921 -0.7168 -0.0220  2.0972
19664SOL     OW60432   5.923   3.427  11.853  0.0943 -0.0214 -0.1764
19664SOL    HW160433   5.916   3.426  11.948 -0.0474  2.1589 -0.1044
19664SOL    HW260434   5.839   3.393  11.822  0.4852 -1.6168  0.4447
19665SOL     OW60435   4.404   3.735   7.514  0.2464 -0.1373  0.1980
19665SOL    HW160436   4.423   3.814   7.463 -0.6729 -0.3466 -0.4954
19665SOL    HW260437   4.322   3.756   7.560  1.8034  0.6217  2.8359
19666SOL     OW60438   5.946   1.330   7.536 -0.1044  0.4967 -0.0870
19666SOL    HW160439   6.041   1.345   7.539 -0.0962  0.3729  1.1612
19666SOL    HW260440   5.933   1.271   7.463  0.9018 -0.2453  0.3078
19667SOL     OW60441   0.079   2.703   6.587 -0.0693 -0.5982  0.5818
19667SOL    HW160442   0.172   2.727   6.579 -0.3399  0.3156  0.0175
19667SOL    HW260443   0.045   2.709   6.497 -0.3397 -2.4431  0.5131
19668SOL     OW60444   6.401   5.048   4.215  0.2451 -0.6160 -0.6345
19668SOL    HW160445   6.446   5.062   4.132 -0.8433 -2.4294 -1.5965
19668SOL    HW260446   6.332   5.113   4.217  1.6479  0.9252 -0.0417
19669SOL     OW60447   7.279   4.103  12.066  0.6528 -0.3910  0.4328
19669SOL    HW160448   7.238   4.155  12.134  0.0379  2.5049 -1.9435
19669SOL    HW260449   7.219   4.029  12.053 -0.9331  0.7506  0.8795
19670SOL     OW60450   3.197   4.737   2.634 -0.4210 -0.4110 -0.0810
19670SOL    HW160451   3.105   4.717   2.652 -0.7390 -0.6770 -1.7564
19670SOL    HW260452   3.246   4.670   2.682 -1.0263  0.3693  1.6826
19671SOL     OW60453   2.968   4.856  10.937 -0.1114  0.2788 -0.1066
19671SOL    HW160454   3.034   4.797  10.973 -0.9694  0.4504  1.9126
19671SOL    HW260455   2.911   4.800  10.884  1.1405 -0.0092 -1.1944
19672SOL     OW60456   5.428   0.761   8.096 -0.7656  0.4153  0.5618
19672SOL    HW160457   5.425   0.708   8.176  0.0324 -0.2916  0.1435
19672SOL    HW260458   5.375   0.713   8.033  0.4002 -0.2000  0.0167
19673SOL     OW60459   5.433   4.239  10.678 -0.0794 -0.0448 -0.0979
19673SOL    HW160460   5.527   4.258  10.682  0.3669 -2.0647  0.3694
19673SOL    HW260461   5.428   4.143  10.677 -2.1522  0.0089  0.2272
19674SOL     OW60462   4.389   1.467   0.570  0.4143  0.6006 -0.1703
19674SOL    HW160463   4.330   1.429   0.505 -0.2818  1.1525  0.1309
19674SOL    HW260464   4.476   1.454   0.533  0.0384  0.8210 -1.1741
19675SOL     OW60465   7.372   4.903   2.936 -0.3640 -0.0363 -0.1416
19675SOL    HW160466   7.417   4.829   2.895  1.1018 -0.0179  1.3580
19675SOL    HW260467   7.292   4.865   2.972  0.0353 -0.7624  0.0070
19676SOL     OW60468   0.295   3.593   3.614 -0.2594  0.2514 -0.3399
19676SOL    HW160469   0.294   3.516   3.556 -1.6437  0.5787 -0.7808
19676SOL    HW260470   0.319   3.557   3.700  0.6205 -0.4234 -0.8411
19677SOL     OW60471   1.695   3.511   8.701 -0.0546 -0.0090  0.7132
19677SOL    HW160472   1.767   3.516   8.637  0.0776 -0.4853  0.8268
19677SOL    HW260473   1.661   3.601   8.705 -0.5655 -0.1243 -0.6077
19678SOL     OW60474   1.784   6.342   1.885 -0.1072 -0.5073  0.2940
19678SOL    HW160475   1.762   6.261   1.931 -1.1780 -0.0070  0.6935
19678SOL    HW260476   1.783   6.318   1.793  2.2925 -1.5782  0.4524
19679SOL     OW60477   5.708   2.207   5.490  0.1942 -0.8125  0.2065
19679SOL    HW160478   5.618   2.220   5.460  0.3934 -0.3913 -0.2217
19679SOL    HW260479   5.700   2.148   5.565 -0.6035  0.5263  1.2245
19680SOL     OW60480   0.966   4.660   2.439  0.1134  0.2996 -0.6684
19680SOL    HW160481   0.915   4.679   2.361 -0.4749 -0.6799 -0.5338
19680SOL    HW260482   0.946   4.569   2.460  2.0581 -0.1837 -0.7118
19681SOL     OW60483   0.888   7.258  12.260 -0.2599  0.1461 -0.0533
19681SOL    HW160484   0.820   7.201  12.297 -0.2358 -0.7471 -1.3268
19681SOL    HW260485   0.848   7.294  12.181  0.2411  0.7735 -0.0223
19682SOL     OW60486   1.658   7.696   5.385  0.3728 -0.0512 -0.2830
19682SOL    HW160487   1.567   7.672   5.368  0.9283 -1.1791 -1.9911
19682SOL    HW260488   1.676   7.768   5.325  1.3653 -1.7400 -2.1566
19683SOL     OW60489   7.266   7.166   3.176  0.3697 -0.6317  0.2857
19683SOL    HW160490   7.259   7.262   3.181  1.5704 -0.5780  2.6168
19683SOL    HW260491   7.346   7.152   3.125 -0.0297 -0.4280 -0.4154
19684SOL     OW60492   4.645   6.977   6.825  0.5435  0.3407 -0.2891
19684SOL    HW160493   4.647   7.064   6.784 -1.2100  1.4256  1.7639
19684SOL    HW260494   4.611   6.919   6.757  0.7250  1.4565 -1.3643
19685SOL     OW60495   1.293   0.123   0.178  0.0327 -0.2232 -0.5397
19685SOL    HW160496   1.376   0.150   0.138  0.1594  2.2520  1.1517
19685SOL    HW260497   1.315   0.047   0.231  1.4808  0.9469  0.6180
19686SOL     OW60498   2.657   3.335   3.019  0.0435  0.0292 -0.2216
19686SOL    HW160499   2.591   3.359   2.954 -0.6854 -0.3934  0.3528
19686SOL    HW260500   2.669   3.415   3.071  0.5265  0.3259 -0.7804
19687SOL     OW60501   7.053   5.437   4.310  0.0291  0.1915 -0.5471
19687SOL    HW160502   7.147   5.451   4.300  0.1226 -0.4181 -0.5423
19687SOL    HW260503   7.035   5.462   4.401  0.4500 -1.0552 -0.1019
19688SOL     OW60504   6.283   2.025   3.007  0.6828  0.4919  0.1327
19688SOL    HW160505   6.191   2.031   2.979  0.7717 -1.4673 -0.7892
19688SOL    HW260506   6.285   1.949   3.065  1.7603  0.4024 -0.0036
19689SOL     OW60507   4.531   7.045   7.888 -0.6143 -0.5330 -0.0276
19689SOL    HW160508   4.492   7.043   7.801 -1.9101 -2.1898  0.5371
19689SOL    HW260509   4.595   7.116   7.884 -1.5729  0.2968 -1.9084
19690SOL     OW60510   1.730   6.519   4.136 -0.1051  0.3213 -0.1741
19690SOL    HW160511   1.641   6.525   4.101 -0.0879  1.1196 -0.1051
19690SOL    HW260512   1.786   6.518   4.058 -0.1364  0.6770 -0.2030
19691SOL     OW60513   1.068   5.216   8.939 -0.1977  0.1648  0.8646
19691SOL    HW160514   1.150   5.227   8.986 -0.5967  0.7037  1.4418
19691SOL    HW260515   1.000   5.236   9.003 -0.8029 -0.8275  0.5527
19692SOL     OW60516   1.871   4.808  11.979  0.2976 -0.4283 -0.2801
19692SOL    HW160517   1.880   4.741  12.047  1.4412  0.3892  0.4207
19692SOL    HW260518   1.781   4.799  11.947 -1.3161  0.9510  3.3036
19693SOL     OW60519   0.578   0.102   8.508 -0.4543  0.1880 -0.3629
19693SOL    HW160520   0.574   0.017   8.550 -0.3022  1.1083  1.6393
19693SOL    HW260521   0.669   0.130   8.519 -0.8087  1.1628  0.2022
19694SOL     OW60522   3.456   6.924   2.080 -0.4621 -0.2740 -0.1760
19694SOL    HW160523   3.483   6.841   2.041  0.1573  0.2664 -0.9281
19694SOL    HW260524   3.529   6.984   2.062 -1.4184  0.7648 -0.7444
19695SOL     OW60525   0.840   0.820   9.506  0.1564 -0.2884 -0.2272
19695SOL    HW160526   0.903   0.786   9.442 -0.1899 -0.8739 -0.2554
19695SOL    HW260527   0.755   0.788   9.476 -0.4311  1.8778 -1.1657
19696SOL     OW60528   2.903   5.989   7.630 -0.0890  0.6441  0.0257
19696SOL    HW160529   2.981   6.018   7.581  0.3106  0.8226  0.7572
19696SOL    HW260530   2.829   6.018   7.576  0.2764  3.0874  0.6854
19697SOL     OW60531   5.653   5.217   2.351  0.5047  0.3892 -0.3682
19697SOL    HW160532   5.726   5.180   2.400  0.7222  0.8832 -0.3040
19697SOL    HW260533   5.607   5.273   2.414  0.3589  0.4568 -0.5325
19698SOL     OW60534   4.503   1.543   6.201  0.2739 -0.2942 -0.0569
19698SOL    HW160535   4.419   1.498   6.208  0.8509 -1.1977  1.4671
19698SOL    HW260536   4.501   1.609   6.271 -0.7315  2.5160 -2.4849
19699SOL     OW60537   5.773   1.690   7.707  0.0232  0.7079  0.1172
19699SOL    HW160538   5.792   1.780   7.735 -1.0717  0.8162  0.5732
19699SOL    HW260539   5.807   1.685   7.618  0.1626  1.5521  0.1112
19700SOL     OW60540   1.314   6.452   7.405 -0.6080 -0.2260  0.1255
19700SOL    HW160541   1.339   6.544   7.403 -2.0083  0.2303  1.6406
19700SOL    HW260542   1.364   6.415   7.478  1.0943 -1.0747 -1.3972
19701SOL     OW60543   1.965   7.627   9.381  0.4636  0.4976  0.5663
19701SOL    HW160544   2.008   7.542   9.379  0.5955  0.5584 -1.7872
19701SOL    HW260545   1.921   7.630   9.466 -2.6421 -3.4580 -0.6081
19702SOL     OW60546   1.042   4.215   9.733 -0.0378 -0.1124  0.8375
19702SOL    HW160547   1.109   4.163   9.778  0.2023  0.3405  1.0099
19702SOL    HW260548   1.067   4.211   9.640  0.8067  0.8679  1.0060
19703SOL     OW60549   3.095   2.708   0.317 -0.3646  0.3906 -0.2002
19703SOL    HW160550   3.156   2.753   0.374 -0.3266 -0.9261  0.8547
19703SOL    HW260551   3.023   2.769   0.304 -0.5990  0.5546  1.6695
19704SOL     OW60552   4.953   6.821   8.897  0.5960  0.1832  0.1935
19704SOL    HW160553   4.940   6.727   8.885  1.1470  0.1204  0.0669
19704SOL    HW260554   4.907   6.841   8.978  0.8397 -0.2758  0.4498
19705SOL     OW60555   2.907   3.918   6.823 -0.1479 -0.2841 -0.5610
19705SOL    HW160556   2.854   3.839   6.806 -1.7506  0.7277 -0.4808
19705SOL    HW260557   2.846   3.991   6.810  0.8051  0.8938  1.1659
19706SOL     OW60558   6.027   7.805   2.636 -0.0517 -0.2832 -0.2505
19706SOL    HW160559   5.981   7.875   2.590 -1.0395 -0.5890  0.2424
19706SOL    HW260560   6.000   7.725   2.590  1.8068 -0.3104 -1.4237
19707SOL     OW60561   1.945   2.610   0.894 -0.1509  0.0973  0.1993
19707SOL    HW160562   1.973   2.530   0.939 -0.6456  0.0374  0.4047
19707SOL    HW260563   2.017   2.629   0.833  0.9963  0.7402  1.6843
19708SOL     OW60564   2.257   5.872   8.258 -0.0237 -0.0142 -0.0871
19708SOL    HW160565   2.265   5.890   8.164 -1.3423  0.8448 -0.0730
19708SOL    HW260566   2.164   5.854   8.270  0.2925 -1.0788  0.9162
19709SOL     OW60567   6.870   4.039   6.687  0.4241  0.3259 -0.3324
19709SOL    HW160568   6.818   3.958   6.677 -0.2568  0.8250 -0.9965
19709SOL    HW260569   6.819   4.105   6.640  0.9403  1.1637  0.2705
19710SOL     OW60570   2.775   1.472   0.551  0.2296 -0.7708 -0.2464
19710SOL    HW160571   2.844   1.435   0.607 -1.4001 -1.1347  1.6523
19710SOL    HW260572   2.800   1.564   0.541 -1.1181  0.3076  4.1787
19711SOL     OW60573   3.226   5.487   3.202 -0.1646 -0.2566  0.3529
19711SOL    HW160574   3.257   5.398   3.220 -0.6990 -0.8645 -1.5181
19711SOL    HW260575   3.303   5.542   3.212  0.7607 -1.2715 -0.8592
19712SOL     OW60576   2.436   4.488   6.133 -0.1048  0.2003  0.1977
19712SOL    HW160577   2.393   4.549   6.193 -1.4937  0.6471 -1.1854
19712SOL    HW260578   2.373   4.476   6.062  1.2099 -0.8354 -0.8462
19713SOL     OW60579   2.778   1.146   7.413  0.2310  0.3953 -0.2553
19713SOL    HW160580   2.727   1.162   7.493 -0.7366 -0.2003 -0.7381
19713SOL    HW260581   2.858   1.103   7.444  0.2764  0.9704  0.4687
19714SOL     OW60582   1.516   7.041   6.666 -0.1649  0.2170 -0.8009
19714SOL    HW160583   1.556   6.986   6.733 -1.1370  0.4982  0.0396
19714SOL    HW260584   1.442   6.990   6.633 -0.9302  0.8958 -0.1848
19715SOL     OW60585   3.232   2.467   1.628 -0.1374  0.0548  0.6958
19715SOL    HW160586   3.293   2.439   1.560  0.3324 -0.7494  1.4377
19715SOL    HW260587   3.265   2.553   1.656 -0.7678  0.7470 -0.5889
19716SOL     OW60588   3.988   5.651   4.440 -0.6579  0.1623 -0.5666
19716SOL    HW160589   4.005   5.599   4.362 -0.5274  1.8407 -1.7067
19716SOL    HW260590   3.923   5.716   4.412  1.3570  2.5377 -0.1327
19717SOL     OW60591   5.988   1.315   1.355  0.1277 -0.1538 -0.0566
19717SOL    HW160592   5.946   1.312   1.268  0.4116  0.9730 -0.2426
19717SOL    HW260593   6.023   1.227   1.367 -0.3665 -0.4780 -0.8597
19718SOL     OW60594   1.959   7.493  12.365  0.1284  0.1525 -0.3525
19718SOL    HW160595   2.037   7.548  12.376  0.4328 -0.1540 -0.9471
19718SOL    HW260596   1.886   7.551  12.386  0.4362  0.8197 -1.0827
19719SOL     OW60597   0.743   0.885  11.435 -0.0129 -0.8484 -0.2955
19719SOL    HW160598   0.806   0.928  11.378 -0.3335 -0.4782 -0.3764
19719SOL    HW260599   0.795   0.825  11.487  0.6216  0.4418  0.6196
19720SOL     OW60600   1.392   4.469   8.203  0.1405 -0.1598  0.5190
19720SOL    HW160601   1.416   4.492   8.113 -0.4805 -1.3921  0.0169
19720SOL    HW260602   1.329   4.536   8.229  0.5290  0.3598  0.1446
19721SOL     OW60603   3.472   1.935  11.685  0.2832  0.2405 -0.2769
19721SOL    HW160604   3.478   2.031  11.692  1.0572  0.2847 -1.2514
19721SOL    HW260605   3.532   1.913  11.614  0.3009 -1.0040  0.1059
19722SOL     OW60606   3.219   5.543   8.315  0.1457  0.5889 -0.1218
19722SOL    HW160607   3.176   5.494   8.386 -1.4721  1.6771 -0.3001
19722SOL    HW260608   3.216   5.634   8.343 -2.3949  1.3350 -2.3968
19723SOL     OW60609   4.076   3.233   6.265 -0.1801  0.3421  0.7827
19723SOL    HW160610   4.119   3.314   6.294  0.1773 -0.4174  2.4587
19723SOL    HW260611   4.124   3.208   6.186  1.8738  0.0522  2.0492
19724SOL     OW60612   5.054   7.456   3.378  0.2331  0.1333  0.1176
19724SOL    HW160613   5.039   7.545   3.409  0.4022  0.5189 -0.8633
19724SOL    HW260614   5.067   7.404   3.457  0.3081  1.0134  0.6911
19725SOL     OW60615   4.926   5.675  11.956  0.6455  0.3249 -0.3292
19725SOL    HW160616   4.963   5.675  12.044 -1.3937  2.4903  0.6376
19725SOL    HW260617   5.002   5.679  11.898  2.0784 -2.3115  1.2009
19726SOL     OW60618   3.601   5.590   5.368 -0.4241 -0.0801 -0.1153
19726SOL    HW160619   3.584   5.670   5.319 -2.4885  1.6161  3.0316
19726SOL    HW260620   3.520   5.539   5.360 -0.3978 -0.2528  0.5935
19727SOL     OW60621   1.600   5.087   6.488  0.0362 -0.2288 -0.3920
19727SOL    HW160622   1.617   5.130   6.404  2.1443 -0.4386 -0.1223
19727SOL    HW260623   1.571   4.999   6.465 -1.1042  0.2483 -0.8899
19728SOL     OW60624   1.001   1.863   2.964 -0.6981  0.4898  0.2470
19728SOL    HW160625   1.090   1.834   2.943 -1.0597  0.0311 -0.7309
19728SOL    HW260626   0.945   1.799   2.921 -1.5109  1.0307  0.4864
19729SOL     OW60627   2.862   6.199   4.448  0.0200  0.4582 -0.5816
19729SOL    HW160628   2.849   6.229   4.538 -0.6044  3.5016 -1.5665
19729SOL    HW260629   2.951   6.227   4.427 -0.4573  1.3753 -1.4421
19730SOL     OW60630   5.427   5.752   9.440  0.5598 -0.3755  0.0519
19730SOL    HW160631   5.346   5.767   9.392 -0.4267  0.2880  1.8431
19730SOL    HW260632   5.455   5.664   9.414  0.5089  0.2459 -2.2793
19731SOL     OW60633   4.075   2.726   3.467 -0.2645  0.1226 -0.1887
19731SOL    HW160634   4.153   2.671   3.476  0.8775  1.9409  2.0197
19731SOL    HW260635   4.100   2.809   3.507 -2.0267  2.2107 -3.0400
19732SOL     OW60636   5.808   0.411  12.263  1.0001 -0.7707 -0.4563
19732SOL    HW160637   5.745   0.354  12.219  0.4242  0.6782 -1.5838
19732SOL    HW260638   5.865   0.441  12.193  1.6043 -0.3542  0.2054
19733SOL     OW60639   4.637   6.175  11.300  0.2099 -0.1425  0.1709
19733SOL    HW160640   4.579   6.118  11.249  0.0164 -0.0009  0.2303
19733SOL    HW260641   4.577   6.232  11.348  0.4233  0.9013 -0.7842
19734SOL     OW60642   7.500   6.940   2.786 -0.6048  0.7355 -0.2716
19734SOL    HW160643   7.553   6.941   2.706  0.3819 -1.4301  0.2584
19734SOL    HW260644   7.411   6.924   2.755  0.0095 -1.9622 -0.9801
19735SOL     OW60645   0.070   4.374   2.741 -0.6416 -0.6467 -0.5698
19735SOL    HW160646   0.112   4.289   2.752  0.1912 -0.2374 -0.4924
19735SOL    HW260647  -0.002   4.373   2.803  0.8919 -0.3550  1.3320
19736SOL     OW60648   5.977   1.928  12.208 -0.0953 -0.2682 -0.1944
19736SOL    HW160649   6.050   1.868  12.195  0.1791  0.3521 -1.7229
19736SOL    HW260650   5.943   1.906  12.294  1.0853 -1.4352  0.0034
19737SOL     OW60651   5.714   1.870   9.252 -0.9889 -0.1483  0.2612
19737SOL    HW160652   5.656   1.820   9.309 -0.1228  0.0710  1.3654
19737SOL    HW260653   5.801   1.857   9.288 -0.4690  0.3594 -0.7607
19738SOL     OW60654   0.054   4.867   8.980  0.7335  0.4937 -0.0739
19738SOL    HW160655  -0.013   4.864   9.048 -0.2929  0.1872 -1.0857
19738SOL    HW260656   0.006   4.882   8.899  1.8745  0.1612 -0.8330
19739SOL     OW60657   1.454   3.177   8.955 -0.1491  0.0479 -0.3339
19739SOL    HW160658   1.482   3.133   9.035 -2.2242 -0.7750 -0.0039
19739SOL    HW260659   1.447   3.107   8.890  0.5410  0.5589 -0.9766
19740SOL     OW60660   2.601   7.843   3.014  0.5175  0.4857 -0.2217
19740SOL    HW160661   2.507   7.847   3.033  0.5672  1.2266 -0.1257
19740SOL    HW260662   2.623   7.750   3.022 -0.4368  0.1286 -1.3421
19741SOL     OW60663   7.706   2.883   9.985 -0.8183  0.0865  0.7927
19741SOL    HW160664   7.713   2.846  10.073 -2.3268  1.7361  1.6597
19741SOL    HW260665   7.790   2.863   9.944 -0.6541 -2.0972  2.0318
19742SOL     OW60666   2.320   4.401   9.089  0.3505  0.0698  0.8298
19742SOL    HW160667   2.226   4.389   9.076  0.5146 -1.3565  0.8112
19742SOL    HW260668   2.327   4.473   9.151 -0.6903  1.4086 -0.5120
19743SOL     OW60669   6.648   3.049   8.201 -0.5674 -0.1834 -0.3441
19743SOL    HW160670   6.657   3.001   8.283 -0.1234 -0.3863 -0.5049
19743SOL    HW260671   6.594   3.125   8.223 -1.9640 -1.1622 -0.2555
19744SOL     OW60672   4.216   6.380   5.123 -0.0487  0.2904  0.4857
19744SOL    HW160673   4.191   6.332   5.202 -1.2856 -3.5021 -1.9113
19744SOL    HW260674   4.303   6.345   5.101  0.5323  1.7243  0.4165
19745SOL     OW60675   1.051   6.198   7.925 -0.3873 -0.0673 -0.1780
19745SOL    HW160676   0.992   6.174   7.853 -0.0323  0.0604 -0.5182
19745SOL    HW260677   1.062   6.293   7.916 -0.9813  0.0792  0.5433
19746SOL     OW60678   2.607   1.835   1.970 -0.3238  0.2068 -0.1466
19746SOL    HW160679   2.648   1.787   2.041  1.1536  0.7872 -0.5742
19746SOL    HW260680   2.659   1.813   1.893  0.3349  2.3594 -0.3777
19747SOL     OW60681   0.914   6.514   6.911 -0.7951 -0.0541  0.5781
19747SOL    HW160682   0.957   6.429   6.904 -1.6467 -0.4753  0.1782
19747SOL    HW260683   0.956   6.568   6.845 -3.2075 -1.5406 -2.4501
19748SOL     OW60684   3.891   3.634   8.971 -0.3463  0.3100  0.0018
19748SOL    HW160685   3.876   3.714   9.021  0.4936  0.6420 -0.2561
19748SOL    HW260686   3.865   3.656   8.882 -4.4510 -1.0766  0.6340
19749SOL     OW60687   1.389   7.928   2.280  0.1992  0.2347  0.1142
19749SOL    HW160688   1.408   7.884   2.198  0.2692 -0.3511  0.4385
19749SOL    HW260689   1.379   8.020   2.257  0.9337  0.1775 -0.4357
19750SOL     OW60690   0.036   3.099   9.258  0.0129 -0.0704 -0.6810
19750SOL    HW160691   0.064   3.025   9.313 -0.3076  0.5372  0.3376
19750SOL    HW260692   0.041   3.175   9.317 -1.6245  0.3925 -1.1059
19751SOL     OW60693   7.898   2.186   1.598 -0.3694 -0.5252 -0.0223
19751SOL    HW160694   7.853   2.185   1.683 -0.1306 -0.2094  0.1109
19751SOL    HW260695   7.959   2.113   1.602 -0.6685 -0.7783 -0.0914
19752SOL     OW60696   7.132   5.153   7.682 -0.1836  0.5125 -0.2079
19752SOL    HW160697   7.096   5.111   7.604 -0.6727 -1.3656  0.9570
19752SOL    HW260698   7.105   5.244   7.674 -1.6230  0.0322 -1.4470
19753SOL     OW60699   0.374   0.084   1.975 -0.2948  0.0638 -0.0881
19753SOL    HW160700   0.296   0.126   2.011  0.1157 -0.0095  0.9230
19753SOL    HW260701   0.407   0.147   1.911  1.2995  2.2552  2.5998
19754SOL     OW60702   3.861   5.936   5.566 -0.0292  0.0435 -0.4876
19754SOL    HW160703   3.868   5.841   5.576 -0.2202  0.1688  1.0065
19754SOL    HW260704   3.836   5.948   5.474  0.6035 -1.3113 -0.8621
19755SOL     OW60705   3.324   4.618   2.219  0.3836  0.3157  0.4678
19755SOL    HW160706   3.399   4.563   2.241  1.8557  2.2762  0.6541
19755SOL    HW260707   3.338   4.641   2.127 -2.1932 -2.4650 -0.7741
19756SOL     OW60708   4.675   5.689   0.966  0.2930 -0.3635  0.1451
19756SOL    HW160709   4.745   5.628   0.945  0.0535 -0.6842  0.2663
19756SOL    HW260710   4.696   5.768   0.917  1.6820  0.1603  1.5039
19757SOL     OW60711   4.471   1.430   7.322 -0.6589  0.2902  0.0494
19757SOL    HW160712   4.449   1.388   7.238 -1.7778  1.0527 -0.0697
19757SOL    HW260713   4.423   1.513   7.320  2.0079  1.9598 -0.0391
19758SOL     OW60714   0.919   4.992   6.039 -0.1093 -0.2206  0.5634
19758SOL    HW160715   0.845   5.051   6.052 -0.1031 -0.1520  0.2877
19758SOL    HW260716   0.961   5.023   5.959  0.5134  0.0525  0.9910
19759SOL     OW60717   6.901   2.863  12.329 -0.0607 -0.1973 -0.3965
19759SOL    HW160718   6.826   2.918  12.305 -0.3745 -0.0105  0.9468
19759SOL    HW260719   6.977   2.919  12.311 -0.3698  0.6572  0.8332
19760SOL     OW60720   1.537   5.566   6.042  0.5464 -0.1106  0.1941
19760SOL    HW160721   1.539   5.472   6.026 -0.2927 -0.8420  3.5795
19760SOL    HW260722   1.621   5.585   6.084 -0.5135 -0.0818  2.4400
19761SOL     OW60723   3.998   1.550   7.757  0.6018  0.0111  0.1198
19761SOL    HW160724   3.921   1.570   7.811  0.2700 -0.9550  0.0273
19761SOL    HW260725   3.968   1.565   7.667  0.8906  0.7831  0.1472
19762SOL     OW60726   3.215   0.612   8.767  0.5664 -0.4257  0.3373
19762SOL    HW160727   3.304   0.596   8.799  0.6235 -1.0448 -0.1060
19762SOL    HW260728   3.203   0.706   8.776  2.3108  0.1352 -2.1344
19763SOL     OW60729   6.621   2.710  10.653  0.4017 -0.1764 -0.4056
19763SOL    HW160730   6.712   2.718  10.683  0.2916 -0.7902  0.1216
19763SOL    HW260731   6.605   2.616  10.648 -0.2077 -0.0763 -0.4967
19764SOL     OW60732   2.611   4.772   1.647 -0.2062 -0.0469 -0.3442
19764SOL    HW160733   2.705   4.776   1.666 -0.0963 -1.8252 -0.3013
19764SOL    HW260734   2.606   4.722   1.566 -1.1826 -2.4574  1.0851
19765SOL     OW60735   5.982   6.640  12.365 -0.2420 -0.0343  0.4700
19765SOL    HW160736   5.998   6.683  12.449 -1.2122  1.1713  0.0608
19765SOL    HW260737   5.888   6.624  12.364 -0.0811 -1.0429  0.0628
19766SOL     OW60738   7.238   6.014   3.644  0.2233 -0.4215 -0.1802
19766SOL    HW160739   7.197   6.058   3.570 -1.9237 -0.5382  0.8765
19766SOL    HW260740   7.212   5.922   3.636  2.6463 -1.1076 -1.0067
19767SOL     OW60741   6.789   7.714   2.641  0.7127  0.3090 -0.3321
19767SOL    HW160742   6.814   7.761   2.720  1.2556  1.2720 -1.0533
19767SOL    HW260743   6.764   7.783   2.579  1.5199 -0.3277 -1.4060
19768SOL     OW60744   3.485   2.433   5.003  0.1347  0.2058  0.7281
19768SOL    HW160745   3.512   2.391   5.085  0.4627  1.5642  1.3411
19768SOL    HW260746   3.426   2.503   5.031 -1.1243 -0.3908 -0.3341
19769SOL     OW60747   1.493   0.045  10.701  0.0683 -0.2249  0.1953
19769SOL    HW160748   1.480   0.134  10.734  0.0317  0.1290 -0.7524
19769SOL    HW260749   1.566   0.053  10.640 -0.2604 -0.7469 -0.2726
19770SOL     OW60750   6.760   5.190   7.626 -0.3077  0.2071 -0.1245
19770SOL    HW160751   6.799   5.256   7.683  0.6840 -0.2664 -0.2320
19770SOL    HW260752   6.719   5.127   7.686 -0.0315  0.1803  0.0391
19771SOL     OW60753   2.572   1.134   1.769 -0.1200  0.4406 -0.4920
19771SOL    HW160754   2.505   1.068   1.753 -0.9917  1.0920  0.3700
19771SOL    HW260755   2.652   1.083   1.784 -0.8972 -0.4725  0.8118
19772SOL     OW60756   1.652   2.752   3.733  0.4080 -0.0490 -0.2273
19772SOL    HW160757   1.631   2.778   3.823  0.1354  1.5369 -0.7311
19772SOL    HW260758   1.567   2.737   3.692  0.5439 -1.5293 -0.0461
19773SOL     OW60759   4.292   1.949  10.699 -0.3060  0.1918  0.4916
19773SOL    HW160760   4.319   2.040  10.692 -1.3216  0.3860 -1.8530
19773SOL    HW260761   4.196   1.953  10.706 -0.3855 -0.6935  0.0768
19774SOL     OW60762   3.934   1.892   7.397  0.0057 -0.0278 -0.2078
19774SOL    HW160763   3.987   1.964   7.363 -1.1165 -0.0947 -2.2844
19774SOL    HW260764   3.846   1.929   7.404 -0.2959 -0.7939  0.1168
19775SOL     OW60765   2.056   0.983   1.605 -0.5266 -0.2055 -0.2293
19775SOL    HW160766   1.982   0.927   1.581 -0.9953  0.5659 -0.6774
19775SOL    HW260767   2.126   0.958   1.545 -1.2590  0.7685 -1.5696
19776SOL     OW60768   1.465   1.261   1.338 -0.3275 -0.0097 -0.0268
19776SOL    HW160769   1.392   1.319   1.360 -0.7847  0.5838 -2.7660
19776SOL    HW260770   1.424   1.176   1.322 -0.3623  0.1755 -0.9678
19777SOL     OW60771   4.692   7.791   1.708 -0.8477 -0.2935 -0.5918
19777SOL    HW160772   4.663   7.824   1.793  0.1309  0.4202 -0.5093
19777SOL    HW260773   4.647   7.707   1.698 -0.9201 -0.4280  0.6715
19778SOL     OW60774   2.249   7.217   0.133 -0.3885 -0.3671 -0.2109
19778SOL    HW160775   2.337   7.190   0.107 -0.1105 -0.4624  0.7716
19778SOL    HW260776   2.194   7.201   0.056  0.5330  0.1119 -0.9815
19779SOL     OW60777   1.567   7.672  11.002  0.4525 -0.9129  0.3981
19779SOL    HW160778   1.554   7.582  10.973  1.2707 -1.1190  0.6614
19779SOL    HW260779   1.483   7.697  11.040  0.3087 -1.6612  0.5827
19780SOL     OW60780   3.894   0.528   0.819  0.1319  0.4595  0.1660
19780SOL    HW160781   3.847   0.554   0.898  0.7335  2.7542 -0.1559
19780SOL    HW260782   3.973   0.583   0.819  1.6785 -1.6402 -0.4885
19781SOL     OW60783   3.590   5.735   2.741  0.3934  0.2623 -0.2106
19781SOL    HW160784   3.562   5.818   2.780 -0.0026 -0.3335  0.8237
19781SOL    HW260785   3.641   5.692   2.810 -0.4940 -0.9165 -0.2598
19782SOL     OW60786   3.919   4.896   4.718 -0.7654 -0.2862 -0.1510
19782SOL    HW160787   3.937   4.939   4.634 -0.7315  0.7120  0.3517
19782SOL    HW260788   3.824   4.897   4.725 -0.9327 -2.4383 -1.2032
19783SOL     OW60789   6.962   3.890   1.873 -0.2086  0.0610 -0.5419
19783SOL    HW160790   6.885   3.940   1.847 -0.4659 -1.9488 -4.3019
19783SOL    HW260791   7.036   3.950   1.856 -0.7442  1.5083  1.7863
19784SOL     OW60792   0.551   1.251  10.833  0.1743 -0.2072 -0.0570
19784SOL    HW160793   0.598   1.249  10.750  0.8267 -0.0944  0.3005
19784SOL    HW260794   0.607   1.202  10.893 -0.8837 -1.3791  0.0224
19785SOL     OW60795   7.898   0.936   2.271 -0.1641  0.1176 -0.0813
19785SOL    HW160796   7.971   0.976   2.318  0.7121 -0.9682 -0.4497
19785SOL    HW260797   7.862   1.006   2.217 -0.2615  1.0076  1.1152
19786SOL     OW60798   6.676   2.292  12.136 -0.2593 -0.8167 -0.3232
19786SOL    HW160799   6.719   2.350  12.198 -1.0040 -0.7183  0.1125
19786SOL    HW260800   6.739   2.281  12.065 -0.9187  2.2708 -1.5089
19787SOL     OW60801   0.480   4.456   4.417  0.1071  0.4850 -0.2092
19787SOL    HW160802   0.407   4.399   4.394 -0.4555  0.7906  0.7574
19787SOL    HW260803   0.450   4.505   4.494  0.5263  2.1708 -1.0727
19788SOL     OW60804   5.638   1.536   8.415  0.2965  0.9025  0.0377
19788SOL    HW160805   5.560   1.590   8.429  0.3039  0.7133  0.8587
19788SOL    HW260806   5.618   1.453   8.459 -0.6998 -0.7525 -3.1568
19789SOL     OW60807   6.656   4.097   7.078 -0.3706  0.0558  0.1061
19789SOL    HW160808   6.709   4.114   7.000 -0.0375  1.0097  0.5159
19789SOL    HW260809   6.719   4.067   7.144 -0.1040  2.1837  0.9101
19790SOL     OW60810   3.609   1.621   0.264  0.0194  0.2195 -0.0726
19790SOL    HW160811   3.635   1.712   0.278  0.1005  0.3637 -1.0882
19790SOL    HW260812   3.517   1.619   0.290  0.0948  0.5242  0.2310
19791SOL     OW60813   4.139   4.746   4.504  0.4692  0.1943  0.2323
19791SOL    HW160814   4.097   4.723   4.587 -0.1583 -0.0706 -0.1482
19791SOL    HW260815   4.114   4.838   4.490 -3.5594 -1.0012 -1.9872
19792SOL     OW60816   4.034   6.892   3.834 -0.3864 -0.3438 -0.1839
19792SOL    HW160817   4.125   6.869   3.849 -0.0660  0.4838 -0.7943
19792SOL    HW260818   4.017   6.864   3.744 -0.6845 -0.3121 -0.1392
19793SOL     OW60819   4.205   7.808   5.688  0.2079  0.1670  0.3205
19793SOL    HW160820   4.213   7.731   5.632 -1.8210 -0.2180  0.4807
19793SOL    HW260821   4.111   7.816   5.704  0.5796  1.3293  2.2008
19794SOL     OW60822   0.965   6.301   9.514 -0.1596 -0.0467  0.4761
19794SOL    HW160823   1.045   6.347   9.539 -0.7900  1.0363  0.5813
19794SOL    HW260824   0.996   6.223   9.468  0.9600  0.8188 -0.3099
19795SOL     OW60825   4.208   4.957   1.051  0.4785  0.1797 -0.5526
19795SOL    HW160826   4.215   5.016   0.975  0.0874  0.9356 -0.0173
19795SOL    HW260827   4.237   5.010   1.125 -0.7082 -0.0179  0.0729
19796SOL     OW60828   2.145   6.880   6.309  0.0208 -0.0717 -0.2665
19796SOL    HW160829   2.137   6.952   6.247  0.0847  1.5652  1.5371
19796SOL    HW260830   2.055   6.867   6.341  0.4999  1.9266  2.2366
19797SOL     OW60831   6.527   4.764   8.299 -0.2067  0.2687 -0.0292
19797SOL    HW160832   6.498   4.690   8.351 -1.2100  0.9624  0.4435
19797SOL    HW260833   6.523   4.839   8.359  1.6454  0.5736 -0.2335
19798SOL     OW60834   6.812   6.242   2.985  0.9086 -0.0011 -0.0749
19798SOL    HW160835   6.856   6.288   3.056 -0.1390  1.3485 -0.2427
19798SOL    HW260836   6.726   6.220   3.021 -0.3111  2.2288 -1.3624
19799SOL     OW60837   5.197   4.679   6.024  0.2665  0.9096  0.3123
19799SOL    HW160838   5.279   4.647   5.986  0.8637  2.2832  0.4012
19799SOL    HW260839   5.169   4.608   6.083  0.5971 -0.1963 -0.8102
19800SOL     OW60840   5.982   3.941  12.085  0.0961 -0.0968  0.1280
19800SOL    HW160841   5.918   4.011  12.093  0.2790  0.0847  0.0097
19800SOL    HW260842   5.991   3.928  11.990 -0.8858 -1.1530  0.1517
19801SOL     OW60843   0.207   5.141  10.408 -0.4111  0.0614  0.6601
19801SOL    HW160844   0.303   5.149  10.406 -0.5508  2.1613 -0.4193
19801SOL    HW260845   0.191   5.046  10.410  1.6778 -0.3650 -0.0402
19802SOL     OW60846   3.718   2.653   6.726 -0.5265  0.2856 -0.2862
19802SOL    HW160847   3.707   2.623   6.816  0.1685 -0.3556 -0.4077
19802SOL    HW260848   3.727   2.573   6.675  3.1146  0.5784 -0.4078
19803SOL     OW60849   2.670   0.307   1.863  0.4154 -0.0469  0.0693
19803SOL    HW160850   2.745   0.247   1.866 -0.1276 -0.7074  0.8024
19803SOL    HW260851   2.703   0.387   1.903  0.3359 -0.8095  1.7383
19804SOL     OW60852   5.559   7.928   4.189  0.2402 -0.1006  0.0117
19804SOL    HW160853   5.611   7.978   4.251 -0.8198 -1.0153  1.7141
19804SOL    HW260854   5.469   7.934   4.222 -0.3248 -0.7954 -1.3236
19805SOL     OW60855   1.986   7.871   1.225 -0.0894  0.5906 -0.3168
19805SOL    HW160856   2.067   7.829   1.254  0.8534  1.1930 -1.9565
19805SOL    HW260857   2.014   7.936   1.161 -1.9336  0.4170 -1.3748
19806SOL     OW60858   6.237   1.279   8.769 -0.5487 -0.0722 -0.4843
19806SOL    HW160859   6.237   1.200   8.715 -1.8836  0.4425 -1.2694
19806SOL    HW260860   6.251   1.246   8.858 -0.9885 -1.1872 -0.8044
19807SOL     OW60861   4.571   1.725  10.051 -0.7115  0.4752  0.1342
19807SOL    HW160862   4.563   1.664  10.124 -0.7159  1.2030  0.7553
19807SOL    HW260863   4.547   1.810  10.088  2.4690  1.4760  0.1698
19808SOL     OW60864   0.896   3.388   4.711 -0.6851  0.4448 -0.1461
19808SOL    HW160865   0.827   3.453   4.726 -1.2041 -0.3257  0.8743
19808SOL    HW260866   0.864   3.335   4.638 -1.5494 -0.4020  0.8313
19809SOL     OW60867   0.599   3.120   1.936 -0.0885 -0.2515  0.2050
19809SOL    HW160868   0.555   3.166   2.007 -0.2137  0.5410 -0.3667
19809SOL    HW260869   0.661   3.061   1.979  0.0579  0.4407  0.9582
19810SOL     OW60870   2.605   0.094   2.123  0.3468 -0.4847 -0.2068
19810SOL    HW160871   2.631   0.066   2.035 -1.6268 -0.8638 -0.7333
19810SOL    HW260872   2.510   0.106   2.116  0.4481  1.6839  1.2933
19811SOL     OW60873   6.987   4.749   8.817  0.3264  0.3338 -0.6067
19811SOL    HW160874   6.950   4.780   8.900  0.2349 -0.0608 -0.4950
19811SOL    HW260875   7.080   4.770   8.823  0.5956 -0.9146  0.2059
19812SOL     OW60876   2.760   1.840   6.065  0.6090  0.4107  0.0481
19812SOL    HW160877   2.684   1.786   6.087  1.8832 -1.6231 -0.2833
19812SOL    HW260878   2.795   1.867   6.149  2.2958 -2.7944  0.5506
19813SOL     OW60879   4.156   5.253  10.531  0.5477 -0.3492 -0.2877
19813SOL    HW160880   4.119   5.342  10.527  0.4467 -0.3759  0.0063
19813SOL    HW260881   4.114   5.206  10.460 -0.3397 -0.5098  0.3280
19814SOL     OW60882   4.094   3.840   5.494 -0.2940 -0.0116 -0.0197
19814SOL    HW160883   4.154   3.768   5.474  1.8211  1.9879 -1.3609
19814SOL    HW260884   4.102   3.853   5.588 -2.7440 -3.1122  0.7794
19815SOL     OW60885   3.414   4.662  11.514  0.4739  0.1061 -0.3603
19815SOL    HW160886   3.451   4.603  11.579  1.0592 -0.1432 -0.9127
19815SOL    HW260887   3.319   4.659  11.530  0.3926 -1.6728 -0.9499
19816SOL     OW60888   7.460   1.367   4.982  0.2104  0.7418  0.4082
19816SOL    HW160889   7.536   1.334   4.936  0.1860  0.2799  0.6993
19816SOL    HW260890   7.407   1.290   5.001 -1.6498  1.2615 -2.0783
19817SOL     OW60891   1.014   0.624   9.059 -0.7377  0.1965  0.6291
19817SOL    HW160892   1.086   0.562   9.073  0.0687  1.2718  1.4190
19817SOL    HW260893   0.940   0.569   9.033 -0.1107 -1.1129  1.5026
19818SOL     OW60894   7.413   5.655   5.021  0.8038  0.1435 -0.4985
19818SOL    HW160895   7.396   5.749   5.006  0.6787  0.2300  0.1663
19818SOL    HW260896   7.490   5.654   5.078 -1.0150 -0.0400  2.1096
19819SOL     OW60897   1.082   1.361   0.601  0.0826 -0.1674 -0.1305
19819SOL    HW160898   1.150   1.378   0.666  0.2434 -0.2307 -0.2815
19819SOL    HW260899   1.000   1.381   0.646  0.1418 -0.8818  0.3265
19820SOL     OW60900   1.973   3.900   7.984 -0.1120 -0.4581 -0.0270
19820SOL    HW160901   2.017   3.963   7.927  0.5615  0.2252  1.1880
19820SOL    HW260902   1.880   3.910   7.964  0.0525  0.3606 -0.4196
19821SOL     OW60903   6.880   4.027   4.484 -0.1177  0.0597  0.4444
19821SOL    HW160904   6.917   4.110   4.514  1.0287 -1.2497  2.9071
19821SOL    HW260905   6.922   4.011   4.400 -0.4442  1.9818 -0.1381
19822SOL     OW60906   3.154   7.182  10.178 -0.1477  0.1547 -1.0802
19822SOL    HW160907   3.235   7.139  10.149  1.2420  1.6303  0.3996
19822SOL    HW260908   3.105   7.113  10.223  1.0753 -0.3825 -0.5287
19823SOL     OW60909   1.196   7.060   0.508  0.0920 -0.3254  0.6424
19823SOL    HW160910   1.180   7.149   0.539  0.6988 -0.0105  0.0755
19823SOL    HW260911   1.128   7.045   0.442  0.5317  0.0584  0.0902
19824SOL     OW60912   3.776   4.543   9.677 -0.1750  0.1058  0.1059
19824SOL    HW160913   3.869   4.537   9.700  0.1743  0.7373 -1.1006
19824SOL    HW260914   3.750   4.452   9.659 -0.2605 -0.3133  2.0972
19825SOL     OW60915   3.323   6.458  12.278  0.2595  0.7127  0.1440
19825SOL    HW160916   3.244   6.492  12.318 -0.6048 -0.6035 -0.3745
19825SOL    HW260917   3.368   6.412  12.349 -0.0463  0.4479  0.1675
19826SOL     OW60918   5.095   0.211   7.051  0.0251  0.0613 -0.2772
19826SOL    HW160919   5.062   0.127   7.082 -1.3604  0.6509 -0.0836
19826SOL    HW260920   5.134   0.192   6.965 -1.7567 -0.5203 -0.9995
19827SOL     OW60921   7.840   2.961   4.725 -0.1008  0.0304  0.1093
19827SOL    HW160922   7.746   2.966   4.707  0.1155  1.2944 -0.7608
19827SOL    HW260923   7.875   2.908   4.653  0.0504  0.8367 -0.4247
19828SOL     OW60924   2.662   7.577   0.624 -0.0882  0.0928  0.3902
19828SOL    HW160925   2.713   7.641   0.674  1.2127 -0.8990  0.4001
19828SOL    HW260926   2.611   7.530   0.690  0.6853 -0.3829  0.6634
19829SOL     OW60927   4.835   2.890   2.821 -0.1144  0.1572  0.7498
19829SOL    HW160928   4.755   2.869   2.772  0.7985 -0.6704 -0.4419
19829SOL    HW260929   4.874   2.804   2.840  0.9496  0.5828  0.5282
19830SOL     OW60930   2.930   4.460   4.285  0.4678 -0.2115  0.4615
19830SOL    HW160931   2.897   4.479   4.197  1.4088 -3.4510 -0.7398
19830SOL    HW260932   2.975   4.540   4.311  0.9449  0.5895 -2.4177
19831SOL     OW60933   5.684   4.740   5.477  0.4899 -0.1153  0.5317
19831SOL    HW160934   5.659   4.715   5.388  0.0833  0.4131  0.4952
19831SOL    HW260935   5.736   4.666   5.508 -2.2992 -1.9718  1.1461
19832SOL     OW60936   2.890   2.739   5.281  0.4740 -0.2489  0.4875
19832SOL    HW160937   2.798   2.762   5.284  0.1734 -1.3973  0.5969
19832SOL    HW260938   2.933   2.802   5.339 -0.1565  0.5951  0.0557
19833SOL     OW60939   3.606   5.256   5.495  0.4749 -0.3061  0.0296
19833SOL    HW160940   3.602   5.243   5.401  0.0842  0.1857 -0.0292
19833SOL    HW260941   3.695   5.230   5.520  1.5538  2.1586 -0.8876
19834SOL     OW60942   3.660   0.179   1.920  0.4954 -0.2587 -0.1266
19834SOL    HW160943   3.680   0.242   1.851 -2.6995 -1.7074 -2.6695
19834SOL    HW260944   3.694   0.096   1.886 -2.5634 -1.3058 -0.9311
19835SOL     OW60945   1.632   4.921   1.214 -0.0779 -0.0327  0.2255
19835SOL    HW160946   1.546   4.957   1.238 -0.3293 -0.2167 -0.3753
19835SOL    HW260947   1.628   4.830   1.242 -0.8390 -0.5979 -1.5538
19836SOL     OW60948   4.970   0.439   9.379 -0.0025  0.7359 -0.0440
19836SOL    HW160949   5.061   0.468   9.376 -0.0444  0.8773  0.0326
19836SOL    HW260950   4.919   0.519   9.362 -0.0972  0.5667 -0.5855
19837SOL     OW60951   2.735   7.651   3.168  0.0004  0.3455 -0.0899
19837SOL    HW160952   2.819   7.612   3.193  0.2914  1.9964  1.8175
19837SOL    HW260953   2.669   7.593   3.206  0.3858  0.6886  1.1605
19838SOL     OW60954   3.044   2.401   9.650  0.4838 -0.1132 -0.3974
19838SOL    HW160955   3.098   2.472   9.684  0.3202 -0.0949 -0.1719
19838SOL    HW260956   2.972   2.393   9.712 -1.4079  1.8194 -2.1726
19839SOL     OW60957   6.177   1.892   1.051 -0.2690  0.3425 -0.4222
19839SOL    HW160958   6.187   1.802   1.021 -0.2233 -0.1122  0.8907
19839SOL    HW260959   6.162   1.942   0.971  2.1924 -0.4335 -1.4570
19840SOL     OW60960   7.468   3.105   5.769  0.2923 -0.3177  0.4567
19840SOL    HW160961   7.444   3.082   5.859  0.6114 -1.5026  0.2625
19840SOL    HW260962   7.533   3.039   5.745 -1.8139 -1.8041 -1.5971
19841SOL     OW60963   6.301   1.620   8.588 -0.0997 -0.2001  0.4477
19841SOL    HW160964   6.357   1.697   8.582  0.0809 -0.3883 -0.3592
19841SOL    HW260965   6.362   1.546   8.588 -0.2788 -0.3614  1.1067
19842SOL     OW60966   4.553   0.078   9.223 -0.4995 -0.3726 -0.4697
19842SOL    HW160967   4.597   0.020   9.285  0.3403 -0.0338 -0.7340
19842SOL    HW260968   4.590   0.055   9.138 -1.1658 -0.3879 -0.7553
19843SOL     OW60969   4.954   2.722   7.547 -0.0595 -0.2954 -0.5627
19843SOL    HW160970   5.011   2.755   7.616  0.9130 -1.3091 -0.8449
19843SOL    HW260971   4.970   2.627   7.546 -3.7812 -1.1608  1.2059
19844SOL     OW60972   3.340   4.862   4.395  0.0151 -0.1489 -0.1875
19844SOL    HW160973   3.365   4.927   4.329  0.1167  0.5612  0.5435
19844SOL    HW260974   3.325   4.913   4.475 -0.7305 -0.9262  0.1798
19845SOL     OW60975   1.816   2.173   0.960  0.3916  0.3347 -0.0269
19845SOL    HW160976   1.754   2.101   0.956  0.7261  0.0922 -1.0745
19845SOL    HW260977   1.891   2.138   1.007 -0.4865  0.8215  1.8209
19846SOL     OW60978   5.686   6.684   7.791 -0.0027  0.6362  0.1964
19846SOL    HW160979   5.760   6.731   7.828  1.0734 -0.5092 -0.4168
19846SOL    HW260980   5.617   6.750   7.783  0.6582  1.5395  1.5523
19847SOL     OW60981   0.373   5.432   7.047  0.1387 -0.1760  0.3115
19847SOL    HW160982   0.379   5.525   7.024 -2.0449 -0.1036 -0.1849
19847SOL    HW260983   0.407   5.428   7.137  2.4238  0.6655 -0.4335
19848SOL     OW60984   1.476   2.021   6.174  0.0286 -0.6418  0.1730
19848SOL    HW160985   1.455   1.929   6.192 -1.2280 -0.6323 -1.0895
19848SOL    HW260986   1.570   2.028   6.193  0.1014 -2.1112  0.5170
19849SOL     OW60987   2.818   1.402  11.699  0.3967  0.3424 -0.2812
19849SOL    HW160988   2.867   1.455  11.761  0.2684  1.0206 -0.7464
19849SOL    HW260989   2.831   1.312  11.728 -0.4354  0.6914  1.3006
19850SOL     OW60990   6.954   5.247   6.427  0.8634 -0.1010 -0.3386
19850SOL    HW160991   6.954   5.151   6.427  2.3131 -0.1356  0.7747
19850SOL    HW260992   6.959   5.270   6.335 -2.0980 -1.0026 -0.8506
19851SOL     OW60993   7.894   7.342  10.485  0.4683  0.1078  0.1812
19851SOL    HW160994   7.973   7.301  10.450 -0.3469 -1.2475 -0.1743
19851SOL    HW260995   7.906   7.341  10.580  1.1094  0.4083  0.1042
19852SOL     OW60996   5.989   0.293   7.273 -0.3214 -0.2423  0.4555
19852SOL    HW160997   5.957   0.260   7.357 -0.2228 -1.7398 -0.0675
19852SOL    HW260998   6.081   0.267   7.271  0.0761  1.1006  0.5118
19853SOL     OW60999   0.608   7.205   3.397 -0.4640  0.0461 -0.0046
19853SOL    HW161000   0.601   7.143   3.324 -0.9389  0.0799  0.0107
19853SOL    HW261001   0.571   7.157   3.472 -1.4289  0.5710 -0.1302
19854SOL     OW61002   7.826   5.892   2.885 -0.1070  0.0888  0.0923
19854SOL    HW161003   7.741   5.874   2.926  0.0409 -0.7261  0.0569
19854SOL    HW261004   7.830   5.987   2.880 -1.5493  0.1238 -0.9928
19855SOL     OW61005   7.135   7.715   9.536  0.0857 -0.2818 -0.1295
19855SOL    HW161006   7.220   7.690   9.498  0.8215  0.0326  1.2395
19855SOL    HW261007   7.151   7.718   9.630 -1.2128  0.7119  0.0884
19856SOL     OW61008   7.295   3.354   2.981  0.1546 -0.3668 -0.2870
19856SOL    HW161009   7.299   3.377   3.073  0.9084 -1.9115  0.0990
19856SOL    HW261010   7.229   3.285   2.976 -0.6758  0.4482 -1.1009
19857SOL     OW61011   3.460   2.087   1.645 -0.0862  0.3523 -0.0719
19857SOL    HW161012   3.504   2.081   1.560  1.3966  0.0885  0.6856
19857SOL    HW261013   3.450   1.997   1.673 -0.0320  0.4648  0.3067
19858SOL     OW61014   7.251   0.164   4.431 -0.3846 -0.2267  0.6279
19858SOL    HW161015   7.199   0.119   4.365 -0.7191  1.1618 -0.1041
19858SOL    HW261016   7.190   0.178   4.504 -0.5884 -0.0445  0.4267
19859SOL     OW61017   0.278   4.650   2.306 -0.4276 -0.1774  0.5283
19859SOL    HW161018   0.343   4.606   2.251 -0.4572 -1.0814  1.1780
19859SOL    HW261019   0.264   4.735   2.265 -0.8096 -0.9999 -1.1206
19860SOL     OW61020   4.639   1.216   9.397 -0.0863 -0.8273 -0.2559
19860SOL    HW161021   4.666   1.307   9.385  0.0728 -1.0857 -2.0525
19860SOL    HW261022   4.544   1.221   9.409  0.1923 -0.2494  2.2279
19861SOL     OW61023   2.086   4.357  12.182  0.1329  0.3152  0.8407
19861SOL    HW161024   2.147   4.403  12.240 -1.5315  2.8342  0.7419
19861SOL    HW261025   2.063   4.421  12.115 -1.4769 -1.0477  0.0148
19862SOL     OW61026   2.018   6.903   8.252 -1.0520 -0.7760  0.1167
19862SOL    HW161027   2.107   6.907   8.288 -1.7114 -0.9270  1.8796
19862SOL    HW261028   1.994   6.994   8.235 -1.4601 -0.4668  2.0969
19863SOL     OW61029   2.623   6.897   5.474 -0.4297 -0.0442  0.4462
19863SOL    HW161030   2.639   6.964   5.408 -0.9641  0.9592  1.3062
19863SOL    HW261031   2.662   6.932   5.554 -2.5235  0.2315  1.4195
19864SOL     OW61032   5.272   6.769   3.794 -0.4132  0.4666 -0.2142
19864SOL    HW161033   5.275   6.732   3.882 -1.1972 -0.7070 -0.6483
19864SOL    HW261034   5.229   6.702   3.741  2.5504 -0.1051 -2.1346
19865SOL     OW61035   6.035   6.956  10.451 -0.5316  0.0704  0.2944
19865SOL    HW161036   6.109   6.949  10.390 -2.3393 -2.4289 -1.7778
19865SOL    HW261037   5.991   7.037  10.425  1.0101  1.2200  1.0995
19866SOL     OW61038   4.032   5.171  10.271  0.3961  0.4158  0.0036
19866SOL    HW161039   3.955   5.119  10.250  0.4612  0.2615  0.1456
19866SOL    HW261040   4.093   5.153  10.199  0.6272 -0.1298  0.3350
19867SOL     OW61041   6.362   4.410   7.553 -0.3492  0.2465 -0.2768
19867SOL    HW161042   6.388   4.502   7.561 -0.6594  0.2935  0.2352
19867SOL    HW261043   6.374   4.374   7.640  0.6482 -0.4389 -0.6868
19868SOL     OW61044   3.633   2.269   2.900  0.8151  0.2533 -0.3368
19868SOL    HW161045   3.677   2.299   2.821  3.4215  0.0606  0.9229
19868SOL    HW261046   3.646   2.174   2.901  1.8739  0.3894  0.8757
19869SOL     OW61047   0.410   1.649   1.523 -0.5948 -0.0049 -0.2687
19869SOL    HW161048   0.328   1.650   1.474 -0.0724  0.2945 -1.1702
19869SOL    HW261049   0.394   1.591   1.597 -2.5775  2.3049  1.2689
19870SOL     OW61050   0.228   4.379  11.026  0.0145 -0.4696 -0.0671
19870SOL    HW161051   0.242   4.341  11.112  0.3570 -2.9519 -1.1373
19870SOL    HW261052   0.173   4.315  10.980  0.3435  0.4889 -1.8945
19871SOL     OW61053   5.310   2.044   5.715 -0.2315 -0.0972 -0.0889
19871SOL    HW161054   5.384   2.035   5.775 -0.0743 -1.0920 -0.4103
19871SOL    HW261055   5.233   2.034   5.771 -0.0861 -1.0393 -0.0436
19872SOL     OW61056   4.789   6.797   6.985  0.1060  0.3203 -0.4432
19872SOL    HW161057   4.733   6.847   6.926 -0.8526 -0.8928 -0.6037
19872SOL    HW261058   4.866   6.775   6.933  0.2010  0.9881 -0.5913
19873SOL     OW61059   7.401   2.131  11.158 -0.9746 -0.0543  0.0531
19873SOL    HW161060   7.333   2.194  11.133 -0.6379  0.2379 -0.1284
19873SOL    HW261061   7.352   2.054  11.189 -1.3857  0.6932  1.3022
19874SOL     OW61062   5.575   2.469  10.819  0.0479  0.1041  0.0359
19874SOL    HW161063   5.483   2.483  10.840 -0.1035 -1.7244  0.6950
19874SOL    HW261064   5.580   2.483  10.724 -1.5556 -2.7100 -0.5629
19875SOL     OW61065   7.308   5.648   0.562  0.6580  0.0370 -0.2228
19875SOL    HW161066   7.226   5.628   0.607  1.5505  0.1151  1.5210
19875SOL    HW261067   7.334   5.566   0.521  0.8617 -0.6420  1.1907
19876SOL     OW61068   6.332   6.145   4.852 -0.2572  0.3862 -0.4194
19876SOL    HW161069   6.384   6.083   4.801 -0.3892  0.1142 -0.2232
19876SOL    HW261070   6.265   6.176   4.791 -0.4827 -0.0222 -0.3807
19877SOL     OW61071   1.120   0.162   1.137  0.0585  0.0044 -0.0014
19877SOL    HW161072   1.065   0.237   1.161 -0.8605 -0.9210  0.8639
19877SOL    HW261073   1.076   0.086   1.175  0.7543 -1.0425 -1.2082
19878SOL     OW61074   2.616   2.154   3.020 -0.5355  0.5381 -0.2430
19878SOL    HW161075   2.626   2.242   3.058 -0.5017 -0.1919  1.5309
19878SOL    HW261076   2.593   2.170   2.929  0.0007  2.3892 -0.0998
19879SOL     OW61077   2.390   5.393   4.101 -0.0935  0.2514 -0.0694
19879SOL    HW161078   2.410   5.483   4.128  0.3436  0.3884 -0.8284
19879SOL    HW261079   2.294   5.389   4.104 -0.1553  0.9919 -0.7958
19880SOL     OW61080   5.372   4.197   3.638  0.1440  0.3654  0.1099
19880SOL    HW161081   5.465   4.200   3.659 -0.3399  0.0951  2.5169
19880SOL    HW261082   5.344   4.109   3.665 -0.7255  0.2143 -1.1614
19881SOL     OW61083   5.311   5.323   8.277 -0.2365 -0.1868  0.2607
19881SOL    HW161084   5.280   5.385   8.211 -0.5424 -1.4529 -0.8350
19881SOL    HW261085   5.232   5.274   8.303  0.2297 -1.1023 -0.0012
19882SOL     OW61086   0.865   1.161   3.617 -0.1042  0.1920  0.4572
19882SOL    HW161087   0.830   1.240   3.576  1.0337  0.0671 -0.8564
19882SOL    HW261088   0.833   1.164   3.707 -3.3205  0.1215 -0.5657
19883SOL     OW61089   3.816   0.953   1.604 -0.0519  0.1778  0.3835
19883SOL    HW161090   3.866   0.878   1.572 -1.5661 -0.8474  0.3448
19883SOL    HW261091   3.811   0.940   1.699 -0.7593 -0.0479  0.3159
19884SOL     OW61092   1.956   2.017   6.640 -0.2368 -0.0558 -0.2751
19884SOL    HW161093   1.969   2.018   6.546  2.3107 -0.3574  0.0050
19884SOL    HW261094   1.962   2.108   6.667  0.1806 -0.0739 -0.2968
19885SOL     OW61095   7.844   1.396   3.925  0.3599 -0.6125 -0.1730
19885SOL    HW161096   7.822   1.347   4.004 -1.6143  1.8684  0.9437
19885SOL    HW261097   7.791   1.475   3.930  3.1701  1.5849 -1.9611
19886SOL     OW61098   2.100   5.891   5.212 -0.2324 -0.4394 -0.3202
19886SOL    HW161099   2.134   5.947   5.142 -1.3069 -1.6500 -1.9057
19886SOL    HW261100   2.038   5.947   5.259  0.2231  0.2877 -0.5669
19887SOL     OW61101   2.397   5.749  10.130 -0.5365 -0.0127  0.2380
19887SOL    HW161102   2.403   5.672  10.074  1.6296 -0.3642  0.8499
19887SOL    HW261103   2.416   5.823  10.073  0.0800 -0.2126  0.1811
19888SOL     OW61104   0.275   3.633   8.295 -0.2232 -0.0251 -0.5111
19888SOL    HW161105   0.332   3.623   8.372  1.6190 -0.4225 -1.8702
19888SOL    HW261106   0.187   3.640   8.332  0.4597 -1.4496  1.5785
19889SOL     OW61107   2.849   6.346   2.218  0.1696  0.1339  0.0620
19889SOL    HW161108   2.774   6.385   2.263 -0.1288  0.0956 -0.3922
19889SOL    HW261109   2.850   6.388   2.132 -0.8621 -1.6492 -0.8798
19890SOL     OW61110   6.282   2.632   5.958  0.7090  0.5634 -0.4711
19890SOL    HW161111   6.332   2.560   5.996 -0.9796 -0.8485 -0.7891
19890SOL    HW261112   6.348   2.690   5.921  2.1276 -1.2939 -1.0381
19891SOL     OW61113   6.808   2.354   2.812  0.0459  0.1622 -0.2205
19891SOL    HW161114   6.856   2.272   2.815  1.2868  0.8931  1.9154
19891SOL    HW261115   6.729   2.338   2.864  1.2576  0.8119  1.9489
19892SOL     OW61116   7.550   1.151   2.966  0.2514  0.5626  0.0277
19892SOL    HW161117   7.527   1.242   2.949  0.0637  0.5949  0.4555
19892SOL    HW261118   7.608   1.127   2.893  0.7636  1.1973  0.2227
19893SOL     OW61119   5.447   4.760   7.561  0.1284  0.1696 -0.4101
19893SOL    HW161120   5.492   4.834   7.602 -0.6075  0.3272  0.1316
19893SOL    HW261121   5.375   4.740   7.620  0.0243 -0.6676 -0.8066
19894SOL     OW61122   6.790   4.139   2.841  0.2571  0.4987  0.2829
19894SOL    HW161123   6.843   4.198   2.788 -0.3869 -0.0654 -1.0297
19894SOL    HW261124   6.745   4.083   2.778  0.2734 -0.9102  1.4466
19895SOL     OW61125   7.731   6.267  10.748 -0.6752 -0.4167  0.7245
19895SOL    HW161126   7.761   6.205  10.815 -1.7590 -1.2028  0.5031
19895SOL    HW261127   7.689   6.213  10.682 -1.1354  0.5162  0.2323
19896SOL     OW61128   1.925   5.125   8.955 -0.1574  0.3469 -0.3961
19896SOL    HW161129   1.838   5.120   8.995 -0.1375  2.7584  0.1357
19896SOL    HW261130   1.976   5.180   9.016  1.1556  0.5791 -1.6430
19897SOL     OW61131   4.827   6.120   1.946 -0.3174  0.1290 -0.0807
19897SOL    HW161132   4.911   6.166   1.943 -0.2589  0.0338  0.0568
19897SOL    HW261133   4.851   6.027   1.940 -0.1653 -0.1306  2.9908
19898SOL     OW61134   0.338   3.124  10.765  0.5954  0.5822 -0.0521
19898SOL    HW161135   0.377   3.152  10.682 -0.0548 -1.4059 -1.0821
19898SOL    HW261136   0.396   3.054  10.797  0.6542  1.0929  1.0236
19899SOL     OW61137   0.452   1.634   0.916 -0.1244  0.0897  0.1227
19899SOL    HW161138   0.373   1.682   0.888  0.0459 -0.4411 -1.3248
19899SOL    HW261139   0.425   1.543   0.918  0.5144 -0.1307 -0.6767
19900SOL     OW61140   2.265   0.214  11.229  0.4460 -0.1457  0.1458
19900SOL    HW161141   2.351   0.255  11.225  0.1402  0.6166  0.9462
19900SOL    HW261142   2.272   0.150  11.300  0.5083 -0.4718 -0.1525
19901SOL     OW61143   1.469   1.558   8.538  0.4932  0.4013  0.0691
19901SOL    HW161144   1.459   1.615   8.461 -2.2003 -0.5948 -0.4428
19901SOL    HW261145   1.550   1.511   8.523  1.4492  2.2112 -0.7670
19902SOL     OW61146   5.819   4.110   2.900  0.1979  0.1622  0.4870
19902SOL    HW161147   5.731   4.147   2.901  0.4761  0.8576  2.2613
19902SOL    HW261148   5.877   4.186   2.907  1.0308 -0.1935 -1.5916
19903SOL     OW61149   7.764   2.047   7.792  0.2906 -0.5590 -0.7133
19903SOL    HW161150   7.734   2.084   7.874 -1.0282 -2.2003 -0.3994
19903SOL    HW261151   7.845   2.000   7.814  1.5013  1.2892 -0.9562
19904SOL     OW61152   0.436   7.398   0.378  0.2263  0.2486  0.3321
19904SOL    HW161153   0.506   7.459   0.356  0.4060 -0.1096 -0.1085
19904SOL    HW261154   0.455   7.371   0.467 -1.2066  2.6907  1.4809
19905SOL     OW61155   5.235   6.183  10.485 -0.2913 -0.6127  0.4295
19905SOL    HW161156   5.328   6.183  10.506 -0.5293 -0.2376  1.5361
19905SOL    HW261157   5.224   6.108  10.426  1.0084  0.4347 -1.2438
19906SOL     OW61158   2.430   0.646   8.965 -0.2329 -0.0718 -0.8065
19906SOL    HW161159   2.484   0.580   9.008 -1.1550 -1.3338 -1.5367
19906SOL    HW261160   2.493   0.702   8.919  0.6184  0.0992  0.4816
19907SOL     OW61161   5.198   5.990   1.885 -0.3037 -0.6518 -0.3591
19907SOL    HW161162   5.170   5.956   1.970  1.0549 -1.5158 -0.2249
19907SOL    HW261163   5.284   5.950   1.870  0.6915  1.5554 -0.9167
19908SOL     OW61164   6.930   7.013   8.205 -0.1353  0.5314 -0.2975
19908SOL    HW161165   6.970   7.075   8.266 -2.4381  0.7749  1.0824
19908SOL    HW261166   6.994   6.942   8.199  0.8111  1.1818  1.2777
19909SOL     OW61167   5.690   3.508  12.130 -0.2100  0.4187 -0.6211
19909SOL    HW161168   5.693   3.432  12.072 -1.3324 -0.6234  0.6232
19909SOL    HW261169   5.694   3.583  12.070 -3.6842 -0.5355 -2.3728
19910SOL     OW61170   4.095   1.909   4.736 -0.0751  0.1282 -0.0393
19910SOL    HW161171   4.115   1.951   4.820 -2.5539  1.0589  0.1481
19910SOL    HW261172   4.172   1.927   4.682  0.4945  1.7260  1.2229
19911SOL     OW61173   0.681   5.092  11.571  0.1798 -0.0937 -0.5079
19911SOL    HW161174   0.613   5.157  11.586  0.5629  0.9566 -2.8523
19911SOL    HW261175   0.756   5.124  11.622 -0.3365  0.0704  0.1499
19912SOL     OW61176   4.910   1.133   8.212  0.3093  0.4425 -0.1840
19912SOL    HW161177   4.892   1.153   8.304 -2.5244 -2.6131  0.0966
19912SOL    HW261178   4.835   1.167   8.164 -0.6056 -1.9894 -0.6454
19913SOL     OW61179   7.216   7.045   7.786  0.5453  0.1142  0.0013
19913SOL    HW161180   7.190   7.107   7.854  0.5016  0.3625 -0.2416
19913SOL    HW261181   7.141   6.985   7.779  0.4939  0.1693  0.0772
19914SOL     OW61182   1.064   2.216   5.844  0.1064  0.1364 -0.1748
19914SOL    HW161183   1.140   2.167   5.874  0.2477 -0.0673 -0.8424
19914SOL    HW261184   1.100   2.285   5.788 -0.2044 -0.0180 -0.5664
19915SOL     OW61185   6.239   0.651   1.542  0.0208  0.1892  0.2960
19915SOL    HW161186   6.248   0.711   1.467  0.6136 -0.6798 -0.3479
19915SOL    HW261187   6.209   0.569   1.503  0.9044 -0.4456  0.9292
19916SOL     OW61188   6.351   1.421   2.248 -0.0007 -0.0912 -0.2672
19916SOL    HW161189   6.278   1.443   2.191 -0.1875  2.7578  0.9133
19916SOL    HW261190   6.310   1.387   2.327 -0.1375  1.7827  0.5101
19917SOL     OW61191   1.462   1.644   3.604  0.3444  0.4725 -0.3173
19917SOL    HW161192   1.511   1.717   3.566 -0.1493  0.3303 -1.2664
19917SOL    HW261193   1.515   1.567   3.584 -0.2405  0.3152 -1.3690
19918SOL     OW61194   4.625   5.705  12.123  0.2709  0.2140 -0.2460
19918SOL    HW161195   4.529   5.706  12.114  0.2788 -1.1180 -0.7694
19918SOL    HW261196   4.651   5.796  12.113 -1.0300  0.7579  0.9407
19919SOL     OW61197   3.344   1.055  10.827  0.1135  0.7237  0.3430
19919SOL    HW161198   3.305   1.022  10.908 -0.9917  1.4884  0.1476
19919SOL    HW261199   3.318   0.992  10.760 -1.9882  1.9089 -0.0285
19920SOL     OW61200   1.622   5.067  10.038  0.6342  0.2620 -0.1418
19920SOL    HW161201   1.703   5.035   9.997 -0.3415  0.4014 -2.3235
19920SOL    HW261202   1.574   4.988  10.061  0.1886  0.1470 -1.4131
19921SOL     OW61203   2.269   2.202   5.584 -0.2591  0.3229  0.6343
19921SOL    HW161204   2.357   2.178   5.610  0.4576  1.1480 -0.8816
19921SOL    HW261205   2.249   2.281   5.634 -0.3442 -0.1277  1.3256
19922SOL     OW61206   1.853   5.473  10.407  0.2210  0.1750 -0.6101
19922SOL    HW161207   1.909   5.397  10.395 -1.0682 -0.7290 -1.1363
19922SOL    HW261208   1.898   5.527  10.472  0.1572 -2.0514  1.3872
19923SOL     OW61209   3.028   5.955   4.569 -0.0263  0.4631  0.1024
19923SOL    HW161210   3.101   6.010   4.542  0.1266 -0.0828 -0.6042
19923SOL    HW261211   3.068   5.885   4.620  0.0580 -0.3331 -1.0301
19924SOL     OW61212   4.619   6.601   2.975  0.6048  0.2476  0.0166
19924SOL    HW161213   4.688   6.588   3.039  0.9424  2.7828  0.2683
19924SOL    HW261214   4.663   6.596   2.890  0.5188 -1.0504  0.0210
19925SOL     OW61215   3.234   1.273   1.025  0.2695 -0.4367 -0.4085
19925SOL    HW161216   3.216   1.361   1.059 -2.0727 -0.5584 -1.1185
19925SOL    HW261217   3.328   1.262   1.036  0.2644  1.1235  2.1481
19926SOL     OW61218   6.224   4.456   5.931  0.0506 -0.1451 -0.2459
19926SOL    HW161219   6.210   4.491   5.843  0.5506 -1.9065 -1.0634
19926SOL    HW261220   6.140   4.467   5.975 -0.9382 -1.3351 -1.7323
19927SOL     OW61221   7.636   2.718   1.317 -0.1711  0.0773  0.2854
19927SOL    HW161222   7.590   2.801   1.322  0.3590  0.3102  1.8680
19927SOL    HW261223   7.664   2.700   1.407  1.8725 -0.5796 -0.4169
19928SOL     OW61224   0.824   6.441  12.313 -0.0656  0.3988  0.1572
19928SOL    HW161225   0.904   6.454  12.261 -1.0232  1.6536 -1.0789
19928SOL    HW261226   0.824   6.347  12.333  0.5386 -0.0748 -1.8272
19929SOL     OW61227   3.967   1.088   3.909 -0.6700 -0.4012  0.6617
19929SOL    HW161228   3.968   1.161   3.971 -1.0511  1.7600 -1.7115
19929SOL    HW261229   3.990   1.128   3.825  3.1952 -3.6947 -0.1823
19930SOL     OW61230   1.192   5.674   2.707  0.0074 -0.4002  0.4363
19930SOL    HW161231   1.126   5.738   2.678  0.7729  0.1324 -0.1614
19930SOL    HW261232   1.276   5.718   2.693  0.6939 -2.2669 -1.9320
19931SOL     OW61233   1.325   2.362   0.893  0.2835 -0.0204  0.4612
19931SOL    HW161234   1.362   2.277   0.868  1.7614  0.8053 -0.2779
19931SOL    HW261235   1.257   2.379   0.827 -1.4587 -1.5113  1.7804
19932SOL     OW61236   1.585   2.667   0.714 -0.9833 -0.5053  0.1273
19932SOL    HW161237   1.545   2.754   0.709 -1.1129 -0.4744  1.3495
19932SOL    HW261238   1.532   2.613   0.655 -0.1872  0.4756 -1.5710
19933SOL     OW61239   3.206   3.064  10.568  0.1279 -0.2843  0.0980
19933SOL    HW161240   3.260   3.137  10.598 -1.1228  0.5894  0.3223
19933SOL    HW261241   3.267   3.005  10.525  1.4915 -0.0672  1.6429
19934SOL     OW61242   4.713   5.548   7.649  0.0025 -0.2723  0.3978
19934SOL    HW161243   4.735   5.478   7.710  3.0020  0.8643  0.7791
19934SOL    HW261244   4.718   5.508   7.563  0.7340 -0.7760  0.6649
19935SOL     OW61245   6.118   7.737   0.968 -0.3320  0.0258  0.6900
19935SOL    HW161246   6.043   7.760   0.914  0.7061  0.6800 -0.5155
19935SOL    HW261247   6.106   7.787   1.049 -1.8494 -0.8952  1.0656
19936SOL     OW61248   4.160   4.697  12.336 -0.0336 -0.5733 -0.1496
19936SOL    HW161249   4.158   4.611  12.294  0.9694 -0.2536 -0.8712
19936SOL    HW261250   4.107   4.753  12.279  0.7325 -0.3096 -0.6064
19937SOL     OW61251   1.738   6.489   6.004 -0.1858 -0.5046 -0.5371
19937SOL    HW161252   1.788   6.408   6.014  1.1357  0.1874 -1.2557
19937SOL    HW261253   1.655   6.462   5.964  0.5913 -1.3994 -1.5690
19938SOL     OW61254   1.746   3.715   7.677  0.4614 -0.2604 -0.0452
19938SOL    HW161255   1.780   3.650   7.739 -0.5685  0.2116  1.0628
19938SOL    HW261256   1.742   3.796   7.727  0.2222  0.2918 -0.9372
19939SOL     OW61257   0.606   6.670   8.021 -0.3093  0.0100 -0.5387
19939SOL    HW161258   0.581   6.672   7.928 -1.3828 -1.7701 -0.3282
19939SOL    HW261259   0.571   6.588   8.054 -2.0691  1.6407  2.0578
19940SOL     OW61260   5.380   1.051   6.368 -0.1114  0.1690  0.2255
19940SOL    HW161261   5.339   1.001   6.297 -1.1855  0.7377  0.4280
19940SOL    HW261262   5.371   1.143   6.342 -0.9160  0.4157  1.2824
19941SOL     OW61263   3.425   4.704   6.347  0.6035 -0.0641 -0.3859
19941SOL    HW161264   3.406   4.789   6.308 -0.5650 -0.8155 -1.5431
19941SOL    HW261265   3.428   4.721   6.442 -0.9295  1.0304 -0.4996
19942SOL     OW61266   3.796   4.761  12.040 -0.0532 -0.1453 -0.0458
19942SOL    HW161267   3.752   4.846  12.036 -2.4212 -1.2390  1.0828
19942SOL    HW261268   3.769   4.716  11.961  0.7384 -0.0983 -0.3570
19943SOL     OW61269   4.857   3.152  10.455 -0.1824 -0.3380  0.0620
19943SOL    HW161270   4.863   3.247  10.466  0.4354 -0.3697  0.0509
19943SOL    HW261271   4.873   3.116  10.542  2.5333 -0.5134 -0.3951
19944SOL     OW61272   6.560   6.834   8.593  0.0438  0.3034 -0.1810
19944SOL    HW161273   6.596   6.872   8.513 -0.5749  0.0454 -0.5923
19944SOL    HW261274   6.636   6.798   8.639  0.1916 -1.4636 -1.6938
19945SOL     OW61275   7.444   5.109   7.447 -0.0722 -0.6720  0.0130
19945SOL    HW161276   7.407   5.051   7.513 -1.0790 -0.0854 -0.0224
19945SOL    HW261277   7.482   5.050   7.381 -0.2360 -1.2678  0.4499
19946SOL     OW61278   5.127   4.293  11.253 -0.1094 -0.3429 -0.3305
19946SOL    HW161279   5.113   4.223  11.189 -0.9904  0.1484 -0.6925
19946SOL    HW261280   5.222   4.305  11.255 -0.0048 -1.0356 -0.8179
19947SOL     OW61281   0.381   6.206   6.664 -0.2459 -0.3886 -0.1884
19947SOL    HW161282   0.451   6.143   6.649 -0.6245 -1.0188  0.6191
19947SOL    HW261283   0.426   6.291   6.669  0.5367 -0.8364  0.8207
19948SOL     OW61284   5.901   1.038   8.710  0.9006 -0.0852 -0.2840
19948SOL    HW161285   5.905   1.129   8.739 -1.5933  0.0297 -0.0270
19948SOL    HW261286   5.945   1.037   8.625 -0.0998  1.6580 -0.8651
19949SOL     OW61287   0.580   1.666  11.459 -0.1954  0.2396  0.2333
19949SOL    HW161288   0.631   1.610  11.518 -0.0693  0.0254 -0.0715
19949SOL    HW261289   0.513   1.608  11.423  1.3576 -0.3989 -1.9060
19950SOL     OW61290   3.265   5.203   6.199 -0.3825  0.8886 -0.6223
19950SOL    HW161291   3.314   5.127   6.229 -1.3373  0.2711 -0.5722
19950SOL    HW261292   3.208   5.225   6.273 -1.4802  0.4506 -1.3123
19951SOL     OW61293   3.066   4.650  11.165  0.7842 -0.6623 -0.2167
19951SOL    HW161294   3.130   4.589  11.128  2.3601  1.7051 -1.6938
19951SOL    HW261295   3.118   4.716  11.210 -0.6811  0.5810 -0.2355
19952SOL     OW61296   6.672   1.711   3.647  0.3353 -0.4903 -0.0411
19952SOL    HW161297   6.609   1.689   3.578  2.0985  1.5607 -2.4894
19952SOL    HW261298   6.757   1.697   3.607  1.4571  2.3711  1.0859
19953SOL     OW61299   0.833   2.295   7.386 -0.0745 -0.9028 -0.2920
19953SOL    HW161300   0.858   2.304   7.478  0.8723  2.3377 -0.7586
19953SOL    HW261301   0.801   2.381   7.361  1.5500 -1.0715 -3.5044
19954SOL     OW61302   2.245   4.473   0.945  0.0380 -0.2972  0.0159
19954SOL    HW161303   2.247   4.514   1.032  0.5454  0.8765 -0.5357
19954SOL    HW261304   2.204   4.388   0.960  1.7387 -0.8883  1.7194
19955SOL     OW61305   6.122   6.259   5.717  0.0635  0.3764  0.5451
19955SOL    HW161306   6.052   6.318   5.743  0.5529  1.3189 -0.2121
19955SOL    HW261307   6.197   6.285   5.770  0.1981  0.2333  0.4264
19956SOL     OW61308   1.724   7.736   8.126  0.3695 -0.4727  0.0406
19956SOL    HW161309   1.637   7.750   8.089 -0.3016  1.5138  2.1530
19956SOL    HW261310   1.781   7.728   8.050 -1.4443 -0.3795 -1.3994
19957SOL     OW61311   2.258   6.727  12.281 -0.1120  0.4938  0.0933
19957SOL    HW161312   2.215   6.810  12.260 -0.7310 -0.1272 -1.2206
19957SOL    HW261313   2.260   6.679  12.198  2.3420  0.1085  0.2857
19958SOL     OW61314   2.772   2.308   7.314 -0.1029  0.6704 -0.2997
19958SOL    HW161315   2.681   2.333   7.330  0.4407  3.1429 -0.6784
19958SOL    HW261316   2.775   2.290   7.220 -0.1551  0.8850 -0.3442
19959SOL     OW61317   3.681   0.300   8.600 -0.2661  0.0622  0.0779
19959SOL    HW161318   3.673   0.299   8.695  1.3154 -0.1889  0.2371
19959SOL    HW261319   3.626   0.228   8.570 -0.3414 -0.2109  0.8469
19960SOL     OW61320   7.392   6.577   3.823  0.0991  0.7778  0.1536
19960SOL    HW161321   7.401   6.487   3.793 -0.1003  0.4102  1.1434
19960SOL    HW261322   7.312   6.577   3.875  1.7662  0.6875  2.9353
19961SOL     OW61323   5.448   1.790   0.245  0.0883  0.6963  0.3294
19961SOL    HW161324   5.451   1.849   0.170  0.1757  0.4931  0.1689
19961SOL    HW261325   5.449   1.702   0.205  0.1386  0.5890  0.5693
19962SOL     OW61326   5.110   0.184  10.754  0.0674 -0.2667  0.1748
19962SOL    HW161327   5.147   0.158  10.838  1.7581  0.3495 -0.3438
19962SOL    HW261328   5.154   0.266  10.732 -3.8608  2.2922  0.9338
19963SOL     OW61329   0.098   7.882   1.826 -0.0103  0.5169 -0.0683
19963SOL    HW161330   0.101   7.877   1.921  0.3944  1.0530 -0.0462
19963SOL    HW261331   0.005   7.873   1.804 -0.0801  0.1801  0.3602
19964SOL     OW61332   2.126   3.787   6.922  0.2873 -0.7575  0.0429
19964SOL    HW161333   2.124   3.882   6.920  0.3066 -0.6927 -3.2290
19964SOL    HW261334   2.217   3.764   6.905  0.1215 -1.3213 -0.1378
19965SOL     OW61335   7.217   0.615   7.460  0.3087 -0.2697 -0.0438
19965SOL    HW161336   7.243   0.683   7.522  1.1095 -1.0294  0.4614
19965SOL    HW261337   7.124   0.633   7.444  0.8433  1.8932 -1.1324
19966SOL     OW61338   6.375   0.406   6.404 -0.5544  0.0104 -0.0789
19966SOL    HW161339   6.283   0.410   6.380 -1.4601 -0.8438  2.8554
19966SOL    HW261340   6.387   0.318   6.441  0.5912  1.1437  2.4723
19967SOL     OW61341   1.730   0.368   3.567  0.8364 -0.0838  0.2911
19967SOL    HW161342   1.777   0.349   3.485  1.5777  1.0383  0.4331
19967SOL    HW261343   1.782   0.436   3.610 -0.4214  0.5438  0.9084
19968SOL     OW61344   2.672   6.568   0.113 -0.2569 -0.0223  0.0914
19968SOL    HW161345   2.590   6.538   0.153 -1.4312  1.5118 -1.0521
19968SOL    HW261346   2.671   6.663   0.123  0.8223  0.1326 -0.9796
19969SOL     OW61347   4.831   0.275   1.889 -0.0053 -0.4951  0.3903
19969SOL    HW161348   4.801   0.228   1.967  0.0376 -1.0625  0.0703
19969SOL    HW261349   4.926   0.265   1.890  0.0901  0.3333  0.7870
19970SOL     OW61350   3.621   1.435  11.320  0.2439  0.4266 -0.2191
19970SOL    HW161351   3.666   1.374  11.262  1.8552 -0.5624  1.9196
19970SOL    HW261352   3.535   1.396  11.335  1.7863 -2.3784  2.3946
19971SOL     OW61353   5.150   5.495   7.928  0.2565  0.6404  0.1079
19971SOL    HW161354   5.068   5.538   7.903 -1.2651 -1.5211  0.9547
19971SOL    HW261355   5.169   5.528   8.016 -0.2413  0.4778  0.2813
19972SOL     OW61356   2.586   3.700   3.994  0.3406  0.4545  0.3656
19972SOL    HW161357   2.583   3.787   3.954 -2.0814  0.4140  0.3321
19972SOL    HW261358   2.554   3.642   3.926  0.7874 -0.3050  0.7957
19973SOL     OW61359   3.415   0.206   5.666  0.1426 -0.1179 -0.4908
19973SOL    HW161360   3.507   0.182   5.678  0.2059 -0.2104 -1.0887
19973SOL    HW261361   3.379   0.135   5.612 -0.2620 -0.0463 -0.3206
19974SOL     OW61362   1.778   2.311  12.225 -0.6416  0.3993 -0.5835
19974SOL    HW161363   1.749   2.223  12.251  1.1086 -0.2181 -0.5763
19974SOL    HW261364   1.712   2.340  12.163 -1.5131 -0.7285 -0.2242
19975SOL     OW61365   3.978   1.275   8.397 -0.0839 -0.6227  0.9196
19975SOL    HW161366   3.968   1.229   8.313 -0.4502 -0.3541  0.8174
19975SOL    HW261367   3.968   1.368   8.375  2.0247 -0.3347  0.8866
19976SOL     OW61368   2.992   0.462   8.884 -0.2238  0.3556  0.3724
19976SOL    HW161369   3.064   0.510   8.842  0.8485 -0.3785  1.2962
19976SOL    HW261370   2.916   0.480   8.829  0.4831  1.8113 -0.1849
19977SOL     OW61371   0.616   5.135   9.181  0.4009  0.1564  0.0354
19977SOL    HW161372   0.574   5.071   9.124 -1.5108 -0.9362  2.4920
19977SOL    HW261373   0.549   5.203   9.193  1.6120  1.5452 -0.7770
19978SOL     OW61374   3.835   2.212   1.924 -0.0404  0.7670  0.2868
19978SOL    HW161375   3.907   2.270   1.947  0.1525  0.3341  0.7821
19978SOL    HW261376   3.849   2.192   1.831  0.4700  0.6914  0.3792
19979SOL     OW61377   5.801   7.901   0.471  0.5672  0.5463 -0.2600
19979SOL    HW161378   5.729   7.855   0.427 -0.4995  3.1652 -1.5122
19979SOL    HW261379   5.776   7.901   0.563  0.2811 -0.7728 -0.3174
19980SOL     OW61380   3.342   4.303   5.877  0.0296  0.2237 -0.3731
19980SOL    HW161381   3.285   4.372   5.910  0.8786  1.2457 -0.9966
19980SOL    HW261382   3.415   4.349   5.836  0.8766 -1.0532 -0.3579
19981SOL     OW61383   0.988   3.105  11.846 -0.3799  0.1933 -0.5035
19981SOL    HW161384   1.034   3.047  11.906  1.6996  1.6176 -0.6212
19981SOL    HW261385   1.041   3.105  11.767  0.1437  2.8320 -0.2281
19982SOL     OW61386   0.605   0.654   5.841 -0.4417  0.3581 -0.1205
19982SOL    HW161387   0.612   0.749   5.832  0.0226  0.1949 -1.8661
19982SOL    HW261388   0.690   0.626   5.874 -0.1550  0.4414 -0.7797
19983SOL     OW61389   2.404   5.360   9.021 -0.0587  0.2090  0.3786
19983SOL    HW161390   2.415   5.444   8.976 -1.0119 -0.8656 -2.0185
19983SOL    HW261391   2.369   5.384   9.107  1.9407  2.3653  0.7071
19984SOL     OW61392   7.926   7.050   3.086 -0.0341 -0.0747 -0.2293
19984SOL    HW161393   7.843   7.088   3.116 -0.0544 -0.5813  0.3798
19984SOL    HW261394   7.903   7.000   3.008 -0.5379 -1.1671  0.5828
19985SOL     OW61395   2.987   3.605   3.548  0.1545 -0.0715  0.0350
19985SOL    HW161396   3.044   3.620   3.473  2.2084 -1.7829  1.1317
19985SOL    HW261397   2.947   3.690   3.566  3.9139  1.8269  0.3306
19986SOL     OW61398   2.469   6.820   2.364 -0.0500 -0.0537 -0.5535
19986SOL    HW161399   2.435   6.779   2.285  1.3100 -1.5345 -0.4163
19986SOL    HW261400   2.443   6.761   2.435 -0.8310  1.0027  0.0706
19987SOL     OW61401   3.199   5.411   6.925 -0.5801 -0.1430 -0.5078
19987SOL    HW161402   3.124   5.409   6.865  0.2368 -0.5855 -1.5431
19987SOL    HW261403   3.194   5.498   6.966 -0.4657  0.6783 -2.1489
19988SOL     OW61404   7.867   2.482   7.414  0.0226 -0.2582 -0.1762
19988SOL    HW161405   7.924   2.406   7.416  1.2266  0.5956 -0.6398
19988SOL    HW261406   7.786   2.453   7.454  0.7062 -1.5709  0.2972
19989SOL     OW61407   1.908   6.022   9.533  0.1451  0.0348 -0.7257
19989SOL    HW161408   1.886   5.950   9.473  0.7250  0.1195 -1.0453
19989SOL    HW261409   2.001   6.037   9.519  0.7532 -1.1964  1.5599
19990SOL     OW61410   7.705   1.275   6.004  0.1511 -0.1341  1.5454
19990SOL    HW161411   7.750   1.238   6.080  3.0301 -0.2159 -0.0651
19990SOL    HW261412   7.771   1.329   5.961 -0.9003 -1.1713 -1.6657
19991SOL     OW61413   0.844   4.494   1.200  0.0093  0.0449 -0.6037
19991SOL    HW161414   0.851   4.420   1.140 -0.3576 -0.3863 -0.1263
19991SOL    HW261415   0.794   4.560   1.152 -0.8495 -0.5508 -0.5395
19992SOL     OW61416   5.219   2.663   6.010 -0.1198 -0.1706 -0.1612
19992SOL    HW161417   5.240   2.754   6.029  0.0658 -0.1462 -0.4868
19992SOL    HW261418   5.140   2.667   5.957 -1.8793 -0.3067  2.2623
19993SOL     OW61419   5.431   7.250   4.230  0.2358  1.1540 -0.1503
19993SOL    HW161420   5.490   7.316   4.192  1.7482 -0.5668 -0.9468
19993SOL    HW261421   5.347   7.266   4.187  0.4592  2.7412 -0.0758
19994SOL     OW61422   2.210   1.585   4.299  0.1375 -0.1314  0.2396
19994SOL    HW161423   2.129   1.535   4.294 -0.4533  0.9033 -1.1737
19994SOL    HW261424   2.193   1.652   4.365  0.2898 -0.6641  0.8269
19995SOL     OW61425   1.749   7.580   3.411  0.2826  0.0489  0.0946
19995SOL    HW161426   1.706   7.570   3.497  0.5753 -0.8595  0.1475
19995SOL    HW261427   1.816   7.512   3.411  0.2998  0.0645 -0.8497
19996SOL     OW61428   7.548   2.551   8.109  0.0001  0.1543  0.0745
19996SOL    HW161429   7.582   2.495   8.040 -2.5404 -2.3402  0.6385
19996SOL    HW261430   7.611   2.542   8.181 -0.1760 -1.8236  0.0311
19997SOL     OW61431   1.104   6.842   1.371 -0.2513 -0.4162 -0.5758
19997SOL    HW161432   1.048   6.878   1.302  0.3009 -2.6841 -2.3060
19997SOL    HW261433   1.178   6.803   1.325  1.1807 -0.2403  1.4586
19998SOL     OW61434   0.793   2.796  11.973  0.2487 -0.1392 -0.3219
19998SOL    HW161435   0.697   2.799  11.969  0.1751 -2.3553 -1.7871
19998SOL    HW261436   0.813   2.803  12.066 -1.2384  1.3699 -0.0521
19999SOL     OW61437   2.074   5.009   7.165 -0.4926  0.1296  0.2444
19999SOL    HW161438   2.102   5.071   7.233 -0.6614  1.7345 -1.1063
19999SOL    HW261439   1.995   4.968   7.202  0.0306  0.1704  1.4616
20000SOL     OW61440   0.402   4.559  10.946  0.2735 -0.5181  0.5004
20000SOL    HW161441   0.455   4.543  11.025  1.1842 -0.8270 -0.1522
20000SOL    HW261442   0.341   4.485  10.943  1.2404 -1.3222  0.1205
20001SOL     OW61443   0.286   1.114   8.194 -0.1299  0.4105 -0.6351
20001SOL    HW161444   0.380   1.122   8.185 -0.0337 -1.6160 -2.0060
20001SOL    HW261445   0.274   1.051   8.266 -0.6288  3.8139  2.5974
20002SOL     OW61446   0.679   1.099   0.465  0.3397 -0.3874 -0.8311
20002SOL    HW161447   0.658   1.185   0.501 -2.2984 -1.0398 -0.5816
20002SOL    HW261448   0.714   1.050   0.540  1.4652  0.3023 -0.8786
20003SOL     OW61449   7.662   3.573  10.091  0.6627  0.3678  0.6178
20003SOL    HW161450   7.596   3.525  10.142  1.4728 -0.4338  0.9301
20003SOL    HW261451   7.625   3.580  10.003  0.7718 -1.3605  0.4055
20004SOL     OW61452   1.936   0.944  10.760  0.4427 -0.0531  0.1913
20004SOL    HW161453   2.027   0.973  10.759  0.2315  0.9002 -3.0962
20004SOL    HW261454   1.892   1.007  10.817  1.1648  2.2894 -1.6597
20005SOL     OW61455   7.175   1.521   4.933  0.2196 -0.2277  0.0353
20005SOL    HW161456   7.201   1.429   4.931  0.9377 -0.0293 -1.9280
20005SOL    HW261457   7.110   1.529   4.862  0.3862  0.8262 -0.0114
20006SOL     OW61458   3.300   1.423   6.842 -0.3513  0.1679 -0.2275
20006SOL    HW161459   3.244   1.420   6.765  0.0760  1.7341 -0.6417
20006SOL    HW261460   3.240   1.435   6.916 -0.8118 -1.9884 -0.2017
20007SOL     OW61461   1.933   1.472   3.895  0.4487 -0.4030  0.1152
20007SOL    HW161462   2.020   1.496   3.927  0.6239 -1.5253  0.5362
20007SOL    HW261463   1.916   1.533   3.824  1.3487  0.1826  0.3846
20008SOL     OW61464   0.744   7.319   6.838 -0.0858 -0.8694  0.6592
20008SOL    HW161465   0.787   7.314   6.752 -2.7048 -2.4017 -0.6845
20008SOL    HW261466   0.743   7.412   6.859  0.9113 -0.4956 -0.8087
20009SOL     OW61467   7.101   2.856   3.367 -0.4320  0.2558 -0.5821
20009SOL    HW161468   7.114   2.942   3.328  0.6735 -0.7111 -2.4594
20009SOL    HW261469   7.175   2.845   3.427  0.7842 -0.2882 -2.1118
20010SOL     OW61470   6.732   2.449  11.316 -0.6227  0.3365 -0.0795
20010SOL    HW161471   6.763   2.361  11.297 -1.5442  0.2271 -1.2451
20010SOL    HW261472   6.788   2.481  11.386 -2.0398 -2.2181  2.3947
20011SOL     OW61473   2.313   2.575  11.363  0.1233  0.1365  0.4959
20011SOL    HW161474   2.345   2.571  11.453  0.7722 -1.6660  0.2304
20011SOL    HW261475   2.360   2.505  11.318 -1.6864 -0.3597 -0.7426
20012SOL     OW61476   1.354   1.152   0.375 -0.3577  0.2818 -0.1707
20012SOL    HW161477   1.383   1.155   0.466  0.1128  2.1028 -0.3512
20012SOL    HW261478   1.259   1.162   0.381 -0.2988  0.7116  0.1127
20013SOL     OW61479   7.554   5.390   2.567 -0.1222 -0.0854  0.1500
20013SOL    HW161480   7.529   5.478   2.540 -1.4701  0.1108  1.9112
20013SOL    HW261481   7.478   5.336   2.548  0.1897 -0.6134  0.3644
20014SOL     OW61482   7.175   2.275   0.363 -0.0428 -0.6812 -0.2337
20014SOL    HW161483   7.116   2.351   0.359  0.5685 -0.2302 -1.8060
20014SOL    HW261484   7.122   2.202   0.330 -0.0592 -0.5014 -0.6177
20015SOL     OW61485   4.548   7.381   6.484  0.1308 -0.3740 -0.1491
20015SOL    HW161486   4.484   7.344   6.545  1.1886 -0.6394  0.8184
20015SOL    HW261487   4.514   7.357   6.397 -0.8068 -0.9544  0.3576
20016SOL     OW61488   4.358   1.908   5.525 -0.0245 -0.8408  0.2799
20016SOL    HW161489   4.292   1.845   5.553  0.8179 -1.5672  0.6989
20016SOL    HW261490   4.308   1.982   5.492 -1.0422 -1.8740 -0.5730
20017SOL     OW61491   1.507   1.172   9.604 -0.5636  0.8394 -0.2085
20017SOL    HW161492   1.510   1.108   9.674 -1.9622  0.0183 -0.8584
20017SOL    HW261493   1.476   1.123   9.528  1.2819  1.5959 -1.5471
20018SOL     OW61494   5.980   7.350   4.844 -0.3595 -0.0588  0.6524
20018SOL    HW161495   5.935   7.411   4.786 -1.4649  0.9647  2.4728
20018SOL    HW261496   5.940   7.265   4.824  0.0143  0.0789 -0.7609
20019SOL     OW61497   3.783   1.651   0.552 -0.0515 -0.2751 -0.2744
20019SOL    HW161498   3.775   1.669   0.646 -0.2842 -1.3667 -0.0728
20019SOL    HW261499   3.737   1.723   0.510 -0.6138 -0.1841  0.4795
20020SOL     OW61500   2.852   6.224   6.190 -0.7272 -0.3395 -0.1693
20020SOL    HW161501   2.886   6.193   6.106 -1.5741 -0.7131 -0.3859
20020SOL    HW261502   2.922   6.279   6.225 -0.5339  0.2158 -1.3450
20021SOL     OW61503   0.677   1.150   8.364  0.6118 -0.3898  0.1951
20021SOL    HW161504   0.636   1.165   8.449  0.2366  0.5402 -0.1443
20021SOL    HW261505   0.767   1.179   8.375  1.2441 -2.4064  0.9313
20022SOL     OW61506   2.632   5.178   5.339 -0.1402 -0.0227  0.4198
20022SOL    HW161507   2.581   5.236   5.282 -0.0542 -0.2250  0.1384
20022SOL    HW261508   2.623   5.217   5.426 -0.1670  0.3594  0.2491
20023SOL     OW61509   4.928   5.565   9.262  0.2106 -0.1706 -0.1747
20023SOL    HW161510   4.911   5.471   9.269  0.8362 -0.3904 -1.4029
20023SOL    HW261511   4.954   5.578   9.171  0.2670  1.1771  0.0209
20024SOL     OW61512   4.518   5.949   1.527  0.0743 -0.1493 -0.6809
20024SOL    HW161513   4.515   6.039   1.495 -0.2658  0.2326  0.3940
20024SOL    HW261514   4.566   5.955   1.609  0.5648 -1.0468 -0.8947
20025SOL     OW61515   2.897   1.057   0.216 -0.1521 -0.6260 -0.2075
20025SOL    HW161516   2.821   1.091   0.169 -0.9415 -2.4638 -0.3595
20025SOL    HW261517   2.943   1.004   0.150  1.1305  0.2502 -0.0408
20026SOL     OW61518   4.204   3.379  10.568 -0.6916 -0.2941  0.6025
20026SOL    HW161519   4.192   3.424  10.485  0.5505 -0.4921  0.2845
20026SOL    HW261520   4.122   3.392  10.616 -0.9821  0.8167 -0.1793
20027SOL     OW61521   3.782   4.732   3.104  0.3932  0.1017 -0.6845
20027SOL    HW161522   3.757   4.726   3.012 -1.4521 -1.3432 -0.1443
20027SOL    HW261523   3.841   4.658   3.118 -0.0368 -0.2105 -0.5075
20028SOL     OW61524   2.815   4.416   3.643 -0.5572  0.8406 -0.0017
20028SOL    HW161525   2.857   4.482   3.698  1.4385 -0.2110 -0.1715
20028SOL    HW261526   2.883   4.350   3.629 -1.4678  0.3245 -2.5073
20029SOL     OW61527   3.839   6.242   8.625 -0.4802 -0.5341 -0.4651
20029SOL    HW161528   3.874   6.201   8.704 -1.4335  0.3507  0.4458
20029SOL    HW261529   3.898   6.214   8.556  1.0224 -0.4760  0.7336
20030SOL     OW61530   6.375   6.004  10.532  0.7561 -0.0398 -0.7149
20030SOL    HW161531   6.368   5.998  10.437  2.8699 -0.1410 -0.9146
20030SOL    HW261532   6.456   6.053  10.548  0.3779  0.1012  1.0370
20031SOL     OW61533   0.872   4.599  10.954  0.2196  0.1068 -0.3052
20031SOL    HW161534   0.808   4.639  11.012  0.4111  0.0490 -0.0519
20031SOL    HW261535   0.955   4.641  10.977  0.0600  1.1943 -1.5859
20032SOL     OW61536   2.209   2.702   6.153 -0.3760 -0.0324  0.2297
20032SOL    HW161537   2.294   2.747   6.151  0.1567 -1.0237 -0.4396
20032SOL    HW261538   2.226   2.623   6.204 -0.9233 -0.1988  0.1543
20033SOL     OW61539   3.813   5.143   9.508  0.4232  0.1121  0.3515
20033SOL    HW161540   3.868   5.071   9.479 -0.7930 -0.3636 -0.8836
20033SOL    HW261541   3.845   5.219   9.459  0.3756 -0.0386  0.0832
20034SOL     OW61542   1.332   4.704   5.865 -0.6675 -0.3972  0.3094
20034SOL    HW161543   1.257   4.739   5.816 -0.4463  2.5114  1.8228
20034SOL    HW261544   1.302   4.702   5.955  0.3559 -1.3930  0.6368
20035SOL     OW61545   0.092   0.301   8.514  0.2819 -0.1139  0.0277
20035SOL    HW161546   0.077   0.207   8.504 -0.5817  0.1761 -1.9596
20035SOL    HW261547   0.007   0.336   8.540  0.8859  0.0251  1.9864
20036SOL     OW61548   0.668   2.642   7.641 -0.3112 -0.0583  0.1045
20036SOL    HW161549   0.668   2.709   7.572 -1.6260  0.0024  0.1355
20036SOL    HW261550   0.721   2.679   7.711  0.3881  0.2148 -0.5623
20037SOL     OW61551   1.361   3.497   2.612  0.8703  0.0035  0.1867
20037SOL    HW161552   1.296   3.473   2.547 -1.3576  1.8858  1.5760
20037SOL    HW261553   1.374   3.417   2.663 -3.0118  0.2974  1.9751
20038SOL     OW61554   6.758   0.037  11.236 -0.1787  0.3369 -0.0097
20038SOL    HW161555   6.712  -0.027  11.289  0.8613 -1.0039 -0.6549
20038SOL    HW261556   6.741   0.011  11.145  0.6320  0.6961 -0.2786
20039SOL     OW61557   6.242   3.569  11.489  0.5746 -0.2880  0.0109
20039SOL    HW161558   6.147   3.561  11.499  0.4607  0.4205 -0.3922
20039SOL    HW261559   6.279   3.522  11.563 -0.1499  1.6638  1.7102
20040SOL     OW61560   0.854   6.446   5.432  0.1498 -0.0059  0.0247
20040SOL    HW161561   0.770   6.462   5.474  0.3053  1.5901 -0.2048
20040SOL    HW261562   0.836   6.454   5.338 -0.1803 -3.4590 -0.3344
20041SOL     OW61563   7.389   4.050   8.493  0.2388  0.3414 -0.0447
20041SOL    HW161564   7.313   4.070   8.437  0.8958  1.3667 -0.6141
20041SOL    HW261565   7.353   4.047   8.582 -0.3861  1.4422 -0.2392
20042SOL     OW61566   7.334   0.934   9.718 -0.1772  0.3431 -0.3507
20042SOL    HW161567   7.402   0.889   9.669  0.5948 -0.7410  1.6155
20042SOL    HW261568   7.378   1.011   9.756 -0.5111  0.6265 -0.5250
20043SOL     OW61569   5.961   0.242   5.611  0.2893  0.3981  0.9011
20043SOL    HW161570   6.006   0.258   5.694 -0.1001 -2.9849  1.9236
20043SOL    HW261571   5.871   0.270   5.627  0.5191  1.0180  1.1438
20044SOL     OW61572   5.950   3.909   0.836 -0.2402 -0.0959 -0.7049
20044SOL    HW161573   5.906   3.850   0.774  0.2248 -0.2205 -0.9155
20044SOL    HW261574   5.909   3.888   0.921  0.5855 -1.4221 -0.6007
20045SOL     OW61575   6.328   6.527   7.882 -0.0394 -0.0957  0.5529
20045SOL    HW161576   6.329   6.489   7.970 -1.8503  0.7074  0.9605
20045SOL    HW261577   6.274   6.606   7.890  0.9143  0.7878 -0.9845
20046SOL     OW61578   0.586   6.138   3.183  0.4358  0.2576 -0.0411
20046SOL    HW161579   0.495   6.141   3.213 -0.0686 -0.9186 -1.3250
20046SOL    HW261580   0.582   6.159   3.089  1.4603  0.0427 -0.1550
20047SOL     OW61581   5.630   7.410   7.274  0.6971  0.0844  0.1257
20047SOL    HW161582   5.622   7.402   7.369  0.4710 -0.5146  0.0601
20047SOL    HW261583   5.707   7.465   7.261  1.0394 -0.2660  0.6456
20048SOL     OW61584   1.407   5.465  12.120 -0.5079 -0.5885 -0.2745
20048SOL    HW161585   1.445   5.399  12.177 -1.8649 -1.7276 -0.6327
20048SOL    HW261586   1.316   5.474  12.151 -1.0094 -0.5945 -1.6895
20049SOL     OW61587   2.688   5.520  10.062  0.0996 -0.4184 -0.5523
20049SOL    HW161588   2.644   5.563   9.988  1.1496 -0.8560 -1.4719
20049SOL    HW261589   2.763   5.577  10.081 -0.6623  0.1716  0.7987
20050SOL     OW61590   3.575   5.387   9.997 -0.1618  0.8753 -0.3849
20050SOL    HW161591   3.652   5.444  10.006  0.0614  0.4901  0.2330
20050SOL    HW261592   3.611   5.299   9.991 -0.4766  0.8303 -1.9807
20051SOL     OW61593   0.200   2.192  10.757 -0.0962  0.0422 -0.0476
20051SOL    HW161594   0.221   2.115  10.810  0.1602 -1.6940 -2.4672
20051SOL    HW261595   0.165   2.256  10.819 -1.8942 -2.6004  1.8918
20052SOL     OW61596   3.131   3.235   1.981 -0.2151 -0.1521 -0.3109
20052SOL    HW161597   3.109   3.141   1.979 -0.2253 -0.1940  0.8561
20052SOL    HW261598   3.200   3.245   1.915 -1.9516 -0.4847 -2.2716
20053SOL     OW61599   0.275   2.184   5.766 -0.3780  0.0569 -0.5842
20053SOL    HW161600   0.365   2.181   5.800 -0.4359 -0.5891 -0.4725
20053SOL    HW261601   0.220   2.163   5.841 -0.7187  1.7147 -0.3442
20054SOL     OW61602   3.990   2.894   6.368 -0.2389  0.5519  0.2055
20054SOL    HW161603   4.009   2.827   6.434  1.4787  0.3623 -0.4537
20054SOL    HW261604   4.000   2.850   6.284  1.5557  1.7533 -0.2667
20055SOL     OW61605   0.421   4.587  11.704 -0.3589  0.0177  0.3388
20055SOL    HW161606   0.429   4.535  11.623 -0.5252 -2.4263  1.7747
20055SOL    HW261607   0.328   4.604  11.712 -0.3295  0.3647 -0.0395
20056SOL     OW61608   6.706   5.096   4.662 -0.0809 -0.8073 -0.1050
20056SOL    HW161609   6.641   5.162   4.688  0.4698 -0.5256  0.5658
20056SOL    HW261610   6.669   5.013   4.693  0.3548 -0.5291  1.2283
20057SOL     OW61611   0.972   4.648   7.473 -0.3816 -0.4827  0.0303
20057SOL    HW161612   0.907   4.655   7.543 -1.5046 -1.0512 -0.9145
20057SOL    HW261613   0.947   4.715   7.409  0.3915 -0.2309 -0.0213
20058SOL     OW61614   3.433   0.962   6.846  0.3238 -0.3351  0.2732
20058SOL    HW161615   3.354   1.016   6.850  0.4169 -0.2672  1.3510
20058SOL    HW261616   3.403   0.873   6.863  0.4550 -0.3407  0.4704
20059SOL     OW61617   0.911   3.680   5.498 -0.2521 -0.2782 -0.2379
20059SOL    HW161618   0.988   3.708   5.448 -0.7130 -0.3957 -1.0324
20059SOL    HW261619   0.924   3.717   5.585 -0.0196  1.0063 -0.7875
20060SOL     OW61620   4.149   0.685   9.660  0.0907  0.3616  0.1781
20060SOL    HW161621   4.244   0.674   9.671  0.0351  1.4019  2.2230
20060SOL    HW261622   4.112   0.659   9.745 -1.3704  0.7558 -0.3135
20061SOL     OW61623   2.638   3.450   4.823 -0.0027  0.1270 -0.0431
20061SOL    HW161624   2.607   3.366   4.788  0.5128  0.0549 -0.3472
20061SOL    HW261625   2.648   3.434   4.917  1.1987 -0.5224 -0.2624
20062SOL     OW61626   0.480   6.687   3.597 -0.2777 -0.2086  0.2690
20062SOL    HW161627   0.435   6.668   3.515 -2.2992  0.1124  1.2451
20062SOL    HW261628   0.464   6.610   3.652  0.5613 -0.1687  0.5898
20063SOL     OW61629   7.808   0.955  11.027 -0.5805  0.0852  0.1382
20063SOL    HW161630   7.843   0.873  10.992 -1.0586  0.0347 -0.2266
20063SOL    HW261631   7.714   0.949  11.015 -0.5926  0.8527 -0.2576
20064SOL     OW61632   7.691   0.414   0.799  0.1734  0.6377 -0.0826
20064SOL    HW161633   7.752   0.462   0.743 -1.4185 -0.0298 -2.5738
20064SOL    HW261634   7.724   0.324   0.799 -0.2903  0.4614 -0.6902
20065SOL     OW61635   4.021   5.547   0.933  0.4855 -0.0346  0.0406
20065SOL    HW161636   4.044   5.537   1.025 -0.3056 -1.1934  0.1361
20065SOL    HW261637   3.963   5.473   0.915 -0.2198  0.7756 -1.1135
20066SOL     OW61638   1.262   6.745   2.760  0.1293  0.3089 -0.0478
20066SOL    HW161639   1.299   6.699   2.835  2.1217  0.2672 -0.9798
20066SOL    HW261640   1.284   6.690   2.685  0.0708  1.3881 -0.8856
20067SOL     OW61641   1.316   3.132   6.134  0.3947 -0.0904  0.1893
20067SOL    HW161642   1.397   3.181   6.122 -0.8240  1.9153 -0.3555
20067SOL    HW261643   1.297   3.094   6.048  0.4254 -0.0287  0.1557
20068SOL     OW61644   3.476   3.266   2.144  0.0523 -0.0741 -0.8317
20068SOL    HW161645   3.438   3.194   2.194 -0.8279  0.1253 -1.1807
20068SOL    HW261646   3.505   3.227   2.062 -3.0846  0.3419 -2.3253
20069SOL     OW61647   6.634   7.864   2.010  0.0298 -0.5012 -0.2005
20069SOL    HW161648   6.597   7.929   1.950  0.6129  1.3628  1.3646
20069SOL    HW261649   6.729   7.878   2.005  0.0842 -0.1631  1.2526
20070SOL     OW61650   2.025   0.159   1.046  0.2393 -0.0745 -0.1418
20070SOL    HW161651   2.108   0.150   0.999  0.5961  3.2036 -0.4244
20070SOL    HW261652   1.968   0.205   0.985 -0.1073  2.0442  1.6136
20071SOL     OW61653   4.850   4.564   9.515 -0.5815  0.3377 -0.1407
20071SOL    HW161654   4.841   4.623   9.440 -0.5462 -0.5768 -0.8852
20071SOL    HW261655   4.799   4.605   9.584  0.3630  1.8117 -0.2770
20072SOL     OW61656   3.312   2.625   6.051 -0.2341 -0.2071 -0.0820
20072SOL    HW161657   3.220   2.632   6.023 -0.2977 -0.7047 -0.0020
20072SOL    HW261658   3.361   2.671   5.982 -0.6039  0.7406  0.2727
20073SOL     OW61659   5.229   1.487   3.452  0.6004 -0.4316 -0.1791
20073SOL    HW161660   5.165   1.459   3.386 -0.6086 -0.2135  0.8774
20073SOL    HW261661   5.177   1.510   3.528  1.5613  3.4302 -0.4830
20074SOL     OW61662   0.145   3.865  12.095 -0.1184  0.3908 -0.2478
20074SOL    HW161663   0.240   3.876  12.101 -0.1149  0.1588  0.1374
20074SOL    HW261664   0.114   3.945  12.052  0.2591  0.4309 -0.4486
20075SOL     OW61665   7.506   7.324   0.466 -0.2366  0.2266 -0.1030
20075SOL    HW161666   7.580   7.264   0.459  0.1540  0.4776  1.5564
20075SOL    HW261667   7.439   7.275   0.513  0.0752  1.0578  1.2360
20076SOL     OW61668   1.355   1.696   0.493  0.3127 -0.6625 -0.6920
20076SOL    HW161669   1.302   1.617   0.481  0.4700 -0.8078 -0.4261
20076SOL    HW261670   1.326   1.755   0.422 -1.5469 -0.0200  0.5248
20077SOL     OW61671   7.792   5.588   2.698  0.0211 -0.4428  0.5055
20077SOL    HW161672   7.779   5.682   2.714 -1.3990 -0.4706 -0.2761
20077SOL    HW261673   7.772   5.547   2.782  0.1907 -0.0721  0.7302
20078SOL     OW61674   6.208   3.760   1.068 -0.0829  0.4641 -0.3992
20078SOL    HW161675   6.293   3.714   1.073  0.5404  1.5620 -0.6144
20078SOL    HW261676   6.181   3.750   0.977  0.0381  0.5084 -0.4396
20079SOL     OW61677   2.530   1.173   9.323  0.1889 -0.1668  0.3976
20079SOL    HW161678   2.539   1.099   9.263 -1.3863  0.0854 -0.1933
20079SOL    HW261679   2.439   1.170   9.352  0.0309  1.6656  0.1986
20080SOL     OW61680   4.841   7.305   1.759  0.9171 -0.2321 -0.2962
20080SOL    HW161681   4.892   7.273   1.833 -0.1065  0.4194  0.7132
20080SOL    HW261682   4.766   7.247   1.754 -0.3967  1.2924  0.8772
20081SOL     OW61683   4.316   1.934   8.551 -0.3096  0.2638 -0.3966
20081SOL    HW161684   4.314   1.839   8.545  2.1779  0.1008  0.2188
20081SOL    HW261685   4.244   1.956   8.610 -0.6144 -1.2727 -0.1563
20082SOL     OW61686   2.918   1.036   9.919 -0.3486 -0.9872  0.4690
20082SOL    HW161687   2.928   1.127   9.947  0.5392 -0.7542 -0.5393
20082SOL    HW261688   3.006   0.998   9.925 -0.4040 -1.3300 -0.5503
20083SOL     OW61689   1.152   4.009   8.879 -0.0147 -0.7191 -0.4145
20083SOL    HW161690   1.080   4.000   8.942 -0.0606  1.9369  0.0039
20083SOL    HW261691   1.219   3.949   8.911 -0.1335  0.3488  2.0785
20084SOL     OW61692   4.056   5.197   5.957 -0.2544 -0.0228  0.3068
20084SOL    HW161693   4.043   5.220   5.865  0.5303  1.1569  0.4677
20084SOL    HW261694   4.038   5.103   5.961 -0.6505 -0.0217 -0.9767
20085SOL     OW61695   6.998   6.717   2.313  0.3870  0.1290 -0.6260
20085SOL    HW161696   7.051   6.789   2.279 -1.1856  1.8047  0.2500
20085SOL    HW261697   6.993   6.734   2.407 -0.5673 -0.7523 -0.5043
20086SOL     OW61698   5.704   4.480   9.283 -0.0981 -0.2626  0.2346
20086SOL    HW161699   5.642   4.465   9.212 -0.9334  0.2515  0.8461
20086SOL    HW261700   5.662   4.544   9.340  1.3955  0.8338  0.1764
20087SOL     OW61701   0.219   3.031   5.588 -0.3487  0.0018 -0.7597
20087SOL    HW161702   0.161   2.999   5.518 -0.7270  0.5504 -0.7074
20087SOL    HW261703   0.245   2.952   5.636 -2.3023 -0.1374  0.1688
20088SOL     OW61704   1.363   6.414  11.580 -0.0423  0.4085  0.0762
20088SOL    HW161705   1.352   6.353  11.653 -1.0487 -0.8073 -1.0597
20088SOL    HW261706   1.404   6.491  11.620 -2.6348  0.7364  2.4379
20089SOL     OW61707   7.498   7.592   4.749  0.9049 -0.1010  0.2835
20089SOL    HW161708   7.578   7.574   4.699  0.6048 -1.5700  0.2844
20089SOL    HW261709   7.528   7.608   4.838  1.1293 -1.9546  0.5698
20090SOL     OW61710   0.100   2.716   5.601 -0.2105  0.2628  0.2997
20090SOL    HW161711   0.149   2.635   5.588 -2.1497 -1.1562  1.2275
20090SOL    HW261712   0.134   2.752   5.684 -1.1467 -1.0882  1.3192
20091SOL     OW61713   0.023   1.949   6.642  0.1289 -0.4751 -0.2343
20091SOL    HW161714   0.071   1.881   6.691  0.0711 -0.5936 -0.3429
20091SOL    HW261715  -0.067   1.943   6.674  0.5422  1.0611  1.4470
20092SOL     OW61716   6.092   3.173  11.133  0.3297 -0.3376  0.2073
20092SOL    HW161717   6.157   3.103  11.142  0.5011 -0.1043  0.8751
20092SOL    HW261718   6.102   3.203  11.042  0.4640 -0.9643  0.0067
20093SOL     OW61719   1.726   7.227   9.905 -0.3257  0.0985 -0.3384
20093SOL    HW161720   1.734   7.140   9.945 -2.4850  0.1400  0.2858
20093SOL    HW261721   1.816   7.261   9.905  0.2734 -1.3094  1.2904
20094SOL     OW61722   6.278   3.663   3.864 -0.0016  0.0289 -0.0647
20094SOL    HW161723   6.215   3.732   3.885  0.8291  0.4842  1.1036
20094SOL    HW261724   6.231   3.581   3.882  0.3161  0.3682  2.9542
20095SOL     OW61725   6.543   6.443   3.627  0.1944  0.0779  0.0264
20095SOL    HW161726   6.601   6.483   3.692  1.0268  1.8689 -1.7069
20095SOL    HW261727   6.599   6.429   3.551 -0.5786 -2.6003 -0.1437
20096SOL     OW61728   0.266   6.407   2.627 -1.0780  0.1419  1.0639
20096SOL    HW161729   0.250   6.314   2.610 -1.1690  0.3795 -0.2488
20096SOL    HW261730   0.345   6.428   2.577 -2.2510  1.2424 -0.4250
20097SOL     OW61731   0.311   1.778   7.380  0.4037  0.1574  0.1411
20097SOL    HW161732   0.216   1.779   7.390  0.1903 -1.1682 -1.4513
20097SOL    HW261733   0.342   1.717   7.446  0.0912  0.1238  0.2568
20098SOL     OW61734   5.836   3.138   4.497 -0.0831  0.3775  0.1038
20098SOL    HW161735   5.756   3.087   4.491  1.0810 -1.7759  1.4511
20098SOL    HW261736   5.822   3.197   4.571 -0.3248 -0.2138  0.5335
20099SOL     OW61737   3.637   2.787   2.797 -0.0181 -0.1633  0.0975
20099SOL    HW161738   3.617   2.702   2.836  0.0124 -0.2002  0.0331
20099SOL    HW261739   3.554   2.815   2.757 -0.4651  0.5782  1.4895
20100SOL     OW61740   3.179   0.170   2.787  0.2901 -0.1427  0.7071
20100SOL    HW161741   3.106   0.221   2.753 -0.3539 -1.1363  0.5661
20100SOL    HW261742   3.257   0.218   2.759 -0.2859  0.4147  0.0242
20101SOL     OW61743   7.314   2.932   1.401  0.2832 -0.3735 -0.1967
20101SOL    HW161744   7.342   2.848   1.436  0.7954  0.1219  0.6108
20101SOL    HW261745   7.344   2.996   1.465 -0.9549  0.3518 -0.2998
20102SOL     OW61746   6.255   2.252   5.948 -0.3198 -0.1202  0.0649
20102SOL    HW161747   6.319   2.301   5.896 -0.9769  1.6703  0.8655
20102SOL    HW261748   6.306   2.212   6.018  0.0369  0.7207  0.2952
20103SOL     OW61749   3.409   1.096   4.991  0.1789  0.3829  0.4060
20103SOL    HW161750   3.396   1.184   4.958 -0.2026  0.3134  0.3584
20103SOL    HW261751   3.495   1.098   5.033 -0.1028  0.9597  0.9856
20104SOL     OW61752   1.291   5.898   1.737 -0.3835  0.1419 -0.1800
20104SOL    HW161753   1.216   5.859   1.691 -1.3725  0.3779  1.1608
20104SOL    HW261754   1.367   5.867   1.689 -1.3091 -0.6162 -1.2245
20105SOL     OW61755   6.745   0.605   5.881 -0.0449 -0.4016 -0.3762
20105SOL    HW161756   6.746   0.539   5.812  0.0407 -0.7719 -0.0202
20105SOL    HW261757   6.755   0.688   5.834 -0.4470 -0.6145 -0.8492
20106SOL     OW61758   1.423   7.124  10.885 -0.2995 -0.2465 -0.1558
20106SOL    HW161759   1.470   7.154  10.963 -0.3473 -0.8371  0.0987
20106SOL    HW261760   1.455   7.182  10.815 -0.1271  0.1701  0.2617
20107SOL     OW61761   3.495   5.038   3.789  0.0057  0.1211 -0.3387
20107SOL    HW161762   3.541   5.048   3.705  0.1766  0.0280 -0.2583
20107SOL    HW261763   3.547   4.973   3.836 -0.8481 -0.8560 -0.7011
20108SOL     OW61764   6.738   1.488   3.873  0.2622  0.0024  0.0241
20108SOL    HW161765   6.676   1.473   3.802 -0.8679  0.5433  0.8579
20108SOL    HW261766   6.698   1.444   3.949  0.3644  1.2384  0.8177
20109SOL     OW61767   6.711   4.012   1.796  0.5767  0.3016 -0.3224
20109SOL    HW161768   6.727   4.041   1.707  1.5972  0.9653  0.0569
20109SOL    HW261769   6.640   4.069   1.827 -0.9663 -1.0439 -1.2240
20110SOL     OW61770   7.196   7.008  10.651  0.3057  0.1765  0.1504
20110SOL    HW161771   7.117   7.054  10.680 -0.6232 -0.9521 -0.5185
20110SOL    HW261772   7.181   6.916  10.675  0.2483 -0.5224 -2.2523
20111SOL     OW61773   4.665   1.795   2.078 -0.2656  0.1357 -0.1674
20111SOL    HW161774   4.676   1.838   1.993  0.6408 -1.9459 -1.2016
20111SOL    HW261775   4.747   1.811   2.124 -0.3238  0.3502 -0.1395
20112SOL     OW61776   5.152   0.711   8.621  0.4457 -0.6038 -0.2505
20112SOL    HW161777   5.183   0.627   8.589  1.6942  0.0284 -0.7368
20112SOL    HW261778   5.204   0.728   8.700  1.3151  0.4165 -1.0187
20113SOL     OW61779   1.530   7.008   1.928 -0.6409  0.4906 -0.0935
20113SOL    HW161780   1.506   7.077   1.866 -0.4056 -0.4234 -1.2186
20113SOL    HW261781   1.495   6.928   1.889 -0.3260 -0.1272  0.8712
20114SOL     OW61782   1.175   4.485   1.777 -0.0818 -0.1718  0.3499
20114SOL    HW161783   1.141   4.400   1.804 -1.0717 -0.1099 -0.6351
20114SOL    HW261784   1.133   4.547   1.836 -1.7832 -0.0957 -0.8512
20115SOL     OW61785   0.936   3.887   6.733  0.7438  0.1114 -0.5234
20115SOL    HW161786   0.868   3.821   6.718 -0.3280  0.8872  0.7150
20115SOL    HW261787   1.017   3.836   6.741 -0.0250 -1.0564  0.2073
20116SOL     OW61788   5.780   4.834   4.693  0.2059 -0.2353  0.3989
20116SOL    HW161789   5.794   4.787   4.775 -0.0281 -0.2721  0.4181
20116SOL    HW261790   5.726   4.909   4.716 -0.2182 -0.4787  0.2089
20117SOL     OW61791   1.368   1.654   1.183  0.7550  0.3498 -0.5423
20117SOL    HW161792   1.431   1.724   1.202 -0.5779  1.1648  1.2816
20117SOL    HW261793   1.336   1.627   1.269  0.9243 -2.2792 -1.2232
20118SOL     OW61794   2.205   4.685  12.057  0.1497 -0.3388 -0.1166
20118SOL    HW161795   2.225   4.596  12.085 -1.5954 -0.9931 -0.7815
20118SOL    HW261796   2.262   4.741  12.109  3.1000 -1.9327 -1.3935
20119SOL     OW61797   3.704   2.090   5.906  0.8840  0.4262  0.0277
20119SOL    HW161798   3.762   2.024   5.869  0.7097  0.4274 -0.2471
20119SOL    HW261799   3.660   2.129   5.830 -1.4107 -1.3302  0.3497
20120SOL     OW61800   7.439   7.539   1.776 -0.1968 -0.4221 -0.0853
20120SOL    HW161801   7.384   7.493   1.839  0.0458 -0.4244  0.1232
20120SOL    HW261802   7.523   7.550   1.820 -0.0888 -0.2468 -0.3315
20121SOL     OW61803   0.650   4.380   8.352  0.1943  0.0336  0.1873
20121SOL    HW161804   0.717   4.448   8.358  0.8159 -0.2940 -2.0292
20121SOL    HW261805   0.567   4.428   8.354  0.5933  0.7385  0.0919
20122SOL     OW61806   7.015   4.673   8.329 -0.4442 -0.6083 -0.0349
20122SOL    HW161807   7.065   4.606   8.282 -0.1099  0.0264 -0.5908
20122SOL    HW261808   7.058   4.755   8.307 -1.6354 -0.0643 -0.3925
20123SOL     OW61809   0.906   6.941   6.613  0.2674 -0.2226 -0.5108
20123SOL    HW161810   0.830   6.922   6.667 -0.1546 -0.4901 -1.1859
20123SOL    HW261811   0.941   7.023   6.647 -0.9344  0.4450 -0.8556
20124SOL     OW61812   6.959   4.256   2.624  0.1926 -0.0723  0.3335
20124SOL    HW161813   6.893   4.281   2.559 -1.7360 -1.5712  1.6173
20124SOL    HW261814   7.015   4.194   2.578 -0.5160 -0.3278 -0.2067
20125SOL     OW61815   7.635   0.431   6.613  0.2619 -0.6681 -0.0297
20125SOL    HW161816   7.566   0.412   6.677 -0.2294 -0.9957 -0.6583
20125SOL    HW261817   7.597   0.497   6.556  0.6526 -0.4830 -0.0800
20126SOL     OW61818   6.400   5.988   7.265 -0.5070  0.0406 -0.3710
20126SOL    HW161819   6.346   5.930   7.213  0.7273 -1.1819 -0.3519
20126SOL    HW261820   6.348   6.007   7.343 -1.2566 -0.3601 -0.7695
20127SOL     OW61821   7.796   5.309   7.230  0.3401 -0.4230  0.1894
20127SOL    HW161822   7.853   5.372   7.274 -1.3444  1.2472  0.0849
20127SOL    HW261823   7.774   5.245   7.298  2.1513 -1.0240  0.2682
20128SOL     OW61824   2.572   4.646  11.598 -0.1480  0.1905  0.6854
20128SOL    HW161825   2.662   4.619  11.618 -0.2252  1.2215  2.7287
20128SOL    HW261826   2.523   4.564  11.595  0.3141 -0.2231  2.7875
20129SOL     OW61827   1.057   4.131   0.847 -0.3134 -0.1313  0.0959
20129SOL    HW161828   1.119   4.068   0.884 -0.2129 -0.3232 -0.3926
20129SOL    HW261829   1.005   4.079   0.784 -0.6454  0.1339  0.1510
20130SOL     OW61830   5.497   6.052   8.974 -0.1896  0.1368  0.3849
20130SOL    HW161831   5.511   6.090   8.888  1.2441  2.7388  1.6437
20130SOL    HW261832   5.576   6.001   8.991 -0.4181 -0.2767  0.2071
20131SOL     OW61833   0.450   2.747   2.737 -0.1504  0.4542  0.2438
20131SOL    HW161834   0.454   2.791   2.652 -0.5287  0.6837  0.3424
20131SOL    HW261835   0.404   2.664   2.719 -2.9922  1.7912  0.7270
20132SOL     OW61836   0.990   0.874  11.712  0.1293 -0.1975  0.0323
20132SOL    HW161837   0.978   0.938  11.782 -0.7133  0.6690 -0.8632
20132SOL    HW261838   1.067   0.904  11.665  1.4854 -1.5075  1.3016
20133SOL     OW61839   6.407   7.793  12.116 -0.0211 -0.9603 -0.3723
20133SOL    HW161840   6.414   7.859  12.047  0.5685 -1.1335 -0.4870
20133SOL    HW261841   6.339   7.733  12.085 -0.6288 -0.3594 -0.2201
20134SOL     OW61842   3.156   0.621   3.369  0.6096  0.2965  0.2033
20134SOL    HW161843   3.202   0.692   3.324 -0.1550 -0.2278 -1.5150
20134SOL    HW261844   3.164   0.546   3.310  1.1018 -0.9723  1.8083
20135SOL     OW61845   4.273   0.961   9.735 -0.1652 -0.3338 -0.0953
20135SOL    HW161846   4.222   0.980   9.657 -2.0694  0.1885  1.2016
20135SOL    HW261847   4.208   0.954   9.805  1.5932  1.8256  1.9495
20136SOL     OW61848   2.182   5.290  11.894  0.4236 -0.1587 -0.3096
20136SOL    HW161849   2.179   5.321  11.804 -0.7844 -0.4988 -0.4005
20136SOL    HW261850   2.146   5.362  11.946  0.8338 -0.0818 -0.1244
20137SOL     OW61851   5.115   4.057  11.468 -0.0442  0.3751  0.4737
20137SOL    HW161852   5.101   3.965  11.444  2.7006  0.0138 -0.0752
20137SOL    HW261853   5.166   4.053  11.549  1.8933  1.2725 -0.6150
20138SOL     OW61854   6.967   6.067   5.416  0.0463 -0.4242  0.2021
20138SOL    HW161855   7.019   6.038   5.491 -1.4602 -1.6834  0.8229
20138SOL    HW261856   6.963   6.162   5.425  1.4433 -0.3723  0.6338
20139SOL     OW61857   5.004   6.495   0.216 -0.2957  0.2884 -0.3713
20139SOL    HW161858   5.027   6.408   0.249 -1.2612  0.0296 -0.3443
20139SOL    HW261859   4.933   6.479   0.154 -0.2445  1.0236 -0.6282
20140SOL     OW61860   7.706   5.380   7.713  0.4389  0.4623 -0.5077
20140SOL    HW161861   7.765   5.318   7.754  1.5777  0.8492 -1.4945
20140SOL    HW261862   7.654   5.415   7.785 -1.6850 -3.0119 -0.1078
20141SOL     OW61863   1.613   2.062  10.333 -0.5674 -0.4136 -0.1778
20141SOL    HW161864   1.530   2.022  10.358 -1.4763  0.6762 -1.2759
20141SOL    HW261865   1.594   2.106  10.250  0.4586  1.9016  0.7222
20142SOL     OW61866   4.146   2.258   4.807  0.7743 -0.5188  0.1677
20142SOL    HW161867   4.065   2.233   4.763  0.3854 -0.8942  1.0687
20142SOL    HW261868   4.165   2.184   4.866  0.6738  0.4382  1.4479
20143SOL     OW61869   7.640   6.619   2.298  0.0630  0.5639 -0.7619
20143SOL    HW161870   7.706   6.557   2.328  0.1473  0.4770 -1.1152
20143SOL    HW261871   7.686   6.703   2.293 -0.1022  0.6963 -0.0924
20144SOL     OW61872   2.669   0.198   9.440  0.4046 -0.2347 -0.4284
20144SOL    HW161873   2.652   0.211   9.533 -1.5703  0.5741 -0.8547
20144SOL    HW261874   2.620   0.267   9.396  0.0177 -1.5180 -2.1514
20145SOL     OW61875   3.965   1.738   9.480  0.6593 -0.2693 -0.0002
20145SOL    HW161876   4.042   1.692   9.446  0.6213 -1.5877  1.5867
20145SOL    HW261877   3.904   1.739   9.407  0.4692 -3.2552  0.0029
20146SOL     OW61878   7.506   4.196   9.986 -0.3568 -0.0312  0.6950
20146SOL    HW161879   7.499   4.166   9.895 -1.0396  0.5009  0.5624
20146SOL    HW261880   7.561   4.274   9.980  2.1557 -1.6546  1.1493
20147SOL     OW61881   4.950   0.467   4.691  0.0373  0.5764 -0.3262
20147SOL    HW161882   5.041   0.477   4.717 -0.1940  1.2571  0.2374
20147SOL    HW261883   4.925   0.381   4.725  0.1392  0.8762  0.5259
20148SOL     OW61884   4.463   7.871  11.121  0.0829 -0.0754 -0.1749
20148SOL    HW161885   4.373   7.901  11.103  0.1727 -0.2076 -0.8389
20148SOL    HW261886   4.512   7.891  11.041  0.3735 -1.0969 -0.2632
20149SOL     OW61887   1.400   3.249  11.432  0.1141  0.9031 -0.2141
20149SOL    HW161888   1.352   3.329  11.453 -2.3033 -0.3899 -0.4596
20149SOL    HW261889   1.430   3.262  11.342  0.0031  1.6328 -0.1516
20150SOL     OW61890   6.863   2.169   9.971 -0.3012 -0.6864  0.6189
20150SOL    HW161891   6.927   2.195   9.905 -0.7531 -2.5848 -0.6622
20150SOL    HW261892   6.851   2.246  10.025  1.8232  0.2290 -0.1162
20151SOL     OW61893   5.859   7.679   0.166  0.7129 -0.2236 -0.0127
20151SOL    HW161894   5.910   7.642   0.237 -1.3003 -3.0198  0.1220
20151SOL    HW261895   5.782   7.717   0.208  0.9465  0.8146 -0.4838
20152SOL     OW61896   7.296   6.944   6.863  0.6335  0.5037 -0.4724
20152SOL    HW161897   7.299   6.852   6.837  1.2868  0.6410 -0.9020
20152SOL    HW261898   7.338   6.991   6.791 -0.3837  1.2267 -0.6235
20153SOL     OW61899   7.789   1.145  11.232  0.3256  0.2892  0.4028
20153SOL    HW161900   7.706   1.099  11.239 -0.7928  1.7192 -2.0699
20153SOL    HW261901   7.838   1.097  11.165  1.6206 -0.6479  1.9642
20154SOL     OW61902   5.434   5.080   7.309 -0.5890  0.2187 -0.0547
20154SOL    HW161903   5.489   5.019   7.357 -1.3787 -0.4964 -0.0449
20154SOL    HW261904   5.481   5.096   7.227  0.1649  0.4945  0.4161
20155SOL     OW61905   2.853   4.086  12.350  0.3653 -0.8841 -0.4677
20155SOL    HW161906   2.852   4.137  12.269  0.9431 -0.0230  0.0508
20155SOL    HW261907   2.936   4.039  12.348  0.5344 -0.6028 -0.2307
20156SOL     OW61908   4.260   7.103   2.956  0.4074  0.1032 -0.6470
20156SOL    HW161909   4.229   7.037   3.018 -2.0553  1.2473 -0.5081
20156SOL    HW261910   4.274   7.055   2.875 -0.8012 -0.7207 -0.3997
20157SOL     OW61911   2.268   0.992   1.176  0.6741  0.3702  0.1633
20157SOL    HW161912   2.252   1.086   1.178  1.0871  0.4526 -0.3317
20157SOL    HW261913   2.357   0.983   1.142  1.0894 -0.1497  1.3010
20158SOL     OW61914   7.413   5.542  10.460  0.4827  0.0746  0.6784
20158SOL    HW161915   7.346   5.480  10.491  0.0922  0.3935  0.4727
20158SOL    HW261916   7.468   5.490  10.402  1.4536 -0.6363  2.1803
20159SOL     OW61917   1.057   0.317   8.610 -0.2896 -0.2885  0.4690
20159SOL    HW161918   1.083   0.298   8.520 -1.8014  0.6177 -0.2074
20159SOL    HW261919   1.137   0.347   8.653  0.4533 -0.7477 -0.5688
20160SOL     OW61920   3.419   4.780   6.635  0.2604  0.4353 -0.3602
20160SOL    HW161921   3.412   4.813   6.725 -0.3235 -0.8977  0.1190
20160SOL    HW261922   3.466   4.697   6.644  0.2082  0.2933 -1.2912
20161SOL     OW61923   3.203   2.517   4.990 -0.0594  0.5427  0.2604
20161SOL    HW161924   3.120   2.560   4.968  0.4722  1.4560 -0.0437
20161SOL    HW261925   3.211   2.445   4.928 -1.0996 -0.1860  0.9494
20162SOL     OW61926   2.084   3.169   9.580 -0.3192 -0.1691  0.8655
20162SOL    HW161927   2.100   3.150   9.488  0.2690  1.1551  0.6770
20162SOL    HW261928   1.989   3.176   9.588 -0.3039  1.1938  0.0371
20163SOL     OW61929   6.863   6.963   9.959 -0.0565  0.4719  0.1641
20163SOL    HW161930   6.810   7.010   9.895 -1.2133 -1.5195 -0.4515
20163SOL    HW261931   6.947   6.949   9.915  0.4054  2.1470  0.4717
20164SOL     OW61932   7.375   5.196   1.157 -0.0464 -0.3000 -0.2780
20164SOL    HW161933   7.359   5.134   1.228 -1.2801  0.2449 -0.0717
20164SOL    HW261934   7.373   5.142   1.078 -0.9403 -0.5558 -0.0872
20165SOL     OW61935   3.753   5.987   7.613 -0.0651  0.0559 -0.0689
20165SOL    HW161936   3.786   6.069   7.651  1.7481 -0.6266 -0.0957
20165SOL    HW261937   3.732   6.010   7.522  1.2822  0.2979 -0.3364
20166SOL     OW61938   0.328   0.639   5.864 -0.4187 -0.2400 -0.0666
20166SOL    HW161939   0.422   0.632   5.880 -0.5691 -0.5652  0.7643
20166SOL    HW261940   0.315   0.598   5.779  0.2476  0.2113 -0.3927
20167SOL     OW61941   5.447   4.398   0.715  0.1343 -0.2818 -0.1545
20167SOL    HW161942   5.540   4.374   0.705  0.2702 -0.8566  1.8964
20167SOL    HW261943   5.400   4.333   0.664  0.8271 -0.6529 -0.3377
20168SOL     OW61944   5.105   6.849   8.020  0.4256 -0.4712 -0.5616
20168SOL    HW161945   5.112   6.873   8.113 -0.5102 -1.6684 -0.1628
20168SOL    HW261946   5.039   6.780   8.018  0.3921 -0.4203 -2.1391
20169SOL     OW61947   1.435   4.601   4.887  0.0883  0.1185  0.1692
20169SOL    HW161948   1.430   4.674   4.949 -1.4212 -0.8272  1.2233
20169SOL    HW261949   1.356   4.609   4.834  0.1344 -0.4881  0.0012
20170SOL     OW61950   4.081   4.880   2.911  0.2127  0.0456 -0.1705
20170SOL    HW161951   4.175   4.892   2.927  0.6796 -1.2111 -1.7056
20170SOL    HW261952   4.055   4.812   2.974  0.3214  0.4039  0.2659
20171SOL     OW61953   7.230   0.780  10.845 -0.0817  0.4263 -0.1161
20171SOL    HW161954   7.214   0.749  10.935 -0.1485  0.1727 -0.2158
20171SOL    HW261955   7.214   0.874  10.849  0.1724  0.4574  0.2016
20172SOL     OW61956   6.875   0.584  11.075 -0.1599 -0.1175  0.0974
20172SOL    HW161957   6.794   0.628  11.102 -0.1540  0.7552 -1.2029
20172SOL    HW261958   6.944   0.626  11.126 -0.3700  0.0806  0.2216
20173SOL     OW61959   4.372   5.240   5.053 -0.2836  0.3466  0.5632
20173SOL    HW161960   4.356   5.217   5.144 -0.7172  0.8761  0.6288
20173SOL    HW261961   4.412   5.162   5.014  0.5603  0.3615  1.3772
20174SOL     OW61962   4.696   0.099  11.256  0.2936 -0.2480  0.4307
20174SOL    HW161963   4.756   0.039  11.212 -1.6333 -2.6454  0.8662
20174SOL    HW261964   4.631   0.121  11.190  1.3898  2.1464  0.0323
20175SOL     OW61965   2.997   3.145   3.826 -0.2151 -0.0556  0.1416
20175SOL    HW161966   3.027   3.085   3.758 -3.6690 -0.2820 -1.3644
20175SOL    HW261967   3.016   3.099   3.908  0.7980 -1.4053 -0.8100
20176SOL     OW61968   7.503   6.036   2.733  0.1922 -0.0075  0.2040
20176SOL    HW161969   7.490   6.067   2.823 -1.6394 -1.3950  0.4925
20176SOL    HW261970   7.539   6.111   2.686  0.9999  0.8047  2.0477
20177SOL     OW61971   1.121   3.128  10.014 -0.0175 -0.4254 -0.3094
20177SOL    HW161972   1.076   3.132  10.098  2.4789  0.2244  1.0928
20177SOL    HW261973   1.133   3.034   9.997 -1.6389 -0.6049 -0.6359
20178SOL     OW61974   0.950   7.828   4.091 -0.5478  0.0881  0.0181
20178SOL    HW161975   1.021   7.843   4.154  0.1968  0.7193 -0.9447
20178SOL    HW261976   0.950   7.733   4.078 -0.5437 -0.0214  0.7704
20179SOL     OW61977   1.557   3.164   9.609  0.2672  0.3599  0.0918
20179SOL    HW161978   1.484   3.122   9.564  0.9320  0.3633 -1.0317
20179SOL    HW261979   1.561   3.252   9.571  2.8271 -0.6455 -2.3183
20180SOL     OW61980   3.934   4.240   9.800 -0.3067  0.2316 -0.2304
20180SOL    HW161981   3.883   4.297   9.857  0.1748 -0.9199  1.4088
20180SOL    HW261982   3.893   4.154   9.809 -0.2908  0.0415 -1.7469
20181SOL     OW61983   2.017   4.290  10.165  0.1067 -0.0010  0.4080
20181SOL    HW161984   1.939   4.237  10.182  0.5927 -1.0547 -0.5226
20181SOL    HW261985   2.086   4.226  10.145  0.2749  0.9731 -2.6074
20182SOL     OW61986   4.247   0.906   6.355  0.1687  0.2266 -0.1162
20182SOL    HW161987   4.274   0.930   6.267  0.7052 -0.4191 -0.1357
20182SOL    HW261988   4.156   0.936   6.362  0.3451  0.8864 -0.6459
20183SOL     OW61989   6.090   6.212   3.751  0.1557 -1.0889 -0.2055
20183SOL    HW161990   6.180   6.238   3.734 -0.0434 -0.7790 -0.8078
20183SOL    HW261991   6.054   6.284   3.803 -0.4701  0.0274 -2.0860
20184SOL     OW61992   4.242   6.119  12.027 -0.3438  0.1317  0.1877
20184SOL    HW161993   4.300   6.115  12.103  0.6021  0.0905 -0.5046
20184SOL    HW261994   4.154   6.128  12.063  0.2475  2.2229  1.2550
20185SOL     OW61995   3.066   0.802   2.526  0.1301  0.0244  0.3181
20185SOL    HW161996   3.131   0.827   2.591  0.9839  4.0530 -1.7478
20185SOL    HW261997   3.114   0.752   2.461  0.9905  1.7675 -0.4747
20186SOL     OW61998   7.560   5.401   6.481 -0.2776  0.1232  0.4377
20186SOL    HW161999   7.651   5.375   6.466  0.0625  1.3397  0.2672
20186SOL    HW262000   7.527   5.336   6.543  0.7895 -0.1823  0.7178
20187SOL     OW62001   4.673   2.577  10.371  0.2113 -0.0430  0.4845
20187SOL    HW162002   4.736   2.517  10.332 -1.1562 -1.8861  0.9486
20187SOL    HW262003   4.641   2.630  10.298  1.4587  0.1431  0.0622
20188SOL     OW62004   0.344   7.369   0.010 -0.2543  0.2875  0.3682
20188SOL    HW162005   0.424   7.382  -0.041 -1.3380  0.8440 -1.2671
20188SOL    HW262006   0.289   7.314  -0.045 -2.7282  3.4286 -0.5822
20189SOL     OW62007   2.224   7.038   9.150 -0.4404  0.0860  0.7700
20189SOL    HW162008   2.284   6.996   9.211  1.6712 -1.0022 -1.8687
20189SOL    HW262009   2.268   7.119   9.124 -1.5548  0.8070  1.0050
20190SOL     OW62010   1.924   5.683  11.847 -0.4164 -0.4531  0.0222
20190SOL    HW162011   1.954   5.694  11.937 -1.3807  2.3535  0.0836
20190SOL    HW262012   1.980   5.613  11.812  0.8754 -0.7080  2.3792
20191SOL     OW62013   4.360   1.234   6.237 -0.4227  0.2813 -0.1158
20191SOL    HW162014   4.294   1.303   6.226 -0.3119  0.2776 -0.8816
20191SOL    HW262015   4.312   1.153   6.222 -0.1854  0.2958 -0.9886
20192SOL     OW62016   7.268   6.349   9.956  0.2364  0.4113  1.1372
20192SOL    HW162017   7.234   6.267   9.920  1.3286  0.7184 -0.7524
20192SOL    HW262018   7.199   6.413   9.939  0.1576  0.2629  0.8939
20193SOL     OW62019   3.166   0.636   9.114 -0.2653 -0.3548  0.0835
20193SOL    HW162020   3.071   0.629   9.102 -0.7295  0.9771  2.3929
20193SOL    HW262021   3.194   0.699   9.047 -1.4114  0.9931  0.8358
20194SOL     OW62022   1.633   1.276   2.756  0.6445  0.4898  0.5693
20194SOL    HW162023   1.580   1.331   2.698  0.1715 -1.3256 -0.7951
20194SOL    HW262024   1.574   1.254   2.828 -0.2757 -0.8876 -0.5547
20195SOL     OW62025   3.356   2.237   2.350 -0.0413  0.3317  0.2797
20195SOL    HW162026   3.432   2.180   2.365  0.5419  1.4500  1.8393
20195SOL    HW262027   3.373   2.314   2.404 -2.2269  0.6884  0.5415
20196SOL     OW62028   7.418   0.526   4.877  0.1058 -0.0573 -0.4293
20196SOL    HW162029   7.351   0.480   4.826  1.4210 -1.0691 -1.3408
20196SOL    HW262030   7.376   0.606   4.906 -2.2363 -1.6903  1.0174
20197SOL     OW62031   2.259   6.462   8.312 -0.2816 -0.9745  0.0051
20197SOL    HW162032   2.277   6.535   8.252 -0.6664 -0.8639  0.0231
20197SOL    HW262033   2.305   6.485   8.392 -0.0306 -0.9676 -0.1407
20198SOL     OW62034   6.870   6.968   3.547 -0.2478  0.1879 -0.6262
20198SOL    HW162035   6.800   6.906   3.565 -0.2658  0.2885 -0.3321
20198SOL    HW262036   6.890   6.957   3.454  1.1076 -1.6590 -0.1655
20199SOL     OW62037   6.778   3.557   7.305  0.0757  0.1308 -0.0135
20199SOL    HW162038   6.684   3.539   7.298 -0.0444  1.2382 -1.7622
20199SOL    HW262039   6.783   3.640   7.353 -0.0328  1.4453 -2.1600
20200SOL     OW62040   1.555   5.158  10.990 -0.2970  0.2324  0.1891
20200SOL    HW162041   1.531   5.086  11.048  0.5333 -1.1359 -1.0864
20200SOL    HW262042   1.622   5.207  11.039 -1.2220  0.4553  1.2691
20201SOL     OW62043   6.273   1.026   7.857  0.2079  0.0494 -0.5291
20201SOL    HW162044   6.319   0.944   7.875 -2.2394 -1.0201  1.4923
20201SOL    HW262045   6.190   0.999   7.819 -0.5352  1.5963 -0.0833
20202SOL     OW62046   6.149   7.444   2.748  0.2903 -0.0013 -0.2939
20202SOL    HW162047   6.084   7.482   2.690  0.7094 -0.3678 -1.0105
20202SOL    HW262048   6.229   7.437   2.695  1.7598  2.8750  1.2524
20203SOL     OW62049   5.711   3.830   1.798  0.5496  0.2035  0.0171
20203SOL    HW162050   5.622   3.838   1.763 -0.1615  0.3860  1.7303
20203SOL    HW262051   5.716   3.899   1.865  2.9784  2.0700 -1.9048
20204SOL     OW62052   4.677   4.134   5.396  0.1907  0.5109 -0.3071
20204SOL    HW162053   4.737   4.060   5.393 -1.0525 -0.5899  0.8524
20204SOL    HW262054   4.651   4.140   5.488 -2.9973 -0.3572 -1.0309
20205SOL     OW62055   3.751   6.443   2.556  0.2045 -0.1601  0.1853
20205SOL    HW162056   3.679   6.430   2.495 -0.6423  1.6976  0.7164
20205SOL    HW262057   3.829   6.420   2.506 -0.6205 -0.6689 -0.9141
20206SOL     OW62058   5.412   1.921   3.814  0.2928 -0.1045  0.2418
20206SOL    HW162059   5.458   1.967   3.884 -0.9799  5.4830 -2.0218
20206SOL    HW262060   5.320   1.924   3.840  0.1187 -0.9883 -0.2462
20207SOL     OW62061   2.213   7.600   8.323 -0.8087 -0.4227  0.2123
20207SOL    HW162062   2.166   7.682   8.338  0.0781 -0.0020  0.8186
20207SOL    HW262063   2.235   7.601   8.230 -2.2920 -0.7976 -0.1553
20208SOL     OW62064   4.425   5.214  10.188 -0.0023 -0.0453 -0.2310
20208SOL    HW162065   4.411   5.273  10.113  0.6344  0.5420  0.0980
20208SOL    HW262066   4.427   5.273  10.264  2.2488 -0.2707 -0.0430
20209SOL     OW62067   5.743   3.865   2.775  0.0631  0.3959 -0.5212
20209SOL    HW162068   5.813   3.813   2.815  0.7463  2.5567  1.2985
20209SOL    HW262069   5.749   3.950   2.818 -1.0668  1.9826 -3.2933
20210SOL     OW62070   0.431   4.247  10.442  0.1203  0.0876 -0.0231
20210SOL    HW162071   0.337   4.236  10.424  0.2292  1.1605 -1.3618
20210SOL    HW262072   0.434   4.285  10.530 -0.7389  0.6371 -0.2170
20211SOL     OW62073   6.990   1.960  10.565  0.6062  0.3265  0.2771
20211SOL    HW162074   7.078   1.925  10.580  1.1483  0.2050 -2.6586
20211SOL    HW262075   6.942   1.888  10.524  0.5528  1.6837 -2.2314
20212SOL     OW62076   3.333   5.437   0.932  0.5139  0.2922 -0.0132
20212SOL    HW162077   3.317   5.440   0.838  0.4956 -0.4932 -0.0389
20212SOL    HW262078   3.256   5.394   0.969  1.5099 -1.5166  0.0946
20213SOL     OW62079   5.628   4.350   2.620 -0.1894 -0.1234 -0.1441
20213SOL    HW162080   5.708   4.371   2.573 -0.4204  1.1094 -0.0220
20213SOL    HW262081   5.559   4.354   2.553 -0.1106 -1.7302 -0.3668
20214SOL     OW62082   2.116   1.102   8.450 -0.5303 -0.2715 -0.9561
20214SOL    HW162083   2.079   1.189   8.466  0.5771  0.1168 -0.4771
20214SOL    HW262084   2.202   1.118   8.412  0.5548 -1.1170  1.0260
20215SOL     OW62085   2.377   1.326   2.310  0.6019  0.2079  0.7077
20215SOL    HW162086   2.385   1.373   2.393 -0.4025  1.0033  0.3669
20215SOL    HW262087   2.291   1.350   2.276  1.3632  0.6917 -1.0385
20216SOL     OW62088   3.817   5.813  11.783  0.1533  0.2922 -0.8153
20216SOL    HW162089   3.845   5.795  11.873 -0.0754 -1.1119 -1.0112
20216SOL    HW262090   3.748   5.879  11.793 -0.3062 -0.2997  0.1016
20217SOL     OW62091   5.623   7.605   9.145 -1.0257 -0.7715 -1.0799
20217SOL    HW162092   5.565   7.532   9.124 -1.9956  0.0896 -1.5060
20217SOL    HW262093   5.612   7.617   9.239 -0.4269 -1.5216 -0.9046
20218SOL     OW62094   5.321   7.047   3.700 -0.8355  0.5075 -0.2299
20218SOL    HW162095   5.350   6.965   3.740 -0.1706 -0.0156 -1.6993
20218SOL    HW262096   5.400   7.101   3.697 -0.6927  0.2616 -1.4413
20219SOL     OW62097   3.841   4.735   4.178  0.0043 -0.1813 -0.1490
20219SOL    HW162098   3.780   4.684   4.125  0.0780 -2.2825  1.6261
20219SOL    HW262099   3.801   4.739   4.264  1.8349 -0.6654  0.7816
20220SOL     OW62100   3.239   4.813   5.631  0.0479  0.1366 -0.6161
20220SOL    HW162101   3.224   4.873   5.704 -1.8916 -0.2124 -0.6562
20220SOL    HW262102   3.332   4.822   5.610  0.3015  1.3788  0.8865
20221SOL     OW62103   7.363   0.297   5.157  0.0651  0.2298  0.1115
20221SOL    HW162104   7.286   0.325   5.107  0.1112 -0.2330 -0.2249
20221SOL    HW262105   7.414   0.377   5.167 -0.1524  0.4162 -0.2180
20222SOL     OW62106   4.841   0.653   1.677  0.5812 -0.5330 -0.2351
20222SOL    HW162107   4.859   0.659   1.583  1.2153 -0.3007 -0.0986
20222SOL    HW262108   4.909   0.706   1.718  0.3499 -0.6973  0.3651
20223SOL     OW62109   1.582   2.018   8.720 -0.1949  0.3263  0.3109
20223SOL    HW162110   1.504   2.072   8.707  1.3460  2.3819 -1.1270
20223SOL    HW262111   1.649   2.061   8.667  0.9325 -3.6425 -1.8249
20224SOL     OW62112   4.003   7.028  11.428  0.1365  0.7091 -0.2526
20224SOL    HW162113   3.942   6.968  11.384  0.2868 -0.1449  0.6783
20224SOL    HW262114   3.954   7.110  11.435 -1.1941 -0.1364  1.0480
20225SOL     OW62115   1.090   4.946   4.982 -0.2116  0.2727 -0.0534
20225SOL    HW162116   1.170   4.952   4.930 -0.7273 -2.0123 -1.2357
20225SOL    HW262117   1.119   4.950   5.073  1.4709 -2.0992 -0.4057
20226SOL     OW62118   5.027   5.314  10.116  0.3364  0.3391 -0.3556
20226SOL    HW162119   5.014   5.370  10.040 -1.2403  0.9292  0.2959
20226SOL    HW262120   5.000   5.227  10.087 -1.0424  0.7171 -0.2826
20227SOL     OW62121   1.746   0.149   0.231  0.2420 -0.1412  0.3767
20227SOL    HW162122   1.780   0.060   0.228 -2.4089 -1.2717  1.1168
20227SOL    HW262123   1.680   0.153   0.162  1.3389  1.7871 -0.6620
20228SOL     OW62124   1.093   1.312   6.267 -0.6403 -0.0731  0.7452
20228SOL    HW162125   1.046   1.381   6.313 -1.1154  0.4448 -0.4788
20228SOL    HW262126   1.181   1.346   6.255 -0.7387  0.1225  0.5735
20229SOL     OW62127   1.286   0.899  12.147  0.0494 -0.4194 -0.2251
20229SOL    HW162128   1.266   0.978  12.097 -0.2843 -0.2406  0.1858
20229SOL    HW262129   1.362   0.862  12.103 -0.7836 -0.7617 -1.4217
20230SOL     OW62130   0.550   1.174  12.159 -0.1995  0.1760  0.1627
20230SOL    HW162131   0.563   1.123  12.079 -0.1213  0.8328 -0.2519
20230SOL    HW262132   0.609   1.134  12.223 -0.5697 -0.6172  0.0219
20231SOL     OW62133   2.558   2.135   1.087 -0.2109 -0.4262  0.2471
20231SOL    HW162134   2.480   2.080   1.088 -1.1808  0.8892  1.2816
20231SOL    HW262135   2.576   2.151   0.994 -2.1424  0.5324 -0.0062
20232SOL     OW62136   7.843   4.153   7.886  0.1156 -0.4547  0.4314
20232SOL    HW162137   7.826   4.247   7.873 -1.0100 -0.3936  2.0685
20232SOL    HW262138   7.934   4.148   7.914 -0.2514  0.3366  1.8526
20233SOL     OW62139   2.769   5.695   3.819 -0.0239  0.0124  0.2967
20233SOL    HW162140   2.688   5.653   3.791  0.4935 -1.1251  0.4388
20233SOL    HW262141   2.746   5.741   3.900 -0.0841 -2.1253  1.5861
20234SOL     OW62142   7.777   2.547  11.153  0.3003  0.3865 -0.0107
20234SOL    HW162143   7.827   2.602  11.213 -2.4466  0.7739  2.1582
20234SOL    HW262144   7.778   2.461  11.193  1.7735 -0.4048 -1.6314
20235SOL     OW62145   3.844   1.715   9.721 -0.4695  0.0454  0.2674
20235SOL    HW162146   3.874   1.724   9.630  1.2239 -0.6525  0.7131
20235SOL    HW262147   3.848   1.803   9.757  1.1422 -0.0240  0.3066
20236SOL     OW62148   7.095   4.411   4.786  0.1130 -0.2669 -0.3399
20236SOL    HW162149   7.175   4.438   4.830 -1.4728  0.7971  2.0718
20236SOL    HW262150   7.076   4.483   4.725  0.7946 -0.3836 -0.7007
20237SOL     OW62151   4.183   5.808   8.073 -0.1916 -0.6390  0.0293
20237SOL    HW162152   4.256   5.807   8.135  0.4850  0.6937 -0.6929
20237SOL    HW262153   4.222   5.833   7.990 -1.3908 -0.4700 -0.5121
20238SOL     OW62154   1.119   3.018   9.597 -0.3089 -0.0179  0.1976
20238SOL    HW162155   1.067   3.055   9.526 -0.8398 -0.8226  0.1610
20238SOL    HW262156   1.202   2.996   9.556 -0.6760 -0.6484 -0.2244
20239SOL     OW62157   0.045   0.324   6.834 -0.3383  0.0362 -0.1816
20239SOL    HW162158   0.136   0.350   6.847  0.0004 -1.2276  0.0486
20239SOL    HW262159   0.015   0.379   6.761  1.9500 -2.5329 -3.3602
20240SOL     OW62160   2.336   0.019   7.475 -0.4706  0.5914 -0.5784
20240SOL    HW162161   2.403   0.025   7.407  2.3695 -1.4403  1.7485
20240SOL    HW262162   2.287  -0.060   7.455  2.2473 -1.7125  0.9921
20241SOL     OW62163   4.813   6.330   6.877 -0.1177 -0.2487  0.1838
20241SOL    HW162164   4.760   6.409   6.862 -0.1768 -0.2920  0.1605
20241SOL    HW262165   4.800   6.311   6.970 -0.7262 -0.6725  0.0215
20242SOL     OW62166   4.719   4.861  10.709 -0.0849  0.8421  0.1152
20242SOL    HW162167   4.785   4.805  10.669  1.5794  1.2724  2.1062
20242SOL    HW262168   4.722   4.942  10.659  0.5945  0.6987 -0.0749
20243SOL     OW62169   3.481   6.286   0.646 -0.1112  0.0634 -0.2236
20243SOL    HW162170   3.571   6.319   0.648 -0.2133  0.3112  0.3471
20243SOL    HW262171   3.438   6.339   0.578 -0.0955  0.6467  0.2151
20244SOL     OW62172   0.754   6.267  10.090 -0.1692 -0.3737 -1.1047
20244SOL    HW162173   0.713   6.202  10.148  1.1677  0.3054  0.6885
20244SOL    HW262174   0.813   6.217  10.034 -2.1488 -1.1570 -2.6089
20245SOL     OW62175   0.796   4.464   6.802 -0.1423 -0.4213  0.3819
20245SOL    HW162176   0.855   4.528   6.764 -0.2997 -0.3842  0.1963
20245SOL    HW262177   0.721   4.515   6.832  0.1177 -0.4106  1.0280
20246SOL     OW62178   6.308   7.192  10.486  0.3024 -0.8352  0.7561
20246SOL    HW162179   6.351   7.276  10.503  0.3042 -0.6109 -0.2732
20246SOL    HW262180   6.224   7.198  10.532 -0.3535  0.3507 -0.5336
20247SOL     OW62181   1.109   3.616  11.727  0.0593  0.3610 -0.4283
20247SOL    HW162182   1.085   3.700  11.688 -0.4285  0.3225 -0.2238
20247SOL    HW262183   1.139   3.563  11.653  0.4612  0.7453 -0.5443
20248SOL     OW62184   0.684   0.355   0.976 -0.2602 -0.0874 -0.0899
20248SOL    HW162185   0.720   0.269   0.999 -1.9585 -0.6200  0.7443
20248SOL    HW262186   0.684   0.403   1.059 -2.3165 -0.4653  0.1902
20249SOL     OW62187   0.893   5.304   4.135  0.3352 -0.5564 -0.0102
20249SOL    HW162188   0.919   5.395   4.134  0.8556 -0.6712  1.3617
20249SOL    HW262189   0.857   5.288   4.047  0.1369  0.9753 -0.2282
20250SOL     OW62190   6.964   0.814   9.742  0.3035  0.1291 -0.6999
20250SOL    HW162191   7.015   0.742   9.778  0.6818  0.4143 -0.6717
20250SOL    HW262192   6.898   0.833   9.809  0.2162 -0.1716 -0.6980
20251SOL     OW62193   7.510   4.997   3.596  0.5108 -0.3933 -0.1949
20251SOL    HW162194   7.455   4.966   3.668  0.1408  0.0563 -0.2753
20251SOL    HW262195   7.469   4.963   3.517  0.1359  0.2398 -0.2793
20252SOL     OW62196   7.146   7.502  11.645 -0.6419  0.6078  0.7221
20252SOL    HW162197   7.202   7.492  11.568 -0.7290  0.1940  0.7110
20252SOL    HW262198   7.171   7.587  11.681 -0.3886  0.6710  0.4087
20253SOL     OW62199   3.825   0.096   6.580 -0.1608 -0.9310  0.4752
20253SOL    HW162200   3.794   0.050   6.502 -2.8035  1.1610  0.1281
20253SOL    HW262201   3.747   0.108   6.633  1.0928 -0.0033  2.2106
20254SOL     OW62202   6.418   3.603  10.871  0.0627  0.6107 -0.1756
20254SOL    HW162203   6.454   3.692  10.875  0.2004  0.4992  1.5401
20254SOL    HW262204   6.472   3.552  10.930 -1.0157 -0.2576  0.0895
20255SOL     OW62205   2.166   6.903   0.545 -0.1660 -0.3161 -1.2902
20255SOL    HW162206   2.169   6.844   0.620 -1.3512  0.0345 -0.9353
20255SOL    HW262207   2.186   6.848   0.470 -0.5417 -1.0125 -0.8892
20256SOL     OW62208   1.741   0.717   0.882 -0.0977 -0.1011  0.3728
20256SOL    HW162209   1.713   0.778   0.815 -0.5017 -0.9123 -0.2172
20256SOL    HW262210   1.689   0.638   0.865 -1.9457  0.4087  3.0621
20257SOL     OW62211   4.223   1.259   2.570 -0.4947 -0.0402 -0.0864
20257SOL    HW162212   4.241   1.288   2.481 -1.2821  1.8990  0.3297
20257SOL    HW262213   4.240   1.336   2.624 -0.8729 -0.9219  1.3454
20258SOL     OW62214   7.536   7.025   0.773 -0.3012  0.3078  0.5762
20258SOL    HW162215   7.530   7.100   0.832  1.0347  1.2577 -0.4293
20258SOL    HW262216   7.614   7.042   0.721  0.2473 -1.9740  0.5484
20259SOL     OW62217   0.854   0.515   8.546  0.3384 -0.0593 -0.3381
20259SOL    HW162218   0.908   0.451   8.593 -0.3535 -0.2838  0.1646
20259SOL    HW262219   0.766   0.502   8.581  0.1956  1.1916 -0.2148
20260SOL     OW62220   3.096   2.639   8.906 -0.3384 -0.3200  1.0092
20260SOL    HW162221   3.112   2.727   8.940  1.7843 -0.7609  1.2864
20260SOL    HW262222   3.101   2.582   8.982 -0.7580 -0.7818  0.6982
20261SOL     OW62223   6.146   4.741   1.846 -0.5572  0.2852  0.6610
20261SOL    HW162224   6.056   4.772   1.850 -0.4515  0.4817  1.8897
20261SOL    HW262225   6.140   4.649   1.872 -0.3441  0.4288  1.2176
20262SOL     OW62226   3.516   7.176   6.388 -0.3784 -0.1589 -0.4237
20262SOL    HW162227   3.509   7.229   6.467  0.0996  0.0261 -0.4998
20262SOL    HW262228   3.604   7.194   6.355 -0.1883 -1.0364 -0.4264
20263SOL     OW62229   2.254   5.565   4.451 -0.0782 -0.4975  0.1428
20263SOL    HW162230   2.317   5.506   4.491  0.7995  0.6814  0.5629
20263SOL    HW262231   2.224   5.520   4.373  0.4829 -1.5322  0.5093
20264SOL     OW62232   6.843   6.423   4.917 -0.5183  0.1109  0.1417
20264SOL    HW162233   6.908   6.418   4.987  0.3567  1.4298 -0.5307
20264SOL    HW262234   6.766   6.460   4.959 -0.0046  0.8870  0.4380
20265SOL     OW62235   5.732   3.115   7.610 -0.2595 -0.4400  0.1617
20265SOL    HW162236   5.743   3.037   7.665 -0.3466  1.1712  2.6142
20265SOL    HW262237   5.640   3.139   7.622 -0.5273 -0.5894 -1.4920
20266SOL     OW62238   1.260   0.991   2.767 -0.4061  0.2855  0.2934
20266SOL    HW162239   1.322   0.971   2.697 -0.3967  0.2029  0.3252
20266SOL    HW262240   1.307   1.051   2.824  0.2045 -0.9883  1.1568
20267SOL     OW62241   2.994   0.478   1.585  0.7956  0.2084  0.0843
20267SOL    HW162242   2.939   0.464   1.508 -1.5814  1.5420  1.4061
20267SOL    HW262243   2.948   0.545   1.635  1.8158 -1.1143  3.0384
20268SOL     OW62244   4.182   0.686   0.532 -0.2529  0.1537  0.6031
20268SOL    HW162245   4.177   0.687   0.436 -0.0762  0.2757  0.5946
20268SOL    HW262246   4.272   0.662   0.550  0.0167  1.2081  0.7344
20269SOL     OW62247   6.575   1.861  10.434 -0.2745  0.2269  0.1463
20269SOL    HW162248   6.550   1.796  10.368  0.7694  0.5286 -0.5793
20269SOL    HW262249   6.498   1.917  10.444 -0.4934  0.0950 -0.7219
20270SOL     OW62250   1.271   0.939  10.103 -0.1015 -0.1137  0.3822
20270SOL    HW162251   1.312   0.870  10.051  0.7847  1.1326 -0.6096
20270SOL    HW262252   1.208   0.979  10.044 -1.3688 -0.7098  1.2798
20271SOL     OW62253   6.131   0.494   3.786  0.3695  0.1037 -0.7515
20271SOL    HW162254   6.053   0.495   3.841  0.9399  0.1019  0.0807
20271SOL    HW262255   6.159   0.585   3.782 -0.4425  0.3256 -2.2059
20272SOL     OW62256   4.298   4.113   5.572  0.3793  0.1805  0.1341
20272SOL    HW162257   4.353   4.084   5.500  0.9281 -1.2633  1.0940
20272SOL    HW262258   4.356   4.113   5.648 -0.3782  0.9261  0.7353
20273SOL     OW62259   7.171   4.010   2.984 -0.0255  0.1493 -0.0536
20273SOL    HW162260   7.132   4.087   3.025  1.3121  0.9219 -0.1909
20273SOL    HW262261   7.187   3.950   3.057  0.1306  0.5289  0.2287
20274SOL     OW62262   1.560   4.899   7.389  0.2154  0.7401  0.2232
20274SOL    HW162263   1.496   4.883   7.458 -1.5014 -2.0193 -1.8248
20274SOL    HW262264   1.514   4.953   7.325  1.2275  1.8365  0.3717
20275SOL     OW62265   5.019   6.783   5.545  0.1547  0.0360 -0.1308
20275SOL    HW162266   4.962   6.710   5.521 -0.5928 -0.1186  1.9165
20275SOL    HW262267   5.047   6.763   5.634  1.9157  1.0606 -0.4166
20276SOL     OW62268   2.037   1.856  11.241  0.0860 -0.0917  0.6450
20276SOL    HW162269   2.125   1.865  11.277  0.8451 -0.7709 -0.9554
20276SOL    HW262270   1.990   1.933  11.274  0.7807 -0.5051  2.7819
20277SOL     OW62271   2.283   6.870   3.595  0.3339 -0.1327  0.1497
20277SOL    HW162272   2.256   6.792   3.643  1.3860 -0.1110  0.8036
20277SOL    HW262273   2.375   6.855   3.574  0.8568  1.3404  1.1774
20278SOL     OW62274   7.684   6.767   4.538  0.2714  0.4749 -0.5833
20278SOL    HW162275   7.715   6.706   4.472  0.0482  0.7681 -0.9659
20278SOL    HW262276   7.687   6.853   4.495 -2.4445  0.3685 -1.1826
20279SOL     OW62277   3.810   0.088  10.121  0.5703  0.3799 -0.2819
20279SOL    HW162278   3.835   0.002  10.155  0.9393  0.2421 -0.8961
20279SOL    HW262279   3.893   0.128  10.094  0.4427  1.0776  0.3300
20280SOL     OW62280   2.293   7.874   1.429  0.0503 -0.4447 -0.0013
20280SOL    HW162281   2.374   7.872   1.479  0.4750  0.7255 -0.6198
20280SOL    HW262282   2.318   7.844   1.341  0.3109  1.9920 -0.8220
20281SOL     OW62283   0.467   2.611   8.975 -0.0190  0.1729 -0.6107
20281SOL    HW162284   0.529   2.544   8.949  1.1705  0.7226  0.6653
20281SOL    HW262285   0.381   2.573   8.958  0.6347 -1.4296 -0.4711
20282SOL     OW62286   6.186   2.325   6.603 -0.4263  0.2940  0.9605
20282SOL    HW162287   6.107   2.291   6.562 -0.0778 -1.0056  1.3211
20282SOL    HW262288   6.254   2.319   6.535 -0.5564  1.1458  0.7403
20283SOL     OW62289   7.823   3.744   8.800 -0.1784 -0.2190  0.2867
20283SOL    HW162290   7.863   3.831   8.808 -1.9718  1.0281 -2.8411
20283SOL    HW262291   7.895   3.686   8.777  0.7332  0.8024  0.5069
20284SOL     OW62292   4.657   4.916   6.591  0.0989 -0.6104  0.3166
20284SOL    HW162293   4.599   4.923   6.515  1.0261 -2.1236 -0.5861
20284SOL    HW262294   4.628   4.987   6.649 -1.2037  0.0554 -1.0442
20285SOL     OW62295   0.331   4.383  12.118  0.1683 -0.1665 -0.2952
20285SOL    HW162296   0.318   4.389  12.213 -0.4920  0.9863 -0.4278
20285SOL    HW262297   0.382   4.303  12.105  1.9775  0.6595  1.2002
20286SOL     OW62298   3.041   7.419   3.030  0.0680 -0.6369 -0.2739
20286SOL    HW162299   3.052   7.462   2.944  0.5655 -0.3736 -0.0819
20286SOL    HW262300   3.072   7.330   3.016  1.2479 -0.2756 -0.0831
20287SOL     OW62301   3.136   6.218   3.585 -0.5037  0.0057  0.6058
20287SOL    HW162302   3.150   6.236   3.678  0.1319  0.9683  0.3426
20287SOL    HW262303   3.082   6.139   3.583 -2.1518  1.0446  1.8362
20288SOL     OW62304   7.560   2.220   1.336  0.3420  0.1601  0.9962
20288SOL    HW162305   7.586   2.310   1.313 -1.2134  0.0794 -1.3677
20288SOL    HW262306   7.566   2.171   1.254 -0.9020 -1.3916  1.7673
20289SOL     OW62307   0.757   0.162   9.873 -0.3518 -0.1616  0.7257
20289SOL    HW162308   0.731   0.112   9.796  0.4911 -1.1017  1.0134
20289SOL    HW262309   0.679   0.209   9.900 -0.7431 -0.0899 -0.5000
20290SOL     OW62310   7.030   1.704   8.236  0.3187  0.2712  0.6262
20290SOL    HW162311   7.022   1.747   8.321 -0.7840  1.9533 -0.2824
20290SOL    HW262312   7.107   1.745   8.196 -0.7133  1.4466 -0.2267
20291SOL     OW62313   0.686   7.556   0.338  0.5816 -0.0944 -0.4178
20291SOL    HW162314   0.779   7.531   0.339  1.0048  1.3675 -0.9013
20291SOL    HW262315   0.679   7.624   0.405  0.4071  1.5353 -2.0166
20292SOL     OW62316   4.494   4.921   5.268 -0.6901  0.7171  0.3676
20292SOL    HW162317   4.537   5.001   5.240 -0.9085  0.2772 -1.3581
20292SOL    HW262318   4.534   4.899   5.352  0.1482  2.0309  0.3254
20293SOL     OW62319   3.825   5.302   0.679 -0.1383  0.1303 -0.2824
20293SOL    HW162320   3.762   5.367   0.710  1.0713  1.2245 -0.0338
20293SOL    HW262321   3.891   5.298   0.748  1.3210  0.8208 -1.5856
20294SOL     OW62322   2.378   4.525  10.332 -0.1726 -0.1655 -0.0579
20294SOL    HW162323   2.311   4.594  10.335  1.1422  1.1220  1.9459
20294SOL    HW262324   2.354   4.465  10.402  0.4430  0.0176  0.3191
20295SOL     OW62325   7.769   0.852   0.118  0.2688 -0.4032 -0.5257
20295SOL    HW162326   7.758   0.904   0.039 -0.7895 -0.7465 -0.6189
20295SOL    HW262327   7.861   0.824   0.116  1.5284  3.0889  0.5675
20296SOL     OW62328   3.629   7.662   6.455  0.2027 -0.6276  0.5032
20296SOL    HW162329   3.551   7.654   6.509 -0.3950 -1.1870 -0.4117
20296SOL    HW262330   3.597   7.657   6.365  1.4755 -3.5045  0.0695
20297SOL     OW62331   1.638   4.867   3.965 -0.9629  0.2127  0.3790
20297SOL    HW162332   1.591   4.926   4.024  0.1308 -0.8122  2.4013
20297SOL    HW262333   1.612   4.780   3.993 -0.5138 -0.3179 -0.7817
20298SOL     OW62334   6.986   1.353   1.703  0.2721 -0.6381 -0.0755
20298SOL    HW162335   6.979   1.266   1.743  1.6178 -0.3586  0.8406
20298SOL    HW262336   7.061   1.346   1.644 -0.4019 -0.4315 -0.9891
20299SOL     OW62337   0.395   5.212   4.080  0.6795 -0.5261 -0.0204
20299SOL    HW162338   0.440   5.292   4.105  0.1114 -0.2535  0.1240
20299SOL    HW262339   0.393   5.159   4.160  0.1028 -0.2361  0.1596
20300SOL     OW62340   0.353   0.062   8.341  0.3185  0.3954  0.0743
20300SOL    HW162341   0.431   0.071   8.396  0.3177 -0.2386  0.1883
20300SOL    HW262342   0.280   0.073   8.402  0.3166  0.9468 -0.0247
20301SOL     OW62343   7.758   0.279   5.315 -0.2997 -0.6566 -0.2074
20301SOL    HW162344   7.767   0.368   5.280  0.1444 -0.4490  0.4087
20301SOL    HW262345   7.827   0.229   5.272  0.1527 -0.4366  0.2504
20302SOL     OW62346   5.710   4.212   1.850 -0.1763  0.4580 -0.1277
20302SOL    HW162347   5.722   4.299   1.888 -0.0544  0.1695  0.4958
20302SOL    HW262348   5.729   4.151   1.921 -0.4564 -0.0804 -0.5043
20303SOL     OW62349   6.758   1.171   4.478 -0.3416 -0.4328  0.2114
20303SOL    HW162350   6.844   1.130   4.487  0.7354  0.7701 -3.1823
20303SOL    HW262351   6.770   1.261   4.506 -0.2743 -0.0690 -0.9479
20304SOL     OW62352   0.520   0.839   6.713 -0.1298 -0.1468 -0.1666
20304SOL    HW162353   0.536   0.926   6.748 -0.9699 -0.4084  0.9284
20304SOL    HW262354   0.602   0.814   6.671 -0.2926  1.7192 -1.7359
20305SOL     OW62355   4.148   4.975   7.556  0.4471 -0.6464 -0.3078
20305SOL    HW162356   4.089   4.901   7.574  0.0849 -0.2883 -0.0127
20305SOL    HW262357   4.107   5.049   7.599  2.4655 -0.8980  2.3173
20306SOL     OW62358   2.141   6.091   5.930  0.1889 -0.5551  0.4807
20306SOL    HW162359   2.119   6.160   5.868  0.4515 -0.2505  0.7262
20306SOL    HW262360   2.094   6.014   5.898 -0.3140 -0.1979  0.3528
20307SOL     OW62361   0.048   0.041   2.801  0.4863 -0.5912  0.3152
20307SOL    HW162362   0.015   0.105   2.738  1.4250  0.2616  0.6546
20307SOL    HW262363   0.134   0.016   2.767  1.3530  0.4797  1.6385
20308SOL     OW62364   3.168   7.469  12.151  0.0299 -0.4849  0.0734
20308SOL    HW162365   3.262   7.480  12.165 -0.1895  0.9549  0.5433
20308SOL    HW262366   3.128   7.499  12.232 -0.8272 -1.5045  0.0474
20309SOL     OW62367   6.401   5.067   6.731 -0.3455  0.0507 -0.7396
20309SOL    HW162368   6.442   5.124   6.666  0.4558 -0.7265 -0.9378
20309SOL    HW262369   6.474   5.021   6.772 -0.8935  0.0348  0.2432
20310SOL     OW62370   7.183   5.545   5.657  0.2410  0.2200  0.5486
20310SOL    HW162371   7.105   5.593   5.631 -0.6220 -1.4398 -0.1394
20310SOL    HW262372   7.210   5.584   5.740 -1.3062  0.8622  0.7778
20311SOL     OW62373   4.017   6.803   7.183 -0.0683  0.1527  1.0663
20311SOL    HW162374   3.974   6.875   7.137 -0.4095 -0.7511 -0.0723
20311SOL    HW262375   3.990   6.814   7.275  0.9486  2.2145  1.1828
20312SOL     OW62376   6.368   2.318   3.408  0.5197  0.0859 -0.1485
20312SOL    HW162377   6.407   2.395   3.450 -0.4528  0.2483  0.4838
20312SOL    HW262378   6.377   2.248   3.473  0.1401  0.0225 -0.1602
20313SOL     OW62379   3.124   3.864   2.506  0.4500 -0.4023 -0.5646
20313SOL    HW162380   3.170   3.810   2.442  1.0048 -0.7254  0.0881
20313SOL    HW262381   3.177   3.856   2.586 -1.1032 -1.3678  0.4304
20314SOL     OW62382   1.120   7.216   1.474  0.2308 -0.1060 -0.1437
20314SOL    HW162383   1.081   7.299   1.449 -0.9050 -0.9248 -1.1886
20314SOL    HW262384   1.046   7.161   1.499  0.6325 -1.7438 -2.3072
20315SOL     OW62385   1.113   2.373   7.573 -0.0321  0.3898 -0.0731
20315SOL    HW162386   1.064   2.443   7.529 -1.8903 -1.8324 -1.8830
20315SOL    HW262387   1.158   2.328   7.502  2.0159  0.3452  1.1840
20316SOL     OW62388   3.924   7.050  11.080  0.6088 -0.8020  0.1238
20316SOL    HW162389   3.915   6.983  11.013 -0.3272 -0.8055  0.2397
20316SOL    HW262390   3.924   7.002  11.163 -0.2868 -0.6557  0.2180
20317SOL     OW62391   1.422   6.759   1.569 -0.1517  0.2271 -0.1497
20317SOL    HW162392   1.443   6.679   1.616  1.3480 -0.2744 -1.5797
20317SOL    HW262393   1.507   6.799   1.550 -0.8912  3.5435  2.7017
20318SOL     OW62394   7.843   2.545  11.975  0.9747 -0.6029 -0.0382
20318SOL    HW162395   7.772   2.547  12.039  1.1462  3.6306  0.2760
20318SOL    HW262396   7.798   2.534  11.891  0.1409  0.0338  0.3124
20319SOL     OW62397   3.548   3.399   8.873  0.4471  0.1270  0.4860
20319SOL    HW162398   3.476   3.374   8.815 -0.5695  1.4852  1.0990
20319SOL    HW262399   3.508   3.404   8.960  1.6511 -0.5936  1.1047
20320SOL     OW62400   0.976   7.041   5.072 -0.4332  0.1510  0.2034
20320SOL    HW162401   0.928   7.024   5.153 -1.3837 -0.1991 -0.4105
20320SOL    HW262402   0.935   7.119   5.036 -1.0458 -0.5561 -0.6838
20321SOL     OW62403   4.511   4.872   5.764  0.5169 -0.3691 -0.5353
20321SOL    HW162404   4.445   4.808   5.740  0.7768 -0.7821 -0.1567
20321SOL    HW262405   4.463   4.941   5.810  0.3788 -0.7716 -0.0691
20322SOL     OW62406   5.250   2.737  11.604 -0.0386 -0.2396 -0.4019
20322SOL    HW162407   5.158   2.736  11.630 -0.2539 -1.9389 -1.0432
20322SOL    HW262408   5.269   2.829  11.587 -1.1894  0.3299  1.1392
20323SOL     OW62409   0.904   7.051   4.359  0.0088  0.1429 -0.4214
20323SOL    HW162410   0.988   7.062   4.315  0.7813  1.9675  1.3650
20323SOL    HW262411   0.925   7.005   4.440 -0.8085  0.0967 -0.2251
20324SOL     OW62412   3.207   1.465   1.485 -0.3252  0.8910  0.1308
20324SOL    HW162413   3.194   1.376   1.453 -0.0182  0.9441 -0.1528
20324SOL    HW262414   3.131   1.482   1.540 -1.1402  0.9797 -0.9852
20325SOL     OW62415   4.865   0.093   5.956 -0.3042 -0.0433  0.2900
20325SOL    HW162416   4.779   0.064   5.928 -0.6929  0.4772  0.9020
20325SOL    HW262417   4.861   0.189   5.952  0.2090 -0.0112  0.4111
20326SOL     OW62418   0.751   0.032   7.568  0.6156  0.5834 -0.9623
20326SOL    HW162419   0.835   0.061   7.604  1.2720 -2.3862  0.1601
20326SOL    HW262420   0.688   0.097   7.599  1.9055  0.7706  1.5207
20327SOL     OW62421   4.295   1.077   7.846  0.3582  0.1931  0.5492
20327SOL    HW162422   4.239   1.154   7.849  0.6033  0.3647  0.7373
20327SOL    HW262423   4.319   1.067   7.754 -1.7479 -1.1578  0.0784
20328SOL     OW62424   3.833   6.260   3.493  0.5739  0.1957  0.1335
20328SOL    HW162425   3.741   6.253   3.519  0.8035 -0.2637  0.8685
20328SOL    HW262426   3.881   6.216   3.564  1.3281  0.0715 -0.4386
20329SOL     OW62427   2.672   0.570   6.245  0.5797 -0.3459  0.7921
20329SOL    HW162428   2.705   0.629   6.313  2.5974 -0.2706 -0.1672
20329SOL    HW262429   2.681   0.621   6.164 -2.2347 -0.2432  0.4462
20330SOL     OW62430   1.160   1.040   9.796 -0.1683 -0.0937  0.0338
20330SOL    HW162431   1.117   1.063   9.713 -1.3956  0.0578  0.6885
20330SOL    HW262432   1.091   1.050   9.862  0.5000 -1.2609  0.9372
20331SOL     OW62433   1.180   2.628  12.179  0.8230  0.0255  0.2843
20331SOL    HW162434   1.172   2.549  12.233 -1.2344 -1.3935 -1.8390
20331SOL    HW262435   1.114   2.688  12.213  1.3424  0.2254  0.9531
20332SOL     OW62436   2.832   2.975   5.101  0.1773  0.0746 -0.3094
20332SOL    HW162437   2.916   2.996   5.140 -0.4406  1.8257  0.1478
20332SOL    HW262438   2.769   3.031   5.146 -0.9480  0.2215 -1.9692
20333SOL     OW62439   6.419   4.564   5.626  0.3177  0.0299  0.1265
20333SOL    HW162440   6.499   4.613   5.644  0.8222 -0.2556 -1.2041
20333SOL    HW262441   6.448   4.473   5.614 -0.4203 -0.3663  1.1821
20334SOL     OW62442   7.487   5.610  12.038 -0.8524  0.1130  0.4434
20334SOL    HW162443   7.458   5.622  11.947 -1.0531  1.0898  0.6261
20334SOL    HW262444   7.578   5.581  12.030 -1.4251 -1.6674 -0.1022
20335SOL     OW62445   2.605   7.330   8.161 -0.4381  0.5665  0.2380
20335SOL    HW162446   2.617   7.392   8.233  1.8804 -0.2091  0.6225
20335SOL    HW262447   2.514   7.341   8.134 -0.4104  3.3045  1.0117
20336SOL     OW62448   4.912   0.231   1.033 -0.0730 -0.3950  0.2522
20336SOL    HW162449   4.951   0.216   0.947  3.1980  3.2764  0.8548
20336SOL    HW262450   4.974   0.193   1.094 -0.8784 -0.3199  1.1378
20337SOL     OW62451   1.420   1.977  11.436  0.0791 -0.3944 -0.2623
20337SOL    HW162452   1.388   1.983  11.526 -0.4813 -1.4099 -0.3784
20337SOL    HW262453   1.515   1.967  11.445  0.2551  1.3372  0.1331
20338SOL     OW62454   5.391   4.381   2.895  0.2234  0.2259 -0.5473
20338SOL    HW162455   5.318   4.363   2.955 -0.3986  3.6406 -0.0935
20338SOL    HW262456   5.349   4.410   2.814  1.0975  0.6081 -0.8728
20339SOL     OW62457   7.259   2.063   4.237 -0.1968  0.1304  0.1953
20339SOL    HW162458   7.337   2.014   4.212 -0.6526 -0.0508 -0.9485
20339SOL    HW262459   7.292   2.136   4.288  0.4400 -1.7382  2.6188
20340SOL     OW62460   1.431   6.404   6.467 -0.7410  0.3768  0.1379
20340SOL    HW162461   1.372   6.427   6.395 -0.3287 -1.1992 -0.7718
20340SOL    HW262462   1.396   6.322   6.501  0.2106  0.0708  0.4024
20341SOL     OW62463   6.502   5.592   4.117 -0.5117  0.5982 -0.4162
20341SOL    HW162464   6.592   5.562   4.106 -0.0219  0.7775  2.3473
20341SOL    HW262465   6.509   5.687   4.125 -1.0001  0.6518 -0.5886
20342SOL     OW62466   3.980   7.017   1.723  0.7312  0.2628 -0.3603
20342SOL    HW162467   4.002   7.045   1.635  1.8376  0.3722 -0.0592
20342SOL    HW262468   4.062   6.983   1.759 -0.0100 -1.0602  0.1520
20343SOL     OW62469   4.207   5.542   0.652 -0.0005  0.5166 -0.5033
20343SOL    HW162470   4.280   5.483   0.671 -0.8175 -0.2622  0.3181
20343SOL    HW262471   4.159   5.498   0.582 -0.6641  0.1411  0.1769
20344SOL     OW62472   2.840   4.058  12.047  0.7666  0.3156 -0.4796
20344SOL    HW162473   2.891   3.997  11.994 -1.6999 -0.7331 -1.7855
20344SOL    HW262474   2.763   4.078  11.994 -1.5925 -0.3403  2.4457
20345SOL     OW62475   7.305   5.832   1.888 -0.3443  0.6378  0.2378
20345SOL    HW162476   7.257   5.910   1.915 -2.9855 -0.4380 -1.0263
20345SOL    HW262477   7.277   5.763   1.948 -0.5970 -0.0735 -0.6727
20346SOL     OW62478   4.097   0.001   2.350 -0.6328 -0.2731  0.3090
20346SOL    HW162479   4.006  -0.006   2.321 -0.7234  0.5304  0.3880
20346SOL    HW262480   4.094   0.058   2.427  0.1829  1.5123 -0.9204
20347SOL     OW62481   7.280   7.148   5.702  0.6397  0.0455 -0.2370
20347SOL    HW162482   7.252   7.060   5.726  0.0245  0.4239  0.4665
20347SOL    HW262483   7.362   7.161   5.750  0.4723  0.0402  0.0528
20348SOL     OW62484   6.389   7.729   5.450 -0.3189  0.4071  0.3514
20348SOL    HW162485   6.387   7.637   5.478 -0.3792  0.2175 -0.2688
20348SOL    HW262486   6.451   7.731   5.377 -0.6265  0.7834  0.0956
20349SOL     OW62487   3.629   7.166  10.884 -0.4522  0.2511 -0.9154
20349SOL    HW162488   3.651   7.239  10.941  0.2421 -0.7958  0.2102
20349SOL    HW262489   3.550   7.194  10.838 -0.2085  1.6896 -0.5089
20350SOL     OW62490   5.037   4.964   2.393 -0.3752  0.2898 -0.4413
20350SOL    HW162491   5.010   5.029   2.458  0.6731 -0.1816  0.4890
20350SOL    HW262492   5.118   4.998   2.356  0.2012 -0.4895  0.0780
20351SOL     OW62493   7.283   6.410   0.066 -0.1950 -0.2424  0.0652
20351SOL    HW162494   7.313   6.348   0.132 -0.7214 -0.2649  0.2929
20351SOL    HW262495   7.191   6.425   0.088 -0.5170 -0.6285 -0.9545
20352SOL     OW62496   7.294   5.642   4.635 -0.5802  0.3384 -0.5391
20352SOL    HW162497   7.226   5.627   4.569  0.3476 -1.1764 -1.1946
20352SOL    HW262498   7.282   5.570   4.698  1.8843 -1.5106 -1.9750
20353SOL     OW62499   7.313   3.204  11.450  0.5422 -0.0609 -0.1855
20353SOL    HW162500   7.344   3.211  11.360 -1.2910 -1.0130 -0.9596
20353SOL    HW262501   7.381   3.245  11.503  2.5114 -1.0245 -1.8328
20354SOL     OW62502   1.464   5.874   7.493  0.8882 -0.2405 -0.0623
20354SOL    HW162503   1.420   5.957   7.514  1.1528  0.2244 -1.2448
20354SOL    HW262504   1.484   5.881   7.400  1.9817 -1.1418  0.0830
20355SOL     OW62505   6.376   1.887   6.627 -0.1228 -0.2404  0.2768
20355SOL    HW162506   6.321   1.920   6.698  1.7340 -0.7510  2.0540
20355SOL    HW262507   6.378   1.792   6.640 -0.4819 -0.4313 -1.0213
20356SOL     OW62508   0.441   5.420  10.807 -0.0093  0.0698 -0.1429
20356SOL    HW162509   0.422   5.344  10.862  0.5480 -0.0592 -0.1213
20356SOL    HW262510   0.371   5.482  10.826 -0.4229 -0.4075 -0.1040
20357SOL     OW62511   5.053   4.124   0.825  0.2825 -0.3792  0.2203
20357SOL    HW162512   4.986   4.112   0.757  0.7944 -0.5200 -0.2669
20357SOL    HW262513   5.037   4.053   0.887 -0.4829  0.0232  0.5020
20358SOL     OW62514   4.995   5.607   4.385  0.1052  0.4594  0.4379
20358SOL    HW162515   4.999   5.520   4.343 -0.3780  0.0767  1.1651
20358SOL    HW262516   5.024   5.591   4.475 -2.0560  0.6136  1.2260
20359SOL     OW62517   4.704   7.679  11.482 -0.3243 -0.3964  0.0276
20359SOL    HW162518   4.688   7.599  11.532  0.5721  1.0355  2.7837
20359SOL    HW262519   4.737   7.648  11.398 -1.2169 -2.9314  0.5129
20360SOL     OW62520   0.377   1.633   7.960 -0.0773 -0.3507 -0.0555
20360SOL    HW162521   0.402   1.541   7.967 -1.0658 -0.6295 -0.0545
20360SOL    HW262522   0.305   1.634   7.897  0.1070  0.4593 -0.2641
20361SOL     OW62523   2.330   4.714   1.963 -0.2631  0.5499  0.3843
20361SOL    HW162524   2.286   4.743   2.043  1.2113  0.2293  1.3657
20361SOL    HW262525   2.401   4.657   1.995  1.4355  1.7725 -1.0144
20362SOL     OW62526   7.275   4.107  11.160  0.5889  0.4446 -0.3875
20362SOL    HW162527   7.345   4.159  11.198  0.3544  0.4145  0.0985
20362SOL    HW262528   7.255   4.041  11.227  0.5417  0.0455 -0.7893
20363SOL     OW62529   2.143   6.924   7.759 -0.4402  0.4076  0.2432
20363SOL    HW162530   2.139   6.998   7.821  1.9884 -0.9039  2.1498
20363SOL    HW262531   2.081   6.861   7.793 -1.8387  1.1216 -0.8678
20364SOL     OW62532   0.996   6.636   0.345 -0.3215  0.5409 -0.5660
20364SOL    HW162533   1.039   6.659   0.427  0.4421 -1.2956 -0.4100
20364SOL    HW262534   0.922   6.581   0.371  1.1487 -1.8700 -1.1163
20365SOL     OW62535   1.143   1.669   2.384 -0.1723 -0.2125 -0.0973
20365SOL    HW162536   1.161   1.586   2.340 -0.5752 -1.2275  1.5533
20365SOL    HW262537   1.063   1.652   2.435  0.6122  0.6792  1.5126
20366SOL     OW62538   7.357   4.831   0.438 -0.1115 -0.2147 -0.4275
20366SOL    HW162539   7.435   4.871   0.477 -0.9222  0.0930  0.9236
20366SOL    HW262540   7.348   4.747   0.483  0.1989 -0.8926 -1.5643
20367SOL     OW62541   7.060   0.809   7.889 -0.3225 -0.1927  0.0966
20367SOL    HW162542   6.991   0.864   7.927 -0.3590  0.4041 -0.8110
20367SOL    HW262543   7.115   0.785   7.964 -0.7686  0.4074  0.6329
20368SOL     OW62544   0.211   5.661   3.276  0.3010 -0.0680 -0.1344
20368SOL    HW162545   0.163   5.667   3.359  0.5547  0.3142 -0.0114
20368SOL    HW262546   0.144   5.674   3.209  0.3884  1.5744  0.0647
20369SOL     OW62547   1.019   0.932   3.580 -0.9134 -0.5645  0.1324
20369SOL    HW162548   0.971   1.001   3.627  1.7352  0.5985  1.3473
20369SOL    HW262549   1.006   0.954   3.488 -0.4953  1.3993  0.4783
20370SOL     OW62550   5.771   7.864   2.325  0.3283 -0.2503  0.2713
20370SOL    HW162551   5.815   7.895   2.404  0.4916  1.0435 -0.3114
20370SOL    HW262552   5.842   7.830   2.271  0.3605 -0.0345  0.1785
20371SOL     OW62553   0.374   0.152   7.867  0.0252  0.0309  0.2474
20371SOL    HW162554   0.440   0.083   7.872 -0.1180 -0.0504  1.1815
20371SOL    HW262555   0.338   0.157   7.955 -0.4260  0.8530  0.0265
20372SOL     OW62556   5.184   0.346  12.150  0.2194  0.1803 -0.9011
20372SOL    HW162557   5.250   0.392  12.203  1.1032 -0.5682 -1.3297
20372SOL    HW262558   5.187   0.256  12.182  0.2021 -0.1034 -1.6767
20373SOL     OW62559   4.852   2.366  10.255  0.1822 -0.0653  0.0056
20373SOL    HW162560   4.781   2.309  10.224  0.7406 -1.1094  0.5937
20373SOL    HW262561   4.906   2.381  10.177 -0.1521 -0.0769 -0.2294
20374SOL     OW62562   6.669   3.274   4.139  0.2086  0.2438 -0.1831
20374SOL    HW162563   6.655   3.214   4.066 -1.8425  0.3442  0.0732
20374SOL    HW262564   6.658   3.221   4.217  1.4961  0.3338  0.0892
20375SOL     OW62565   2.292   4.426  11.408  0.5409  0.1231 -0.1244
20375SOL    HW162566   2.262   4.443  11.498 -0.2876  0.0515 -0.3727
20375SOL    HW262567   2.274   4.508  11.362  0.7572  0.0853 -0.2727
20376SOL     OW62568   3.349   0.742   1.265 -0.4140  0.0020  0.7616
20376SOL    HW162569   3.356   0.675   1.196 -1.5899  0.7822 -0.1675
20376SOL    HW262570   3.256   0.741   1.289 -0.7509  2.1599 -0.2171
20377SOL     OW62571   1.328   5.314   8.084 -0.0143 -0.3471  0.1526
20377SOL    HW162572   1.369   5.242   8.132  0.2929 -0.1861  0.1313
20377SOL    HW262573   1.235   5.290   8.081  0.2480 -1.3181 -0.8592
20378SOL     OW62574   2.087   5.373   7.544  0.4093  0.1080  0.0739
20378SOL    HW162575   2.119   5.462   7.558  1.6096 -0.0649 -1.2564
20378SOL    HW262576   2.069   5.339   7.631  2.9647  0.5863  0.8598
20379SOL     OW62577   3.247   0.438   2.190  0.6992 -0.4830 -0.0115
20379SOL    HW162578   3.211   0.359   2.149  0.8957 -1.3021  1.3626
20379SOL    HW262579   3.338   0.415   2.210  0.5895 -0.1230  0.9305
20380SOL     OW62580   3.665   5.164   7.129  0.4551 -0.4180 -0.3416
20380SOL    HW162581   3.573   5.192   7.122  0.5355 -0.4228 -1.5263
20380SOL    HW262582   3.711   5.243   7.157  0.4340  0.2388 -2.0843
20381SOL     OW62583   5.315   4.470  11.674  0.5352  0.1388 -0.0395
20381SOL    HW162584   5.372   4.439  11.745 -1.3081 -1.8475  0.7031
20381SOL    HW262585   5.347   4.425  11.596  0.4159 -0.4601  0.2500
20382SOL     OW62586   5.443   1.555   3.144  0.3071  0.1267  0.5640
20382SOL    HW162587   5.477   1.644   3.140  3.4013 -0.9147  1.2002
20382SOL    HW262588   5.460   1.519   3.057 -0.2317 -0.1117  0.5518
20383SOL     OW62589   1.549   0.135   7.735  0.0941 -0.1062  0.3647
20383SOL    HW162590   1.459   0.104   7.729  0.1295 -0.2881  0.7109
20383SOL    HW262591   1.548   0.200   7.805  0.2765 -0.2930  0.5445
20384SOL     OW62592   7.293   1.690   4.553 -0.2050 -0.8606  0.4987
20384SOL    HW162593   7.247   1.670   4.634  1.1565 -0.3383  1.4414
20384SOL    HW262594   7.374   1.733   4.581 -1.0077  2.0410 -1.2411
20385SOL     OW62595   5.649   4.017   0.912  0.0105  0.2627  0.0697
20385SOL    HW162596   5.628   3.993   0.822  1.9907 -0.3184 -0.3008
20385SOL    HW262597   5.680   4.107   0.906 -1.2838  0.7518  0.4385
20386SOL     OW62598   7.233   5.113   3.373  0.2674  0.5288  0.6948
20386SOL    HW162599   7.169   5.098   3.304  1.9282 -1.7439 -0.4849
20386SOL    HW262600   7.263   5.202   3.359 -0.9812  0.8438 -0.1382
20387SOL     OW62601   5.818   1.486   7.875  0.1970  0.3761 -0.1149
20387SOL    HW162602   5.737   1.435   7.876 -0.1446  0.9201  0.2584
20387SOL    HW262603   5.807   1.548   7.803  0.3599  0.3363 -0.1763
20388SOL     OW62604   2.492   6.479  10.451 -0.0858  0.4813 -0.7581
20388SOL    HW162605   2.409   6.431  10.454  0.1219  0.1381  0.9642
20388SOL    HW262606   2.529   6.458  10.365 -2.5970  2.1449 -2.3741
20389SOL     OW62607   6.257   0.543   1.786 -0.3962 -0.1434 -0.1526
20389SOL    HW162608   6.302   0.613   1.833 -1.5806  0.3819  0.2451
20389SOL    HW262609   6.226   0.584   1.706 -0.1668 -0.5037 -0.4287
20390SOL     OW62610   6.243   2.712   2.889 -0.9119 -0.2532  0.1521
20390SOL    HW162611   6.320   2.657   2.875 -1.3710 -1.1703  1.1721
20390SOL    HW262612   6.279   2.798   2.912 -0.1947 -0.7953  1.0842
20391SOL     OW62613   0.672   5.050   2.872 -0.4472 -0.2234 -0.5297
20391SOL    HW162614   0.612   5.122   2.856 -0.9535  0.0437  2.0434
20391SOL    HW262615   0.757   5.092   2.884 -0.5586 -0.1245 -0.0329
20392SOL     OW62616   3.678   1.391  11.938  0.7870 -0.1632  0.1316
20392SOL    HW162617   3.603   1.337  11.961  2.0031 -1.7182  0.6045
20392SOL    HW262618   3.653   1.480  11.965 -0.9126 -0.6072  0.1299
20393SOL     OW62619   5.189   3.278  10.926  0.5754 -0.0724  0.2259
20393SOL    HW162620   5.136   3.351  10.957  0.1135 -0.0003 -0.7204
20393SOL    HW262621   5.153   3.201  10.972 -1.6481 -0.3414 -1.7771
20394SOL     OW62622   4.083   0.154   6.016  0.9372  0.5875  0.2839
20394SOL    HW162623   4.174   0.169   6.039  0.9776 -1.4172  1.7755
20394SOL    HW262624   4.039   0.142   6.100 -0.3823 -0.0304 -0.4584
20395SOL     OW62625   1.613   1.673   1.583 -0.0050 -0.0242 -0.3395
20395SOL    HW162626   1.632   1.579   1.582 -1.8363 -0.4278 -0.7384
20395SOL    HW262627   1.539   1.683   1.642 -1.0573  0.8812 -1.7296
20396SOL     OW62628   4.306   7.847   3.050 -0.1410 -0.4915 -0.5312
20396SOL    HW162629   4.225   7.898   3.042  0.2689  0.1645 -0.5509
20396SOL    HW262630   4.326   7.849   3.143  3.0477  4.4916 -0.9925
20397SOL     OW62631   0.893   4.163   7.612 -0.1202  0.2873 -0.2105
20397SOL    HW162632   0.918   4.086   7.560  0.2835 -0.5440  1.1413
20397SOL    HW262633   0.961   4.228   7.593  0.7254 -0.4493  0.1931
20398SOL     OW62634   1.953   4.448   8.079 -0.1543 -0.1945  0.0949
20398SOL    HW162635   2.047   4.445   8.100  0.1140  0.7078 -0.8884
20398SOL    HW262636   1.943   4.385   8.008 -0.3193 -0.3491  0.2536
20399SOL     OW62637   1.871   4.433   7.261 -0.3596  0.5067 -0.0039
20399SOL    HW162638   1.872   4.345   7.223 -0.9538 -0.1438  1.4337
20399SOL    HW262639   1.950   4.475   7.226  0.0805 -0.6804 -0.4907
20400SOL     OW62640   4.868   3.385   2.241  0.0426 -0.0597 -0.2672
20400SOL    HW162641   4.912   3.326   2.302 -0.2177 -0.0619 -0.0821
20400SOL    HW262642   4.925   3.462   2.237  0.4868 -0.4029 -0.6656
20401SOL     OW62643   1.771   0.737  10.689  0.0293  0.4243 -0.0481
20401SOL    HW162644   1.833   0.805  10.716 -0.0016  0.0204  1.1367
20401SOL    HW262645   1.753   0.689  10.770 -1.3599  0.1532 -0.4927
20402SOL     OW62646   1.856   2.491   8.477 -0.3880 -0.0445  0.0164
20402SOL    HW162647   1.857   2.574   8.430  0.4781  0.2687  0.5751
20402SOL    HW262648   1.788   2.440   8.433  1.4661 -0.4143 -2.6815
20403SOL     OW62649   0.970   7.584   6.814 -0.4343 -0.5146 -0.1553
20403SOL    HW162650   1.048   7.581   6.870 -0.3637 -0.4573 -0.2507
20403SOL    HW262651   1.004   7.586   6.725 -0.5034  0.7703 -0.1731
20404SOL     OW62652   0.684   4.143   0.958  0.2509 -0.0352  0.2620
20404SOL    HW162653   0.613   4.139   1.022  1.2493  0.8357  1.4755
20404SOL    HW262654   0.745   4.074   0.985  0.3825 -0.0767 -0.1277
20405SOL     OW62655   3.452   3.290   9.456  0.0518  0.1080 -0.3397
20405SOL    HW162656   3.443   3.383   9.434  1.9545  0.3249 -0.3518
20405SOL    HW262657   3.399   3.279   9.534 -0.3133  1.1822 -0.4196
20406SOL     OW62658   0.177   3.214   1.428 -0.1116  1.1351  0.4463
20406SOL    HW162659   0.247   3.185   1.369  0.9764  1.5531  1.4844
20406SOL    HW262660   0.188   3.308   1.435 -1.1134  1.2787  0.2287
20407SOL     OW62661   1.263   0.092   7.671 -0.4910  0.3256  0.5375
20407SOL    HW162662   1.256  -0.001   7.693  1.6516  0.1852  0.8267
20407SOL    HW262663   1.184   0.110   7.620 -0.2143 -2.0244 -0.8757
20408SOL     OW62664   2.596   1.021  11.590 -0.3527  0.2388  0.2785
20408SOL    HW162665   2.608   0.940  11.640 -0.0563  0.0311 -0.1314
20408SOL    HW262666   2.661   1.081  11.625  0.3589 -0.1473 -0.3655
20409SOL     OW62667   1.379   3.929  10.285  0.4625 -0.5061 -0.2201
20409SOL    HW162668   1.409   3.838  10.296 -2.0049 -1.2075  1.7482
20409SOL    HW262669   1.320   3.943  10.359  1.2429  2.9766 -0.0947
20410SOL     OW62670   1.156   1.039   2.284 -0.1117  0.1444 -0.1824
20410SOL    HW162671   1.230   0.981   2.305  0.5339  0.7871 -0.6555
20410SOL    HW262672   1.128   1.073   2.369 -1.1027 -1.5499  0.2254
20411SOL     OW62673   3.442   2.074   1.101  0.3519 -0.4942 -0.0487
20411SOL    HW162674   3.350   2.102   1.102  0.2842 -0.7217  0.8896
20411SOL    HW262675   3.486   2.137   1.044  0.1436  1.3484  1.7390
20412SOL     OW62676   6.277   6.777   4.573 -0.0859  0.0896  0.6360
20412SOL    HW162677   6.290   6.720   4.649  0.9283 -1.6204 -0.7492
20412SOL    HW262678   6.360   6.826   4.566 -0.0541  0.0048  0.4304
20413SOL     OW62679   5.197   1.827   0.363 -0.4708  0.2198  0.1442
20413SOL    HW162680   5.123   1.828   0.303 -0.0818  0.3896 -0.3377
20413SOL    HW262681   5.269   1.788   0.313 -0.2071  0.1356  0.5772
20414SOL     OW62682   2.458   2.866   0.536 -0.0626 -0.1340  0.1410
20414SOL    HW162683   2.409   2.926   0.480 -2.7116 -0.9011  1.4560
20414SOL    HW262684   2.437   2.779   0.503  1.1883 -0.4637  0.1806
20415SOL     OW62685   1.621   3.853  11.540 -0.8250  0.2529  0.0012
20415SOL    HW162686   1.601   3.947  11.535 -0.7173  0.4691  2.3236
20415SOL    HW262687   1.546   3.811  11.498 -1.0032  1.3620 -0.8557
20416SOL     OW62688   6.770   6.701   2.837 -0.9207  0.3774 -0.1754
20416SOL    HW162689   6.834   6.679   2.904 -0.3747  1.3672 -0.3505
20416SOL    HW262690   6.822   6.715   2.757 -1.3853  0.8325 -0.4076
20417SOL     OW62691   1.911   3.755   6.712  0.3225 -0.4538 -0.1280
20417SOL    HW162692   1.977   3.744   6.780  1.0851  0.9322 -0.6140
20417SOL    HW262693   1.951   3.718   6.633  0.2821 -0.1750 -0.2824
20418SOL     OW62694   1.943   4.838   6.196  0.1444  0.1644  0.1537
20418SOL    HW162695   2.025   4.883   6.215  1.1063 -1.4008 -0.1503
20418SOL    HW262696   1.921   4.794   6.279 -2.0824  2.9916  1.2496
20419SOL     OW62697   5.942   6.099   7.376 -0.4281  0.5971  0.2391
20419SOL    HW162698   6.027   6.105   7.332 -0.2050 -0.3493  0.5284
20419SOL    HW262699   5.963   6.076   7.466 -1.0079 -0.0698  0.2095
20420SOL     OW62700   4.389   4.839   2.866  0.0677 -0.1933  0.4200
20420SOL    HW162701   4.441   4.805   2.939 -0.1215 -0.8810  0.2419
20420SOL    HW262702   4.437   4.916   2.837  1.9636 -1.7241 -0.8102
20421SOL     OW62703   1.604   6.029  11.712  0.1144  0.4905 -0.1089
20421SOL    HW162704   1.696   6.031  11.738 -0.4186 -1.7434  2.4533
20421SOL    HW262705   1.558   6.075  11.782 -0.8712 -0.1788 -0.2896
20422SOL     OW62706   5.182   7.785   1.782  0.4228 -0.3902 -0.4958
20422SOL    HW162707   5.138   7.853   1.833  1.5030  0.0539 -0.1336
20422SOL    HW262708   5.196   7.713   1.844 -0.9602 -1.0770 -0.9456
20423SOL     OW62709   3.132   5.213   2.727 -0.8043 -0.2107  0.6147
20423SOL    HW162710   3.191   5.236   2.654 -1.1265 -0.2036  0.3551
20423SOL    HW262711   3.165   5.264   2.801 -1.1748  0.6723  0.1854
20424SOL     OW62712   7.805   7.000   2.078  0.4781 -0.6180  0.0665
20424SOL    HW162713   7.811   7.087   2.040 -0.2402  0.1197  1.5406
20424SOL    HW262714   7.883   6.954   2.048  0.2748  0.1186 -1.6949
20425SOL     OW62715   4.934   1.102   6.165  0.5246  0.1969 -0.2902
20425SOL    HW162716   5.006   1.044   6.139 -0.4420 -0.8621 -0.6647
20425SOL    HW262717   4.932   1.168   6.096 -0.1972 -0.9772 -1.4430
20426SOL     OW62718   4.880   0.378   6.069  0.0883  0.0416  0.4678
20426SOL    HW162719   4.872   0.304   6.129 -0.9772 -0.1309  0.1274
20426SOL    HW262720   4.916   0.449   6.123 -0.9950 -0.0618  1.3588
20427SOL     OW62721   0.152   3.018   9.505 -0.0819 -0.5170  0.1426
20427SOL    HW162722   0.244   3.042   9.496 -0.8969  3.1377 -0.0277
20427SOL    HW262723   0.132   3.035   9.597 -0.7524 -0.6043  0.0156
20428SOL     OW62724   3.246   7.795   5.317  0.5313 -0.3121 -0.3519
20428SOL    HW162725   3.184   7.848   5.267  1.2746  0.8874 -0.0722
20428SOL    HW262726   3.222   7.705   5.299  0.0137  0.1083 -1.8696
20429SOL     OW62727   0.156   5.830   8.785 -0.0602  0.0225  0.1297
20429SOL    HW162728   0.208   5.824   8.705  1.3996  0.5928  1.0102
20429SOL    HW262729   0.133   5.922   8.792  0.1325  0.0348  0.5779
20430SOL     OW62730   7.380   6.938  12.000 -0.4787 -0.1365 -0.0570
20430SOL    HW162731   7.383   6.843  12.014  0.4305  0.1232  1.7998
20430SOL    HW262732   7.305   6.951  11.942 -0.1987 -2.0412 -0.9087
20431SOL     OW62733   5.082   4.933   9.195  0.3901 -0.6727 -0.2401
20431SOL    HW162734   5.046   5.015   9.162 -0.1849 -0.9676 -0.3464
20431SOL    HW262735   5.140   4.903   9.125  0.7689 -0.2504 -0.1121
20432SOL     OW62736   7.256   0.276  10.867  0.1446 -0.3605  0.0880
20432SOL    HW162737   7.205   0.203  10.832  1.0505 -0.0523 -2.0475
20432SOL    HW262738   7.345   0.243  10.874  0.2365  0.0205  0.8127
20433SOL     OW62739   6.404   1.597   2.896  0.1714 -0.3734  0.0809
20433SOL    HW162740   6.321   1.644   2.906  0.2239 -0.4060  0.7606
20433SOL    HW262741   6.467   1.650   2.945  0.1762 -1.2714  1.0923
20434SOL     OW62742   0.653   5.571   8.231  0.1819 -0.2649 -0.4544
20434SOL    HW162743   0.696   5.562   8.317 -1.3840 -0.0774  0.3879
20434SOL    HW262744   0.669   5.488   8.188  1.1885 -0.2838 -0.0885
20435SOL     OW62745   1.215   0.506  10.940 -0.1355  0.6039  0.2996
20435SOL    HW162746   1.263   0.521  11.022 -0.3449  0.6572  0.4115
20435SOL    HW262747   1.205   0.411  10.936 -0.2896  0.6148  0.4287
20436SOL     OW62748   5.155   7.057  12.305 -0.2111 -0.5387 -0.2241
20436SOL    HW162749   5.179   7.042  12.397  0.1106  1.1187 -0.0049
20436SOL    HW262750   5.149   7.152  12.297 -0.3127 -0.6583 -1.9140
20437SOL     OW62751   1.091   5.122   1.105 -0.3674  0.2834 -0.0242
20437SOL    HW162752   1.018   5.059   1.101 -0.0935  0.0106 -1.5212
20437SOL    HW262753   1.122   5.127   1.015  0.9876  0.9830  0.4601
20438SOL     OW62754   3.882   7.852   9.065 -0.1437 -0.4053 -0.7315
20438SOL    HW162755   3.875   7.757   9.053  0.3713 -0.5516  0.0240
20438SOL    HW262756   3.884   7.887   8.976 -2.7665 -0.8805 -1.0596
20439SOL     OW62757   1.935   0.051   2.330  0.7464 -0.0238 -0.0020
20439SOL    HW162758   1.849   0.083   2.359  0.8647  0.9063 -0.6420
20439SOL    HW262759   1.958  -0.017   2.394  0.1185  0.6166  0.9361
20440SOL     OW62760   2.251   1.866   1.238 -0.0667  0.0126  0.4477
20440SOL    HW162761   2.192   1.930   1.278  0.8752 -0.1641  2.2354
20440SOL    HW262762   2.210   1.845   1.154 -1.2665  1.6865  0.5595
20441SOL     OW62763   4.392   5.233   9.300  0.2864  0.0478  0.2828
20441SOL    HW162764   4.372   5.323   9.327 -0.6347 -0.6650  2.1265
20441SOL    HW262765   4.307   5.188   9.302  0.5006 -0.5692 -1.9611
20442SOL     OW62766   7.472   4.676   2.777  0.1301 -0.2811  0.6273
20442SOL    HW162767   7.477   4.614   2.850 -0.8091  0.1273  1.0540
20442SOL    HW262768   7.436   4.625   2.705  1.0710 -0.6910  0.4359
20443SOL     OW62769   3.094   3.329   4.712  0.2637  0.0266 -0.0367
20443SOL    HW162770   3.023   3.330   4.776 -0.5163  0.0797 -0.8839
20443SOL    HW262771   3.102   3.419   4.683  1.5915  0.2746  1.0129
20444SOL     OW62772   7.798   2.559   5.508  0.5406 -0.0266  0.0919
20444SOL    HW162773   7.863   2.597   5.567  0.7725  0.8964 -0.7383
20444SOL    HW262774   7.848   2.498   5.454  0.6026  0.2325 -0.1424
20445SOL     OW62775   1.035   4.531   5.063 -0.2314  0.3838 -0.2421
20445SOL    HW162776   1.086   4.575   4.995  0.4653  0.0225  0.0286
20445SOL    HW262777   1.085   4.546   5.144 -0.5628  0.0339  0.0356
20446SOL     OW62778   6.151   2.653   2.459  0.0850 -0.2683 -0.0147
20446SOL    HW162779   6.189   2.578   2.505  0.7176  0.9269  1.5086
20446SOL    HW262780   6.104   2.702   2.527 -1.1335  0.2146 -1.1653
20447SOL     OW62781   0.355   1.783  12.314  0.3029  0.3343  0.0989
20447SOL    HW162782   0.294   1.837  12.264 -0.4149  0.6103  1.2258
20447SOL    HW262783   0.315   1.775  12.400  1.7252  0.2795  0.7910
20448SOL     OW62784   5.110   3.363  12.005  0.1782  0.3424 -0.1136
20448SOL    HW162785   5.079   3.441  11.958  3.1137  1.9014  0.2857
20448SOL    HW262786   5.094   3.383  12.097  0.6766  0.3643 -0.0298
20449SOL     OW62787   1.287   6.946   2.986 -0.3133  0.0379 -0.0226
20449SOL    HW162788   1.368   6.965   3.033 -0.3405  0.0376  0.0240
20449SOL    HW262789   1.291   6.853   2.967  0.0795  0.1888 -0.7328
20450SOL     OW62790   5.630   3.049   8.326  0.4283  0.4025 -0.9036
20450SOL    HW162791   5.700   3.091   8.376 -0.6395  0.7907  0.3229
20450SOL    HW262792   5.580   3.122   8.289 -1.5946  0.3687  1.4508
20451SOL     OW62793   6.619   6.989   4.736  0.2245 -0.5065 -0.4029
20451SOL    HW162794   6.615   7.014   4.828  1.8287  0.9389 -0.6810
20451SOL    HW262795   6.712   6.975   4.719  0.0132 -0.1894 -1.9425
20452SOL     OW62796   4.040   1.593   8.140 -0.2297  0.4248  0.0663
20452SOL    HW162797   3.959   1.598   8.089 -0.6098  0.2319  0.6476
20452SOL    HW262798   4.050   1.680   8.178  0.0573  0.5705 -0.3394
20453SOL     OW62799   3.261   1.816   0.349  0.5906  0.5513  0.0515
20453SOL    HW162800   3.305   1.745   0.397  0.7996  0.4817 -0.2360
20453SOL    HW262801   3.326   1.887   0.347 -0.2158  1.4027  1.8006
20454SOL     OW62802   2.608   3.369   5.104 -0.3459 -0.4558 -0.4285
20454SOL    HW162803   2.614   3.274   5.111  0.8623 -0.3591  0.0759
20454SOL    HW262804   2.652   3.402   5.182  0.2450  0.5278 -1.1521
20455SOL     OW62805   7.840   2.700   3.235 -0.3404 -0.5622 -0.3806
20455SOL    HW162806   7.777   2.719   3.304 -0.8689  0.8173 -1.2042
20455SOL    HW262807   7.801   2.627   3.186 -1.2010  0.1174 -0.7306
20456SOL     OW62808   5.804   4.966   5.529  0.2200  0.0145 -0.4251
20456SOL    HW162809   5.772   4.876   5.521  0.2751  0.0380 -0.9293
20456SOL    HW262810   5.739   5.009   5.584  0.1257 -0.3015 -0.2849
20457SOL     OW62811   1.293   5.302  10.390  0.4400  0.0655  0.4180
20457SOL    HW162812   1.315   5.213  10.417 -0.9001 -1.1480 -2.2107
20457SOL    HW262813   1.247   5.339  10.466 -0.2499 -1.9759  1.0514
20458SOL     OW62814   5.531   2.527   1.155 -0.2413 -0.4415  0.7083
20458SOL    HW162815   5.465   2.531   1.086 -0.7720  3.0052  1.2309
20458SOL    HW262816   5.510   2.447   1.204 -2.6150 -0.6319 -0.4727
20459SOL     OW62817   2.763   2.465   7.832  0.3761  0.9157  0.8695
20459SOL    HW162818   2.722   2.387   7.868  1.6308  1.2580  3.2222
20459SOL    HW262819   2.711   2.538   7.865  0.0266  1.1656 -0.1823
20460SOL     OW62820   0.233   1.753   0.275  0.0081  0.0585  0.0197
20460SOL    HW162821   0.298   1.687   0.253 -0.2703 -0.5225  0.8847
20460SOL    HW262822   0.178   1.711   0.341  0.9863  1.7951  2.0579
20461SOL     OW62823   2.588   4.062   3.170 -0.4065 -0.1819 -0.1292
20461SOL    HW162824   2.561   3.979   3.133 -0.9305 -0.8663  1.6741
20461SOL    HW262825   2.522   4.082   3.237 -0.2056  1.6022 -0.3918
20462SOL     OW62826   7.722   1.998   1.401  0.3430 -0.4873  0.4978
20462SOL    HW162827   7.646   1.957   1.442 -2.4303  1.3057 -2.4394
20462SOL    HW262828   7.727   2.085   1.440  0.2983 -0.2771  0.0413
20463SOL     OW62829   7.599   2.097   5.943  0.0861 -0.4587  0.0362
20463SOL    HW162830   7.585   2.003   5.943  2.4596 -0.9507  2.3996
20463SOL    HW262831   7.694   2.107   5.954  0.1830  2.2584 -2.1391
20464SOL     OW62832   3.927   4.245   5.278  0.3919 -0.1865  0.6729
20464SOL    HW162833   4.008   4.194   5.280 -0.2018 -1.2271 -0.3448
20464SOL    HW262834   3.858   4.182   5.297 -0.3849  0.1662 -0.7974
20465SOL     OW62835   7.345   3.232   6.968  0.3629 -0.2614 -0.0963
20465SOL    HW162836   7.327   3.148   7.010 -0.9030  0.2070  0.3600
20465SOL    HW262837   7.274   3.243   6.905  1.3148 -0.1759 -1.1716
20466SOL     OW62838   2.360   2.252   2.355 -0.5577  0.6542 -0.3231
20466SOL    HW162839   2.413   2.201   2.416 -2.3717 -1.5587 -0.4514
20466SOL    HW262840   2.415   2.262   2.277  0.0849 -0.6176 -0.0527
20467SOL     OW62841   0.467   6.023   0.869  0.2514 -0.1443  0.0688
20467SOL    HW162842   0.392   6.061   0.916  0.1944  2.1788 -1.7317
20467SOL    HW262843   0.541   6.078   0.894  0.2919  0.9082 -2.1796
20468SOL     OW62844   2.655   7.017   8.911 -0.4126  0.4662  0.1464
20468SOL    HW162845   2.749   7.000   8.914 -0.5409 -0.6265 -1.1219
20468SOL    HW262846   2.648   7.104   8.870  0.0332  0.3559 -0.1772
20469SOL     OW62847   5.533   6.787   7.121 -0.3815  0.6364 -0.1906
20469SOL    HW162848   5.596   6.768   7.052 -0.4849 -1.0582  0.1382
20469SOL    HW262849   5.563   6.736   7.196 -1.1160  1.2541  0.5446
20470SOL     OW62850   1.066   5.320   0.716 -0.1010 -0.0672 -0.4730
20470SOL    HW162851   1.015   5.256   0.766 -0.8343  0.6192 -0.3315
20470SOL    HW262852   1.137   5.268   0.676 -0.3300 -0.8583  0.1253
20471SOL     OW62853   4.980   4.540   7.072 -0.0261 -0.0889  0.1826
20471SOL    HW162854   5.016   4.569   7.156 -0.8706  1.7199 -0.0341
20471SOL    HW262855   4.974   4.620   7.019 -1.5525 -0.8098 -0.8066
20472SOL     OW62856   7.432   5.702  10.704  0.4914 -0.1729 -0.0392
20472SOL    HW162857   7.354   5.696  10.759 -1.1558 -0.0266 -2.2342
20472SOL    HW262858   7.418   5.637  10.636  1.1363  1.4712 -1.8248
20473SOL     OW62859   2.105   1.909   7.005  0.0708 -0.0163 -0.0186
20473SOL    HW162860   2.087   2.001   7.024  0.3570  0.2451 -0.9819
20473SOL    HW262861   2.158   1.910   6.926  1.1009 -0.9653  0.6313
20474SOL     OW62862   1.961   6.031   8.389 -0.7662 -0.0370 -0.0124
20474SOL    HW162863   2.000   6.103   8.339  0.2504 -0.8975 -0.5104
20474SOL    HW262864   2.006   6.033   8.473  1.0533 -1.5407 -0.8763
20475SOL     OW62865   4.993   3.673   2.280  0.6226  0.2961 -0.1225
20475SOL    HW162866   4.916   3.704   2.232  1.0769  2.2076  0.2994
20475SOL    HW262867   4.970   3.684   2.372  1.3107  0.6503  0.0123
20476SOL     OW62868   3.068   3.953   4.310  0.9483 -0.2630  0.6588
20476SOL    HW162869   2.993   4.009   4.289  1.4531 -0.3277 -1.5365
20476SOL    HW262870   3.029   3.869   4.336  0.2520  0.3787  1.7821
20477SOL     OW62871   2.280   4.542  10.896  0.4416  0.4089  0.2829
20477SOL    HW162872   2.354   4.495  10.934  1.5809  0.1649 -2.0774
20477SOL    HW262873   2.277   4.625  10.945  2.1354  0.3324  0.5866
20478SOL     OW62874   4.743   0.090   7.144  0.0121 -0.0496  0.6541
20478SOL    HW162875   4.651   0.090   7.172 -0.1235  1.5114  0.2927
20478SOL    HW262876   4.762   0.182   7.126  1.4614 -0.4433  0.0854
20479SOL     OW62877   0.455   2.834   9.912 -0.1306  0.0236  0.1939
20479SOL    HW162878   0.403   2.912   9.890 -0.6659  0.1418  1.7244
20479SOL    HW262879   0.503   2.859   9.991  0.7606 -0.7567 -0.0848
20480SOL     OW62880   5.573   2.862   6.177 -0.0423  0.5198 -0.2571
20480SOL    HW162881   5.576   2.844   6.083 -0.5586 -1.2180  0.0164
20480SOL    HW262882   5.552   2.777   6.217  0.1378  1.2257  1.4274
20481SOL     OW62883   1.081   7.382  11.150  0.1014 -0.0762 -0.0005
20481SOL    HW162884   1.023   7.437  11.201  0.5177 -0.3217  0.7578
20481SOL    HW262885   1.023   7.333  11.092 -0.5303 -0.7812  1.1769
20482SOL     OW62886   7.184   0.968   3.477  0.1892 -0.0796  0.2986
20482SOL    HW162887   7.158   1.024   3.551 -1.0502 -0.9463  0.5531
20482SOL    HW262888   7.119   0.898   3.476  0.6539 -0.5250 -1.1392
20483SOL     OW62889   7.541   6.388   9.991 -0.0517  0.3904  0.5576
20483SOL    HW162890   7.562   6.378  10.084 -1.5787  0.3379  0.9190
20483SOL    HW262891   7.447   6.406   9.989  0.0924  1.1650 -0.9356
20484SOL     OW62892   0.893   1.431   6.416 -0.6739  0.6088 -0.2186
20484SOL    HW162893   0.844   1.506   6.382 -0.1014  0.8478 -0.5209
20484SOL    HW262894   0.831   1.358   6.411 -1.1511  0.9994 -0.1650
20485SOL     OW62895   7.375   6.022   8.868  0.5190 -0.0720 -0.2774
20485SOL    HW162896   7.439   5.978   8.923  3.1847  1.8222 -1.6427
20485SOL    HW262897   7.366   6.109   8.907 -0.7037 -0.0622 -0.5308
20486SOL     OW62898   1.947   1.750   2.048  0.2836  0.4720  0.4329
20486SOL    HW162899   1.981   1.786   2.130 -1.5165 -0.2756  1.5773
20486SOL    HW262900   1.983   1.662   2.044  0.1635  0.4144  0.5792
20487SOL     OW62901   1.273   5.918  11.719 -0.3072 -0.0395  0.5775
20487SOL    HW162902   1.243   5.891  11.632  0.0669  0.4184  0.3047
20487SOL    HW262903   1.220   5.995  11.740 -1.7875 -1.2793  1.6039
20488SOL     OW62904   6.806   2.495  10.480  0.0483  0.2943 -0.1389
20488SOL    HW162905   6.818   2.573  10.426 -0.8948  0.2603 -0.4171
20488SOL    HW262906   6.724   2.456  10.447  0.7820 -1.1038 -0.3791
20489SOL     OW62907   2.659   2.524   4.376  0.4123 -0.1854 -0.6078
20489SOL    HW162908   2.715   2.484   4.309  1.4588  1.6342 -0.8738
20489SOL    HW262909   2.602   2.452   4.404  0.2788 -1.1616 -3.0571
20490SOL     OW62910   1.412   7.525   3.020 -0.2279 -0.5253 -0.2302
20490SOL    HW162911   1.392   7.437   3.052  1.2776 -1.4659 -1.7113
20490SOL    HW262912   1.491   7.550   3.069 -1.1428  0.3950  0.8161
20491SOL     OW62913   3.332   2.985   2.528  0.1019 -0.6741  0.7195
20491SOL    HW162914   3.351   2.909   2.583  1.6553  0.3946  1.7441
20491SOL    HW262915   3.283   3.044   2.584 -1.8026 -1.1891 -0.3172
20492SOL     OW62916   2.415   7.265   3.376 -0.6886 -0.1969 -0.0490
20492SOL    HW162917   2.341   7.302   3.425  0.4077  0.3695  1.2750
20492SOL    HW262918   2.379   7.190   3.330 -1.6987 -1.2444  2.2605
20493SOL     OW62919   3.096   2.955   1.957 -0.2656  0.7232 -0.4591
20493SOL    HW162920   3.037   2.902   1.904  0.9987 -1.0854 -0.1700
20493SOL    HW262921   3.071   2.936   2.048  0.9596 -0.3746 -0.3220
20494SOL     OW62922   0.097   6.241   5.416  0.1955 -0.4781 -0.1205
20494SOL    HW162923   0.167   6.179   5.401 -0.7022 -1.0576 -2.3801
20494SOL    HW262924   0.139   6.327   5.411  0.6477 -0.7660 -2.6351
20495SOL     OW62925   5.470   0.191   0.784  0.1079  0.2602 -0.3765
20495SOL    HW162926   5.503   0.202   0.874  0.1059 -0.6825 -0.2477
20495SOL    HW262927   5.437   0.101   0.782 -0.2648  0.4092 -1.2093
20496SOL     OW62928   1.975   0.551   0.840 -0.2627 -0.5788  0.2341
20496SOL    HW162929   1.911   0.621   0.837  1.3563  1.0097  1.1616
20496SOL    HW262930   1.962   0.510   0.926 -0.0400 -0.2428  0.4313
20497SOL     OW62931   6.280   7.436  12.104  0.0124 -0.3882  0.1513
20497SOL    HW162932   6.297   7.355  12.153  0.7623 -0.6582 -0.5183
20497SOL    HW262933   6.351   7.440  12.040  0.9354  1.6430  1.1979
20498SOL     OW62934   2.952   1.978   0.237 -0.0995 -0.1549 -0.1363
20498SOL    HW162935   3.017   2.047   0.252  0.0883 -0.2190 -0.6505
20498SOL    HW262936   2.868   2.024   0.240  0.0015  0.0313 -0.0861
20499SOL     OW62937   5.847   0.061   9.486  0.1855  0.1414 -0.1423
20499SOL    HW162938   5.906   0.135   9.499 -2.5185  2.4739 -0.2019
20499SOL    HW262939   5.814   0.042   9.574  0.7414 -0.9868 -0.1487
20500SOL     OW62940   4.335   1.658   6.450  0.2116  0.4386 -0.5574
20500SOL    HW162941   4.349   1.750   6.472  0.7154  0.4051 -0.7237
20500SOL    HW262942   4.361   1.610   6.528 -2.1867  0.5258  0.3868
20501SOL     OW62943   5.531   0.180   1.043  0.3721 -0.3025  0.7652
20501SOL    HW162944   5.584   0.102   1.032  1.2018  0.5538 -2.2642
20501SOL    HW262945   5.583   0.237   1.100  0.3972 -1.3604  1.8342
20502SOL     OW62946   4.121   3.816   2.786  0.4307 -0.1945 -0.0333
20502SOL    HW162947   4.104   3.733   2.829  0.3775  0.3504  1.0296
20502SOL    HW262948   4.076   3.809   2.702 -1.4948 -0.3910  0.9736
20503SOL     OW62949   4.702   1.483   4.074 -0.2347 -0.3858 -0.1084
20503SOL    HW162950   4.647   1.518   4.004  0.5941  1.6194  0.1779
20503SOL    HW262951   4.644   1.477   4.150 -0.0535  2.1802  0.3320
20504SOL     OW62952   0.289   6.262  11.800  0.0804  0.0854 -0.3899
20504SOL    HW162953   0.299   6.196  11.731 -1.1551  2.4188 -2.9868
20504SOL    HW262954   0.375   6.303  11.807  0.1780 -0.0758 -0.6517
20505SOL     OW62955   0.152   0.069   4.072 -0.2689 -0.5816  0.6439
20505SOL    HW162956   0.125   0.017   4.148 -2.2476 -1.3860 -0.5184
20505SOL    HW262957   0.079   0.128   4.056 -0.5778 -1.4395 -1.4670
20506SOL     OW62958   1.716   0.187   8.020 -0.2082  0.2323  0.0695
20506SOL    HW162959   1.767   0.108   7.998 -1.2056 -0.3880 -0.0620
20506SOL    HW262960   1.762   0.258   7.976 -0.7979 -0.6442 -2.0771
20507SOL     OW62961   6.919   5.141  10.612 -0.1155  0.0374 -0.5120
20507SOL    HW162962   7.001   5.166  10.569  0.0671  0.7688  0.2352
20507SOL    HW262963   6.895   5.057  10.572  0.2707  0.4855 -1.7143
20508SOL     OW62964   1.121   3.397   2.496  0.0730  0.3497 -0.2177
20508SOL    HW162965   1.071   3.317   2.512  0.3958  0.3670  1.0282
20508SOL    HW262966   1.058   3.458   2.457 -0.4306 -0.1953 -0.2658
20509SOL     OW62967   6.049   1.791   8.248  0.5210  0.1590 -0.1369
20509SOL    HW162968   5.956   1.771   8.231  0.1465 -0.3744  2.1811
20509SOL    HW262969   6.085   1.708   8.279  1.4480  0.6831  0.2081
20510SOL     OW62970   2.067   7.714   3.888 -0.2424 -0.0345  0.5155
20510SOL    HW162971   2.060   7.798   3.935  0.6441  0.2704  0.1198
20510SOL    HW262972   2.154   7.681   3.911 -0.9035 -1.2749  1.3447
20511SOL     OW62973   2.522   6.048   4.657 -0.0892 -0.7491 -0.3498
20511SOL    HW162974   2.609   6.016   4.681 -0.3945 -0.3894  1.3886
20511SOL    HW262975   2.462   6.006   4.718 -0.9574  0.1543 -0.5399
20512SOL     OW62976   3.297   1.506  10.018 -0.2016  0.3523 -0.3359
20512SOL    HW162977   3.203   1.502   9.998 -0.0488  0.2493 -1.0749
20512SOL    HW262978   3.331   1.422   9.986  0.1742  0.4740 -0.2565
20513SOL     OW62979   4.272   6.190   0.480  0.1359 -0.0768 -0.3515
20513SOL    HW162980   4.290   6.276   0.519 -0.2953  0.5616 -1.5170
20513SOL    HW262981   4.312   6.194   0.393 -2.1668 -0.0369 -1.4883
20514SOL     OW62982   3.691   4.467  12.054 -0.2695 -0.0946  0.1726
20514SOL    HW162983   3.635   4.535  12.017 -1.0082 -0.4379  0.6170
20514SOL    HW262984   3.741   4.511  12.123  0.9345  0.4880 -1.0399
20515SOL     OW62985   0.713   4.362  10.040  0.3620  0.2364 -0.7931
20515SOL    HW162986   0.641   4.328  10.093 -2.0380  2.7897 -2.1152
20515SOL    HW262987   0.703   4.318   9.955  0.3470  0.5716 -0.9687
20516SOL     OW62988   6.202   4.472   3.158  0.4099  0.0878 -0.0767
20516SOL    HW162989   6.176   4.541   3.219  0.2015 -0.3091  0.2853
20516SOL    HW262990   6.209   4.516   3.073  1.3651  0.7839  0.3543
20517SOL     OW62991   4.721   5.908  10.677  0.2212  0.2914 -0.1290
20517SOL    HW162992   4.649   5.967  10.654  0.2018  0.5704  0.6174
20517SOL    HW262993   4.799   5.952  10.644 -0.0127 -0.3975 -1.6639
20518SOL     OW62994   6.796   3.991   5.997 -0.5769 -0.4738  0.1376
20518SOL    HW162995   6.801   3.934   5.921 -1.2823 -0.3363 -0.0205
20518SOL    HW262996   6.886   3.996   6.030  0.1128  0.9991 -1.7982
20519SOL     OW62997   1.275   2.767   7.546  0.1934  0.4799 -0.5073
20519SOL    HW162998   1.210   2.705   7.515 -0.2987  0.7043  0.0719
20519SOL    HW262999   1.255   2.849   7.500 -0.4235  0.7629  0.2521
20520SOL     OW63000   6.881   1.501   5.324  0.6399  0.2905 -0.1445
20520SOL    HW163001   6.964   1.485   5.279  0.3216  0.2284 -0.7258
20520SOL    HW263002   6.855   1.415   5.357  1.4337  0.5343  1.1609
20521SOL     OW63003   4.916   7.485   8.722  0.4408  0.3281 -0.0842
20521SOL    HW163004   4.843   7.524   8.770  1.3235 -0.2342  1.8112
20521SOL    HW263005   4.983   7.471   8.788  1.2165 -1.7971 -1.2378
20522SOL     OW63006   1.845   1.035   0.217  0.3382 -0.1705  0.1392
20522SOL    HW163007   1.802   1.040   0.302  1.3442  1.2809  0.6094
20522SOL    HW263008   1.787   1.082   0.157  0.8456  1.1020  0.6075
20523SOL     OW63009   4.126   4.565   1.990 -0.1920  0.6879 -0.1199
20523SOL    HW163010   4.143   4.603   2.076 -1.3020  0.0920  0.3800
20523SOL    HW263011   4.189   4.493   1.983 -0.6198  0.2451  0.5285
20524SOL     OW63012   5.866   0.954   0.126 -0.3108 -0.0392 -0.7877
20524SOL    HW163013   5.809   1.031   0.131  0.0650  0.2996 -1.5891
20524SOL    HW263014   5.955   0.989   0.121  0.0618 -0.5776  1.2033
20525SOL     OW63015   1.493   4.510   6.501 -0.2488  0.0247  0.3596
20525SOL    HW163016   1.517   4.515   6.594  0.9680 -0.4128  0.0950
20525SOL    HW263017   1.468   4.599   6.477 -1.7716 -0.0937  1.3953
20526SOL     OW63018   3.001   3.822   9.005  0.0605  0.1240  0.1234
20526SOL    HW163019   3.007   3.786   9.094  2.3410 -0.3519 -0.1637
20526SOL    HW263020   2.967   3.910   9.018 -0.2779 -0.1642  1.4064
20527SOL     OW63021   1.390   7.349   5.560  0.1226 -0.0125 -0.3300
20527SOL    HW163022   1.401   7.406   5.484  0.5962 -0.1989 -0.4014
20527SOL    HW263023   1.371   7.263   5.524 -0.1487  0.0047 -0.2288
20528SOL     OW63024   2.042   3.585   3.960 -0.1469 -0.4838  0.0123
20528SOL    HW163025   2.058   3.557   3.870 -0.8352  2.5540 -1.1472
20528SOL    HW263026   1.951   3.613   3.961  0.4328  1.5548  1.0175
20529SOL     OW63027   6.833   6.221   3.500 -0.0939 -0.1387 -0.0680
20529SOL    HW163028   6.907   6.164   3.480  0.6718  0.6624  0.4225
20529SOL    HW263029   6.758   6.161   3.507  0.2601 -0.8451 -1.6965
20530SOL     OW63030   1.266   1.767   6.920  0.7791 -0.1055 -0.0548
20530SOL    HW163031   1.268   1.675   6.893 -0.4500  0.3191 -1.7240
20530SOL    HW263032   1.173   1.786   6.934  0.9122  1.1354 -0.7022
20531SOL     OW63033   7.558   0.474  10.318 -0.6291  0.5138  0.2088
20531SOL    HW163034   7.602   0.549  10.357 -0.5372  0.0627  1.0059
20531SOL    HW263035   7.520   0.507  10.237  0.8919  1.0011 -0.3452
20532SOL     OW63036   7.176   6.632   1.991  0.1863 -0.2025  0.1664
20532SOL    HW163037   7.105   6.695   1.976 -0.2225 -0.8391 -0.6439
20532SOL    HW263038   7.169   6.611   2.084  1.7883  2.6486  1.0505
20533SOL     OW63039   6.172   5.744   1.198  0.5688 -0.1031 -0.0486
20533SOL    HW163040   6.163   5.757   1.292  0.5395  0.2490 -0.0973
20533SOL    HW263041   6.216   5.659   1.189 -0.8131 -0.8657  0.2418
20534SOL     OW63042   2.465   4.621   3.905  0.3017  0.0887  0.3675
20534SOL    HW163043   2.491   4.708   3.934 -2.3989  0.7913  0.9483
20534SOL    HW263044   2.445   4.574   3.986 -0.8860 -0.1499 -0.0465
20535SOL     OW63045   4.269   4.687  10.465 -0.6977  0.0617  0.5621
20535SOL    HW163046   4.200   4.730  10.416 -0.0112 -0.4029 -0.8458
20535SOL    HW263047   4.313   4.630  10.402  1.0824  0.4541  1.3587
20536SOL     OW63048   0.826   7.660   1.413 -0.2589 -0.1730 -0.0374
20536SOL    HW163049   0.835   7.602   1.338  1.8509 -1.4577  1.0968
20536SOL    HW263050   0.741   7.639   1.452 -0.4219 -1.0151 -0.8420
20537SOL     OW63051   7.782   7.876   7.497  0.0360 -0.6104  0.9209
20537SOL    HW163052   7.714   7.809   7.492  0.0048 -0.5332  0.2011
20537SOL    HW263053   7.776   7.910   7.587 -0.6967 -0.7892  0.9447
20538SOL     OW63054   2.549   0.317   3.385 -0.8324  0.6836 -0.4882
20538SOL    HW163055   2.485   0.330   3.316  0.6868  0.3554 -2.0463
20538SOL    HW263056   2.555   0.222   3.395 -1.4028  0.7410  0.4649
20539SOL     OW63057   7.852   3.625   2.792  0.1243 -0.2034  0.1418
20539SOL    HW163058   7.938   3.624   2.749  0.4998 -0.7442  0.8818
20539SOL    HW263059   7.869   3.668   2.877 -0.4542  0.1941  0.0612
20540SOL     OW63060   3.397   4.973  11.656  0.3845  0.7014  0.1177
20540SOL    HW163061   3.459   4.945  11.723 -0.4132 -1.2251  0.0984
20540SOL    HW263062   3.437   4.949  11.573 -0.1851 -0.1604  0.0851
20541SOL     OW63063   4.634   5.152   8.480  0.0527  0.2113 -0.0047
20541SOL    HW163064   4.669   5.218   8.540  0.8933 -0.2812  0.0605
20541SOL    HW263065   4.539   5.163   8.486 -0.0569 -1.3911  3.2689
20542SOL     OW63066   0.038   1.346  10.450 -0.3153 -0.1901  0.3001
20542SOL    HW163067   0.106   1.411  10.434  1.1750 -2.0938 -1.7799
20542SOL    HW263068   0.052   1.318  10.540  2.0842 -0.9136 -0.2320
20543SOL     OW63069   1.745   7.197   6.645 -0.9645  0.5890  0.0362
20543SOL    HW163070   1.773   7.144   6.720 -1.3322 -1.6437 -1.3130
20543SOL    HW263071   1.650   7.186   6.642 -0.9091  0.3111 -0.9912
20544SOL     OW63072   2.975   4.344   0.038  0.2664 -0.2253 -0.3269
20544SOL    HW163073   2.954   4.358  -0.055 -2.4047  1.4386  0.4054
20544SOL    HW263074   2.906   4.285   0.069  0.6221 -0.0699  0.7969
20545SOL     OW63075   6.219   3.724   2.909 -0.0025 -0.3667  0.2792
20545SOL    HW163076   6.212   3.703   2.816  0.8591  0.3963  0.0300
20545SOL    HW263077   6.292   3.671   2.940  1.1747  1.0171 -0.0081
20546SOL     OW63078   6.958   1.375   2.318  0.1326  0.5159  0.2289
20546SOL    HW163079   6.964   1.337   2.406  0.0936  0.7185  0.3201
20546SOL    HW263080   7.019   1.449   2.320  1.0309 -0.1900 -0.2900
20547SOL     OW63081   2.404   6.280   4.923  0.1818  0.1156  0.5454
20547SOL    HW163082   2.426   6.364   4.883  2.4515 -1.1943 -1.1516
20547SOL    HW263083   2.377   6.303   5.012  1.3925  2.6052  0.3606
20548SOL     OW63084   3.523   6.382  12.113 -0.4952  0.3708  0.3004
20548SOL    HW163085   3.523   6.291  12.145 -1.2159  0.0468 -0.5873
20548SOL    HW263086   3.443   6.420  12.148 -0.6796  0.3775 -0.1281
20549SOL     OW63087   2.162   5.717   2.381 -0.2756 -0.0585  0.7609
20549SOL    HW163088   2.167   5.757   2.468 -2.0758 -1.7903  1.7454
20549SOL    HW263089   2.104   5.776   2.332 -2.3323 -0.9224  1.9799
20550SOL     OW63090   2.400   7.560   4.978  0.3600 -0.3889  0.6135
20550SOL    HW163091   2.339   7.523   5.041  0.6170 -3.0793 -0.5951
20550SOL    HW263092   2.370   7.528   4.893  1.6999  0.7102 -0.3290
20551SOL     OW63093   4.933   5.612   2.008  0.3244 -0.2588 -0.1546
20551SOL    HW163094   4.932   5.564   1.925  1.6796 -1.6673  0.6013
20551SOL    HW263095   4.919   5.545   2.075 -2.1506  1.0200  0.7478
20552SOL     OW63096   6.809   0.859  11.385 -0.6243 -0.0769 -0.0246
20552SOL    HW163097   6.728   0.868  11.337 -1.6858 -1.6769  1.3272
20552SOL    HW263098   6.863   0.933  11.358 -1.7225 -0.0939 -2.4661
20553SOL     OW63099   4.610   3.628   4.176  0.3813 -0.1965 -0.2082
20553SOL    HW163100   4.565   3.682   4.241  1.0386 -1.0020  0.9530
20553SOL    HW263101   4.666   3.570   4.228 -1.0436 -2.7127 -1.3146
20554SOL     OW63102   5.743   6.290   1.791  0.1982  0.0964  0.2365
20554SOL    HW163103   5.696   6.372   1.804 -0.0291  0.2011 -1.0669
20554SOL    HW263104   5.835   6.315   1.782  0.0731  0.2782 -0.6334
20555SOL     OW63105   5.462   2.391  11.425 -0.3108  0.3611  0.0668
20555SOL    HW163106   5.521   2.440  11.483 -3.2222  0.3856  3.3325
20555SOL    HW263107   5.480   2.299  11.445 -0.5338  0.3369  0.1569
20556SOL     OW63108   4.990   5.930  10.878  0.1105 -0.1925 -0.0192
20556SOL    HW163109   4.896   5.943  10.868  0.4122  0.3939 -2.9112
20556SOL    HW263110   4.999   5.839  10.906 -1.2838 -0.3983 -0.1916
20557SOL     OW63111   2.452   3.059   4.377  0.3100 -0.0228  0.4277
20557SOL    HW163112   2.367   3.043   4.417 -0.0699  1.0807  0.0849
20557SOL    HW263113   2.486   3.136   4.421  1.2440 -0.5777  0.7096
20558SOL     OW63114   2.028   0.727   5.206 -0.1649 -0.0279  0.2297
20558SOL    HW163115   1.984   0.738   5.122 -0.0889 -1.1165  0.0345
20558SOL    HW263116   1.962   0.752   5.271 -0.4584  0.1375 -0.1252
20559SOL     OW63117   0.590   3.314   0.079 -0.1841 -0.5503 -0.5708
20559SOL    HW163118   0.661   3.252   0.061  2.1033  1.8521 -0.4768
20559SOL    HW263119   0.626   3.371   0.147 -2.8846 -0.1906  0.6616
20560SOL     OW63120   0.184   3.633   2.706 -0.8545 -0.6727 -0.5810
20560SOL    HW163121   0.267   3.672   2.735 -1.0913 -0.7831  0.2699
20560SOL    HW263122   0.167   3.674   2.621 -1.7808  2.1586  0.8350
20561SOL     OW63123   7.445   2.961  12.120 -0.1942  0.6464 -0.3757
20561SOL    HW163124   7.463   3.016  12.044  1.7297  1.8066  0.8275
20561SOL    HW263125   7.479   3.012  12.195  1.6146 -2.0895  0.8305
20562SOL     OW63126   0.670   2.704  11.556 -0.0853 -0.0381  0.2382
20562SOL    HW163127   0.728   2.635  11.523 -0.2433 -0.1359  0.1629
20562SOL    HW263128   0.637   2.748  11.478  0.5393  0.5647  0.3016
20563SOL     OW63129   7.175   0.864   5.228 -0.0098 -0.0209 -0.8682
20563SOL    HW163130   7.139   0.911   5.303  1.8856 -0.6382  0.5080
20563SOL    HW263131   7.183   0.774   5.258 -0.4259 -0.5629 -2.3004
20564SOL     OW63132   6.199   3.795   2.159 -0.2544 -0.6548  0.4803
20564SOL    HW163133   6.237   3.764   2.241  1.4913  1.4871  0.5449
20564SOL    HW263134   6.151   3.874   2.182 -2.3902 -1.7077 -0.1097
20565SOL     OW63135   4.689   3.846   8.513 -0.1668 -0.1086 -0.3916
20565SOL    HW163136   4.619   3.855   8.449 -2.1741 -1.3589  1.4892
20565SOL    HW263137   4.671   3.914   8.578 -1.7767 -2.4397  1.8377
20566SOL     OW63138   6.326   2.739  11.241  0.3757 -0.3241  0.7186
20566SOL    HW163139   6.237   2.773  11.245  0.3918 -0.3161  1.1183
20566SOL    HW263140   6.315   2.645  11.224  0.3532 -0.0224 -1.0110
20567SOL     OW63141   2.232   7.406   1.426  0.5698  0.2349  0.1664
20567SOL    HW163142   2.232   7.400   1.522 -1.4029 -2.0304  0.1324
20567SOL    HW263143   2.320   7.379   1.400  0.0929 -2.8789  1.3273
20568SOL     OW63144   4.607   2.590   2.472  0.1963  0.0622 -0.1969
20568SOL    HW163145   4.614   2.647   2.395  0.8351  1.3295  0.7675
20568SOL    HW263146   4.680   2.615   2.527  0.5927 -1.8350  0.2023
20569SOL     OW63147   3.871   0.349  11.433  0.7491 -0.2426  0.0836
20569SOL    HW163148   3.956   0.358  11.391  1.8793 -0.0086  2.2713
20569SOL    HW263149   3.862   0.255  11.447  0.9144 -0.2234  0.3324
20570SOL     OW63150   0.983   0.160   7.293  0.6331  0.0517  0.1249
20570SOL    HW163151   0.988   0.186   7.201  2.2958  0.9253  0.4159
20570SOL    HW263152   0.954   0.069   7.291 -1.9885  0.8188 -1.1107
20571SOL     OW63153   0.036   1.924  11.783  0.2681 -0.2659 -0.1175
20571SOL    HW163154  -0.038   1.951  11.728  2.4648  0.4702 -2.9816
20571SOL    HW263155   0.089   2.003  11.792  0.4816 -0.6161  2.4261
20572SOL     OW63156   4.502   0.149   8.730 -0.3056  0.0024  0.5065
20572SOL    HW163157   4.559   0.217   8.695 -1.7236  0.4010 -1.0918
20572SOL    HW263158   4.556   0.107   8.798  1.7442  0.6092 -0.6444
20573SOL     OW63159   6.011   2.424   8.424 -0.3295  0.3549 -0.0046
20573SOL    HW163160   6.105   2.406   8.424 -0.3016  0.5007  0.0718
20573SOL    HW263161   5.977   2.375   8.499 -0.3401  0.1719 -0.1288
20574SOL     OW63162   6.961   2.922   1.106  0.1891  0.0389  0.1184
20574SOL    HW163163   6.971   2.873   1.188  2.1311 -0.9760 -0.6421
20574SOL    HW263164   6.967   2.854   1.038 -0.3935  0.9795 -0.8968
20575SOL     OW63165   1.832   5.381  12.376  0.1063 -0.5118 -0.1467
20575SOL    HW163166   1.921   5.389  12.411 -0.4446 -0.3205  1.2777
20575SOL    HW263167   1.831   5.296  12.332  1.5421  0.3309 -1.9211
20576SOL     OW63168   2.846   5.465   7.534  0.1331  0.5569 -0.2089
20576SOL    HW163169   2.752   5.449   7.546 -0.0467  1.1400 -0.7880
20576SOL    HW263170   2.850   5.543   7.480  0.9767  1.3322  0.9305
20577SOL     OW63171   4.568   3.678   3.917  0.4034 -0.4287  0.5969
20577SOL    HW163172   4.586   3.648   4.006 -0.4357  1.1412  1.3460
20577SOL    HW263173   4.492   3.627   3.889  1.4817 -1.8955  0.2173
20578SOL     OW63174   5.561   4.477   9.534  0.6629 -0.0278 -0.0343
20578SOL    HW163175   5.633   4.413   9.533 -1.3199 -2.4267 -1.7892
20578SOL    HW263176   5.496   4.438   9.591 -0.0391  1.1595 -0.0018
20579SOL     OW63177   0.768   1.821  12.348  0.7804 -0.4962 -0.1469
20579SOL    HW163178   0.823   1.799  12.273  1.3994  0.8024 -0.1026
20579SOL    HW263179   0.715   1.894  12.318 -0.2497 -1.1066  0.1346
20580SOL     OW63180   5.325   7.173   9.218 -0.2286  0.6567 -0.2700
20580SOL    HW163181   5.245   7.225   9.211 -0.6357  0.1644  0.5502
20580SOL    HW263182   5.294   7.084   9.236  0.4266  1.1233  4.6199
20581SOL     OW63183   7.371   5.647   1.007 -0.1910  0.0488  0.3938
20581SOL    HW163184   7.325   5.603   1.079  0.2448 -1.2900 -0.1099
20581SOL    HW263185   7.407   5.576   0.955  1.6806  1.0323  0.2625
20582SOL     OW63186   5.235   6.186   6.731 -0.1041 -0.3823 -0.4017
20582SOL    HW163187   5.268   6.246   6.664  0.8662  0.2258  0.5807
20582SOL    HW263188   5.279   6.214   6.812 -0.3806 -1.8132  0.2724
20583SOL     OW63189   1.360   1.154   6.304 -0.4315 -0.6092 -0.6011
20583SOL    HW163190   1.356   1.222   6.371 -0.1013 -0.3188 -0.8720
20583SOL    HW263191   1.268   1.139   6.279 -0.5918 -1.0070  0.1923
20584SOL     OW63192   4.292   7.311   5.822  0.0156 -0.3964  0.7402
20584SOL    HW163193   4.274   7.242   5.886 -1.7680 -0.1805  0.5297
20584SOL    HW263194   4.296   7.266   5.738  0.0540 -0.3969  0.7422
20585SOL     OW63195   2.057   6.965   5.020 -0.3362  0.3466 -0.1894
20585SOL    HW163196   2.123   6.916   5.067 -0.1497  0.0234 -0.7723
20585SOL    HW263197   2.084   6.959   4.928 -1.8462 -0.9058 -0.6060
20586SOL     OW63198   0.702   1.485   2.553  0.0812 -0.2827 -0.1721
20586SOL    HW163199   0.712   1.497   2.459  1.1185 -0.8286 -0.1405
20586SOL    HW263200   0.788   1.503   2.590 -0.4897  0.6431  0.7634
20587SOL     OW63201   4.803   6.506   4.530  0.0589 -0.4131  0.4509
20587SOL    HW163202   4.748   6.530   4.604 -0.1457 -0.8723  0.4544
20587SOL    HW263203   4.842   6.588   4.501  1.1907 -0.4225  1.8846
20588SOL     OW63204   1.594   2.944   4.965 -0.0461  0.4535  0.3750
20588SOL    HW163205   1.648   3.021   4.982 -0.0099  0.1454  1.7342
20588SOL    HW263206   1.657   2.877   4.935  0.1137  0.5502  0.4911
20589SOL     OW63207   1.044   3.503   2.087  0.6162  0.2068 -0.1004
20589SOL    HW163208   1.107   3.431   2.095  1.4429  0.8660 -0.5066
20589SOL    HW263209   1.094   3.581   2.110 -0.6529  0.5243  1.8535
20590SOL     OW63210   6.156   0.367   2.028 -0.0024 -0.2214  0.2238
20590SOL    HW163211   6.224   0.316   2.072  0.4859  0.3775  0.1670
20590SOL    HW263212   6.204   0.427   1.971 -0.4955  1.3779  1.4248
20591SOL     OW63213   4.412   7.190   1.871  0.1354  0.3428  0.0659
20591SOL    HW163214   4.475   7.130   1.831  1.1308  2.3719 -1.6096
20591SOL    HW263215   4.391   7.253   1.801 -1.1843  1.7003  1.5986
20592SOL     OW63216   1.813   7.128   9.425  0.1455 -0.4258 -0.2740
20592SOL    HW163217   1.733   7.144   9.376  0.5664 -1.3730 -1.3348
20592SOL    HW263218   1.784   7.087   9.507 -0.4479 -1.0105 -0.7633
20593SOL     OW63219   3.474   4.153  11.958  0.3890  0.3784 -0.4098
20593SOL    HW163220   3.502   4.126  11.870  3.6248  0.0293  0.6034
20593SOL    HW263221   3.480   4.249  11.957  0.7100  0.3578 -0.4891
20594SOL     OW63222   2.134   6.695  11.772 -0.2112 -0.0085 -0.7327
20594SOL    HW163223   2.147   6.693  11.678  2.8742 -0.3317 -0.4010
20594SOL    HW263224   2.205   6.750  11.805 -0.9356 -0.2876  1.4592
20595SOL     OW63225   7.846   7.794   4.279 -0.0779  0.0246 -0.9212
20595SOL    HW163226   7.800   7.838   4.208 -2.0174 -1.5095 -0.6866
20595SOL    HW263227   7.785   7.795   4.352  1.2724  0.1764  0.2645
20596SOL     OW63228   1.112   1.421  11.425  1.0009  0.1466 -0.6969
20596SOL    HW163229   1.086   1.513  11.416 -2.3980 -0.5427  0.4872
20596SOL    HW263230   1.053   1.374  11.366  1.5079 -1.4160  0.0102
20597SOL     OW63231   6.019   7.049   4.558 -0.0475  0.2601 -0.7868
20597SOL    HW163232   6.035   6.955   4.563  0.3260  0.3367 -0.5880
20597SOL    HW263233   6.053   7.075   4.472  2.9359  0.8140  0.4505
20598SOL     OW63234   3.854   4.467   7.716  0.0152 -0.5402 -0.2665
20598SOL    HW163235   3.936   4.446   7.759 -1.9142 -3.2840  2.4924
20598SOL    HW263236   3.837   4.392   7.659 -0.3583  0.2472 -1.2225
20599SOL     OW63237   0.288   2.592  11.010 -0.9952  0.5094  0.5468
20599SOL    HW163238   0.338   2.642  10.946 -0.3433 -0.8719 -0.0630
20599SOL    HW263239   0.297   2.641  11.092  0.4089  0.9028  0.1750
20600SOL     OW63240   5.227   5.588   5.901 -0.0499 -0.4487  0.0386
20600SOL    HW163241   5.146   5.625   5.935  0.8424  2.3594 -0.6132
20600SOL    HW263242   5.207   5.569   5.809  0.4939  2.3024 -0.7601
20601SOL     OW63243   4.976   0.685  10.675  0.4536  0.3476  0.0474
20601SOL    HW163244   4.953   0.718  10.589 -0.5513 -0.0008  0.1723
20601SOL    HW263245   4.896   0.644  10.708 -0.2695  3.3279  2.5168
20602SOL     OW63246   5.332   2.487   4.212  0.1022 -0.3497  0.6897
20602SOL    HW163247   5.421   2.520   4.205  0.3041 -1.0750 -0.2387
20602SOL    HW263248   5.338   2.415   4.275 -0.2658  1.0272  2.3969
20603SOL     OW63249   5.092   5.889   3.774 -0.1241  0.5800  0.1939
20603SOL    HW163250   5.183   5.861   3.778 -0.4913 -0.6027  0.4384
20603SOL    HW263251   5.074   5.897   3.680  0.9025  3.1714  0.1330
20604SOL     OW63252   2.228   1.972   6.761  0.0862  0.0574 -0.1174
20604SOL    HW163253   2.284   1.909   6.716 -0.3150 -0.1657 -0.3088
20604SOL    HW263254   2.163   1.997   6.696 -0.4675 -0.2307  0.3256
20605SOL     OW63255   7.590   1.440   8.244 -0.2812  0.3485  0.3626
20605SOL    HW163256   7.596   1.451   8.339 -0.6477 -0.4805  0.4976
20605SOL    HW263257   7.626   1.520   8.207  1.4088  0.0036  1.1902
20606SOL     OW63258   6.812   2.914   2.515  0.4087 -0.4927 -0.1367
20606SOL    HW163259   6.860   2.992   2.488 -0.7482  0.3608  0.2121
20606SOL    HW263260   6.753   2.944   2.584 -0.3091 -1.6010 -0.2411
20607SOL     OW63261   6.374   7.222   2.868  0.0687  0.2676  0.1583
20607SOL    HW163262   6.388   7.277   2.945 -0.1166  2.1806 -1.1075
20607SOL    HW263263   6.288   7.184   2.881 -0.8741  2.2055  0.0103
20608SOL     OW63264   1.309   4.954   5.968  0.0813 -0.5455  0.4005
20608SOL    HW163265   1.232   5.007   5.946  0.2142 -0.4122  0.2470
20608SOL    HW263266   1.315   4.890   5.897 -0.1805 -0.8760  0.6791
20609SOL     OW63267   5.942   7.577   6.069 -0.4828  0.4386  0.0854
20609SOL    HW163268   6.006   7.587   6.140 -0.4637 -1.1552  0.3179
20609SOL    HW263269   5.874   7.520   6.106 -1.6970  1.5240 -0.4023
20610SOL     OW63270   3.651   0.918   6.421  0.0775 -0.0149  0.4389
20610SOL    HW163271   3.636   0.989   6.483  0.3954  0.4513 -0.0079
20610SOL    HW263272   3.745   0.921   6.404  0.0073 -0.2038  0.0167
20611SOL     OW63273   6.178   1.179   6.302 -0.1591  0.0179 -0.1740
20611SOL    HW163274   6.262   1.140   6.278  0.9787  1.7848  0.6877
20611SOL    HW263275   6.114   1.109   6.289  1.4427 -1.4018 -0.7955
20612SOL     OW63276   4.386   6.013   7.033  0.3182  0.8298  0.0234
20612SOL    HW163277   4.292   6.010   7.052  0.2620 -1.0950 -0.4255
20612SOL    HW263278   4.413   6.101   7.061 -1.3312  0.9411  1.4240
20613SOL     OW63279   4.626   5.460   9.177 -0.3172 -0.0058 -0.1969
20613SOL    HW163280   4.701   5.408   9.205 -0.0088 -0.7375 -2.1657
20613SOL    HW263281   4.621   5.532   9.239  2.1162  0.1522 -0.1030
20614SOL     OW63282   4.581   7.175   6.091 -0.3341  0.3097 -0.0683
20614SOL    HW163283   4.543   7.262   6.107 -1.7073 -0.4574  1.0617
20614SOL    HW263284   4.505   7.118   6.077  0.5591 -0.6792 -1.0161
20615SOL     OW63285   0.683   4.000   2.145  1.0838  0.5744  0.2153
20615SOL    HW163286   0.591   4.027   2.141  0.7407 -0.4675  0.6636
20615SOL    HW263287   0.732   4.076   2.113  0.0022  0.7567 -1.0931
20616SOL     OW63288   2.311   3.424  11.884 -0.1574  0.5615  0.6527
20616SOL    HW163289   2.242   3.467  11.833 -1.2720 -1.3529  0.4555
20616SOL    HW263290   2.265   3.385  11.958  0.7525 -0.4821  0.6868
20617SOL     OW63291   0.848   0.497   6.343  0.0365  0.5478  0.0258
20617SOL    HW163292   0.916   0.466   6.403  1.0102 -0.6014 -1.5990
20617SOL    HW263293   0.804   0.566   6.392  1.2469  0.1650  1.7870
20618SOL     OW63294   3.506   6.199   9.850  0.2567  0.2762 -0.2490
20618SOL    HW163295   3.464   6.250   9.920  1.0643  0.1151  0.3752
20618SOL    HW263296   3.441   6.132   9.827  0.2991 -0.2015  0.9527
20619SOL     OW63297   5.437   4.445  11.019  0.3414 -0.3653  0.3915
20619SOL    HW163298   5.523   4.406  11.001  1.3323  1.2124  1.4103
20619SOL    HW263299   5.452   4.540  11.012 -1.3652 -0.0627  0.4347
20620SOL     OW63300   3.032   3.304   8.677 -0.0789  0.0559  0.5980
20620SOL    HW163301   3.124   3.293   8.651 -0.1229  2.1951 -0.7175
20620SOL    HW263302   3.035   3.368   8.749 -0.5897  1.2029 -0.3680
20621SOL     OW63303   0.610   5.333   6.544 -0.1407 -1.1296 -0.4587
20621SOL    HW163304   0.558   5.325   6.624 -1.7968  3.0145 -0.8442
20621SOL    HW263305   0.692   5.374   6.573 -0.5281 -0.1155 -0.7327
20622SOL     OW63306   7.401   6.300   7.644  0.0849 -0.0580  0.6026
20622SOL    HW163307   7.308   6.282   7.660 -0.2435  1.2286  0.1968
20622SOL    HW263308   7.419   6.380   7.693  0.9845 -0.2652  0.6339
20623SOL     OW63309   4.154   6.759   6.613 -0.0860  0.0713 -0.2496
20623SOL    HW163310   4.166   6.750   6.519  0.7820  0.0472 -0.1400
20623SOL    HW263311   4.075   6.813   6.622  1.2533  2.2696 -1.0251
20624SOL     OW63312   6.095   5.917   2.032  0.1198  0.1615 -0.4480
20624SOL    HW163313   6.006   5.904   2.064 -0.1382  0.8180 -0.8615
20624SOL    HW263314   6.087   5.909   1.937  0.4178  0.6460 -0.5183
20625SOL     OW63315   7.541   6.668   1.248 -0.0999 -0.1047  0.5690
20625SOL    HW163316   7.486   6.671   1.170 -0.3202  0.0852  0.7299
20625SOL    HW263317   7.563   6.760   1.265 -1.9284  0.1161  2.0475
20626SOL     OW63318   3.369   1.620   2.391  0.1350 -0.0012 -0.2548
20626SOL    HW163319   3.335   1.562   2.459  0.8378  1.4483  1.3873
20626SOL    HW263320   3.292   1.666   2.358 -0.3251 -1.2909 -1.0655
20627SOL     OW63321   2.821   5.862  11.787 -0.1635 -0.0120 -0.5421
20627SOL    HW163322   2.769   5.939  11.768  0.6884  0.7156 -0.0027
20627SOL    HW263323   2.778   5.791  11.739  0.1998  1.1555 -2.7194
20628SOL     OW63324   4.947   1.719   5.771  0.0883 -0.0691  0.4560
20628SOL    HW163325   4.950   1.756   5.859 -1.2532  0.3876  0.3378
20628SOL    HW263326   4.963   1.626   5.783 -1.9271 -0.3343  1.4423
20629SOL     OW63327   3.111   4.841   0.228  0.3102  0.6147 -0.2266
20629SOL    HW163328   3.122   4.771   0.291  0.2906  0.3262 -0.5396
20629SOL    HW263329   3.029   4.884   0.253 -0.4037 -0.3356 -0.8451
20630SOL     OW63330   2.745   1.272   8.284  0.2999 -0.3388  0.6636
20630SOL    HW163331   2.663   1.222   8.283  0.4187 -0.5841  1.8269
20630SOL    HW263332   2.726   1.349   8.231 -0.2219 -1.0973 -0.2767
20631SOL     OW63333   1.943   7.325   7.352 -0.0700 -0.4537  0.1168
20631SOL    HW163334   1.904   7.242   7.324 -2.9578  0.8470 -0.2101
20631SOL    HW263335   1.948   7.377   7.271 -0.1420  0.3371  0.6089
20632SOL     OW63336   0.787   0.851   9.778 -0.2579 -0.0343  0.2481
20632SOL    HW163337   0.808   0.833   9.687  0.6305  0.5345  0.3315
20632SOL    HW263338   0.730   0.928   9.775  1.6768  1.4624  0.2767
20633SOL     OW63339   1.582   2.059   1.578  0.0920 -0.2312 -0.2169
20633SOL    HW163340   1.613   2.144   1.610  2.9464 -0.8632 -1.0550
20633SOL    HW263341   1.575   2.005   1.657  0.6306  0.0932  0.0564
20634SOL     OW63342   5.404   2.429   9.637 -0.5513 -0.1607  0.5150
20634SOL    HW163343   5.493   2.412   9.606 -0.4645 -1.3115  1.3012
20634SOL    HW263344   5.365   2.483   9.569 -0.0123 -1.6434 -1.0511
20635SOL     OW63345   0.152   5.163   5.367  0.2207 -0.0244 -0.0234
20635SOL    HW163346   0.165   5.077   5.328  0.0875 -0.3229  0.5903
20635SOL    HW263347   0.111   5.215   5.297  0.0470 -0.5289 -0.3006
20636SOL     OW63348   5.585   1.525   5.901  0.2550 -0.1441  0.2483
20636SOL    HW163349   5.660   1.469   5.922  1.0856  1.0788  0.6500
20636SOL    HW263350   5.539   1.479   5.832  2.1986 -0.2586 -1.0373
20637SOL     OW63351   1.865   2.256   6.483 -0.1535  0.1856  0.3747
20637SOL    HW163352   1.770   2.248   6.474 -0.0159  0.4418 -1.8902
20637SOL    HW263353   1.900   2.181   6.435  0.7936  0.5230  0.5155
20638SOL     OW63354   4.698   4.129   2.994 -0.0946  0.3591 -0.4382
20638SOL    HW163355   4.659   4.096   3.075 -0.8935  0.5888 -0.7199
20638SOL    HW263356   4.671   4.066   2.927  0.8115  0.0084 -0.4870
20639SOL     OW63357   4.960   1.076   8.781 -0.5080  0.0643 -0.1081
20639SOL    HW163358   5.017   1.142   8.741 -0.1883  1.5176  2.5077
20639SOL    HW263359   5.017   0.999   8.792  0.0236  0.4142 -0.3977
20640SOL     OW63360   3.449   2.349   1.432 -0.3478  0.2339 -0.1452
20640SOL    HW163361   3.473   2.261   1.402 -2.3462 -0.4646  0.1322
20640SOL    HW263362   3.401   2.387   1.360  0.2475  1.0080 -0.1459
20641SOL     OW63363   0.829   4.077   5.414  0.0353 -0.2650 -0.0416
20641SOL    HW163364   0.757   4.047   5.470  0.0329  0.2309  0.2184
20641SOL    HW263365   0.785   4.117   5.339 -0.0058  1.6080  0.9160
20642SOL     OW63366   0.355   3.894   3.938  0.0539  0.0261  0.3441
20642SOL    HW163367   0.310   3.861   3.861 -0.4173  0.4863  0.4157
20642SOL    HW263368   0.329   3.836   4.009 -0.5953  0.4088  0.4258
20643SOL     OW63369   0.341   0.534   6.443  0.1810 -0.3096  0.0020
20643SOL    HW163370   0.292   0.530   6.361  1.0864 -0.5673 -0.5372
20643SOL    HW263371   0.320   0.621   6.478 -2.1662 -1.0985  0.7666
20644SOL     OW63372   0.117   3.477   1.060  0.3357 -0.0591 -0.0909
20644SOL    HW163373   0.127   3.399   1.005  0.2930  0.9710 -1.6217
20644SOL    HW263374   0.194   3.530   1.039  0.1851  0.4689  0.6750
20645SOL     OW63375   7.001   0.192   8.674  0.0906  0.1861 -0.3624
20645SOL    HW163376   7.025   0.183   8.582 -1.5298 -2.8295 -0.6223
20645SOL    HW263377   6.952   0.112   8.694 -0.4782  1.1908  2.8693
20646SOL     OW63378   6.614   2.035   2.330 -0.2466 -0.5465  0.5004
20646SOL    HW163379   6.665   1.989   2.264  0.4667  0.6746  0.1729
20646SOL    HW263380   6.645   2.000   2.414  1.0890  0.0894  0.3031
20647SOL     OW63381   1.019   1.239  10.547 -0.2789  0.3512 -1.0898
20647SOL    HW163382   1.017   1.203  10.458  0.7439  1.3453 -1.5400
20647SOL    HW263383   1.110   1.232  10.574 -0.5136  0.4156 -0.2549
20648SOL     OW63384   0.670   4.091   3.376  0.0752 -0.0169 -0.1826
20648SOL    HW163385   0.720   4.065   3.298  1.2833 -0.9976  0.8657
20648SOL    HW263386   0.711   4.173   3.405  1.3570 -0.9607  0.8345
20649SOL     OW63387   6.837   6.203   7.059 -0.1422 -0.0846 -0.4540
20649SOL    HW163388   6.770   6.272   7.065  1.3231  1.2706  1.5605
20649SOL    HW263389   6.788   6.122   7.074 -1.2777  0.9378  2.0526
20650SOL     OW63390   7.813   7.488  11.908  0.1905  0.1736 -0.2667
20650SOL    HW163391   7.811   7.392  11.914 -1.7848  0.2616  2.5489
20650SOL    HW263392   7.886   7.513  11.965 -0.4216  0.3614  0.4472
20651SOL     OW63393   7.193   2.768   0.743  0.0773  0.8376  0.2629
20651SOL    HW163394   7.144   2.846   0.767  0.2634  0.3366  2.4802
20651SOL    HW263395   7.285   2.796   0.740  0.0811  0.8415  0.4223
20652SOL     OW63396   4.239   7.875   4.217  0.3290 -0.4767 -0.7333
20652SOL    HW163397   4.256   7.782   4.233 -3.3153 -0.9996  1.0371
20652SOL    HW263398   4.277   7.919   4.293 -3.5896 -1.4034  2.0818
20653SOL     OW63399   2.912   1.009  10.688 -0.5097 -0.2053  0.0451
20653SOL    HW163400   2.831   0.983  10.642 -0.0939  0.3044 -1.0080
20653SOL    HW263401   2.892   1.095  10.725 -0.3245  0.1037 -0.5633
20654SOL     OW63402   0.666   7.684   4.233 -0.4965  0.0518 -0.1095
20654SOL    HW163403   0.759   7.695   4.254 -0.7331 -0.4332  1.3134
20654SOL    HW263404   0.639   7.607   4.283 -1.4525 -0.3844 -1.2520
20655SOL     OW63405   4.947   0.601   6.258 -0.0211  0.2691 -0.6002
20655SOL    HW163406   4.897   0.671   6.215  0.3996  1.0134  0.1108
20655SOL    HW263407   4.883   0.558   6.315 -0.7613 -1.1586 -2.4040
20656SOL     OW63408   6.803   3.652   1.472 -0.6944  0.1069  0.5882
20656SOL    HW163409   6.821   3.665   1.566  0.3142  1.2707  0.2553
20656SOL    HW263410   6.889   3.655   1.431 -1.1542 -0.1739 -0.4166
20657SOL     OW63411   3.507   7.652   9.192  0.2495 -0.3898  0.1061
20657SOL    HW163412   3.524   7.743   9.217  0.4739 -0.1142 -1.0025
20657SOL    HW263413   3.431   7.657   9.134  0.9041 -0.7773 -0.8035
20658SOL     OW63414   2.952   3.605   1.032 -0.0865 -0.3994 -0.6486
20658SOL    HW163415   3.036   3.637   0.999  0.4944 -0.9356  0.2641
20658SOL    HW263416   2.901   3.585   0.954 -0.2846  2.2122 -1.2913
20659SOL     OW63417   4.457   0.659   0.528  0.2424 -0.0641  0.1096
20659SOL    HW163418   4.498   0.620   0.605 -0.2794 -1.4221 -0.2603
20659SOL    HW263419   4.518   0.726   0.499  1.2199 -0.6633  0.7454
20660SOL     OW63420   6.795   3.700   5.073 -0.8016 -0.2133 -0.1664
20660SOL    HW163421   6.844   3.774   5.109 -0.6961  0.8275 -2.2928
20660SOL    HW263422   6.703   3.721   5.091 -0.6983 -0.2750  0.4627
20661SOL     OW63423   2.216   1.276   2.610  0.1578  0.3455  0.9447
20661SOL    HW163424   2.294   1.249   2.659  0.4448 -0.0062  0.3126
20661SOL    HW263425   2.238   1.364   2.579  0.7445 -0.1315 -0.0831
20662SOL     OW63426   1.594   7.334   8.129 -0.3040  0.5204 -0.1648
20662SOL    HW163427   1.634   7.257   8.088 -1.9377  0.1014 -1.0345
20662SOL    HW263428   1.509   7.303   8.159 -0.3768  1.6278  0.8300
20663SOL     OW63429   0.681   2.298  11.572  0.0124  0.4934 -0.0116
20663SOL    HW163430   0.649   2.371  11.625 -1.3645 -1.0819  1.4257
20663SOL    HW263431   0.777   2.306  11.577 -0.1029  1.5663  1.0501
20664SOL     OW63432   5.619   6.197  11.592  0.3347 -0.0273  0.4034
20664SOL    HW163433   5.636   6.273  11.647  1.9846  0.9171 -1.3247
20664SOL    HW263434   5.554   6.227  11.528 -2.0709 -1.3028  2.0617
20665SOL     OW63435   2.539   4.497   9.855  0.1061  0.1146 -0.1847
20665SOL    HW163436   2.484   4.456   9.922 -1.4958  0.3996 -1.2694
20665SOL    HW263437   2.623   4.510   9.898 -0.4755 -0.9004  1.3534
20666SOL     OW63438   3.046   7.308   8.567 -0.0188 -0.4330  0.5980
20666SOL    HW163439   3.045   7.231   8.509 -1.0048  1.0856 -1.5446
20666SOL    HW263440   3.135   7.342   8.559  0.4969 -1.4457  1.7509
20667SOL     OW63441   6.825   7.772   6.596  0.1476  0.6245  0.5237
20667SOL    HW163442   6.751   7.721   6.630  0.6703  0.2278  1.0882
20667SOL    HW263443   6.805   7.784   6.503  0.8951 -2.2344 -0.0934
20668SOL     OW63444   3.886   6.122   2.632  0.5252 -0.3669  0.0388
20668SOL    HW163445   3.951   6.073   2.683  0.7736 -0.0163  0.0660
20668SOL    HW263446   3.939   6.181   2.578  0.3698 -1.7616 -1.7526
20669SOL     OW63447   7.666   5.932  10.043 -0.5788  0.1679  0.3336
20669SOL    HW163448   7.661   5.902   9.953 -2.7318  0.8621  0.1727
20669SOL    HW263449   7.585   5.982  10.057  0.4397  1.4614  2.1487
20670SOL     OW63450   6.528   5.760   1.556 -0.4982 -0.8122  0.6560
20670SOL    HW163451   6.534   5.771   1.651  0.7594 -2.1677  0.7684
20670SOL    HW263452   6.446   5.711   1.543 -1.8016  1.1968  0.8066
20671SOL     OW63453   0.831   1.702   9.096  0.1647  0.3649 -0.3447
20671SOL    HW163454   0.874   1.685   9.180  1.2026 -0.4318 -1.0140
20671SOL    HW263455   0.890   1.664   9.031 -1.5559 -0.8412 -1.2986
20672SOL     OW63456   3.200   2.081   2.136 -0.6340 -0.0373  0.1479
20672SOL    HW163457   3.266   2.015   2.116 -1.0580 -0.1317 -0.9947
20672SOL    HW263458   3.244   2.141   2.196 -0.2635 -1.3856  1.2895
20673SOL     OW63459   0.650   4.966   3.448  0.6351 -0.1195  0.5709
20673SOL    HW163460   0.581   4.982   3.511  0.5224 -0.8332  0.6396
20673SOL    HW263461   0.722   4.929   3.499  0.1438 -1.7459  0.1417
20674SOL     OW63462   3.626   2.859   6.595 -0.2635 -0.3711 -0.2478
20674SOL    HW163463   3.534   2.860   6.623 -0.1531 -1.4440  0.1751
20674SOL    HW263464   3.666   2.787   6.644  1.5798  1.9914  2.0094
20675SOL     OW63465   6.362   2.716   9.084 -0.1824  0.0105  0.3996
20675SOL    HW163466   6.390   2.802   9.051 -0.5929  0.3267  0.8525
20675SOL    HW263467   6.361   2.727   9.179  1.5686 -1.0668  0.5849
20676SOL     OW63468   6.028   5.158   5.445  0.0107  0.2119  0.1215
20676SOL    HW163469   5.984   5.100   5.507  2.9154 -1.8631  0.4366
20676SOL    HW263470   5.971   5.158   5.368 -0.6921 -2.1462  0.5645
20677SOL     OW63471   3.010   7.702  10.508 -0.0625 -0.1352 -0.3930
20677SOL    HW163472   3.102   7.716  10.530  0.1246 -0.4321 -0.9843
20677SOL    HW263473   2.987   7.776  10.451 -0.4165  0.3746  0.3932
20678SOL     OW63474   5.528   7.040  11.248  0.5097  0.1731 -0.4447
20678SOL    HW163475   5.618   7.009  11.251  0.6715  0.6854  1.4209
20678SOL    HW263476   5.487   6.989  11.178  1.5032 -2.1875  0.5904
20679SOL     OW63477   3.263   6.750  10.257  0.8039 -0.5469  0.6057
20679SOL    HW163478   3.239   6.688  10.188  0.9756 -1.8264  1.6459
20679SOL    HW263479   3.298   6.826  10.210 -0.1258 -0.9072 -0.7391
20680SOL     OW63480   1.485   4.336   3.189 -0.0902  0.0198 -0.3140
20680SOL    HW163481   1.453   4.256   3.149 -1.0573 -1.5192  3.1391
20680SOL    HW263482   1.407   4.377   3.226  0.8912  0.1289  1.8149
20681SOL     OW63483   4.148   5.710   3.836  0.3941  0.2252 -0.0810
20681SOL    HW163484   4.197   5.789   3.858  0.9345 -0.0839 -0.1483
20681SOL    HW263485   4.060   5.741   3.817  0.6962  0.8632 -0.4937
20682SOL     OW63486   4.877   5.302   8.115  0.0428  0.1573 -0.0533
20682SOL    HW163487   4.837   5.384   8.088 -0.9103  0.0565  0.9950
20682SOL    HW263488   4.857   5.295   8.209  2.4011  0.0374  0.5142
20683SOL     OW63489   7.553   5.026   2.688 -0.6837  0.0644  0.6643
20683SOL    HW163490   7.587   5.018   2.599 -2.0210 -1.0478  0.2337
20683SOL    HW263491   7.463   5.055   2.677 -0.7803  0.1646  1.6704
20684SOL     OW63492   1.056   0.637   3.602 -0.6027 -0.4287 -0.4617
20684SOL    HW163493   1.024   0.712   3.552 -0.4618  1.4954  2.1109
20684SOL    HW263494   1.054   0.667   3.693  2.2377 -2.5373  0.4314
20685SOL     OW63495   4.319   7.913   0.251 -0.3309 -0.0432 -0.2605
20685SOL    HW163496   4.376   7.879   0.320  1.2048  1.2779 -0.8175
20685SOL    HW263497   4.310   8.006   0.271 -1.6276 -0.0677 -0.6612
20686SOL     OW63498   5.129   6.665   0.572 -0.4733 -0.5484  0.1866
20686SOL    HW163499   5.057   6.662   0.509 -1.9896 -2.4564  1.8605
20686SOL    HW263500   5.147   6.758   0.584 -1.6575 -0.0713 -1.3672
20687SOL     OW63501   0.073   2.644   1.596 -0.0876 -0.7730 -0.0071
20687SOL    HW163502   0.105   2.557   1.573  2.6859  0.1430 -0.0007
20687SOL    HW263503   0.087   2.697   1.518 -2.7006 -0.4884 -0.3624
20688SOL     OW63504   1.759   7.374   2.930  0.0638  0.2828  0.8849
20688SOL    HW163505   1.839   7.394   2.882 -0.3390  0.1033  0.1172
20688SOL    HW263506   1.730   7.458   2.965 -0.6151  0.7928 -0.7581
20689SOL     OW63507   2.819   7.092   9.772  0.4882  0.2714 -0.4228
20689SOL    HW163508   2.827   7.184   9.749  1.5719  0.9229  2.1753
20689SOL    HW263509   2.895   7.050   9.731 -0.1554  0.4123 -1.8382
20690SOL     OW63510   3.181   4.290  12.177 -0.3336 -0.1258 -0.0592
20690SOL    HW163511   3.214   4.208  12.140 -0.0557  0.1731 -0.4815
20690SOL    HW263512   3.086   4.279  12.177 -0.3589 -0.0375 -1.1066
20691SOL     OW63513   3.021   3.957   1.415  0.0734 -0.3543  0.2931
20691SOL    HW163514   2.990   3.954   1.324 -1.2185 -0.5908  0.7323
20691SOL    HW263515   3.035   4.051   1.431 -0.1654 -0.2652  0.0049
20692SOL     OW63516   4.011   6.240  10.936 -0.0561  0.1304  0.5876
20692SOL    HW163517   3.974   6.210  10.853 -2.1105  1.3257  0.9959
20692SOL    HW263518   4.025   6.160  10.986 -0.0657 -0.5033 -0.3940
20693SOL     OW63519   5.087   5.155   8.321 -0.0309 -0.0386  0.2182
20693SOL    HW163520   5.128   5.088   8.375  2.0323  0.5798 -0.4646
20693SOL    HW263521   5.019   5.108   8.273  1.1068 -1.6019  0.0223
20694SOL     OW63522   1.006   0.166   9.654  0.0317  0.4257 -0.1593
20694SOL    HW163523   0.964   0.226   9.592 -0.7716  1.0043  0.9034
20694SOL    HW263524   0.934   0.130   9.705  0.7308  0.6234  1.0042
20695SOL     OW63525   2.747   2.145   7.668 -0.1884 -0.2259  0.3038
20695SOL    HW163526   2.705   2.187   7.743  1.7049  1.6167  0.4409
20695SOL    HW263527   2.833   2.187   7.662  1.0332 -2.6810 -0.9018
20696SOL     OW63528   1.054   7.023   6.211  0.5131  0.4873 -0.1164
20696SOL    HW163529   0.997   6.959   6.254 -1.0956  2.2726  0.5607
20696SOL    HW263530   1.087   7.078   6.282 -1.0836  2.6264 -0.9052
20697SOL     OW63531   2.542   6.380   7.814  0.4163 -0.3651  0.3263
20697SOL    HW163532   2.514   6.416   7.898  1.4118 -0.2619  0.6284
20697SOL    HW263533   2.497   6.295   7.809  0.4925 -0.4606  1.0506
20698SOL     OW63534   4.268   4.020   3.213  0.0827 -0.6200  0.3004
20698SOL    HW163535   4.281   4.006   3.307  0.3059  1.9985  0.7504
20698SOL    HW263536   4.348   3.987   3.173  0.5887 -0.5294  1.2049
20699SOL     OW63537   4.781   0.761   5.406  0.1573  0.0001 -0.0937
20699SOL    HW163538   4.695   0.751   5.448 -0.1910 -1.0957 -1.0237
20699SOL    HW263539   4.841   0.715   5.463  0.3122  1.4876  1.0157
20700SOL     OW63540   4.462   4.557   8.842  0.9409 -0.1724  0.3589
20700SOL    HW163541   4.448   4.470   8.805 -0.4722 -0.5347  1.6329
20700SOL    HW263542   4.488   4.540   8.933 -0.5381  0.7164  0.9903
20701SOL     OW63543   1.116   3.283   6.862 -0.0234  0.7612  0.6446
20701SOL    HW163544   1.108   3.211   6.924 -1.4296  0.4726  0.1696
20701SOL    HW263545   1.204   3.318   6.876  0.0592  0.0421  2.0577
20702SOL     OW63546   4.245   5.064   0.388 -0.2692 -0.1370 -0.3064
20702SOL    HW163547   4.224   5.088   0.298 -0.2043  1.4440  0.0627
20702SOL    HW263548   4.340   5.071   0.393 -0.2352 -0.6379 -0.2214
20703SOL     OW63549   0.447   6.757   1.347 -0.3645  0.3762 -0.1702
20703SOL    HW163550   0.515   6.818   1.319  0.9768 -1.4292 -1.0485
20703SOL    HW263551   0.453   6.685   1.284 -0.8942 -1.3396  1.6567
20704SOL     OW63552   7.592   5.399   4.340  0.6348 -0.0195  0.2846
20704SOL    HW163553   7.608   5.435   4.428  0.2967 -0.0881  0.3729
20704SOL    HW263554   7.580   5.476   4.285  1.7448  0.0587  0.1181
20705SOL     OW63555   1.737   6.861   8.184 -0.2037 -0.0074  0.4031
20705SOL    HW163556   1.719   6.785   8.240  1.8464  0.7687  2.2991
20705SOL    HW263557   1.832   6.875   8.194 -0.0083  1.0247 -2.2606
20706SOL     OW63558   5.852   0.326   7.528 -0.1337  0.3765 -0.1380
20706SOL    HW163559   5.857   0.254   7.590 -0.3591  0.1965 -0.3264
20706SOL    HW263560   5.759   0.349   7.524  0.0269  1.1948  0.5058
20707SOL     OW63561   5.183   7.439  12.334  0.1601  0.0197 -0.0730
20707SOL    HW163562   5.272   7.424  12.367  1.0244  0.6903 -1.9282
20707SOL    HW263563   5.138   7.484  12.405  0.8178 -1.6539  1.4749
20708SOL     OW63564   7.768   1.239   4.158 -0.6791 -0.7049  0.1954
20708SOL    HW163565   7.675   1.249   4.181 -0.9813  0.3197 -1.3366
20708SOL    HW263566   7.773   1.157   4.110 -0.6092 -1.2364  1.0922
20709SOL     OW63567   7.269   7.095   2.445  0.1467  0.5543 -0.0380
20709SOL    HW163568   7.209   7.123   2.376  1.8676  0.2100 -1.7608
20709SOL    HW263569   7.345   7.153   2.435  1.7174 -1.4814 -0.4937
20710SOL     OW63570   4.533   7.415   0.623  0.0609 -0.2110  0.0545
20710SOL    HW163571   4.492   7.419   0.536  1.1214  0.7071 -0.4283
20710SOL    HW263572   4.580   7.332   0.623 -0.7242 -0.6694  0.1303
20711SOL     OW63573   0.348   7.753   7.705 -0.0325  0.8870 -0.0357
20711SOL    HW163574   0.298   7.810   7.647  0.3237  1.4286  0.1739
20711SOL    HW263575   0.431   7.739   7.660 -0.7390 -0.8683 -0.8659
20712SOL     OW63576   1.252   2.666   1.135  0.0491 -0.0920 -0.0036
20712SOL    HW163577   1.223   2.722   1.207  0.4676  0.4307 -0.2284
20712SOL    HW263578   1.182   2.602   1.124  0.3966 -0.7482  1.4591
20713SOL     OW63579   7.228   0.316   2.071  0.1706 -0.2771  0.1577
20713SOL    HW163580   7.235   0.266   2.152 -0.2870  0.0724  0.4160
20713SOL    HW263581   7.165   0.267   2.018  0.8540 -0.7882 -0.2094
20714SOL     OW63582   1.680   1.676   0.736 -0.2296  0.6132  0.4549
20714SOL    HW163583   1.649   1.586   0.721  1.4803 -0.3269  2.1345
20714SOL    HW263584   1.743   1.692   0.667 -0.6321  0.5854  0.0751
20715SOL     OW63585   3.727   6.425   8.844  0.1309  0.4857 -0.0205
20715SOL    HW163586   3.775   6.413   8.926 -1.5251 -1.2609  0.7609
20715SOL    HW263587   3.638   6.450   8.872 -0.0642  1.4070 -1.3591
20716SOL     OW63588   1.963   5.614   4.560 -0.5189 -0.1925  0.0042
20716SOL    HW163589   2.023   5.571   4.499 -1.1949 -1.7486  0.3700
20716SOL    HW263590   1.881   5.624   4.511 -0.3696  0.7112 -0.0749
20717SOL     OW63591   2.767   1.012   8.833 -0.5132 -0.6586 -0.1844
20717SOL    HW163592   2.859   1.029   8.813 -0.5646 -0.9379 -0.6634
20717SOL    HW263593   2.728   1.098   8.844  0.2927 -0.5249  2.2915
20718SOL     OW63594   6.763   7.447   3.096 -0.1220 -0.3577 -0.1069
20718SOL    HW163595   6.848   7.416   3.063  0.9247  3.2144 -1.3104
20718SOL    HW263596   6.776   7.455   3.190 -0.0962 -2.3244  0.0963
20719SOL     OW63597   3.014   1.829   6.880 -0.3704 -0.4091 -0.0188
20719SOL    HW163598   3.033   1.901   6.820 -0.2150 -1.3847 -1.1756
20719SOL    HW263599   2.992   1.756   6.823  0.9456 -1.6951  1.0620
20720SOL     OW63600   0.030   0.888   6.560 -0.2861  0.2856 -0.4482
20720SOL    HW163601   0.113   0.921   6.595  0.1863  1.8844 -2.8058
20720SOL    HW263602   0.054   0.850   6.475 -1.9361  0.6970 -1.1328
20721SOL     OW63603   1.457   6.943   1.116  0.4969  0.5800 -0.1021
20721SOL    HW163604   1.520   6.958   1.187 -1.3875  0.3608  1.7035
20721SOL    HW263605   1.482   6.858   1.080  2.6608  1.5487 -1.0456
20722SOL     OW63606   2.416   6.284   3.052  0.0076  0.2733 -0.3012
20722SOL    HW163607   2.456   6.367   3.079  1.4181 -0.5101  0.1330
20722SOL    HW263608   2.491   6.225   3.038 -1.0019 -1.6916  1.8816
20723SOL     OW63609   3.417   7.707   1.679 -0.2782  0.2036  0.1861
20723SOL    HW163610   3.372   7.749   1.606 -2.2485 -0.1651  1.1178
20723SOL    HW263611   3.501   7.678   1.642 -0.8866  0.6946 -1.7088
20724SOL     OW63612   6.549   6.533   0.122 -0.3284  0.3773 -0.6186
20724SOL    HW163613   6.634   6.553   0.085  0.3354 -1.4808 -0.1982
20724SOL    HW263614   6.527   6.609   0.175  0.9662  0.9657 -0.9013
20725SOL     OW63615   1.446   4.719   9.023 -0.1019 -0.8658 -0.2465
20725SOL    HW163616   1.533   4.697   8.989 -0.5525 -2.5706 -0.3574
20725SOL    HW263617   1.385   4.688   8.957 -0.8279 -0.0551  0.0234
20726SOL     OW63618   6.892   0.091   8.084  0.1042  0.5670 -0.3345
20726SOL    HW163619   6.896   0.161   8.018  0.6311 -0.1734 -1.0994
20726SOL    HW263620   6.804   0.099   8.121  0.1035  1.5427 -0.5073
20727SOL     OW63621   0.470   1.598   3.362  0.6793 -0.0009  0.1518
20727SOL    HW163622   0.560   1.617   3.391  1.1073 -3.1387  1.2599
20727SOL    HW263623   0.479   1.521   3.306 -1.2630  0.1935 -0.4771
20728SOL     OW63624   7.250   3.088  11.718 -0.0004  0.1966 -0.2730
20728SOL    HW163625   7.318   3.127  11.774  1.3508 -2.6332  0.2472
20728SOL    HW263626   7.282   3.101  11.629  0.6432 -0.0696 -0.0859
20729SOL     OW63627   1.918   5.280  10.060 -0.3284  0.1346 -0.2389
20729SOL    HW163628   1.841   5.308  10.109 -0.9788  1.0522 -1.6836
20729SOL    HW263629   1.882   5.225   9.990  0.3151  0.5198 -0.8863
20730SOL     OW63630   3.264   4.903   0.760 -0.3640  0.2432 -0.2474
20730SOL    HW163631   3.304   4.930   0.842  0.3857 -1.0516 -0.1625
20730SOL    HW263632   3.177   4.872   0.785 -0.6302  1.0597 -0.1362
20731SOL     OW63633   1.563   2.225   5.999  0.1158 -0.0908  0.1921
20731SOL    HW163634   1.639   2.191   6.045  0.9372 -0.4307 -1.3507
20731SOL    HW263635   1.558   2.172   5.919  1.1342  2.9833 -2.1058
20732SOL     OW63636   4.326   5.989   7.886  0.2677 -0.2838 -0.1673
20732SOL    HW163637   4.244   6.037   7.880  0.5675  0.3591  0.7887
20732SOL    HW263638   4.378   6.021   7.812 -0.1822 -0.4192 -0.5508
20733SOL     OW63639   4.672   3.402   3.899 -0.5185 -0.6526 -0.6034
20733SOL    HW163640   4.581   3.428   3.888 -0.8868 -0.9593  1.4098
20733SOL    HW263641   4.716   3.431   3.819 -1.9441  1.3765 -0.6916
20734SOL     OW63642   2.037   4.393  11.523  0.3943  0.0691 -0.1358
20734SOL    HW163643   2.068   4.304  11.540 -1.4172 -0.7561 -0.8972
20734SOL    HW263644   1.982   4.385  11.445 -1.3387  1.4902  0.8725
20735SOL     OW63645   2.890   7.108   2.544  0.1407 -0.9891  0.0367
20735SOL    HW163646   2.953   7.140   2.479 -1.4788  1.5653 -0.4183
20735SOL    HW263647   2.851   7.031   2.503  0.3528 -0.4143 -1.3062
20736SOL     OW63648   3.087   7.326   8.008  0.2820 -0.1570 -0.5370
20736SOL    HW163649   3.022   7.256   8.018  0.6602 -0.4918 -0.3824
20736SOL    HW263650   3.048   7.387   7.946 -1.0123  0.6289  0.9702
20737SOL     OW63651   7.418   1.707  12.264 -0.4779  0.4592  0.1474
20737SOL    HW163652   7.422   1.637  12.329  1.3204  0.3547 -0.0251
20737SOL    HW263653   7.462   1.781  12.307  0.1825  0.5701 -0.6937
20738SOL     OW63654   4.986   6.365   9.576  0.0028 -0.3656 -0.0021
20738SOL    HW163655   4.977   6.272   9.597  0.6275 -0.4435 -0.0766
20738SOL    HW263656   4.897   6.400   9.587 -0.7260 -1.3842 -2.0452
20739SOL     OW63657   0.370   5.468   1.208  0.0875 -0.1355 -0.3029
20739SOL    HW163658   0.283   5.448   1.174 -0.6378 -0.3606  1.5563
20739SOL    HW263659   0.430   5.427   1.147 -1.1172 -0.2921 -1.4237
20740SOL     OW63660   5.979   5.584   6.481 -0.5381 -0.1302  0.0036
20740SOL    HW163661   6.060   5.542   6.512 -0.3073  0.4065  0.1404
20740SOL    HW263662   6.008   5.644   6.412 -0.6596  0.9455  0.8618
20741SOL     OW63663   5.867   0.729   1.649 -0.2709  0.0593 -0.3972
20741SOL    HW163664   5.837   0.705   1.562  1.3584  0.6890 -1.1831
20741SOL    HW263665   5.807   0.685   1.709 -2.3187  0.7990 -1.8305
20742SOL     OW63666   2.843   3.735   4.715 -0.2482  0.0794  0.0062
20742SOL    HW163667   2.790   3.779   4.649 -2.0147 -3.4446 -1.1841
20742SOL    HW263668   2.822   3.780   4.797 -2.4534  0.9748 -0.9776
20743SOL     OW63669   1.845   4.113   7.114  0.1677 -0.2042  0.5169
20743SOL    HW163670   1.918   4.059   7.145  0.3547  0.4847  1.3051
20743SOL    HW263671   1.873   4.143   7.028 -0.3283 -2.0859 -0.3483
20744SOL     OW63672   2.733   0.883   7.572 -0.3520  0.4395 -0.5183
20744SOL    HW163673   2.709   0.959   7.625  0.7303  0.5392 -0.1472
20744SOL    HW263674   2.665   0.818   7.592 -0.5806  0.8648  0.1328
20745SOL     OW63675   7.789   7.803   8.410  0.2307  0.0144  0.1853
20745SOL    HW163676   7.796   7.720   8.458 -0.7614 -0.9513 -1.2861
20745SOL    HW263677   7.703   7.837   8.432  0.2054  0.1186 -0.0740
20746SOL     OW63678   5.002   6.895   0.472  0.0679  0.0571 -0.2981
20746SOL    HW163679   5.088   6.926   0.499  0.1554 -0.3307 -0.1349
20746SOL    HW263680   4.942   6.930   0.538  0.4058 -1.7796  1.0417
20747SOL     OW63681   0.219   6.876   1.331 -0.0080 -0.1049 -0.4734
20747SOL    HW163682   0.173   6.849   1.251 -0.6926 -3.1068  0.7882
20747SOL    HW263683   0.300   6.826   1.329  0.1642  0.1258  0.4842
20748SOL     OW63684   3.810   6.691   9.453  0.7896 -0.1220 -0.2592
20748SOL    HW163685   3.890   6.738   9.432  1.3626 -0.8613  0.2204
20748SOL    HW263686   3.762   6.749   9.512  1.9973 -0.5501  1.2157
20749SOL     OW63687   0.955   4.814   7.217 -0.1439 -0.8413  0.5360
20749SOL    HW163688   0.906   4.890   7.184 -0.0094 -0.7318  0.5875
20749SOL    HW263689   1.042   4.848   7.237 -0.1114 -0.9892  0.6502
20750SOL     OW63690   0.763   7.467   9.220  0.2148 -0.0554  0.3283
20750SOL    HW163691   0.803   7.400   9.164  0.7346  0.6773 -0.1916
20750SOL    HW263692   0.811   7.461   9.303 -0.9217 -1.5216  0.9288
20751SOL     OW63693   7.802   2.248   4.291  0.4221 -0.7435 -0.6686
20751SOL    HW163694   7.768   2.159   4.283  0.3453 -0.7566 -0.2155
20751SOL    HW263695   7.828   2.255   4.383  0.7482 -0.4130 -0.7884
20752SOL     OW63696   1.177   1.604   8.592 -0.3535 -0.1579 -0.2161
20752SOL    HW163697   1.186   1.600   8.497  2.3143 -0.3525 -0.0462
20752SOL    HW263698   1.194   1.696   8.613  0.5404 -0.3971  0.1504
20753SOL     OW63699   3.217   6.382   7.574 -0.2917 -0.1170 -0.0625
20753SOL    HW163700   3.169   6.335   7.505  1.7554 -2.6565  0.0766
20753SOL    HW263701   3.258   6.456   7.529 -1.1041 -0.2154 -0.9912
20754SOL     OW63702   5.909   2.526   7.322 -0.4576  0.1444 -0.4096
20754SOL    HW163703   5.910   2.521   7.226 -0.4550 -0.6639 -0.3758
20754SOL    HW263704   5.957   2.606   7.342  0.2066 -0.0767 -1.0687
20755SOL     OW63705   3.461   1.116   4.355  0.2012 -0.1829 -0.1656
20755SOL    HW163706   3.498   1.202   4.335 -0.9204  0.4850  0.5192
20755SOL    HW263707   3.367   1.132   4.365 -0.4390 -1.9337 -2.4638
20756SOL     OW63708   5.179   1.771   7.727 -0.3924 -0.2004  0.2900
20756SOL    HW163709   5.204   1.721   7.649 -2.3763  0.4909 -0.8700
20756SOL    HW263710   5.236   1.848   7.726  0.7635 -1.0286  0.5165
20757SOL     OW63711   1.263   5.295   7.269  0.0450  0.2900 -0.3261
20757SOL    HW163712   1.247   5.349   7.347  2.8099  1.6766 -0.5912
20757SOL    HW263713   1.184   5.305   7.217 -1.5079  0.0727  1.8609
20758SOL     OW63714   1.928   1.421   5.951  0.5579 -0.7221  0.8247
20758SOL    HW163715   1.881   1.338   5.961 -1.3100  0.1441 -0.0886
20758SOL    HW263716   1.991   1.404   5.881 -0.4502 -1.1642 -0.0185
20759SOL     OW63717   0.842   7.860   8.732  0.6456  0.1416  0.4761
20759SOL    HW163718   0.923   7.867   8.681  0.3981 -0.6843 -0.0624
20759SOL    HW263719   0.776   7.903   8.678  0.8521  1.4909  1.2589
20760SOL     OW63720   6.676   7.653  11.797 -0.1547 -0.3694 -0.1938
20760SOL    HW163721   6.662   7.745  11.820 -1.1351 -0.8409  1.2540
20760SOL    HW263722   6.729   7.655  11.718  0.2029  1.4333  0.0678
20761SOL     OW63723   0.547   0.761   7.124 -0.1305 -0.1828 -0.1188
20761SOL    HW163724   0.621   0.810   7.088 -1.0718 -0.1680 -2.1728
20761SOL    HW263725   0.584   0.713   7.199  1.2498  2.0720  0.7311
20762SOL     OW63726   6.306   7.596  10.835 -0.5144  0.2287 -0.1610
20762SOL    HW163727   6.359   7.553  10.767  0.9221 -0.5429  1.3855
20762SOL    HW263728   6.296   7.529  10.903 -2.1265  0.9065  0.3098
20763SOL     OW63729   2.096   2.624  11.226  0.1034  0.9273  0.0471
20763SOL    HW163730   2.044   2.559  11.273  0.3866  0.2009 -0.6024
20763SOL    HW263731   2.184   2.616  11.262  0.1758  0.8252 -0.1475
20764SOL     OW63732   1.630   3.465  10.631  0.6800 -0.0509  0.5388
20764SOL    HW163733   1.651   3.383  10.587  2.0983  0.6738 -0.2172
20764SOL    HW263734   1.687   3.529  10.590 -0.7532  1.4345  0.7394
20765SOL     OW63735   0.520   6.570   0.318 -0.0930  0.3760 -0.1154
20765SOL    HW163736   0.559   6.639   0.265  1.8476 -0.3819  0.2447
20765SOL    HW263737   0.432   6.603   0.339  0.4216  2.2838 -0.7453
20766SOL     OW63738   2.316   1.500   4.805 -0.1001  0.3874 -0.5369
20766SOL    HW163739   2.314   1.541   4.892  0.4162  1.4356 -0.9932
20766SOL    HW263740   2.398   1.532   4.766  0.6505 -1.5941 -0.7023
20767SOL     OW63741   1.349   6.770   3.319  0.4222 -0.4810  0.1231
20767SOL    HW163742   1.294   6.719   3.260  1.4139 -3.0456  1.2744
20767SOL    HW263743   1.425   6.794   3.266 -0.8436  1.5291 -0.9442
20768SOL     OW63744   4.052   7.370   0.887 -0.2678  0.2094  0.1620
20768SOL    HW163745   4.049   7.274   0.880  0.0393  0.2744 -1.0653
20768SOL    HW263746   4.089   7.399   0.804  0.2949  1.3695  0.7994
20769SOL     OW63747   7.641   0.299   4.277  0.2998  0.0825 -0.1643
20769SOL    HW163748   7.681   0.218   4.307  0.6661  0.1063 -0.5877
20769SOL    HW263749   7.592   0.331   4.353 -1.3012 -1.4361 -0.4906
20770SOL     OW63750   5.670   6.011   1.597  0.0767 -0.4855 -0.4552
20770SOL    HW163751   5.753   6.047   1.565 -0.3647  1.4776  0.4410
20770SOL    HW263752   5.692   5.969   1.680  0.3502 -0.9093 -0.7427
20771SOL     OW63753   1.325   4.810   1.395 -0.2138  0.1898  0.0788
20771SOL    HW163754   1.260   4.871   1.361 -2.2388 -0.7138  2.1240
20771SOL    HW263755   1.396   4.865   1.426 -0.3020  1.2415 -1.4648
20772SOL     OW63756   6.378   2.935   4.384 -0.0377  0.3300  0.1547
20772SOL    HW163757   6.397   2.932   4.290 -0.3667  0.4422  0.0833
20772SOL    HW263758   6.464   2.946   4.425  0.0387  1.0588 -0.1750
20773SOL     OW63759   7.609   0.559   9.784 -0.7392 -0.0951  0.2881
20773SOL    HW163760   7.583   0.649   9.767 -0.1698 -0.2549 -1.6325
20773SOL    HW263761   7.692   0.567   9.832 -1.0901  0.3852  0.8317
20774SOL     OW63762   6.816   5.454   7.765  0.3918  0.2260 -0.0889
20774SOL    HW163763   6.910   5.444   7.780  0.3357  0.2998  0.3214
20774SOL    HW263764   6.806   5.540   7.723  0.6064 -0.2257 -1.1012
20775SOL     OW63765   0.978   5.939   3.261  0.2700  0.5386  0.3887
20775SOL    HW163766   0.983   6.022   3.309 -0.1540  0.5593  0.4006
20775SOL    HW263767   1.034   5.879   3.312  0.5192  0.7943  0.4197
20776SOL     OW63768   7.792   4.458   8.520  0.3456  0.4048 -0.1299
20776SOL    HW163769   7.747   4.492   8.443 -2.4288 -0.9076  0.7535
20776SOL    HW263770   7.725   4.407   8.566  2.5632 -0.9295  1.8559
20777SOL     OW63771   7.534   6.861   2.520  0.3064  0.0560  0.2248
20777SOL    HW163772   7.507   6.786   2.571  0.8584 -1.1778 -1.2111
20777SOL    HW263773   7.478   6.859   2.442  0.9676  0.5627 -0.2787
20778SOL     OW63774   6.051   2.275  10.470 -0.2059 -0.0963  0.3457
20778SOL    HW163775   5.998   2.353  10.453 -0.1190 -0.4664 -1.9090
20778SOL    HW263776   6.122   2.306  10.526  0.0706  1.5600 -0.8513
20779SOL     OW63777   6.334   6.664  11.038 -0.6220 -0.1714 -0.3100
20779SOL    HW163778   6.281   6.609  10.981  0.5728  0.2569 -1.8843
20779SOL    HW263779   6.420   6.665  10.998  0.5342 -0.5666  2.0159
20780SOL     OW63780   3.373   2.612   1.941  0.3995  0.6871 -0.4469
20780SOL    HW163781   3.324   2.534   1.968  1.2354 -0.1709 -1.3041
20780SOL    HW263782   3.440   2.578   1.881  1.9974  1.7923  0.6231
20781SOL     OW63783   5.570   6.435   5.918  0.3043 -0.9448  0.0442
20781SOL    HW163784   5.518   6.505   5.880  0.5780 -0.5032  0.4761
20781SOL    HW263785   5.612   6.393   5.843 -0.9547 -1.5591 -0.3543
20782SOL     OW63786   4.707   3.550  10.843  0.3614  0.0779  0.1592
20782SOL    HW163787   4.731   3.640  10.821  0.6511 -0.1017 -0.2875
20782SOL    HW263788   4.627   3.534  10.794  0.2004  0.1571  0.3957
20783SOL     OW63789   2.082   0.001   0.038 -0.3764  0.2375  1.1964
20783SOL    HW163790   2.028   0.069  -0.003  0.1222 -0.2323 -0.3090
20783SOL    HW263791   2.164   0.045   0.060  1.6755 -0.6242 -3.6395
20784SOL     OW63792   2.352   6.895   5.962  0.1936 -0.0933  0.0219
20784SOL    HW163793   2.294   6.830   6.001  0.1698 -0.8944 -1.2615
20784SOL    HW263794   2.440   6.866   5.985  0.1341  0.6242  1.2210
20785SOL     OW63795   4.591   4.255   5.157 -0.2910 -0.8067  0.1004
20785SOL    HW163796   4.606   4.349   5.157 -1.5129 -0.5929 -0.1558
20785SOL    HW263797   4.631   4.225   5.239  0.5094 -0.1403 -0.0383
20786SOL     OW63798   0.129   7.550  10.732  0.0858  0.2277 -0.0186
20786SOL    HW163799   0.219   7.530  10.760 -0.3797  0.2815  1.6441
20786SOL    HW263800   0.074   7.501  10.793 -1.0398 -0.4196 -1.4906
20787SOL     OW63801   5.476   1.423   3.960 -0.0565  0.5271  0.0224
20787SOL    HW163802   5.435   1.386   3.882  1.3815  0.0399 -0.5435
20787SOL    HW263803   5.422   1.393   4.033 -1.6421  1.2957 -0.7886
20788SOL     OW63804   3.830   5.696  11.535 -0.3132  0.1598 -0.4087
20788SOL    HW163805   3.848   5.698  11.629  0.2931  1.1746 -0.5185
20788SOL    HW263806   3.877   5.619  11.503  2.6826  1.8227 -0.4109
20789SOL     OW63807   7.378   5.061   7.070 -0.0185  0.2335 -0.1499
20789SOL    HW163808   7.345   5.029   6.986  1.9902 -0.7274 -0.6208
20789SOL    HW263809   7.471   5.040   7.069  0.4689  2.0674  1.4779
20790SOL     OW63810   1.302   3.191   8.469 -0.4541 -0.5661  0.6790
20790SOL    HW163811   1.296   3.108   8.517 -1.9059 -1.1690 -0.4538
20790SOL    HW263812   1.297   3.165   8.377  1.3048  0.6305  0.1776
20791SOL     OW63813   5.639   5.528  11.209 -0.1856  0.4355  0.0361
20791SOL    HW163814   5.587   5.552  11.286 -0.5767 -0.0167 -0.0856
20791SOL    HW263815   5.576   5.490  11.148  0.7141 -3.2932  1.1738
20792SOL     OW63816   2.899   3.051   9.927  0.2906 -0.1508 -0.4740
20792SOL    HW163817   2.987   3.079   9.952 -0.0340  2.4304 -1.8208
20792SOL    HW263818   2.843   3.079  10.000  0.3419  0.0084 -0.4957
20793SOL     OW63819   4.642   5.510  10.188 -0.5166  0.9511 -0.2645
20793SOL    HW163820   4.560   5.485  10.231  0.4323 -0.5350  0.7800
20793SOL    HW263821   4.632   5.478  10.098 -1.3508  1.4241 -0.3526
20794SOL     OW63822   1.255   0.966   6.556 -0.5682  0.3508 -0.0559
20794SOL    HW163823   1.207   0.903   6.502 -0.5974  0.9160 -0.7090
20794SOL    HW263824   1.297   1.024   6.493  1.0200 -0.1501  0.5057
20795SOL     OW63825   2.441   1.656  11.173 -0.3423  0.7380 -0.8932
20795SOL    HW163826   2.406   1.742  11.195 -0.5083  0.9886 -2.0593
20795SOL    HW263827   2.364   1.605  11.149 -0.1457  0.5721 -1.1729
20796SOL     OW63828   6.475   7.804   4.691  0.1208 -0.2386 -0.1866
20796SOL    HW163829   6.404   7.852   4.732 -0.3764 -0.8398 -0.3377
20796SOL    HW263830   6.447   7.712   4.691  0.6609 -0.4171 -0.7101
20797SOL     OW63831   6.017   3.979   6.409 -0.8642 -0.4161  1.2653
20797SOL    HW163832   5.977   3.962   6.495  0.9762 -1.6758  1.9179
20797SOL    HW263833   6.107   3.950   6.418 -0.8544 -1.4845 -1.4033
20798SOL     OW63834   1.861   3.118   3.574 -0.0404 -0.2215 -0.0788
20798SOL    HW163835   1.859   3.146   3.665 -1.5262  1.7216 -0.6478
20798SOL    HW263836   1.944   3.152   3.540 -0.3414  0.6886  0.0801
20799SOL     OW63837   3.131   6.374   9.049 -0.0817 -0.0706  0.1818
20799SOL    HW163838   3.070   6.444   9.071  1.4788  1.5061 -0.3403
20799SOL    HW263839   3.201   6.381   9.113 -0.5020 -2.0437  0.9529
20800SOL     OW63840   1.438   3.485   0.569  0.3922  0.3573  0.0215
20800SOL    HW163841   1.431   3.581   0.575  0.4580  0.4801 -1.6159
20800SOL    HW263842   1.450   3.467   0.476 -2.2956 -1.4220 -0.0943
20801SOL     OW63843   5.812   4.394   7.125 -0.5043 -0.3989 -0.4142
20801SOL    HW163844   5.888   4.411   7.068 -0.8763 -1.2394 -1.2027
20801SOL    HW263845   5.777   4.480   7.145  1.1261  0.0627  0.6416
20802SOL     OW63846   5.265   3.210   6.123 -0.1796  0.0380  0.4919
20802SOL    HW163847   5.322   3.219   6.200 -0.5153  1.6665  0.5868
20802SOL    HW263848   5.178   3.233   6.155 -0.6672 -1.1443  0.0444
20803SOL     OW63849   6.138   7.789   9.450  0.3961 -0.0583 -0.0562
20803SOL    HW163850   6.044   7.783   9.431  0.4884  0.1115 -0.5716
20803SOL    HW263851   6.163   7.701   9.478 -0.2786  0.2878  1.7894
20804SOL     OW63852   5.663   6.774  10.418  0.1774 -0.3822  0.0810
20804SOL    HW163853   5.604   6.826  10.472 -0.6396 -1.7447  0.5484
20804SOL    HW263854   5.663   6.817  10.333 -0.9892  0.0104  0.2711
20805SOL     OW63855   3.932   5.310   8.038  0.3320  0.1239 -0.8632
20805SOL    HW163856   4.024   5.323   8.013  0.6100 -0.2475 -0.0561
20805SOL    HW263857   3.895   5.398   8.035  0.9741  0.4298 -0.2074
20806SOL     OW63858   6.239   6.415   8.130  0.1067 -0.4377 -0.0693
20806SOL    HW163859   6.278   6.341   8.177 -0.5569 -1.0926 -0.5384
20806SOL    HW263860   6.149   6.419   8.162  0.1183  0.1373 -0.0939
20807SOL     OW63861   0.084   3.841   3.312 -0.4970  0.4971 -0.0245
20807SOL    HW163862   0.095   3.906   3.381  0.3559  1.5347 -1.0938
20807SOL    HW263863   0.016   3.877   3.255 -0.5415  0.1036 -0.2248
20808SOL     OW63864   5.476   4.260   0.053 -0.4039 -0.5471  0.3504
20808SOL    HW163865   5.504   4.350   0.036 -0.4142 -0.5245  0.4488
20808SOL    HW263866   5.550   4.206   0.026 -0.5792 -0.5388 -0.1504
20809SOL     OW63867   3.770   3.889   6.334  0.2778  0.4904  0.3990
20809SOL    HW163868   3.806   3.801   6.327 -0.1250  0.4715 -2.9562
20809SOL    HW263869   3.676   3.875   6.348 -0.0053  0.2658 -1.4209
20810SOL     OW63870   3.706   5.729   1.246  0.1847  0.3275 -0.2605
20810SOL    HW163871   3.631   5.709   1.302  1.6896 -0.7976  1.4807
20810SOL    HW263872   3.716   5.824   1.254  0.4126  0.1927  1.5225
20811SOL     OW63873   2.074   5.567  10.173 -0.0399 -0.3498 -0.2315
20811SOL    HW163874   1.990   5.524  10.157  0.0274  0.1111 -1.9714
20811SOL    HW263875   2.123   5.504  10.227 -1.2254 -0.9166  0.2253
20812SOL     OW63876   6.252   2.309   8.940 -0.0983  0.0163  0.7965
20812SOL    HW163877   6.273   2.391   8.895  0.4109 -0.3048  0.4344
20812SOL    HW263878   6.231   2.335   9.029  0.1262  0.5328  0.7022
20813SOL     OW63879   6.712   2.713   5.991 -0.0488 -0.2139  0.4295
20813SOL    HW163880   6.691   2.686   6.081  1.6217  1.4756  1.4180
20813SOL    HW263881   6.627   2.731   5.951 -0.9366 -2.6940  1.0484
20814SOL     OW63882   1.052   7.193   9.715  0.0588  0.4328 -0.0547
20814SOL    HW163883   1.026   7.149   9.634 -3.1032  1.1449  0.4251
20814SOL    HW263884   1.029   7.131   9.785  0.8245  0.6385  0.3962
20815SOL     OW63885   1.263   1.012   4.528 -0.0045  0.0947 -0.3671
20815SOL    HW163886   1.325   1.085   4.525  0.0061  0.0790 -0.5487
20815SOL    HW263887   1.316   0.937   4.556 -0.3017  0.4477  1.2747
20816SOL     OW63888   0.806   3.807  10.816  0.4262  0.4172  0.4075
20816SOL    HW163889   0.790   3.902  10.810  0.9898  0.5863  1.4702
20816SOL    HW263890   0.850   3.795  10.900 -1.2387 -1.0067  1.1324
20817SOL     OW63891   2.133   7.790  11.343  0.4679 -0.3351 -0.3253
20817SOL    HW163892   2.063   7.732  11.373  0.4361 -0.2415 -0.2178
20817SOL    HW263893   2.087   7.869  11.313  0.4735 -0.5501 -0.9178
20818SOL     OW63894   6.566   0.005   9.081  0.2143  0.7476  0.4820
20818SOL    HW163895   6.478   0.022   9.115 -0.2026 -0.7739  0.2385
20818SOL    HW263896   6.614   0.086   9.098 -1.2545  1.6554  0.5181
20819SOL     OW63897   1.148   2.806   4.522  0.3719 -0.0226  0.2080
20819SOL    HW163898   1.167   2.848   4.605  0.5056  2.2034 -0.8795
20819SOL    HW263899   1.055   2.823   4.506  0.5914  0.5192 -0.5706
20820SOL     OW63900   5.854   3.914   0.116 -0.2811 -0.1406 -0.3173
20820SOL    HW163901   5.821   3.881   0.200 -0.0844  2.6721  1.0046
20820SOL    HW263902   5.839   3.843   0.054 -2.9876 -1.3412  1.5098
20821SOL     OW63903   1.536   2.122   5.504 -0.5572 -0.8416 -0.4035
20821SOL    HW163904   1.584   2.044   5.476 -0.8786 -0.9041 -0.7838
20821SOL    HW263905   1.500   2.098   5.590 -0.9596 -1.2486 -0.6789
20822SOL     OW63906   5.090   7.476   8.917 -0.2681 -0.0789 -0.5317
20822SOL    HW163907   5.167   7.512   8.963 -1.0198 -1.2515  1.8296
20822SOL    HW263908   5.109   7.382   8.909 -0.8373 -0.1407 -1.2723
20823SOL     OW63909   7.268   1.572   0.673 -0.0626 -0.3852 -0.3313
20823SOL    HW163910   7.353   1.599   0.706  0.2088 -0.3539 -1.0401
20823SOL    HW263911   7.238   1.646   0.620  0.2389 -1.0420 -1.4654
20824SOL     OW63912   5.000   2.489  11.496 -0.1840  0.3643 -0.3216
20824SOL    HW163913   5.088   2.454  11.510  0.5282  2.1963  0.0859
20824SOL    HW263914   4.941   2.423  11.533  1.0867 -0.1475  0.8531
20825SOL     OW63915   5.349   4.871   9.336 -0.4358 -0.0533 -0.0766
20825SOL    HW163916   5.334   4.800   9.398 -0.8088  0.6200  0.6245
20825SOL    HW263917   5.274   4.868   9.277  1.4802 -2.8153 -2.6782
20826SOL     OW63918   6.396   3.122   4.759  0.6908 -0.4260 -0.3424
20826SOL    HW163919   6.428   3.179   4.688 -0.5569  0.4115 -0.2665
20826SOL    HW263920   6.330   3.067   4.717 -0.2943  0.3040  0.2127
20827SOL     OW63921   7.669   6.386  11.950 -0.0588  0.2888  0.2875
20827SOL    HW163922   7.586   6.341  11.963  0.5160 -0.7949  0.3090
20827SOL    HW263923   7.690   6.425  12.035 -0.4610  0.4420  0.3192
20828SOL     OW63924   6.540   3.295   6.623  0.1609  0.3869 -0.6011
20828SOL    HW163925   6.623   3.341   6.612 -0.7442  1.7289 -2.4945
20828SOL    HW263926   6.564   3.203   6.628  1.8992  0.8673  1.2894
20829SOL     OW63927   0.495   3.518   7.173  0.3452  0.5543 -0.0830
20829SOL    HW163928   0.489   3.423   7.189  2.0836  0.3125 -0.6338
20829SOL    HW263929   0.534   3.524   7.086 -1.7127  1.8121 -0.9790
20830SOL     OW63930   2.395   5.505  10.325 -0.2391 -0.2237 -0.3139
20830SOL    HW163931   2.457   5.438  10.296 -0.6973 -0.9335  0.2998
20830SOL    HW263932   2.420   5.583  10.277  1.9888 -0.1262  0.8836
20831SOL     OW63933   3.287   5.914   9.000  0.4069  0.6152 -0.2441
20831SOL    HW163934   3.324   5.981   8.942  2.3069  0.7829  1.0862
20831SOL    HW263935   3.351   5.843   8.999  0.2291  0.3971  1.2097
20832SOL     OW63936   0.606   0.685   0.609 -0.1958  0.3519 -0.2579
20832SOL    HW163937   0.661   0.720   0.538 -2.2464  0.5990 -1.8017
20832SOL    HW263938   0.627   0.592   0.611  2.6408  0.8832  1.4537
20833SOL     OW63939   1.751   7.231   1.331 -0.1313  0.5090 -0.5992
20833SOL    HW163940   1.723   7.213   1.421 -1.7672 -1.0743 -1.3656
20833SOL    HW263941   1.838   7.269   1.341 -0.9504  2.0125  1.7278
20834SOL     OW63942   3.369   7.008  11.425 -0.0744  0.1187  0.1300
20834SOL    HW163943   3.438   6.973  11.480 -0.7542 -0.8959  0.3644
20834SOL    HW263944   3.415   7.059  11.358  0.7856  0.9158  1.2884
20835SOL     OW63945   0.122   2.889   0.226  0.6365  0.0423  0.3829
20835SOL    HW163946   0.213   2.917   0.220  0.4071  0.7146 -0.0904
20835SOL    HW263947   0.098   2.868   0.136  0.1579  0.4213  0.4189
20836SOL     OW63948   3.727   4.325   9.970 -0.0397 -0.8309 -0.0661
20836SOL    HW163949   3.698   4.234   9.979 -3.0270  0.1635  2.0488
20836SOL    HW263950   3.705   4.365  10.054 -2.7249  2.7724 -2.1999
20837SOL     OW63951   1.181   1.166   1.058  0.0393  0.1450 -0.3252
20837SOL    HW163952   1.160   1.111   1.133 -1.3706  0.6466 -0.3308
20837SOL    HW263953   1.270   1.140   1.033  0.4900 -0.1179  1.4332
20838SOL     OW63954   4.572   5.411   4.018 -0.4348  0.2061 -0.5622
20838SOL    HW163955   4.554   5.498   3.981 -0.4899  0.8527  0.9291
20838SOL    HW263956   4.668   5.407   4.024 -0.4674  0.6757  0.4956
20839SOL     OW63957   0.215   7.292   8.408 -0.1878 -0.0575  0.1079
20839SOL    HW163958   0.302   7.268   8.437  0.4442  0.7334 -1.0382
20839SOL    HW263959   0.210   7.260   8.318 -0.8321  0.4785 -0.0547
20840SOL     OW63960   5.659   6.048   5.463  0.2190 -0.0011  0.0396
20840SOL    HW163961   5.696   6.029   5.377 -2.0973 -0.3569 -0.9370
20840SOL    HW263962   5.662   5.964   5.509 -1.2744 -0.5568 -0.8186
20841SOL     OW63963   6.010   5.433   3.036 -0.5622  0.4508 -0.2375
20841SOL    HW163964   5.946   5.363   3.047 -0.6283  0.5433 -0.0334
20841SOL    HW263965   6.081   5.411   3.097 -0.8513  0.8730  0.2508
20842SOL     OW63966   5.022   4.338  11.591 -0.3293 -0.0800 -0.0182
20842SOL    HW163967   5.035   4.427  11.559  0.2241  0.0258  0.4984
20842SOL    HW263968   5.101   4.318  11.641 -0.0954 -1.1470 -0.7791
20843SOL     OW63969   6.710   6.794   2.226 -0.2194  0.4111  0.7378
20843SOL    HW163970   6.778   6.729   2.245  0.0682  0.2476 -0.7106
20843SOL    HW263971   6.674   6.817   2.311  1.4431  0.2669  1.5283
20844SOL     OW63972   1.579   1.764   9.579 -0.0627  0.1502 -0.2497
20844SOL    HW163973   1.526   1.689   9.605 -0.0175  0.1433 -0.1765
20844SOL    HW263974   1.528   1.840   9.605  0.2400  0.1432  0.3973
20845SOL     OW63975   1.773   2.157   6.143  0.0822  0.0615  0.2690
20845SOL    HW163976   1.797   2.126   6.055 -0.8211  1.4188 -0.4961
20845SOL    HW263977   1.833   2.111   6.202  1.1030 -0.4435 -1.1091
20846SOL     OW63978   1.373   6.485   2.182  0.8891  0.2602 -0.3769
20846SOL    HW163979   1.352   6.578   2.189 -0.2960 -0.0690  0.8727
20846SOL    HW263980   1.442   6.472   2.247  1.5608  0.3893 -1.0522
20847SOL     OW63981   0.373   2.985   5.085  0.2163  0.3155  0.6041
20847SOL    HW163982   0.368   3.076   5.113 -1.2364  0.4170  0.1100
20847SOL    HW263983   0.319   2.981   5.006  0.0696 -1.0096  0.7456
20848SOL     OW63984   0.742   0.653  10.263 -0.0383 -0.0928 -0.6300
20848SOL    HW163985   0.735   0.664  10.358 -0.9777 -0.1490 -0.6824
20848SOL    HW263986   0.819   0.704  10.239  0.4828 -0.4526  0.2200
20849SOL     OW63987   2.916   1.783  11.676  0.4824 -0.2487  0.0043
20849SOL    HW163988   2.974   1.772  11.601 -1.2214 -0.2655 -1.3743
20849SOL    HW263989   2.909   1.696  11.714 -0.1519 -0.6485 -0.9990
20850SOL     OW63990   2.634   5.812   4.945  0.5179 -0.2637  0.0014
20850SOL    HW163991   2.554   5.859   4.969 -0.7742 -1.4193 -1.7593
20850SOL    HW263992   2.676   5.791   5.028 -1.3243 -0.1335  1.0126
20851SOL     OW63993   6.992   7.223   0.950  0.3856  0.7950 -0.0055
20851SOL    HW163994   6.957   7.168   0.881  0.8962  0.1111  0.2735
20851SOL    HW263995   7.087   7.205   0.950  0.8074  2.7399 -0.8701
20852SOL     OW63996   4.977   1.700   8.493  0.1366 -0.1848 -0.0507
20852SOL    HW163997   4.964   1.723   8.401  4.0072 -0.9079 -0.9558
20852SOL    HW263998   4.980   1.604   8.494  1.6320 -0.1667  0.4823
20853SOL     OW63999   2.461   2.157   4.982 -0.2264  0.2470  0.7811
20853SOL    HW164000   2.542   2.131   4.939  0.3327 -0.9730  2.4419
20853SOL    HW264001   2.450   2.249   4.960  1.4009  0.3249  0.1908
20854SOL     OW64002   7.481   0.742  11.201  0.1177 -0.3547  0.3493
20854SOL    HW164003   7.564   0.741  11.250  0.2444  1.5768  0.2691
20854SOL    HW264004   7.462   0.650  11.183  1.3612 -0.9510  1.8606
20855SOL     OW64005   6.808   5.083   1.353 -0.2700  0.1175  0.5940
20855SOL    HW164006   6.816   5.169   1.313 -2.8635  0.2334  0.1501
20855SOL    HW264007   6.854   5.024   1.294 -0.2963  0.9049 -0.2190
20856SOL     OW64008   2.287   1.114   7.272  0.0947 -0.0831 -0.1691
20856SOL    HW164009   2.273   1.037   7.217  0.4035 -0.2772  0.0143
20856SOL    HW264010   2.310   1.078   7.358 -2.7815  0.1740  0.8060
20857SOL     OW64011   6.414   7.380   8.766 -0.4332 -0.5552 -0.2589
20857SOL    HW164012   6.484   7.327   8.727 -0.8089  0.3679 -2.3639
20857SOL    HW264013   6.335   7.354   8.719 -0.7316  1.3727 -0.9304
20858SOL     OW64014   0.876   1.768   8.318  0.1327 -0.0095 -0.1637
20858SOL    HW164015   0.945   1.825   8.282  0.5243 -0.3860 -0.0194
20858SOL    HW264016   0.902   1.680   8.291  0.5997 -0.3411  1.2927
20859SOL     OW64017   6.866   1.293   2.547 -0.4918  0.0817 -0.0245
20859SOL    HW164018   6.959   1.270   2.555 -0.2211  1.7760  3.0131
20859SOL    HW264019   6.822   1.235   2.608 -1.4694 -0.6502 -1.3882
20860SOL     OW64020   1.879   5.289   5.830  0.0802 -0.5132  0.3590
20860SOL    HW164021   1.885   5.295   5.735  1.3252 -1.8099  0.3188
20860SOL    HW264022   1.786   5.274   5.848 -0.2773  0.5021 -0.5835
20861SOL     OW64023   4.003   1.281  11.821  0.1922 -0.3277 -0.8632
20861SOL    HW164024   4.030   1.277  11.729 -1.7107  1.7549 -1.6212
20861SOL    HW264025   3.986   1.190  11.846 -0.4230 -0.8505 -2.9823
20862SOL     OW64026   0.950   4.726   9.109 -0.3928 -0.6062 -0.7983
20862SOL    HW164027   0.889   4.759   9.175  0.4431  1.3564 -0.9322
20862SOL    HW264028   0.992   4.652   9.152 -1.6402 -0.9283 -0.0744
20863SOL     OW64029   2.306   4.209   5.378  0.0329 -0.2435  0.1010
20863SOL    HW164030   2.221   4.217   5.335  0.3514  0.5420 -0.3907
20863SOL    HW264031   2.345   4.131   5.339 -0.7879 -1.0951  0.9185
20864SOL     OW64032   6.396   7.874   7.173  0.5061 -0.7611 -0.5973
20864SOL    HW164033   6.365   7.785   7.162  0.4597 -0.7556 -0.5090
20864SOL    HW264034   6.393   7.912   7.085 -1.7476 -0.0926 -0.3126
20865SOL     OW64035   1.493   4.409  10.728  0.0062 -0.6786 -0.5754
20865SOL    HW164036   1.428   4.467  10.689 -0.5363 -1.2492 -0.5330
20865SOL    HW264037   1.461   4.321  10.710  0.5148 -0.9616 -0.1315
20866SOL     OW64038   1.459   4.947   9.204 -0.1948  0.3207  0.0361
20866SOL    HW164039   1.366   4.947   9.226  0.4884 -1.8450  3.6945
20866SOL    HW264040   1.468   4.875   9.141 -0.7353 -1.2041  1.6094
20867SOL     OW64041   7.481   7.748   7.906  0.0009 -0.6130 -0.4766
20867SOL    HW164042   7.395   7.779   7.934 -0.1876 -0.5354 -1.1415
20867SOL    HW264043   7.482   7.761   7.812  1.2271  0.5961 -0.3260
20868SOL     OW64044   0.199   6.854   9.596  0.1156  0.0501 -0.2963
20868SOL    HW164045   0.145   6.793   9.547  2.8456 -1.6104 -1.5218
20868SOL    HW264046   0.191   6.937   9.548 -0.3213 -0.5134 -1.2327
20869SOL     OW64047   2.127   7.046   2.182 -0.3831  0.3646 -0.3237
20869SOL    HW164048   2.177   7.094   2.116 -1.6693  2.7366  0.3087
20869SOL    HW264049   2.058   7.002   2.132  2.0347 -2.7947 -1.1809
20870SOL     OW64050   3.241   4.150  11.670  0.7081  0.4489  0.0879
20870SOL    HW164051   3.296   4.179  11.598  1.1982 -0.5105  0.0549
20870SOL    HW264052   3.162   4.116  11.627  0.2768  1.3887  0.1099
20871SOL     OW64053   7.022   5.832   4.571  0.0209  0.0402  0.3373
20871SOL    HW164054   6.954   5.818   4.637 -0.6686  2.5530  0.2779
20871SOL    HW264055   7.069   5.909   4.602  0.6119  0.4121 -1.3629
20872SOL     OW64056   6.808   7.484   7.562 -0.1610 -0.1323  0.0965
20872SOL    HW164057   6.743   7.553   7.548  0.4479  0.2197 -1.0661
20872SOL    HW264058   6.858   7.514   7.638  1.6425  1.9643 -1.7638
20873SOL     OW64059   4.954   3.653   2.546  0.7225 -0.3469 -0.2043
20873SOL    HW164060   4.898   3.576   2.534 -0.4361  0.3826  0.4009
20873SOL    HW264061   5.007   3.632   2.623 -0.8384  0.1429  1.0519
20874SOL     OW64062   1.529   1.853   5.099 -0.9012 -0.2955  0.2429
20874SOL    HW164063   1.444   1.891   5.118 -0.6251  0.4496  0.0372
20874SOL    HW264064   1.535   1.852   5.004 -1.0370 -1.1857  0.2303
20875SOL     OW64065   4.374   1.109   9.104  0.3479 -0.1089  0.1331
20875SOL    HW164066   4.392   1.049   9.032 -1.3503  0.4733 -0.8174
20875SOL    HW264067   4.297   1.073   9.148 -1.3529  1.8321 -1.0853
20876SOL     OW64068   4.070   1.661   6.566 -0.0587  0.0821  0.2679
20876SOL    HW164069   4.150   1.644   6.516 -0.3792 -0.2701 -0.1231
20876SOL    HW264070   4.098   1.721   6.635  0.2534  1.0946 -0.7130
20877SOL     OW64071   2.084   3.252   2.260  0.0094  0.2731 -0.5751
20877SOL    HW164072   2.010   3.309   2.237 -1.7041 -1.2564  0.8390
20877SOL    HW264073   2.081   3.248   2.356  1.9603  0.1581 -0.4897
20878SOL     OW64074   3.144   1.485   5.839 -0.1304 -0.3913  0.0255
20878SOL    HW164075   3.150   1.391   5.857  1.5716 -0.3438 -0.1192
20878SOL    HW264076   3.119   1.524   5.923  2.1191 -0.7301  0.9299
20879SOL     OW64077   5.549   7.087   3.351  0.1245 -0.0460 -0.0727
20879SOL    HW164078   5.588   7.017   3.404 -0.0093 -0.4350 -0.4817
20879SOL    HW264079   5.612   7.159   3.357  1.0200 -0.7319 -0.8806
20880SOL     OW64080   3.019   1.166   8.802 -0.0085 -0.1843 -0.3449
20880SOL    HW164081   3.014   1.260   8.783  0.5858 -0.1422 -0.3076
20880SOL    HW264082   3.098   1.156   8.856 -1.3070 -0.3977  1.6169
20881SOL     OW64083   6.608   3.798   2.150  0.1304 -0.2245 -0.5523
20881SOL    HW164084   6.559   3.881   2.147  0.0602 -0.2657 -0.5435
20881SOL    HW264085   6.596   3.760   2.063 -1.1931 -1.0088 -0.0492
20882SOL     OW64086   6.520   3.454   7.245  0.1590 -0.1781  0.0183
20882SOL    HW164087   6.512   3.473   7.152  2.4802  0.4642 -0.1100
20882SOL    HW264088   6.532   3.359   7.249 -0.7108 -0.3038 -0.2621
20883SOL     OW64089   6.753   4.748  10.711 -0.7369  0.2779 -0.9776
20883SOL    HW164090   6.808   4.780  10.639  0.2939 -0.9801 -0.7727
20883SOL    HW264091   6.733   4.827  10.761 -0.4293  0.9936 -1.9404
20884SOL     OW64092   3.900   2.968   6.652  0.4811  0.2208  0.3747
20884SOL    HW164093   3.833   2.928   6.597 -0.1827  1.1179  0.5082
20884SOL    HW264094   3.905   2.910   6.729 -0.6373  0.4912  0.6747
20885SOL     OW64095   2.317   4.769  11.019  0.4770 -0.0033  0.4139
20885SOL    HW164096   2.283   4.852  10.985 -1.1067 -0.1197  1.5579
20885SOL    HW264097   2.408   4.787  11.041  0.0302  1.6238  1.1339
20886SOL     OW64098   4.634   0.695   1.859  0.0158 -0.1158  0.4606
20886SOL    HW164099   4.542   0.674   1.843 -0.3889  0.5208  1.8087
20886SOL    HW264100   4.663   0.739   1.779 -0.7503 -0.5995 -0.0953
20887SOL     OW64101   2.898   7.764   0.020  0.1601  0.3191  0.5220
20887SOL    HW164102   2.929   7.805  -0.061 -0.3935 -0.0097  0.1333
20887SOL    HW264103   2.963   7.697   0.040  0.5589  0.7323  0.6258
20888SOL     OW64104   1.259   6.030  10.113 -0.0959 -0.4678 -1.1702
20888SOL    HW164105   1.246   5.936  10.129 -0.0491 -0.2196  0.4396
20888SOL    HW264106   1.342   6.050  10.154 -0.9249  0.6210  0.0616
20889SOL     OW64107   4.191   3.026  10.383  0.0390 -0.0082 -0.1763
20889SOL    HW164108   4.174   2.932  10.386 -2.1432  0.3149  3.2034
20889SOL    HW264109   4.254   3.041  10.454  0.0018  1.1339 -0.3719
20890SOL     OW64110   2.061   0.676   7.950 -0.0269  0.0446  0.6921
20890SOL    HW164111   1.995   0.713   7.891  0.2002 -1.8677 -0.8742
20890SOL    HW264112   2.131   0.741   7.950 -0.1410  0.2264 -0.9757
20891SOL     OW64113   6.870   6.313   5.343  0.5365 -0.4839 -0.4149
20891SOL    HW164114   6.886   6.407   5.335 -0.1401 -0.0792  2.0922
20891SOL    HW264115   6.826   6.289   5.261 -1.1063  1.8301 -0.3312
20892SOL     OW64116   2.452   3.511   7.281  0.0613  0.4331 -0.4322
20892SOL    HW164117   2.360   3.537   7.275 -0.5501 -1.2217  1.0773
20892SOL    HW264118   2.490   3.571   7.345 -0.5675 -0.3454  0.6972
20893SOL     OW64119   0.625   3.549   5.542 -0.1907  0.1963  0.1276
20893SOL    HW164120   0.709   3.594   5.533 -0.3533  0.7889  1.4207
20893SOL    HW264121   0.634   3.498   5.622 -0.8360 -0.2758 -0.0912
20894SOL     OW64122   3.357   2.723   9.259 -0.3601  0.1986 -0.2208
20894SOL    HW164123   3.305   2.661   9.208 -0.3914  0.3182 -0.3362
20894SOL    HW264124   3.316   2.808   9.243  0.4963  0.4567 -1.1700
20895SOL     OW64125   6.275   0.092   6.945 -0.4016 -0.3684 -0.0646
20895SOL    HW164126   6.235   0.017   6.901 -0.2708 -0.2355 -0.4088
20895SOL    HW264127   6.352   0.113   6.893  0.9115 -1.4624  1.3250
20896SOL     OW64128   2.246   2.977   6.974 -0.0039 -0.3165 -0.2400
20896SOL    HW164129   2.290   2.894   6.956  0.8169  0.1168 -0.2524
20896SOL    HW264130   2.153   2.953   6.984 -0.1773 -0.9049 -2.6647
20897SOL     OW64131   7.915   6.933   7.529  0.1391  0.3945  0.2168
20897SOL    HW164132   7.858   6.857   7.517 -0.8516  1.2947 -1.2170
20897SOL    HW264133   7.857   7.000   7.566  0.6220  0.9187  0.0361
20898SOL     OW64134   4.972   6.988   1.540  0.4338  0.2039 -0.1989
20898SOL    HW164135   4.958   6.893   1.540  1.2024  0.0540 -1.7500
20898SOL    HW264136   4.932   7.018   1.621  0.0681 -1.4323  0.2705
20899SOL     OW64137   2.005   0.511  10.153 -0.6570  0.1996 -0.4238
20899SOL    HW164138   2.014   0.571  10.227 -0.9364  0.6438 -0.7364
20899SOL    HW264139   2.087   0.463  10.150 -0.0755  1.1726 -0.6706
20900SOL     OW64140   0.520   4.719   5.670  0.0950  0.1249  0.2041
20900SOL    HW164141   0.537   4.792   5.729 -3.2777  0.7589  0.6451
20900SOL    HW264142   0.532   4.756   5.583 -1.1383  1.1787  0.4345
20901SOL     OW64143   1.829   3.433   8.938 -0.1393  0.1414  0.0966
20901SOL    HW164144   1.850   3.400   8.850 -0.1586  0.6965 -0.1166
20901SOL    HW264145   1.736   3.454   8.934 -0.3991 -0.8627  0.5815
20902SOL     OW64146   3.475   4.476   9.909  0.1395 -0.0097 -0.1524
20902SOL    HW164147   3.499   4.387   9.881 -0.4201  0.3557 -1.9692
20902SOL    HW264148   3.400   4.498   9.854 -1.6040  0.5197  2.2904
20903SOL     OW64149   2.498   1.522   4.319  0.0756  0.0806  0.3895
20903SOL    HW164150   2.403   1.537   4.321 -0.1684 -0.3411 -2.5929
20903SOL    HW264151   2.507   1.427   4.325  0.1911  0.0292 -0.4470
20904SOL     OW64152   1.320   1.992  10.954  0.3857 -0.3502 -0.0187
20904SOL    HW164153   1.391   1.939  10.991  1.2392  1.1403  0.5585
20904SOL    HW264154   1.292   1.943  10.877 -0.7168 -3.0071  1.9241
20905SOL     OW64155   4.816   7.573   9.876 -0.3455 -0.1437 -0.0309
20905SOL    HW164156   4.800   7.589   9.969  0.4800 -3.4701  0.8149
20905SOL    HW264157   4.730   7.586   9.834 -1.0675 -0.0592  1.4229
20906SOL     OW64158   5.921   1.769   2.149 -0.3574 -0.3345 -0.2556
20906SOL    HW164159   5.918   1.769   2.054  0.4206  0.2545 -0.2925
20906SOL    HW264160   5.994   1.711   2.170 -0.5421 -0.4811 -0.0208
20907SOL     OW64161   5.483   2.087   7.858  0.3269 -0.5995  0.3650
20907SOL    HW164162   5.407   2.131   7.897  0.3057 -0.7886  0.5409
20907SOL    HW264163   5.448   2.042   7.781  0.2550 -0.7081  0.4606
20908SOL     OW64164   2.901   7.911   8.012  0.1580  0.3103 -0.0689
20908SOL    HW164165   2.993   7.937   8.017  0.0749  0.6262 -0.1869
20908SOL    HW264166   2.885   7.901   7.918  0.4494 -1.0972  0.0068
20909SOL     OW64167   5.422   3.256  11.803  0.1086 -0.0885 -0.7999
20909SOL    HW164168   5.335   3.269  11.841 -0.2621 -0.2011 -1.6038
20909SOL    HW264169   5.407   3.250  11.709  1.1144  1.1414 -1.0694
20910SOL     OW64170   6.099   6.918   3.993 -0.0898  0.6270  0.4048
20910SOL    HW164171   6.172   6.964   4.035  0.6686  0.1562 -0.3530
20910SOL    HW264172   6.141   6.852   3.938 -1.1199 -0.1199  0.4883
20911SOL     OW64173   7.343   2.889   8.211 -0.2569 -0.0965 -0.0693
20911SOL    HW164174   7.318   2.869   8.120  0.2368 -1.5657  0.0935
20911SOL    HW264175   7.421   2.943   8.202  0.4664 -1.1747 -0.5441
20912SOL     OW64176   7.351   4.677   4.642  0.5348  0.3447 -0.3915
20912SOL    HW164177   7.367   4.604   4.582  0.5861  0.2102 -0.2196
20912SOL    HW264178   7.339   4.753   4.586 -0.2187  0.0792 -0.6076
20913SOL     OW64179   6.762   0.421   5.656  0.2812 -1.2545 -0.2151
20913SOL    HW164180   6.729   0.342   5.699 -0.6650 -0.6280  0.2360
20913SOL    HW264181   6.688   0.456   5.608 -0.6128  1.5239  2.7905
20914SOL     OW64182   2.489   6.307  10.690  0.0168 -0.2865  0.3523
20914SOL    HW164183   2.535   6.346  10.764 -1.5216 -0.0326  1.2239
20914SOL    HW264184   2.494   6.372  10.620  3.0689 -1.2625 -0.4789
20915SOL     OW64185   3.443   4.685   9.020  0.3247 -0.6206 -0.0848
20915SOL    HW164186   3.401   4.631   9.087  0.3888  1.2147  1.5389
20915SOL    HW264187   3.537   4.670   9.033  0.3298 -0.4088  0.1484
20916SOL     OW64188   0.489   7.163   4.467 -0.1671  0.0885  0.1558
20916SOL    HW164189   0.397   7.162   4.494 -0.1921 -1.6223  0.1377
20916SOL    HW264190   0.494   7.097   4.398  1.1730 -0.2459  0.5387
20917SOL     OW64191   7.551   6.454   6.499 -0.1476 -0.3355  0.0335
20917SOL    HW164192   7.481   6.471   6.437  0.6356 -0.2667 -0.8643
20917SOL    HW264193   7.630   6.486   6.455  0.1762  1.8003  1.9802
20918SOL     OW64194   0.343   1.239   2.432 -0.1458  0.1036 -0.1141
20918SOL    HW164195   0.253   1.212   2.453 -0.0007 -0.3504 -0.0907
20918SOL    HW264196   0.336   1.334   2.421 -0.4121  0.2229  1.0169
20919SOL     OW64197   0.326   3.111   7.605 -1.3579  0.5079  0.4408
20919SOL    HW164198   0.344   3.204   7.588 -0.3485  0.1094 -0.8375
20919SOL    HW264199   0.238   3.096   7.571 -1.5308  0.9902  0.6675
20920SOL     OW64200   2.806   2.054  11.005  0.1396  0.3705 -0.2498
20920SOL    HW164201   2.733   1.997  10.980  0.0077  0.2607  0.3642
20920SOL    HW264202   2.840   2.088  10.922 -0.0370 -0.2878 -0.5993
20921SOL     OW64203   2.166   5.159   4.351 -0.3011  0.0460  0.2668
20921SOL    HW164204   2.259   5.181   4.336 -0.2283 -0.5404 -0.1884
20921SOL    HW264205   2.163   5.123   4.439  0.1875 -1.3833 -0.2642
20922SOL     OW64206   5.714   4.366  10.210  0.1782 -0.4768 -0.0204
20922SOL    HW164207   5.721   4.288  10.156  2.1335 -0.0896 -0.4087
20922SOL    HW264208   5.780   4.354  10.279 -1.1135 -0.2111  1.3196
20923SOL     OW64209   6.854   3.471   5.224 -0.2307 -0.5552 -0.4180
20923SOL    HW164210   6.793   3.436   5.289 -0.3681 -1.0198 -0.7918
20923SOL    HW264211   6.814   3.553   5.194  0.4989  0.3909  1.0698
20924SOL     OW64212   3.804   3.167   9.137 -0.0245 -0.0838  0.1917
20924SOL    HW164213   3.806   3.262   9.140 -0.4441 -0.0712  0.1042
20924SOL    HW264214   3.771   3.147   9.049 -1.1518 -0.2917  0.6388
20925SOL     OW64215   7.267   3.531   7.327  0.7249 -0.0569  0.1994
20925SOL    HW164216   7.244   3.440   7.308  1.4118 -0.5436  1.5704
20925SOL    HW264217   7.196   3.582   7.288 -0.9125 -1.3210  1.3651
20926SOL     OW64218   6.659   7.114  10.567  0.2124 -0.2115  0.3645
20926SOL    HW164219   6.608   7.044  10.608 -2.7803  0.6753 -1.5354
20926SOL    HW264220   6.623   7.195  10.602  0.5558  0.4578 -0.7566
20927SOL     OW64221   3.331   5.333  11.404 -0.1090  0.6203  0.4292
20927SOL    HW164222   3.379   5.391  11.345  0.0679 -0.9328 -1.0356
20927SOL    HW264223   3.398   5.292  11.459 -0.0411  0.5040  0.2603
20928SOL     OW64224   6.159   0.599  11.891  0.1557 -0.0019 -0.7123
20928SOL    HW164225   6.098   0.565  11.826  0.3547 -0.6762 -0.5541
20928SOL    HW264226   6.113   0.672  11.932 -0.0475  0.2971 -1.4647
20929SOL     OW64227   4.665   5.114   5.176  0.4293  0.6107  0.3423
20929SOL    HW164228   4.674   5.091   5.083  0.2550  3.2469 -0.4091
20929SOL    HW264229   4.754   5.130   5.206  0.5564 -0.9923  0.8751
20930SOL     OW64230   6.832   6.927   4.113 -0.3502  0.2342  0.1636
20930SOL    HW164231   6.824   6.943   4.019  1.0619  0.0023 -0.0201
20930SOL    HW264232   6.898   6.858   4.120  0.2066  0.8578  1.3673
20931SOL     OW64233   6.601   0.976   2.324 -0.4178  0.1124  0.1050
20931SOL    HW164234   6.609   1.009   2.413  0.8589 -0.2566  0.1556
20931SOL    HW264235   6.661   1.030   2.273 -0.3472 -0.3598 -0.3214
20932SOL     OW64236   6.839   3.638   9.496 -0.3786  0.5976 -0.1004
20932SOL    HW164237   6.841   3.674   9.408 -1.5848  1.8408  0.3578
20932SOL    HW264238   6.863   3.546   9.485 -0.2676  0.8020 -1.6790
20933SOL     OW64239   7.249   6.859  11.281  0.4987 -0.4887  0.0637
20933SOL    HW164240   7.304   6.937  11.287  0.4874 -0.2623 -2.0357
20933SOL    HW264241   7.307   6.787  11.306  0.7208  0.0875  1.2870
20934SOL     OW64242   3.893   5.621   9.408 -0.2314 -0.8489  0.1137
20934SOL    HW164243   3.875   5.639   9.316  1.0928 -0.6172 -0.1187
20934SOL    HW264244   3.979   5.578   9.408 -0.3523 -1.1255  1.2125
20935SOL     OW64245   1.563   2.526  10.787 -0.2017 -0.0002 -0.1629
20935SOL    HW164246   1.514   2.470  10.847  1.4325 -0.0038  1.2595
20935SOL    HW264247   1.615   2.582  10.845  0.3486  0.9945 -1.5874
20936SOL     OW64248   4.021   6.100   8.461 -0.0604 -0.0387 -0.1297
20936SOL    HW164249   4.102   6.084   8.412 -0.4213  1.6066 -1.3636
20936SOL    HW264250   3.956   6.123   8.394 -0.5958  2.2008  1.0374
20937SOL     OW64251   7.304   0.388   9.416 -0.0285  0.0590  0.3735
20937SOL    HW164252   7.389   0.363   9.452 -1.0975 -0.1707  2.9806
20937SOL    HW264253   7.271   0.309   9.373  1.2374  0.2991 -1.1355
20938SOL     OW64254   2.542   6.003   6.768 -0.3965 -0.2373  0.1732
20938SOL    HW164255   2.580   6.054   6.697 -1.3772  0.3038  0.0207
20938SOL    HW264256   2.597   6.024   6.844 -0.4567  0.6330 -0.0103
20939SOL     OW64257   6.866   2.637   7.766 -0.4325  0.2563 -0.3416
20939SOL    HW164258   6.831   2.560   7.721 -0.0570  0.7971 -1.6041
20939SOL    HW264259   6.801   2.658   7.833  0.2363 -2.1552  1.2140
20940SOL     OW64260   7.464   4.310   1.723  0.0429 -0.4242  0.0227
20940SOL    HW164261   7.443   4.227   1.767  1.8097 -0.8588  0.0929
20940SOL    HW264262   7.443   4.294   1.631  0.7797 -1.1034 -0.0326
20941SOL     OW64263   4.418   5.398   8.295  0.2369  0.2515 -0.3546
20941SOL    HW164264   4.334   5.444   8.299  0.0124 -0.1942  0.3029
20941SOL    HW264265   4.484   5.467   8.301 -0.0794  0.5938 -0.7303
20942SOL     OW64266   6.817   3.047   8.577 -0.0289  0.3674 -0.2453
20942SOL    HW164267   6.881   3.110   8.545  1.3233 -1.1341 -0.6268
20942SOL    HW264268   6.797   3.075   8.666  1.2122  0.8318 -0.1060
20943SOL     OW64269   3.926   6.231   0.816  0.2660 -0.6149  0.6461
20943SOL    HW164270   3.877   6.308   0.787 -1.6478 -2.0181 -0.0403
20943SOL    HW264271   3.981   6.208   0.741 -0.1260 -0.6654  0.3720
20944SOL     OW64272   1.219   0.059   8.894 -0.4397  0.2374 -0.3043
20944SOL    HW164273   1.299   0.111   8.884  0.3972 -1.3894 -3.1979
20944SOL    HW264274   1.251  -0.030   8.910 -1.7431 -0.2044 -0.0750
20945SOL     OW64275   5.825   6.356   7.423 -0.0485  0.1887  0.2351
20945SOL    HW164276   5.800   6.344   7.515  0.2916  1.0238  0.4413
20945SOL    HW264277   5.857   6.270   7.396  1.6367  0.3882  1.4702
20946SOL     OW64278   0.244   5.327  12.038  0.1787  0.0472  0.0030
20946SOL    HW164279   0.256   5.421  12.052  1.8029 -0.3435  1.7677
20946SOL    HW264280   0.159   5.319  11.995 -0.6671  2.2242  1.1154
20947SOL     OW64281   0.618   0.771  11.155  0.1897  0.0009  0.1236
20947SOL    HW164282   0.675   0.769  11.077  0.8651 -1.8588  0.5954
20947SOL    HW264283   0.573   0.855  11.150  1.0270  0.3981 -1.6965
20948SOL     OW64284   0.925   1.971   7.906  0.1383  0.1871 -0.1001
20948SOL    HW164285   0.921   1.927   7.821  0.2707  1.5289 -0.8330
20948SOL    HW264286   1.019   1.986   7.920  0.1182 -0.0563  0.3069
20949SOL     OW64287   1.490   0.211   5.724 -0.2515 -0.7212  0.3837
20949SOL    HW164288   1.396   0.199   5.715 -0.3019  0.0802 -0.2348
20949SOL    HW264289   1.499   0.282   5.789 -0.0411 -1.5271  1.2602
20950SOL     OW64290   5.098   1.705   0.689  0.0656  0.3247  0.2181
20950SOL    HW164291   5.166   1.642   0.711  1.0749  1.4699  0.5160
20950SOL    HW264292   5.049   1.717   0.770 -1.1541 -1.2446 -0.2542
20951SOL     OW64293   5.381   6.942   4.263  0.2975 -0.3962  0.5111
20951SOL    HW164294   5.298   6.967   4.222  0.7261 -1.0619 -0.7967
20951SOL    HW264295   5.378   6.847   4.269  0.2878 -0.3392  1.9962
20952SOL     OW64296   2.074   2.724   7.343  0.2199  0.0939 -0.2147
20952SOL    HW164297   2.028   2.658   7.396 -0.5988  1.4930  0.8812
20952SOL    HW264298   2.008   2.790   7.324  1.5744  1.8119  0.7723
20953SOL     OW64299   3.156   0.489   6.455 -0.1600 -0.4004  0.8033
20953SOL    HW164300   3.123   0.555   6.394  1.7860  0.9586  1.1151
20953SOL    HW264301   3.112   0.509   6.537  0.2633  0.4028  0.8432
20954SOL     OW64302   4.450   6.306  12.269  0.2914  0.0288  0.1899
20954SOL    HW164303   4.418   6.218  12.252  0.3097 -0.4507  2.3777
20954SOL    HW264304   4.372   6.362  12.260 -0.6204 -0.7503  2.5863
20955SOL     OW64305   2.041   3.319   5.922 -0.0476  0.3356 -0.0504
20955SOL    HW164306   1.960   3.353   5.961  0.0216  0.2225  0.1918
20955SOL    HW264307   2.079   3.394   5.877  0.0141  0.5371  0.3325
20956SOL     OW64308   0.421   3.078  12.024  0.7469  0.5506  0.0149
20956SOL    HW164309   0.333   3.057  11.994  2.2336 -3.0651 -2.6108
20956SOL    HW264310   0.450   3.148  11.965  0.0703  0.8486  0.0343
20957SOL     OW64311   4.420   1.963   0.258  0.8004 -0.0993  0.1546
20957SOL    HW164312   4.407   2.054   0.283  1.8766 -0.3087  1.6070
20957SOL    HW264313   4.388   1.913   0.333 -1.0924 -1.0194 -1.1778
20958SOL     OW64314   4.434   6.962   1.187  0.5166 -0.6220 -0.3798
20958SOL    HW164315   4.420   6.868   1.201  1.6651 -1.0235 -1.6694
20958SOL    HW264316   4.457   6.969   1.094 -1.0668  1.1375 -0.7152
20959SOL     OW64317   0.213   3.448   7.534 -0.2219  0.0372 -0.7067
20959SOL    HW164318   0.159   3.370   7.530 -0.2378  0.0111 -0.0729
20959SOL    HW264319   0.300   3.419   7.508  0.1151 -0.5278  0.8903
20960SOL     OW64320   0.835   6.905   6.009 -0.1465  0.0706  0.0865
20960SOL    HW164321   0.765   6.967   5.988  1.3396  1.6428 -0.3757
20960SOL    HW264322   0.795   6.844   6.072 -1.6011  1.5709  0.6778
20961SOL     OW64323   2.433   0.062   5.889  0.3690 -0.6909 -0.0310
20961SOL    HW164324   2.507   0.110   5.928 -0.7145  0.1219  1.1220
20961SOL    HW264325   2.471   0.015   5.815  1.5935  1.5666 -0.9415
20962SOL     OW64326   2.076   7.277   3.160 -0.2856 -0.2306  0.0467
20962SOL    HW164327   2.045   7.366   3.143  0.6528 -0.0196 -0.6803
20962SOL    HW264328   2.096   7.276   3.253  0.3325  0.5406 -0.0667
20963SOL     OW64329   0.817   5.492   6.624 -0.0396 -0.1051  0.3101
20963SOL    HW164330   0.878   5.552   6.668 -0.4462 -0.1351  0.9393
20963SOL    HW264331   0.843   5.493   6.532  0.7899  0.0214  0.5420
20964SOL     OW64332   3.796   7.423   4.591 -0.2576 -0.3516 -0.2769
20964SOL    HW164333   3.760   7.451   4.507 -3.1160  1.3227  1.3365
20964SOL    HW264334   3.721   7.386   4.638  1.0498 -0.5166  1.8218
20965SOL     OW64335   4.212   5.625  11.289 -0.0707  0.6724  0.3093
20965SOL    HW164336   4.300   5.629  11.325  0.2151 -0.8177 -0.1298
20965SOL    HW264337   4.159   5.587  11.359 -0.0187  0.0724  0.0327
20966SOL     OW64338   4.425   4.100   8.554  0.6197 -0.4877 -0.3369
20966SOL    HW164339   4.374   4.100   8.634  0.6443  2.0604 -0.2535
20966SOL    HW264340   4.516   4.088   8.583  0.5544 -0.2688 -0.0427
20967SOL     OW64341   5.199   1.419   8.486  0.3759 -0.9350 -0.3140
20967SOL    HW164342   5.210   1.381   8.573 -1.1233  1.6219  1.1278
20967SOL    HW264343   5.105   1.414   8.470  0.3945  0.3195 -0.9281
20968SOL     OW64344   4.051   3.524   4.480  0.3821 -0.0351 -0.0124
20968SOL    HW164345   4.123   3.505   4.540 -0.8053 -2.6943  0.6944
20968SOL    HW264346   3.988   3.574   4.533  2.2968  3.9318 -1.1111
20969SOL     OW64347   1.484   6.211   2.160  0.1526  0.0127 -0.4467
20969SOL    HW164348   1.438   6.156   2.097  1.3788 -1.3066 -0.2405
20969SOL    HW264349   1.415   6.242   2.220 -0.5801 -1.2570 -0.5987
20970SOL     OW64350   6.897   7.671  11.615 -0.4566 -0.2634 -0.0701
20970SOL    HW164351   6.924   7.584  11.583 -1.3145 -0.5356 -0.0618
20970SOL    HW264352   6.949   7.732  11.562 -1.0777 -0.7382 -1.2721
20971SOL     OW64353   2.052   5.252   2.815 -0.3517  0.4016 -0.1687
20971SOL    HW164354   2.066   5.345   2.834  1.3322  0.5384 -1.7946
20971SOL    HW264355   1.987   5.251   2.744 -1.1394  0.2543  0.5341
20972SOL     OW64356   7.800   0.660   4.551 -0.4845  0.0875  0.2241
20972SOL    HW164357   7.800   0.754   4.569 -0.0474  0.2126 -0.3818
20972SOL    HW264358   7.715   0.629   4.580 -0.0341  0.3705  1.9485
20973SOL     OW64359   3.058   2.188   1.283 -0.9670 -0.0075  0.2622
20973SOL    HW164360   3.138   2.230   1.252 -1.0372  0.0982  0.2244
20973SOL    HW264361   2.988   2.223   1.227 -0.8727 -0.9927 -0.4833
20974SOL     OW64362   4.112   0.268   3.306  0.3094 -0.0054 -0.2741
20974SOL    HW164363   4.030   0.302   3.343  1.5438  2.8697  0.1170
20974SOL    HW264364   4.085   0.217   3.230 -1.9087 -0.5119  0.7724
20975SOL     OW64365   6.560   3.356  10.385 -0.1445 -0.2986 -0.6884
20975SOL    HW164366   6.555   3.265  10.355 -1.6134 -0.7106  0.6716
20975SOL    HW264367   6.547   3.408  10.306 -1.0292 -1.2955 -1.2303
20976SOL     OW64368   5.306   0.521   6.727 -0.0482 -0.6198  0.2074
20976SOL    HW164369   5.262   0.581   6.787  0.5954 -0.1403  0.2053
20976SOL    HW264370   5.398   0.525   6.752  0.1384 -0.8833 -0.4164
20977SOL     OW64371   7.129   6.183   8.943 -0.3844  0.2378 -0.6236
20977SOL    HW164372   7.202   6.236   8.974 -0.0042 -0.0941 -0.9382
20977SOL    HW264373   7.125   6.109   9.003 -2.1258  1.5572  0.9819
20978SOL     OW64374   4.525   7.133   3.492 -0.4356  0.0318 -0.0746
20978SOL    HW164375   4.591   7.067   3.512  0.0396  0.8163  1.0576
20978SOL    HW264376   4.527   7.192   3.567 -3.0417 -0.3881  0.4120
20979SOL     OW64377   6.130   4.870   9.613 -0.3810 -0.2183  0.0202
20979SOL    HW164378   6.172   4.951   9.584 -0.6223 -0.7019 -1.7348
20979SOL    HW264379   6.146   4.807   9.543 -2.4017 -0.9540  0.1574
20980SOL     OW64380   6.229   4.794  11.839 -0.4534 -0.2390  0.6062
20980SOL    HW164381   6.173   4.804  11.916  0.2336 -0.0511  1.0912
20980SOL    HW264382   6.294   4.730  11.866 -0.4801 -0.5124  0.0181
20981SOL     OW64383   3.786   0.142   0.517 -0.0955  0.5684  0.5499
20981SOL    HW164384   3.845   0.196   0.569  0.1816  0.1900  0.6280
20981SOL    HW264385   3.751   0.078   0.580  0.0702  0.2503  0.3199
20982SOL     OW64386   3.568   6.288   8.299  0.5255 -0.0647  0.4706
20982SOL    HW164387   3.491   6.342   8.281  1.5749  1.4045  0.1318
20982SOL    HW264388   3.638   6.352   8.314  1.8915 -1.3570 -0.1765
20983SOL     OW64389   4.596   4.081   5.638 -0.4945 -0.2280  0.1787
20983SOL    HW164390   4.551   4.000   5.662 -1.0668  0.7572  2.8737
20983SOL    HW264391   4.681   4.075   5.681 -1.2644  1.3154  2.1175
20984SOL     OW64392   7.406   4.652  10.337 -0.2551 -0.5759  0.6113
20984SOL    HW164393   7.458   4.602  10.273  1.1671  1.8682 -0.2602
20984SOL    HW264394   7.325   4.674  10.290  0.5620  0.7632 -0.2390
20985SOL     OW64395   3.870   7.454   2.012 -0.2696 -0.4815 -0.5962
20985SOL    HW164396   3.951   7.505   2.017 -0.6933  0.2706 -1.1602
20985SOL    HW264397   3.812   7.495   2.076  0.4290 -2.2687  1.2976
20986SOL     OW64398   4.232   2.279   8.319  0.5042 -0.4263 -0.0395
20986SOL    HW164399   4.286   2.356   8.334  0.3869 -0.3008 -0.2423
20986SOL    HW264400   4.186   2.298   8.237 -0.1728 -0.3440  0.3503
20987SOL     OW64401   5.818   3.616   0.520  0.1561 -0.1629 -0.7164
20987SOL    HW164402   5.789   3.526   0.531  0.4039 -0.2584 -0.8345
20987SOL    HW264403   5.817   3.653   0.609  0.9615 -0.5612 -0.5363
20988SOL     OW64404   6.355   1.438  10.326 -0.1068  0.3585  0.1816
20988SOL    HW164405   6.445   1.420  10.301 -0.6997 -0.0518 -1.8562
20988SOL    HW264406   6.316   1.480  10.249 -1.8770 -0.2490  0.6820
20989SOL     OW64407   4.089   7.701   3.353 -0.6942 -0.3704  0.3335
20989SOL    HW164408   4.146   7.777   3.344 -0.5255 -0.3696  1.2961
20989SOL    HW264409   4.062   7.680   3.263  1.9250 -1.2226 -0.3408
20990SOL     OW64410   2.062   4.472   6.668 -0.2261  0.4480 -0.1553
20990SOL    HW164411   2.142   4.524   6.681 -0.0051 -0.0704  0.5792
20990SOL    HW264412   2.054   4.465   6.573  1.7912 -1.2744 -0.2789
20991SOL     OW64413   0.940   1.345  11.165 -0.1513  0.0026  0.0287
20991SOL    HW164414   0.901   1.431  11.150  0.4017  0.0714 -1.1761
20991SOL    HW264415   0.984   1.324  11.082 -1.3196 -1.9915 -0.1507
20992SOL     OW64416   3.513   5.836   7.554  0.2558 -0.3258  0.1931
20992SOL    HW164417   3.492   5.762   7.611 -2.3801  0.5721  0.5225
20992SOL    HW264418   3.547   5.903   7.613 -1.8832  0.3797  0.7092
20993SOL     OW64419   7.238   6.962   2.684 -0.0733 -0.0992  0.3410
20993SOL    HW164420   7.191   6.886   2.650  0.8851 -0.1759 -0.9177
20993SOL    HW264421   7.258   7.015   2.606  2.4712 -0.4072  0.6737
20994SOL     OW64422   2.776   1.394   1.815  0.0623  0.7408 -0.6881
20994SOL    HW164423   2.715   1.320   1.814  0.5352  0.3561 -1.2986
20994SOL    HW264424   2.791   1.412   1.908 -1.7047  1.4451 -0.4852
20995SOL     OW64425   6.594   1.158   5.553  0.0960  0.4353 -0.1112
20995SOL    HW164426   6.517   1.144   5.496  0.5977  0.0927 -0.7216
20995SOL    HW264427   6.575   1.106   5.631 -0.4548  0.6431 -0.0981
20996SOL     OW64428   3.513   4.556   6.984 -0.6068 -0.2181 -0.1230
20996SOL    HW164429   3.567   4.564   6.905  0.0786 -1.4179  0.2008
20996SOL    HW264430   3.444   4.621   6.972  0.7476  1.1961 -0.6662
20997SOL     OW64431   6.570   7.247   2.682  0.0171  0.7998 -0.2505
20997SOL    HW164432   6.490   7.238   2.734  0.9094 -0.3602  0.9925
20997SOL    HW264433   6.619   7.317   2.725  1.0259 -0.5607  0.8927
20998SOL     OW64434   4.978   1.343   0.135  0.3486  0.5039  0.1044
20998SOL    HW164435   4.983   1.293   0.053  0.3684  0.7602 -0.0528
20998SOL    HW264436   5.067   1.375   0.149  0.5422 -0.2470  0.6818
20999SOL     OW64437   4.225   2.781   3.020  0.1104  0.2584 -0.1047
20999SOL    HW164438   4.133   2.758   3.007  0.4684 -0.0458 -2.5921
20999SOL    HW264439   4.258   2.713   3.079 -1.3235  0.5921  1.1395
21000SOL     OW64440   7.479   5.003  12.062 -0.4238  0.3751 -0.4924
21000SOL    HW164441   7.510   4.923  12.104  1.2997  1.0856 -0.3283
21000SOL    HW264442   7.464   5.064  12.135 -0.8013  0.5102 -0.6810
21001SOL     OW64443   0.330   7.229   2.470  0.2088 -0.7728 -0.6323
21001SOL    HW164444   0.342   7.287   2.396  0.3016 -0.5042 -0.4092
21001SOL    HW264445   0.419   7.205   2.497  0.1622 -1.4758 -1.0763
21002SOL     OW64446   4.650   6.870  11.788 -0.0463  1.1809  0.0950
21002SOL    HW164447   4.671   6.958  11.756  0.6741  1.8708  2.2613
21002SOL    HW264448   4.593   6.885  11.864 -0.2437 -0.2472  0.2592
21003SOL     OW64449   3.708   4.150  10.954  0.9144 -0.2274 -0.0102
21003SOL    HW164450   3.677   4.074  10.906  0.6254  0.3847 -0.8161
21003SOL    HW264451   3.628   4.199  10.975  1.2324  0.9381 -1.3735
21004SOL     OW64452   5.891   1.276   6.690  0.2586 -0.2058 -0.6991
21004SOL    HW164453   5.856   1.195   6.727  0.5400 -0.2708 -0.5721
21004SOL    HW264454   5.978   1.252   6.659  0.3939  0.0809 -0.5413
21005SOL     OW64455   1.910   5.216   1.682  0.2233 -0.0089  0.2097
21005SOL    HW164456   1.953   5.259   1.755  1.1998 -0.8671  0.1460
21005SOL    HW264457   1.978   5.207   1.615 -0.5007  0.2218 -0.5823
21006SOL     OW64458   7.275   0.609   9.610 -0.0478 -0.8813 -0.3472
21006SOL    HW164459   7.298   0.575   9.696 -0.5622 -0.3802 -0.0016
21006SOL    HW264460   7.232   0.536   9.565 -0.0093 -1.0664 -0.0821
21007SOL     OW64461   2.812   1.938  11.493  0.1834  0.4522  0.5632
21007SOL    HW164462   2.876   1.943  11.422  0.8692  0.9513  1.1954
21007SOL    HW264463   2.852   1.878  11.556 -0.8731 -0.7780  0.0967
21008SOL     OW64464   6.784   1.719   8.102 -0.1424 -0.4361 -0.8616
21008SOL    HW164465   6.870   1.732   8.143 -1.0862  0.2444  0.9959
21008SOL    HW264466   6.781   1.784   8.031  0.0231  1.1230  0.5035
21009SOL     OW64467   4.627   0.950   9.919 -0.6155 -0.4661 -0.0825
21009SOL    HW164468   4.652   0.863   9.887  0.9132  0.0901 -0.5037
21009SOL    HW264469   4.696   0.973   9.981 -0.9558  0.4788 -0.0402
21010SOL     OW64470   6.630   5.678   7.422 -0.3960  0.0146 -0.8379
21010SOL    HW164471   6.545   5.708   7.454 -0.3110  0.2885 -0.8641
21010SOL    HW264472   6.674   5.758   7.392  0.5073  0.1218  0.6506
21011SOL     OW64473   1.975   2.662  10.920  0.5059 -0.1683 -0.2900
21011SOL    HW164474   1.969   2.730  10.853  1.3104 -0.2116 -0.4139
21011SOL    HW264475   1.968   2.580  10.872  0.6837 -0.1939 -0.2706
21012SOL     OW64476   2.349   4.682  11.311  0.3373 -0.0458 -0.6357
21012SOL    HW164477   2.384   4.675  11.223  0.0060 -0.5644 -0.7302
21012SOL    HW264478   2.375   4.770  11.341  1.0882 -0.1524 -0.9643
21013SOL     OW64479   1.446   2.309   5.332 -0.1209 -0.5250 -0.5926
21013SOL    HW164480   1.467   2.257   5.409  0.5649 -0.0033 -0.4204
21013SOL    HW264481   1.487   2.394   5.348  1.6287 -0.9510 -2.3008
21014SOL     OW64482   1.038   7.708   8.038 -0.4247 -0.0515  0.0308
21014SOL    HW164483   0.989   7.636   8.077  0.4298  0.9112  3.1948
21014SOL    HW264484   1.130   7.684   8.051 -0.0753  0.3798 -1.4276
21015SOL     OW64485   1.435   3.633   7.538  0.4489 -0.0369 -0.0971
21015SOL    HW164486   1.428   3.728   7.546 -0.5413 -0.0580 -0.5959
21015SOL    HW264487   1.442   3.617   7.444 -2.1748 -0.5799 -0.2879
21016SOL     OW64488   6.528   0.533   2.619 -0.3388 -0.1743  0.3074
21016SOL    HW164489   6.592   0.566   2.682  0.3253  1.2288 -1.0292
21016SOL    HW264490   6.544   0.584   2.540 -1.1530 -1.8750 -1.0092
21017SOL     OW64491   2.501   2.440  10.096  0.0387  0.4011  0.1214
21017SOL    HW164492   2.445   2.474  10.167 -0.4556  0.2614 -0.1967
21017SOL    HW264493   2.455   2.463  10.016  0.5623  0.4899 -0.1581
21018SOL     OW64494   5.463   5.635   0.651 -0.1288 -0.2577  0.1984
21018SOL    HW164495   5.445   5.696   0.723  1.3805  0.0448  0.3633
21018SOL    HW264496   5.548   5.664   0.616 -0.8302 -0.3979 -1.7227
21019SOL     OW64497   4.042   2.312   9.561 -0.4239  0.0959  0.2263
21019SOL    HW164498   4.092   2.394   9.567  0.9029 -0.6278 -0.5623
21019SOL    HW264499   4.073   2.260   9.635 -2.8018  1.0377  2.0353
21020SOL     OW64500   5.210   3.561   5.018 -0.2668 -0.1066  0.1672
21020SOL    HW164501   5.220   3.576   4.924 -0.6797  2.0504  0.4045
21020SOL    HW264502   5.244   3.473   5.032 -0.5207 -0.6326 -2.0434
21021SOL     OW64503   7.361   7.445  11.462  0.1041 -0.1116  0.6069
21021SOL    HW164504   7.398   7.436  11.549 -1.5131 -0.5662  1.3000
21021SOL    HW264505   7.377   7.360  11.420 -0.1588 -0.3121  0.9077
21022SOL     OW64506   7.231   0.400   8.310  0.1956 -0.0576 -0.1274
21022SOL    HW164507   7.215   0.314   8.349 -0.8018 -0.7248 -1.8634
21022SOL    HW264508   7.317   0.392   8.269  1.0150  0.4772  1.4230
21023SOL     OW64509   7.318   1.492   6.528  0.3811  0.0718 -0.2159
21023SOL    HW164510   7.404   1.534   6.521  0.6299  0.0235  1.9419
21023SOL    HW264511   7.337   1.398   6.531  0.0756 -0.0544 -1.7479
21024SOL     OW64512   5.063   3.312   7.844 -0.0484  0.3241 -0.0922
21024SOL    HW164513   5.022   3.225   7.837 -0.2582  0.4395 -0.3095
21024SOL    HW264514   5.118   3.306   7.922 -0.2438  0.0669  0.0280
21025SOL     OW64515   7.653   7.601  10.669 -0.1926  0.2609 -0.0303
21025SOL    HW164516   7.568   7.632  10.698  0.0874 -0.2564  1.4033
21025SOL    HW264517   7.716   7.641  10.729  0.5941  0.5915 -1.0287
21026SOL     OW64518   1.491   7.359   3.641 -0.2620  0.0256  0.3434
21026SOL    HW164519   1.553   7.325   3.576  0.1426  1.5376 -0.0950
21026SOL    HW264520   1.542   7.365   3.722  0.1907  1.2085 -0.0020
21027SOL     OW64521   1.034   6.382   4.804  0.2165  0.1558  0.3742
21027SOL    HW164522   1.032   6.324   4.880 -2.0062 -0.6150 -0.2024
21027SOL    HW264523   1.059   6.325   4.731 -0.3993  0.2583  0.0755
21028SOL     OW64524   5.051   4.905   7.574  0.3241 -0.2911  0.1196
21028SOL    HW164525   5.043   4.862   7.489 -1.4424  1.0540 -0.4548
21028SOL    HW264526   4.971   4.879   7.621  0.6937 -0.0269  0.9152
21029SOL     OW64527   5.277   2.606   7.455  0.2138 -0.1775  0.4236
21029SOL    HW164528   5.270   2.611   7.550  0.1048 -0.0437  0.4095
21029SOL    HW264529   5.186   2.604   7.425  0.2439  0.1445  0.3048
21030SOL     OW64530   3.389   2.804   8.867 -0.4819 -0.0152 -0.1206
21030SOL    HW164531   3.423   2.819   8.778  2.3853  0.6501  0.9853
21030SOL    HW264532   3.389   2.709   8.877  0.4091 -0.0630 -0.4415
21031SOL     OW64533   4.522   0.212   2.735  0.4471 -0.1215  0.4792
21031SOL    HW164534   4.590   0.275   2.760  0.1161  0.0778  0.8799
21031SOL    HW264535   4.526   0.210   2.640 -0.7083  1.8190  0.3369
21032SOL     OW64536   4.994   4.363   9.991 -0.1868  0.6200 -0.3531
21032SOL    HW164537   4.946   4.327  10.066 -1.4071  2.3585 -0.2147
21032SOL    HW264538   4.937   4.347   9.916  0.8233 -0.7040 -0.8799
21033SOL     OW64539   5.209   1.179  11.440 -0.6297 -0.2360  0.7720
21033SOL    HW164540   5.162   1.143  11.364  0.1890  0.8275 -0.2664
21033SOL    HW264541   5.218   1.104  11.499 -0.0435 -1.4735 -0.7913
21034SOL     OW64542   6.022   3.307   2.869  0.1821  0.1987  0.8818
21034SOL    HW164543   6.028   3.212   2.884  0.0188 -0.0606 -0.4851
21034SOL    HW264544   5.932   3.329   2.894  0.7676  0.3652  2.9480
21035SOL     OW64545   1.296   5.912   0.999 -0.0519 -0.1402 -0.1686
21035SOL    HW164546   1.277   5.840   1.058 -2.4866 -0.3246 -1.0905
21035SOL    HW264547   1.231   5.979   1.019 -0.6022  0.0122 -2.1924
21036SOL     OW64548   1.665   7.590   3.114  0.1039 -0.2981  0.6228
21036SOL    HW164549   1.682   7.592   3.208  1.2172  2.4578  0.4587
21036SOL    HW264550   1.730   7.650   3.077 -0.9818 -0.5001 -1.7893
21037SOL     OW64551   1.766   5.925   1.542  0.5608 -0.1471  0.1325
21037SOL    HW164552   1.833   5.972   1.591  0.6072  0.2302 -0.2900
21037SOL    HW264553   1.741   5.985   1.472  0.7106 -0.8031 -0.4870
21038SOL     OW64554   2.662   6.173   3.717 -0.3610  0.2144 -0.0154
21038SOL    HW164555   2.608   6.124   3.779  0.6850 -1.4327 -0.3379
21038SOL    HW264556   2.601   6.228   3.669 -1.6442 -0.9457  0.2309
21039SOL     OW64557   4.069   0.698   5.287  1.1262 -0.1672  0.3208
21039SOL    HW164558   4.049   0.641   5.213  1.2988  0.6833 -0.3911
21039SOL    HW264559   3.995   0.687   5.346  0.3471  0.1127 -0.5738
21040SOL     OW64560   6.651   3.491   6.004 -0.2150 -0.2677 -0.1395
21040SOL    HW164561   6.690   3.447   6.079 -1.7803 -0.9075  0.3459
21040SOL    HW264562   6.592   3.425   5.966 -2.6188  1.3267  0.5880
21041SOL     OW64563   2.458   4.269   3.794  0.1980 -0.0727 -0.5509
21041SOL    HW164564   2.518   4.235   3.860  0.5910 -0.6965 -1.2138
21041SOL    HW264565   2.497   4.241   3.711  0.3679  1.7107 -1.1124
21042SOL     OW64566   2.901   5.184   5.712  0.7804 -0.1387 -0.1456
21042SOL    HW164567   2.813   5.185   5.749 -0.3399  1.9797 -2.5336
21042SOL    HW264568   2.949   5.248   5.764  0.6625 -0.6367  0.5928
21043SOL     OW64569   3.581   6.733  11.521  0.0801 -0.3397 -0.0587
21043SOL    HW164570   3.552   6.683  11.598  1.2395 -0.8441  0.0662
21043SOL    HW264571   3.672   6.754  11.539 -0.0838  0.9128 -0.6063
21044SOL     OW64572   7.746   5.187   3.461  0.8440 -0.8199 -0.7478
21044SOL    HW164573   7.774   5.259   3.518  2.2244 -1.0186 -1.1483
21044SOL    HW264574   7.768   5.108   3.509  0.8875 -0.9792 -1.0274
21045SOL     OW64575   1.900   5.548   9.222  0.3963 -0.1366  0.0106
21045SOL    HW164576   1.967   5.481   9.225  1.7422  1.1730  1.9628
21045SOL    HW264577   1.847   5.532   9.300  0.8910  1.1758  0.6417
21046SOL     OW64578   5.337   6.137  10.806 -1.6924 -0.1570  0.0294
21046SOL    HW164579   5.276   6.106  10.739  0.0992 -1.0824 -1.2569
21046SOL    HW264580   5.409   6.073  10.804 -1.0456  0.4265  2.0635
21047SOL     OW64581   5.432   6.547   1.103 -0.2127  0.1836 -0.0120
21047SOL    HW164582   5.357   6.570   1.048  0.3802  1.4848 -0.3006
21047SOL    HW264583   5.484   6.487   1.050 -1.6301 -1.7297  0.6412
21048SOL     OW64584   6.604   6.484  10.919  0.2987  0.7462  0.1116
21048SOL    HW164585   6.621   6.576  10.894  0.0382  1.0521  1.0356
21048SOL    HW264586   6.637   6.477  11.008  1.5295 -0.4299 -0.4056
21049SOL     OW64587   1.311   1.618   4.736 -0.7704 -0.1441  1.0967
21049SOL    HW164588   1.330   1.621   4.830 -0.3397  0.3479  0.9966
21049SOL    HW264589   1.270   1.702   4.717 -0.4026 -0.0406  0.7506
21050SOL     OW64590   6.603   4.639   5.274  0.5137  0.1144 -0.1623
21050SOL    HW164591   6.515   4.603   5.266  0.6607 -0.0125 -1.2549
21050SOL    HW264592   6.655   4.592   5.209  1.7719 -0.9225  1.4943
21051SOL     OW64593   6.338   3.341   1.095 -0.2238 -0.5165 -0.0316
21051SOL    HW164594   6.409   3.278   1.106  0.3733  0.1920  0.2020
21051SOL    HW264595   6.380   3.419   1.060 -0.6751  0.3476  1.3092
21052SOL     OW64596   5.238   3.822   6.049 -0.1126  0.4300 -0.0451
21052SOL    HW164597   5.174   3.886   6.081  0.4640  1.3947 -0.7406
21052SOL    HW264598   5.310   3.826   6.112  0.0663  0.7202 -0.2636
21053SOL     OW64599   1.764   3.502   7.858  0.5862  0.4939  0.2421
21053SOL    HW164600   1.768   3.527   7.951 -0.1985 -0.5126  0.5693
21053SOL    HW264601   1.691   3.440   7.854  0.9690  0.1106 -0.9565
21054SOL     OW64602   1.347   0.478   0.728 -0.2137  0.2009  0.8399
21054SOL    HW164603   1.330   0.465   0.821 -1.6591  1.3351  0.7663
21054SOL    HW264604   1.342   0.390   0.690  0.1737 -0.2413  1.7842
21055SOL     OW64605   0.060   2.721  10.241  0.1707  0.1109 -0.2231
21055SOL    HW164606   0.032   2.812  10.237 -1.9021 -0.4700 -0.3497
21055SOL    HW264607   0.122   2.718  10.313  1.3556  1.8537 -1.0957
21056SOL     OW64608   1.950   7.591   1.101  0.1084 -0.2175  0.0635
21056SOL    HW164609   1.987   7.529   1.164  0.2136  0.9479  1.1914
21056SOL    HW264610   1.975   7.677   1.134  0.4734  0.4371 -1.7855
21057SOL     OW64611   5.945   6.265   1.275  0.0608 -0.6248 -0.0406
21057SOL    HW164612   5.973   6.350   1.308 -0.9484 -0.8819  1.5660
21057SOL    HW264613   5.986   6.258   1.189  2.2632  0.3625  0.8660
21058SOL     OW64614   4.901   4.827   7.340 -0.3143 -0.3835  0.0964
21058SOL    HW164615   4.808   4.809   7.353 -0.6976  1.3067 -0.0707
21058SOL    HW264616   4.934   4.751   7.291 -1.5317 -1.1344  0.4233
21059SOL     OW64617   3.837   4.226   6.251  0.3915 -0.1483  0.1089
21059SOL    HW164618   3.929   4.243   6.231  1.0448 -1.4071  1.7132
21059SOL    HW264619   3.796   4.312   6.252  1.0650  0.2835 -2.5947
21060SOL     OW64620   0.922   1.486   4.609 -0.1901 -0.4341 -0.0007
21060SOL    HW164621   0.862   1.560   4.620  2.6739  1.9808  0.5565
21060SOL    HW264622   0.945   1.461   4.698 -1.0963 -2.0502 -0.1874
21061SOL     OW64623   4.090   5.479  10.251 -0.4407  0.1904 -0.2259
21061SOL    HW164624   4.070   5.491  10.344 -1.9868 -0.3968 -0.4405
21061SOL    HW264625   4.018   5.424  10.219  1.5002 -1.9900 -1.1755
21062SOL     OW64626   4.147   4.583   7.444 -0.7048 -0.1971 -0.2950
21062SOL    HW164627   4.210   4.536   7.498 -0.1508  0.0258 -0.7416
21062SOL    HW264628   4.155   4.543   7.357 -0.2899  0.6497 -0.6570
21063SOL     OW64629   3.084   1.628   1.747 -0.0707 -0.1278  0.2250
21063SOL    HW164630   3.088   1.716   1.709  0.1320  0.7873  2.2600
21063SOL    HW264631   3.169   1.616   1.789  0.7618 -2.2434 -1.8913
21064SOL     OW64632   2.486   3.164   1.791 -0.1113  0.8199 -0.1538
21064SOL    HW164633   2.556   3.209   1.838  1.5347 -0.3333 -1.3635
21064SOL    HW264634   2.436   3.119   1.859  1.2557  0.4551  0.6483
21065SOL     OW64635   4.822   4.661   5.295  0.2333  0.6510 -0.2342
21065SOL    HW164636   4.783   4.648   5.382  0.0835  0.6186 -0.3067
21065SOL    HW264637   4.771   4.605   5.237  2.5177 -2.1642  0.2353
21066SOL     OW64638   3.130   1.134   8.487  0.0800  0.5192 -0.2889
21066SOL    HW164639   3.219   1.161   8.466  0.6622 -1.7090 -0.8364
21066SOL    HW264640   3.140   1.068   8.555 -1.2833  1.2834  0.7194
21067SOL     OW64641   7.063   2.419   7.422  0.0818 -0.2670 -0.2936
21067SOL    HW164642   7.107   2.356   7.479  0.8170 -0.7673 -1.3867
21067SOL    HW264643   7.096   2.400   7.334 -1.4691  0.1035 -0.9891
21068SOL     OW64644   1.893   7.302   4.986 -0.1156 -0.1129 -0.1317
21068SOL    HW164645   1.859   7.382   5.027 -0.1836  0.1045 -0.6148
21068SOL    HW264646   1.988   7.308   4.997  0.0542  1.0339 -1.9651
21069SOL     OW64647   3.999   6.672  12.055  0.3403  0.3629  0.3194
21069SOL    HW164648   4.082   6.675  12.008  1.0942  1.7985  1.6525
21069SOL    HW264649   3.945   6.613  12.003  2.7675 -2.1308  0.3885
21070SOL     OW64650   4.225   5.602  10.055  0.2402  0.2850  0.1053
21070SOL    HW164651   4.211   5.539   9.984  2.6810 -0.1827 -0.0499
21070SOL    HW264652   4.194   5.557  10.134 -0.9211  0.1540 -0.3995
21071SOL     OW64653   4.248   2.062   1.574  0.3686  0.4405 -0.1061
21071SOL    HW164654   4.343   2.064   1.574  0.3745  0.2707 -0.6390
21071SOL    HW264655   4.222   2.132   1.635  0.8280  0.7247 -0.2352
21072SOL     OW64656   3.761   1.295   4.288 -0.2048 -0.0255 -0.1796
21072SOL    HW164657   3.695   1.365   4.280 -1.8659 -1.5042 -0.0816
21072SOL    HW264658   3.807   1.296   4.204 -1.8736 -0.3585 -1.1606
21073SOL     OW64659   5.716   3.635   3.779  0.8843  0.2754  0.0157
21073SOL    HW164660   5.754   3.715   3.816  0.5970  1.3760 -1.9527
21073SOL    HW264661   5.735   3.641   3.685 -1.5400 -0.6122 -0.5882
21074SOL     OW64662   6.841   2.974  10.985 -0.2642 -0.5669 -0.2341
21074SOL    HW164663   6.791   2.953  10.906  0.5691 -1.4866 -0.5493
21074SOL    HW264664   6.777   3.012  11.045 -1.0439 -0.4494 -1.1161
21075SOL     OW64665   1.491   0.170   6.588 -0.5727  0.1002  0.0014
21075SOL    HW164666   1.571   0.117   6.598  0.6745  2.0819  1.2389
21075SOL    HW264667   1.449   0.166   6.674 -1.2738 -0.0755 -0.3441
21076SOL     OW64668   4.633   7.353   9.246  0.2924 -0.2767 -0.3318
21076SOL    HW164669   4.592   7.304   9.318  0.0073 -1.5520 -1.3332
21076SOL    HW264670   4.568   7.419   9.222  1.6281  2.4228  2.6682
21077SOL     OW64671   4.842   6.284   5.079 -0.3662  0.7401 -0.2058
21077SOL    HW164672   4.780   6.218   5.108 -1.2742  1.5505 -0.2552
21077SOL    HW264673   4.926   6.257   5.117 -0.1232 -1.8474 -2.2879
21078SOL     OW64674   3.770   7.616   8.762 -0.3497  0.2396  0.5112
21078SOL    HW164675   3.734   7.697   8.725 -2.0895 -0.8030 -0.1998
21078SOL    HW264676   3.850   7.600   8.712 -0.2234  1.2667  0.3559
21079SOL     OW64677   2.375   2.958  10.830 -0.2709  0.1276  0.2546
21079SOL    HW164678   2.313   2.906  10.882 -0.9395  0.7457  0.0994
21079SOL    HW264679   2.443   2.983  10.893 -0.5607  0.0468  0.6063
21080SOL     OW64680   1.517   6.572   8.395 -0.3103 -0.2471  0.0626
21080SOL    HW164681   1.527   6.573   8.490  1.8438  0.8236 -0.1122
21080SOL    HW264682   1.606   6.583   8.362 -1.2197  1.4443 -2.0552
21081SOL     OW64683   4.388   6.013  12.239  0.1907 -0.6528 -0.2495
21081SOL    HW164684   4.436   5.975  12.313 -1.5290 -1.4507  0.5280
21081SOL    HW264685   4.375   5.940  12.179  1.7901  0.0522 -1.4882
21082SOL     OW64686   2.717   0.002   1.898  0.2809 -0.4890  0.3156
21082SOL    HW164687   2.665  -0.006   1.818  1.6742  0.5601 -0.7458
21082SOL    HW264688   2.794  -0.053   1.882  1.8041  1.6455 -0.1867
21083SOL     OW64689   0.831   7.421   8.705 -0.2693 -0.0518  0.7235
21083SOL    HW164690   0.749   7.465   8.726 -0.4189  0.2823 -0.4891
21083SOL    HW264691   0.890   7.491   8.676 -0.1187 -0.4793 -0.0519
21084SOL     OW64692   1.681   2.190  10.574 -0.3346  0.2484 -0.4919
21084SOL    HW164693   1.670   2.156  10.485 -0.8487  0.3489 -0.4693
21084SOL    HW264694   1.605   2.159  10.622 -0.1959  0.4200 -0.1549
21085SOL     OW64695   3.350   7.095   2.671 -0.0742  0.5608  0.0564
21085SOL    HW164696   3.430   7.131   2.632  0.3005  0.4788  0.7244
21085SOL    HW264697   3.298   7.172   2.694  0.6806  0.7110  1.3904
21086SOL     OW64698   6.972   1.074   8.228 -0.3180 -0.0771 -0.8344
21086SOL    HW164699   6.938   1.054   8.141  0.7304 -0.4759 -1.1794
21086SOL    HW264700   6.991   0.988   8.266  0.9547  0.1342 -0.9456
21087SOL     OW64701   2.142   0.583   8.949 -0.0743 -0.1390  0.4723
21087SOL    HW164702   2.238   0.578   8.942  0.0843  1.6658  0.8095
21087SOL    HW264703   2.120   0.668   8.911 -1.7550 -1.2166 -1.1466
21088SOL     OW64704   6.107   2.170  11.722  0.2707  0.3083 -0.2997
21088SOL    HW164705   6.031   2.212  11.761  1.5667  1.6913  0.8942
21088SOL    HW264706   6.110   2.203  11.632  0.7395  2.1491  0.3370
21089SOL     OW64707   7.812   3.367   7.616 -0.0280 -0.0388  0.0013
21089SOL    HW164708   7.842   3.311   7.688  1.6062  0.8143  0.0135
21089SOL    HW264709   7.855   3.332   7.539 -0.8388 -0.2024 -0.3917
21090SOL     OW64710   5.797   6.057  10.131 -0.0510 -0.2575 -0.3126
21090SOL    HW164711   5.722   6.011  10.093  0.6429 -3.4883  1.8294
21090SOL    HW264712   5.873   6.016  10.091  0.6309  1.1313 -0.4853
21091SOL     OW64713   4.072   2.698   8.963  0.0665 -0.2461  0.7730
21091SOL    HW164714   4.020   2.618   8.950 -0.9120  0.6025 -0.7091
21091SOL    HW264715   4.110   2.686   9.050 -3.1420 -0.6358  2.2710
21092SOL     OW64716   7.561   3.127  12.337 -0.8533 -0.3306  0.3557
21092SOL    HW164717   7.613   3.116  12.417 -0.4709  2.1956  0.5411
21092SOL    HW264718   7.625   3.157  12.272 -1.6853  0.7672  0.0124
21093SOL     OW64719   4.000   5.323   0.179  0.2174 -0.1708 -0.6034
21093SOL    HW164720   4.020   5.314   0.273 -1.1717 -0.4316 -0.3185
21093SOL    HW264721   4.072   5.377   0.145 -0.8379  2.6467  1.2285
21094SOL     OW64722   7.773   7.450   3.695  0.0554  0.7483  0.0537
21094SOL    HW164723   7.788   7.504   3.774 -2.3361  1.0900  0.3522
21094SOL    HW264724   7.761   7.514   3.625 -2.0447  0.6824  0.2702
21095SOL     OW64725   1.847   6.218   6.476 -0.3737 -0.0969  0.5249
21095SOL    HW164726   1.781   6.177   6.531 -1.7329  2.2262  0.7913
21095SOL    HW264727   1.805   6.299   6.446  1.4240  0.1727 -1.4753
21096SOL     OW64728   4.599   7.298   9.820  0.8789  0.1036 -0.4504
21096SOL    HW164729   4.619   7.354   9.895 -0.2830 -0.1907  0.1085
21096SOL    HW264730   4.520   7.337   9.782  0.4715 -0.7361 -0.4828
21097SOL     OW64731   7.816   1.186   3.138 -0.2236  0.5634  0.1860
21097SOL    HW164732   7.821   1.198   3.233 -1.8778  1.6206  0.1822
21097SOL    HW264733   7.731   1.223   3.114 -1.4428 -2.8270 -1.2402
21098SOL     OW64734   2.661   6.622   8.209  0.2047 -0.4037 -0.4885
21098SOL    HW164735   2.606   6.630   8.287  0.0524 -0.8546 -0.5461
21098SOL    HW264736   2.599   6.608   8.137  0.2043  1.7663 -0.9889
21099SOL     OW64737   6.107   4.290   8.059  0.9166 -0.6963 -0.2980
21099SOL    HW164738   6.185   4.344   8.070  0.5342 -0.3042  0.6845
21099SOL    HW264739   6.092   4.252   8.146 -1.0032  0.6880  0.0442
21100SOL     OW64740   2.378   0.874   8.378  0.0708 -0.2889  0.3236
21100SOL    HW164741   2.367   0.968   8.368  1.0823 -0.0230  1.3997
21100SOL    HW264742   2.442   0.850   8.311 -0.9006 -0.3950 -0.5817
21101SOL     OW64743   2.937   3.179  11.557  0.1872 -0.0461  0.1188
21101SOL    HW164744   2.896   3.103  11.517 -1.6639  1.7691 -1.6542
21101SOL    HW264745   2.954   3.152  11.647  0.7244 -2.9173 -0.7339
21102SOL     OW64746   5.102   5.296   7.190  0.3444 -0.5166  0.5194
21102SOL    HW164747   5.166   5.359   7.158 -0.8174  0.3639 -0.1495
21102SOL    HW264748   5.125   5.283   7.282  0.7599  0.6952  0.6026
21103SOL     OW64749   6.213   3.705   0.442 -0.1851  0.5720  0.3994
21103SOL    HW164750   6.215   3.800   0.430  0.3262  0.6565  1.1325
21103SOL    HW264751   6.295   3.674   0.403 -0.3331  0.4316  0.1966
21104SOL     OW64752   5.725   7.892   3.002  0.3981 -0.5249  0.2219
21104SOL    HW164753   5.672   7.820   3.038 -0.1515 -0.4252 -0.3680
21104SOL    HW264754   5.815   7.868   3.024  0.1788 -1.1277  0.4976
21105SOL     OW64755   7.167   4.719   1.459  0.1745  0.0140  0.0984
21105SOL    HW164756   7.149   4.748   1.548  0.5004  0.4238  0.0313
21105SOL    HW264757   7.259   4.740   1.445  0.2997 -0.6405 -0.1095
21106SOL     OW64758   5.500   3.673   7.414 -0.3299 -0.3662  0.7556
21106SOL    HW164759   5.451   3.673   7.497 -1.9299 -0.2166 -0.1466
21106SOL    HW264760   5.534   3.762   7.407  0.6901 -0.6549  1.7168
21107SOL     OW64761   4.241   5.010   6.637  0.7485 -0.5701 -0.1706
21107SOL    HW164762   4.287   4.988   6.556  2.2185 -0.6012  0.6279
21107SOL    HW264763   4.253   5.104   6.646  2.1827 -0.8131  0.8885
21108SOL     OW64764   2.864   1.872   4.246  0.0794 -0.1251  0.4058
21108SOL    HW164765   2.810   1.819   4.305 -1.3325  1.5745  0.7461
21108SOL    HW264766   2.908   1.809   4.190  0.1380 -1.7336  2.1523
21109SOL     OW64767   1.246   1.617   8.332  0.4253  0.2186 -0.3662
21109SOL    HW164768   1.264   1.703   8.294 -0.3147  0.7167  0.3611
21109SOL    HW264769   1.224   1.562   8.257  1.5165  0.4871 -0.9031
21110SOL     OW64770   2.836   1.568   2.511  0.4895  0.0668 -0.3221
21110SOL    HW164771   2.892   1.581   2.587  2.8811 -0.6744 -1.8702
21110SOL    HW264772   2.820   1.657   2.478  0.3680  0.3091  0.3650
21111SOL     OW64773   5.942   3.861   2.314 -0.1304 -0.0787  0.0966
21111SOL    HW164774   5.885   3.861   2.237  1.2932  0.5774 -0.9823
21111SOL    HW264775   5.939   3.770   2.346 -0.5795 -0.3989 -0.8278
21112SOL     OW64776   6.957   1.343   3.711 -0.3094 -0.4372  0.5659
21112SOL    HW164777   6.976   1.266   3.764  0.5556  0.7170  2.0303
21112SOL    HW264778   6.885   1.386   3.757 -0.1295  0.1349  0.3279
21113SOL     OW64779   4.741   0.304   8.944 -0.8257 -0.5026 -0.0723
21113SOL    HW164780   4.798   0.284   9.019 -0.7601 -1.4915 -0.3701
21113SOL    HW264781   4.666   0.350   8.983  0.6137  1.7661  0.2031
21114SOL     OW64782   6.587   3.923   8.028  0.3527 -0.4716  0.1730
21114SOL    HW164783   6.519   3.905   7.964  0.5942  0.8005 -0.4861
21114SOL    HW264784   6.561   4.005   8.069  1.9171  0.5532 -0.7632
21115SOL     OW64785   6.439   7.019  10.895  0.1435  0.8048 -0.1127
21115SOL    HW164786   6.438   6.994  10.803 -0.7124 -1.3598  0.4115
21115SOL    HW264787   6.486   7.102  10.897  0.1272  0.9378 -2.4909
21116SOL     OW64788   3.513   6.135  12.227 -0.1700  0.2020 -0.2201
21116SOL    HW164789   3.457   6.059  12.209  1.9206 -0.9078 -2.6305
21116SOL    HW264790   3.529   6.131  12.321 -0.0603 -2.4236 -0.2786
21117SOL     OW64791   5.510   7.419   7.560  0.1551 -0.0089  0.5541
21117SOL    HW164792   5.448   7.350   7.537  1.5544 -1.6147  1.4104
21117SOL    HW264793   5.454   7.495   7.580 -1.3907 -0.6696 -0.9991
21118SOL     OW64794   0.857   4.334   5.770  0.3149 -0.0715  0.2514
21118SOL    HW164795   0.868   4.426   5.794  0.3698  0.0968 -0.3894
21118SOL    HW264796   0.836   4.337   5.676  0.3694 -0.7151  0.2175
21119SOL     OW64797   5.296   6.177   7.533 -0.2333  0.0883  0.5885
21119SOL    HW164798   5.382   6.174   7.491  0.2239  0.1852  1.5062
21119SOL    HW264799   5.266   6.267   7.521  0.0523  0.2092  0.7958
21120SOL     OW64800   0.019   3.576   1.542  0.3559 -0.0883  0.1161
21120SOL    HW164801  -0.013   3.663   1.517 -0.0616 -0.4218 -0.5450
21120SOL    HW264802  -0.010   3.565   1.633  0.4564  0.4847  0.2218
21121SOL     OW64803   3.953   0.077   5.629 -0.1315 -0.1000  0.4771
21121SOL    HW164804   4.010   0.147   5.662 -1.3412  1.1195  0.0583
21121SOL    HW264805   3.868   0.095   5.669 -1.0221  0.0016 -1.3758
21122SOL     OW64806   2.840   4.774   1.802  0.4974  0.2740 -0.0626
21122SOL    HW164807   2.924   4.818   1.811  1.2100 -1.1287  0.3386
21122SOL    HW264808   2.793   4.795   1.883  1.5677 -1.1835  0.9750
21123SOL     OW64809   2.215   4.263   3.210  0.0202  0.2165 -0.2068
21123SOL    HW164810   2.206   4.339   3.267  0.2375 -0.1292  0.2929
21123SOL    HW264811   2.283   4.210   3.251  2.2233  1.3037 -2.2576
21124SOL     OW64812   6.169   5.660   3.011  0.0373  0.4645 -0.0569
21124SOL    HW164813   6.116   5.580   2.999  0.4275  0.3852 -1.2820
21124SOL    HW264814   6.250   5.628   3.051  0.4297  0.1485 -1.0704
21125SOL     OW64815   0.021   7.643   0.376  0.0025  0.2747 -0.2326
21125SOL    HW164816  -0.022   7.696   0.309 -0.4188  1.4169  0.9019
21125SOL    HW264817  -0.049   7.588   0.411  0.3488 -0.7508 -1.1145
21126SOL     OW64818   6.237   0.252  11.216 -0.3969 -0.3461 -0.4247
21126SOL    HW164819   6.168   0.294  11.268 -0.4706 -0.6769 -0.2547
21126SOL    HW264820   6.270   0.182  11.272 -1.2005 -1.3964 -1.2334
21127SOL     OW64821   0.826   5.419   1.580 -0.6831  0.3867  0.1447
21127SOL    HW164822   0.780   5.451   1.502 -0.8973  2.3466  1.0225
21127SOL    HW264823   0.756   5.394   1.640 -0.5712  0.8823  0.4878
21128SOL     OW64824   6.149   4.703   8.966 -0.7296  0.0342  0.6243
21128SOL    HW164825   6.172   4.687   9.058 -1.9047  2.5656  1.4513
21128SOL    HW264826   6.056   4.682   8.961 -0.3908 -1.3252 -0.3510
21129SOL     OW64827   0.342   7.663   5.165 -0.2382  0.1014  0.2125
21129SOL    HW164828   0.265   7.650   5.220 -0.2241  2.7036  0.9794
21129SOL    HW264829   0.416   7.663   5.226  0.3492 -1.5994 -0.4264
21130SOL     OW64830   7.592   6.741   9.929  0.1986 -0.0441  0.6686
21130SOL    HW164831   7.641   6.664   9.957  1.0398  0.5324  0.8216
21130SOL    HW264832   7.620   6.756   9.838  0.4719  0.4118  0.8234
21131SOL     OW64833   0.414   4.074  10.755  0.1495 -0.2811  0.1718
21131SOL    HW164834   0.444   4.163  10.740 -3.7746  1.0211 -1.3377
21131SOL    HW264835   0.393   4.041  10.668  1.1421 -2.5879  0.7376
21132SOL     OW64836   0.499   2.005   8.685  0.0302 -0.3546  0.4229
21132SOL    HW164837   0.447   1.931   8.717  1.3005 -1.4136  0.1314
21132SOL    HW264838   0.582   1.997   8.732  0.8997 -0.2804 -1.0572
21133SOL     OW64839   6.755   3.670   3.121 -0.2123 -0.2786 -0.3924
21133SOL    HW164840   6.801   3.589   3.145 -0.7339 -0.3782  0.2855
21133SOL    HW264841   6.801   3.701   3.043 -1.0758 -2.1673 -1.7220
21134SOL     OW64842   3.793   7.928  10.487  0.0411  0.4653 -0.3379
21134SOL    HW164843   3.819   8.005  10.537 -0.8709  1.0237 -0.6971
21134SOL    HW264844   3.873   7.875  10.482  0.9554  1.8132 -0.8663
21135SOL     OW64845   6.942   2.286  11.540  0.3011  0.2473  0.3033
21135SOL    HW164846   6.970   2.316  11.626 -0.6603 -0.6739  0.9456
21135SOL    HW264847   6.894   2.360  11.503  1.2234  0.8606  0.2877
21136SOL     OW64848   1.679   4.188  11.673 -0.0807 -0.1370 -0.3508
21136SOL    HW164849   1.671   4.283  11.683 -1.0675 -0.1522 -0.8997
21136SOL    HW264850   1.589   4.156  11.668  0.1820 -1.2876  1.3327
21137SOL     OW64851   2.197   5.002   2.832 -0.1827 -0.4378 -0.1684
21137SOL    HW164852   2.180   4.934   2.898 -0.4277 -0.8172 -0.6184
21137SOL    HW264853   2.128   5.067   2.846 -1.0469 -1.1787 -0.9283
21138SOL     OW64854   5.196   0.447   6.497  0.4183 -0.3535  0.1718
21138SOL    HW164855   5.231   0.472   6.583  0.9988  1.3463 -0.5250
21138SOL    HW264856   5.102   0.461   6.506  0.5577  0.5636  0.3100
21139SOL     OW64857   7.736   3.018   0.135 -0.3950 -0.5106 -0.7324
21139SOL    HW164858   7.798   3.041   0.065  1.5046 -1.9206  0.3753
21139SOL    HW264859   7.772   3.060   0.213 -1.9608  0.2548 -0.3959
21140SOL     OW64860   4.742   5.153  10.679  0.4218 -0.4388  0.6777
21140SOL    HW164861   4.834   5.174  10.665  1.1750 -4.1061 -0.9874
21140SOL    HW264862   4.695   5.232  10.651  2.9532  0.6390 -0.8962
21141SOL     OW64863   5.260   2.351   0.196 -0.2125 -0.3972 -0.2451
21141SOL    HW164864   5.206   2.398   0.260 -0.4282 -0.0407 -0.6875
21141SOL    HW264865   5.315   2.418   0.157 -0.4396 -0.5294 -0.7982
21142SOL     OW64866   1.704   4.589   9.736  0.1192 -0.1320 -0.4361
21142SOL    HW164867   1.633   4.579   9.799  0.9834  0.5056  0.6550
21142SOL    HW264868   1.672   4.544   9.657 -2.1603  1.4739 -0.5192
21143SOL     OW64869   3.436   2.333   8.359  0.1704  0.0584 -0.0996
21143SOL    HW164870   3.483   2.277   8.422  1.0905  1.3199  0.3812
21143SOL    HW264871   3.364   2.279   8.328 -0.1066 -0.7313  1.7865
21144SOL     OW64872   1.776   2.840   2.218 -0.1870 -0.0728 -0.0882
21144SOL    HW164873   1.733   2.925   2.213  1.1007  0.5866 -0.4113
21144SOL    HW264874   1.783   2.821   2.312  1.1551  1.0681  0.0723
21145SOL     OW64875   2.857   4.130   4.249  0.6502  0.6289 -0.6027
21145SOL    HW164876   2.778   4.076   4.248  1.0075  0.0920 -0.1401
21145SOL    HW264877   2.866   4.161   4.159  0.0192  0.5461 -0.7001
21146SOL     OW64878   3.052   3.182   7.896 -0.1573  0.2326  0.5993
21146SOL    HW164879   2.969   3.231   7.902 -1.3905 -1.5058 -1.1650
21146SOL    HW264880   3.091   3.192   7.983 -0.7872  3.4240  0.6637
21147SOL     OW64881   6.757   1.410   0.949 -0.0539  0.4224  0.3424
21147SOL    HW164882   6.834   1.364   0.915 -0.0403  0.3330  0.4933
21147SOL    HW264883   6.688   1.390   0.886 -0.4843 -1.1855  1.2687
21148SOL     OW64884   0.759   7.426   3.001 -0.3045  0.6717  0.7997
21148SOL    HW164885   0.844   7.448   2.961 -0.2097 -1.5377 -0.3754
21148SOL    HW264886   0.765   7.462   3.089  0.3327  3.8588 -0.4027
21149SOL     OW64887   3.517   5.128   5.256 -0.5105 -0.1053  0.6382
21149SOL    HW164888   3.485   5.119   5.166 -1.2226  1.3873  0.7124
21149SOL    HW264889   3.463   5.068   5.307 -0.9668 -0.0193  0.2610
21150SOL     OW64890   5.604   4.016   6.093 -0.6763  0.2425  0.4677
21150SOL    HW164891   5.533   3.968   6.137 -0.8026  0.1341  0.1445
21150SOL    HW264892   5.677   4.010   6.155 -1.0638  0.7067  0.9845
21151SOL     OW64893   2.921   7.675  11.284 -0.8645  0.6164 -0.0230
21151SOL    HW164894   2.913   7.669  11.379  0.8458 -0.7824  0.0952
21151SOL    HW264895   2.850   7.619  11.251 -0.0196 -0.8409  0.5293
21152SOL     OW64896   0.606   0.408   0.572 -0.3973  0.1332 -0.2547
21152SOL    HW164897   0.575   0.383   0.484  1.7664 -0.3604 -0.9266
21152SOL    HW264898   0.576   0.337   0.628 -2.6084  0.8959 -0.3530
21153SOL     OW64899   0.872   6.024   5.496  0.3952  0.3373  0.2117
21153SOL    HW164900   0.941   6.083   5.466 -0.6899  1.0769 -0.8939
21153SOL    HW264901   0.888   6.015   5.590  2.6530 -0.4154 -0.1868
21154SOL     OW64902   1.928   2.051   1.666  0.1224  0.1112  0.1101
21154SOL    HW164903   1.974   2.066   1.583 -0.9813  1.4894 -0.3130
21154SOL    HW264904   1.891   1.963   1.658  0.3833  0.0689 -0.6943
21155SOL     OW64905   2.538   2.443   1.169 -0.7493 -0.2089 -0.7847
21155SOL    HW164906   2.581   2.358   1.166  0.4844  0.3086  0.8042
21155SOL    HW264907   2.523   2.459   1.263 -1.0886  1.2503 -1.0604
21156SOL     OW64908   3.066   5.421   5.167 -0.0219  0.3093 -0.6920
21156SOL    HW164909   3.033   5.447   5.253  1.4950 -1.3685  0.4924
21156SOL    HW264910   3.009   5.349   5.140  0.3989 -0.1526 -0.3688
21157SOL     OW64911   2.748   4.337   1.730  0.8132 -0.0799 -0.0025
21157SOL    HW164912   2.683   4.321   1.662  1.9063 -0.7721 -0.9273
21157SOL    HW264913   2.759   4.252   1.773 -0.5982  0.5710  1.7455
21158SOL     OW64914   5.137   7.853   2.902 -0.1132 -0.2459 -0.3191
21158SOL    HW164915   5.118   7.825   2.812  1.4797 -0.0004 -0.7585
21158SOL    HW264916   5.062   7.821   2.953 -1.7213  0.7373 -1.9162
21159SOL     OW64917   0.746   4.691   3.851 -0.3144  0.1932  0.5027
21159SOL    HW164918   0.753   4.679   3.756  0.9865  4.0133 -0.0490
21159SOL    HW264919   0.658   4.726   3.864  0.1672  1.5126  0.3770
21160SOL     OW64920   7.772   4.375   3.702 -0.0614  0.2661 -0.2030
21160SOL    HW164921   7.761   4.326   3.784  2.3383  0.9666  0.6412
21160SOL    HW264922   7.841   4.438   3.722  1.2111 -0.1003 -3.0078
21161SOL     OW64923   0.008   3.415  10.741  0.6550  0.1986 -0.0570
21161SOL    HW164924   0.010   3.320  10.754 -2.8503  0.0485  0.2871
21161SOL    HW264925   0.039   3.428  10.652  0.1137 -1.4045 -0.5074
21162SOL     OW64926   2.894   5.654   4.536  0.1879  0.3051  0.0879
21162SOL    HW164927   2.910   5.610   4.619 -0.5722  0.9778  0.6071
21162SOL    HW264928   2.897   5.584   4.471  1.5317 -0.1242  0.5752
21163SOL     OW64929   2.180   1.431   1.556  0.1043  0.1441 -0.0093
21163SOL    HW164930   2.263   1.407   1.599  0.2896  0.9923  0.1157
21163SOL    HW264931   2.205   1.494   1.489 -0.3332 -0.2978 -0.5961
21164SOL     OW64932   7.814   5.293   6.458 -0.2627 -0.0003 -0.1741
21164SOL    HW164933   7.854   5.373   6.490  1.6849 -0.1328 -2.0273
21164SOL    HW264934   7.820   5.232   6.531  1.8570  0.3969  0.0481
21165SOL     OW64935   0.964   3.164   6.470  0.2638  0.0505 -0.1459
21165SOL    HW164936   0.918   3.230   6.417 -1.7209 -1.4531 -0.3967
21165SOL    HW264937   1.055   3.170   6.440  0.5710  3.7663  1.0103
21166SOL     OW64938   4.958   5.058   2.652  0.3118  0.0767 -0.1844
21166SOL    HW164939   4.870   5.071   2.688  0.6518  1.6081  0.1594
21166SOL    HW264940   5.009   5.132   2.686  1.4794 -0.2487 -1.1717
21167SOL     OW64941   3.897   5.639   0.574 -0.8838  0.3242 -0.2497
21167SOL    HW164942   3.814   5.602   0.605  0.8091 -3.5441  0.2894
21167SOL    HW264943   3.886   5.647   0.480 -2.0326  0.3998 -0.1220
21168SOL     OW64944   7.084   4.006  11.761  0.5985  0.1934 -0.5294
21168SOL    HW164945   7.036   4.086  11.781  1.9067  0.3719  2.3940
21168SOL    HW264946   7.171   4.036  11.733  1.7138 -0.0431  2.2823
21169SOL     OW64947   4.328   6.445   0.650 -0.1983  0.2378  0.0977
21169SOL    HW164948   4.412   6.491   0.645 -0.1908  0.1022 -2.5851
21169SOL    HW264949   4.271   6.495   0.592 -1.6587 -0.3350  1.0059
21170SOL     OW64950   5.209   3.431   2.057 -0.0420 -0.2059 -0.1075
21170SOL    HW164951   5.259   3.508   2.028 -1.5419  1.0748  0.5567
21170SOL    HW264952   5.199   3.378   1.978  0.1320  0.7992 -0.8236
21171SOL     OW64953   2.124   1.088  11.002  0.3241  0.2501 -0.0027
21171SOL    HW164954   2.164   1.007  10.970  0.8307  1.1049 -1.6343
21171SOL    HW264955   2.192   1.129  11.056  0.9777  0.7253 -1.1429
21172SOL     OW64956   0.043   7.368  10.940  0.4361  0.2814  0.0105
21172SOL    HW164957  -0.020   7.329  11.001 -2.0941  1.6771 -1.5445
21172SOL    HW264958   0.066   7.452  10.980  0.6883  0.1372  0.1747
21173SOL     OW64959   0.724   2.109   7.746 -0.1912 -0.4131  0.7006
21173SOL    HW164960   0.645   2.128   7.797 -1.0021 -3.0275  0.5580
21173SOL    HW264961   0.781   2.060   7.806  1.4441  1.5300  0.8385
21174SOL     OW64962   7.146   1.555   2.318 -0.2047  0.1350 -0.2446
21174SOL    HW164963   7.186   1.490   2.376 -0.9899  0.7317  1.0074
21174SOL    HW264964   7.216   1.581   2.259  0.8299 -0.0063  0.8748
21175SOL     OW64965   2.343   3.270  11.504 -0.3834  1.0948 -0.3286
21175SOL    HW164966   2.397   3.337  11.546 -1.9421  1.5121  1.1405
21175SOL    HW264967   2.291   3.234  11.576  0.1470 -1.4745 -1.1302
21176SOL     OW64968   3.062   4.080  11.452 -0.2726 -0.1865 -0.0135
21176SOL    HW164969   3.052   4.151  11.388 -1.3848 -0.0105  0.3374
21176SOL    HW264970   2.972   4.054  11.473  0.1181 -1.8302 -0.2604
21177SOL     OW64971   7.583   2.557   4.450 -0.0613 -0.5108  0.3584
21177SOL    HW164972   7.567   2.486   4.512 -0.8739  0.9897  1.9214
21177SOL    HW264973   7.656   2.525   4.396 -1.0462 -2.9290  0.3272
21178SOL     OW64974   0.551   0.232  10.841 -0.0708  0.5409  0.5840
21178SOL    HW164975   0.638   0.219  10.804 -0.2574  0.1893  0.2630
21178SOL    HW264976   0.567   0.269  10.928  0.3898  0.7251  0.4263
21179SOL     OW64977   1.618   1.925   6.441 -0.2803  0.8023  0.3102
21179SOL    HW164978   1.524   1.923   6.460 -1.5359  2.2093 -4.4465
21179SOL    HW264979   1.647   1.835   6.456 -2.2459  0.3632  2.0360
21180SOL     OW64980   4.749   5.190  11.212  0.2302 -0.1421  0.6441
21180SOL    HW164981   4.676   5.245  11.182 -0.3861 -2.3127 -2.2582
21180SOL    HW264982   4.819   5.207  11.150  0.3242 -1.9165  0.2220
21181SOL     OW64983   2.014   0.659   5.574 -0.2394 -0.2379 -0.0441
21181SOL    HW164984   2.004   0.755   5.576 -0.5266 -0.2670 -0.0420
21181SOL    HW264985   1.988   0.631   5.661 -0.6276 -0.3606 -0.1957
21182SOL     OW64986   1.350   5.407   4.980  0.5657  0.4793  0.0731
21182SOL    HW164987   1.360   5.313   4.959  0.7058  0.8024 -1.4798
21182SOL    HW264988   1.383   5.415   5.069  0.7971 -0.9172  0.1483
21183SOL     OW64989   6.462   4.284   8.460  0.0999  0.2022  0.1418
21183SOL    HW164990   6.530   4.297   8.393  0.5245  0.0666  0.5426
21183SOL    HW264991   6.488   4.204   8.505  0.1208  0.5875  0.8301
21184SOL     OW64992   5.811   2.205   7.726 -0.2120  0.7342 -0.0836
21184SOL    HW164993   5.774   2.253   7.652 -1.3317  1.5148  0.9486
21184SOL    HW264994   5.790   2.258   7.803 -0.2413 -0.7018  0.9387
21185SOL     OW64995   5.148   3.210   7.383  0.9015 -0.3370  0.0075
21185SOL    HW164996   5.104   3.262   7.315 -0.8288 -0.9941  0.5978
21185SOL    HW264997   5.169   3.274   7.452  0.3546 -0.1180 -0.0270
21186SOL     OW64998   5.924   3.636   2.428  0.4678 -0.0694  0.4820
21186SOL    HW164999   5.911   3.576   2.354 -2.3139  1.3337 -0.3048
21186SOL    HW265000   5.911   3.581   2.505  0.6340 -1.0122 -0.1426
21187SOL     OW65001   7.861   5.972   5.348 -0.7114  0.2372  0.2000
21187SOL    HW165002   7.807   5.896   5.372 -1.8573  1.3915  1.4688
21187SOL    HW265003   7.896   5.949   5.262  0.8368 -2.6668  1.4601
21188SOL     OW65004   3.545   0.417   4.527 -0.0721  0.0446  0.2913
21188SOL    HW165005   3.576   0.505   4.550 -0.7772  0.5533 -0.6183
21188SOL    HW265006   3.609   0.384   4.464  0.3846 -0.2413  0.9022
21189SOL     OW65007   2.629   4.269   6.173  0.0091 -0.2407 -0.2082
21189SOL    HW165008   2.690   4.248   6.102 -0.4974  0.7582 -0.9710
21189SOL    HW265009   2.584   4.348   6.143  0.1363  0.5037  1.4592
21190SOL     OW65010   4.631   7.703   1.255  0.1151  0.1591 -0.6887
21190SOL    HW165011   4.664   7.624   1.213  0.5483  0.9995 -1.9753
21190SOL    HW265012   4.700   7.726   1.318  0.1672 -0.2477 -0.5888
21191SOL     OW65013   2.796   5.284  10.878 -0.3395  0.3877 -0.2954
21191SOL    HW165014   2.884   5.320  10.883 -0.6724  1.6380 -2.1975
21191SOL    HW265015   2.767   5.305  10.789 -1.2474 -3.1338 -0.9666
21192SOL     OW65016   2.500   1.283  10.346  0.4376  0.2905  0.0449
21192SOL    HW165017   2.504   1.341  10.269 -0.9589  0.4314  0.0579
21192SOL    HW265018   2.467   1.339  10.416 -0.6026 -0.4251  0.1408
21193SOL     OW65019   7.020   4.955   7.909 -0.1559 -0.2831 -0.3111
21193SOL    HW165020   6.964   5.018   7.953 -0.5703 -0.5399 -0.4642
21193SOL    HW265021   7.010   4.974   7.816  1.6514  1.0603 -0.2985
21194SOL     OW65022   5.294   6.032   2.640  0.1129  0.0508 -0.5227
21194SOL    HW165023   5.324   5.963   2.581  1.8721  1.2505 -1.1248
21194SOL    HW265024   5.358   6.032   2.711 -0.2573  0.6315 -0.1818
21195SOL     OW65025   5.322   1.781  10.393 -0.4147  0.3580  0.1008
21195SOL    HW165026   5.351   1.829  10.471  0.9795 -0.4882  0.1430
21195SOL    HW265027   5.334   1.689  10.416  2.1498  0.0903 -1.7979
21196SOL     OW65028   3.276   2.533   8.121  0.2143 -0.5909  0.4218
21196SOL    HW165029   3.339   2.515   8.051  1.0036  1.6003  0.4964
21196SOL    HW265030   3.202   2.476   8.102  1.1839 -1.4093 -1.1158
21197SOL     OW65031   0.700   7.112   9.879  0.2038  0.3264 -0.1481
21197SOL    HW165032   0.666   7.026   9.854 -1.7303  0.2398  2.3571
21197SOL    HW265033   0.757   7.094   9.953  1.7860  1.0163 -1.1572
21198SOL     OW65034   0.578   6.005   1.252  0.4193  0.3659 -0.1955
21198SOL    HW165035   0.619   5.957   1.324  0.4607 -0.2483 -0.6244
21198SOL    HW265036   0.495   6.036   1.288  0.2471 -0.2975 -0.0000
21199SOL     OW65037   2.035   4.829   3.907 -0.0604 -0.3571  0.3453
21199SOL    HW165038   1.982   4.901   3.872  0.4993  0.0462  0.3210
21199SOL    HW265039   2.096   4.871   3.967 -0.3070 -0.9166  1.0026
21200SOL     OW65040   6.627   3.582   8.092  0.0618 -0.0888 -0.2781
21200SOL    HW165041   6.538   3.573   8.058  0.2052 -0.4318 -0.5657
21200SOL    HW265042   6.667   3.497   8.077 -0.8442 -1.4074  3.6422
21201SOL     OW65043   1.669   1.617   8.301  0.1668 -0.2723 -0.2230
21201SOL    HW165044   1.678   1.540   8.357  0.3025 -0.9151 -1.1006
21201SOL    HW265045   1.757   1.635   8.270  0.2820  0.7956  0.6799
21202SOL     OW65046   6.211   6.775   8.229 -0.3909 -0.5746  0.4075
21202SOL    HW165047   6.213   6.779   8.133 -1.6193  1.6263  0.4213
21202SOL    HW265048   6.298   6.745   8.253 -0.0778 -1.2629 -1.3744
21203SOL     OW65049   3.391   1.566   0.425  0.6160  0.2289 -0.2613
21203SOL    HW165050   3.315   1.508   0.428  0.5916  0.2885  0.4086
21203SOL    HW265051   3.440   1.547   0.505  0.3011  1.5416  0.2772
21204SOL     OW65052   5.522   7.527   1.516 -0.0406 -1.0160 -0.3395
21204SOL    HW165053   5.517   7.608   1.567  0.2586 -0.9635 -0.3950
21204SOL    HW265054   5.432   7.512   1.487  0.0054 -0.3781 -0.8301
21205SOL     OW65055   5.530   2.108   7.428  0.1613 -0.2355 -0.3427
21205SOL    HW165056   5.497   2.155   7.351  2.1031 -0.3184 -1.2764
21205SOL    HW265057   5.536   2.175   7.496 -0.2635  0.1308 -0.6606
21206SOL     OW65058   5.886   6.197   5.916 -0.1508  0.2479 -0.1392
21206SOL    HW165059   5.819   6.192   5.847 -0.5674  0.0918  0.2724
21206SOL    HW265060   5.929   6.281   5.901 -0.2434  0.2170 -0.5912
21207SOL     OW65061   2.873   1.411  12.351  0.6496 -0.2452  0.2692
21207SOL    HW165062   2.968   1.416  12.340  0.6228 -0.9399 -0.3853
21207SOL    HW265063   2.841   1.380  12.266 -0.0601 -1.0775  0.8287
21208SOL     OW65064   0.229   1.818   0.842  0.3130 -0.4912 -0.2265
21208SOL    HW165065   0.137   1.793   0.846 -0.5974  2.4879 -0.0783
21208SOL    HW265066   0.249   1.821   0.748 -0.3005  0.5436 -0.3375
21209SOL     OW65067   7.664   7.462   7.996 -0.2110 -0.3232 -0.2705
21209SOL    HW165068   7.578   7.421   8.004 -0.3234  0.3547  3.0053
21209SOL    HW265069   7.722   7.390   7.969 -1.2289 -1.5853  0.7788
21210SOL     OW65070   7.156   3.449   6.588 -0.3937  0.0415  0.1993
21210SOL    HW165071   7.105   3.527   6.567 -2.4341 -1.7503 -2.2123
21210SOL    HW265072   7.213   3.437   6.512  1.2059  0.1047  1.3480
21211SOL     OW65073   6.946   6.625   6.602  0.4810 -0.3425  0.3541
21211SOL    HW165074   6.881   6.669   6.656 -0.2205 -0.0458 -0.6866
21211SOL    HW265075   6.955   6.538   6.640 -2.2818 -1.2459 -0.7903
21212SOL     OW65076   1.180   1.625   3.310  0.1914 -0.0026 -0.1238
21212SOL    HW165077   1.163   1.531   3.300  0.1217 -0.1615  1.3496
21212SOL    HW265078   1.273   1.634   3.292 -0.4448  0.3072 -4.3548
21213SOL     OW65079   3.860   7.134   4.726  0.2827 -0.3009  0.1309
21213SOL    HW165080   3.811   7.106   4.649  2.4107 -2.7122 -0.4665
21213SOL    HW265081   3.884   7.225   4.707 -1.4337 -0.0135 -0.8420
21214SOL     OW65082   0.110   3.599   8.688  0.2465  0.1727  0.6168
21214SOL    HW165083   0.183   3.547   8.655  0.0436 -0.3778  1.0075
21214SOL    HW265084   0.147   3.648   8.762  1.0192  2.3630 -1.1287
21215SOL     OW65085   0.079   2.973   2.220  0.3236  0.0450 -0.1746
21215SOL    HW165086   0.078   3.049   2.277  0.7975 -0.8543  1.0576
21215SOL    HW265087   0.032   3.002   2.141 -0.2569  1.3336  0.6141
21216SOL     OW65088   2.777   7.033   7.201  0.1924  0.4632 -0.8382
21216SOL    HW165089   2.726   6.993   7.131  0.7571 -0.6220 -0.6564
21216SOL    HW265090   2.851   6.973   7.214 -0.8462 -0.3972  1.9043
21217SOL     OW65091   2.308   2.005   8.410  0.4393 -0.2192 -0.3136
21217SOL    HW165092   2.361   2.039   8.338 -0.4760 -1.1075 -1.4611
21217SOL    HW265093   2.371   1.985   8.479  1.1767  2.0786 -0.2459
21218SOL     OW65094   0.641   2.898   5.733  0.3132 -0.6615  0.3424
21218SOL    HW165095   0.736   2.904   5.724  0.1863 -0.7903 -1.4564
21218SOL    HW265096   0.610   2.987   5.717  0.2316  0.0167  3.6051
21219SOL     OW65097   2.682   1.638   2.866 -0.0121 -0.5822 -0.3059
21219SOL    HW165098   2.651   1.729   2.869  0.8667 -0.2917  0.4570
21219SOL    HW265099   2.767   1.643   2.822  0.5712 -0.8573  0.7446
21220SOL     OW65100   7.185   1.232  11.558  0.2185  0.1148 -0.2243
21220SOL    HW165101   7.217   1.156  11.509  0.0598 -0.5352  0.6519
21220SOL    HW265102   7.226   1.307  11.515 -0.4864 -0.3635 -1.8130
21221SOL     OW65103   4.301   7.030   1.404  0.0340  0.3086  0.6771
21221SOL    HW165104   4.336   7.019   1.316  0.1892  0.5691  0.7044
21221SOL    HW265105   4.281   6.941   1.433  1.1044  0.1051  0.8296
21222SOL     OW65106   4.946   4.155   1.306  0.7561  0.1727 -0.8251
21222SOL    HW165107   4.976   4.132   1.218  1.5038  0.3624 -0.6288
21222SOL    HW265108   4.897   4.079   1.336  0.5257  0.0928 -1.3922
21223SOL     OW65109   2.894   6.867   1.133  0.2446 -0.0218 -0.2516
21223SOL    HW165110   2.877   6.946   1.082  1.4771 -0.3017 -1.1360
21223SOL    HW265111   2.982   6.839   1.106  0.2220 -1.1550  0.7567
21224SOL     OW65112   1.902   1.374  12.165 -0.1665 -0.0979  0.0453
21224SOL    HW165113   1.948   1.361  12.247  0.8162 -0.7737 -0.5900
21224SOL    HW265114   1.862   1.289  12.146 -0.5212  0.0992 -0.0922
21225SOL     OW65115   1.745   1.946   3.234 -0.2361 -0.7046 -0.0905
21225SOL    HW165116   1.828   1.981   3.267 -0.0421 -0.5919 -0.6810
21225SOL    HW265117   1.771   1.875   3.176 -0.5736 -0.9068  0.0038
21226SOL     OW65118   5.708   7.063   4.163  0.1210  0.0514  0.1292
21226SOL    HW165119   5.750   7.125   4.103  2.0542 -0.7856  0.5362
21226SOL    HW265120   5.778   7.002   4.187 -0.8404 -0.2077  2.5038
21227SOL     OW65121   1.594   1.869   4.826  0.3191 -0.3955 -0.0227
21227SOL    HW165122   1.573   1.781   4.795 -0.0683 -0.0866 -0.6671
21227SOL    HW265123   1.685   1.882   4.799  0.0734 -0.2379 -0.8167
21228SOL     OW65124   6.561   3.086  11.506 -0.3385 -0.0669 -0.1283
21228SOL    HW165125   6.635   3.068  11.564 -0.3355  0.9615  0.2063
21228SOL    HW265126   6.539   3.001  11.468  0.5226 -0.5174  0.3513
21229SOL     OW65127   7.718   4.367   2.221 -0.5002 -0.5951 -0.5714
21229SOL    HW165128   7.675   4.453   2.229  1.9895  0.5824  1.5404
21229SOL    HW265129   7.786   4.380   2.155  1.2601 -0.2070  1.2142
21230SOL     OW65130   0.252   0.045   3.411 -0.1874 -0.4284 -0.4771
21230SOL    HW165131   0.266  -0.048   3.428 -0.0020 -0.0183  2.0151
21230SOL    HW265132   0.179   0.069   3.468 -1.7378  0.5391 -2.7190
21231SOL     OW65133   3.534   6.421   8.554 -0.3270  0.0504  0.0202
21231SOL    HW165134   3.444   6.428   8.586  0.0664 -0.5198  1.3539
21231SOL    HW265135   3.546   6.327   8.538 -0.2725  0.2447 -1.1353
21232SOL     OW65136   3.687   2.828   5.298  0.4722  0.4697 -0.1067
21232SOL    HW165137   3.658   2.904   5.248  1.9570  0.4580 -1.0517
21232SOL    HW265138   3.756   2.863   5.356  2.5659 -0.4228 -1.9241
21233SOL     OW65139   4.733   3.378   6.396  0.1527 -0.5241 -0.4409
21233SOL    HW165140   4.726   3.468   6.428 -2.6743 -1.4651  2.0538
21233SOL    HW265141   4.756   3.386   6.304 -0.1302  2.7355 -0.3263
21234SOL     OW65142   1.407   7.549   5.368 -0.9636  0.2645 -0.1026
21234SOL    HW165143   1.393   7.588   5.281  0.9696  0.4584 -0.3650
21234SOL    HW265144   1.352   7.600   5.426 -0.0131  2.1277 -0.7692
21235SOL     OW65145   4.909   3.742   1.602  0.3917 -0.3024 -0.3865
21235SOL    HW165146   4.920   3.654   1.637 -0.8742  0.1737  1.3446
21235SOL    HW265147   4.821   3.768   1.628  1.1646  1.9366  0.2238
21236SOL     OW65148   6.662   6.919   2.576 -0.6698  0.3385 -0.6464
21236SOL    HW165149   6.598   6.849   2.564 -1.6231  1.1308 -0.3326
21236SOL    HW265150   6.746   6.875   2.578 -1.2184 -0.7420 -0.9652
21237SOL     OW65151   0.255   4.635   0.406  0.4331 -0.0573  0.0271
21237SOL    HW165152   0.221   4.589   0.482  1.1910 -0.1639  0.3173
21237SOL    HW265153   0.197   4.711   0.395 -0.4504 -0.7390 -0.0858
21238SOL     OW65154   5.584   3.192   0.363  0.6711 -0.2923  0.0845
21238SOL    HW165155   5.528   3.241   0.303  0.7608 -0.6515 -0.3058
21238SOL    HW265156   5.600   3.251   0.436 -1.7936 -0.8450  1.1580
21239SOL     OW65157   0.026   6.970   8.224 -0.3202 -0.2885  0.0312
21239SOL    HW165158   0.032   7.049   8.170 -0.5334  0.1592  0.6464
21239SOL    HW265159   0.013   7.003   8.313 -0.5321 -1.0221  0.2790
21240SOL     OW65160   7.877   2.782   9.761  0.0831  0.9520  0.3630
21240SOL    HW165161   7.818   2.713   9.729  1.3623  0.1150 -0.2707
21240SOL    HW265162   7.926   2.740   9.832 -0.6098  1.8830  1.4207
21241SOL     OW65163   5.065   2.247   1.505  0.1220 -0.3732  0.1968
21241SOL    HW165164   5.094   2.290   1.585  1.1701 -1.5011  0.4468
21241SOL    HW265165   5.145   2.224   1.459 -0.4645  0.0280 -1.0661
21242SOL     OW65166   7.559   4.087   0.133  0.3802 -0.4698  0.2557
21242SOL    HW165167   7.608   4.094   0.216  1.1579  1.2791 -0.2923
21242SOL    HW265168   7.476   4.047   0.158  1.7651 -2.8554  1.3567
21243SOL     OW65169   0.477   7.410   7.335 -0.4181  0.1350 -0.0523
21243SOL    HW165170   0.389   7.443   7.351 -0.7147 -0.7613  0.2260
21243SOL    HW265171   0.465   7.328   7.288  0.0831 -1.5113  2.4758
21244SOL     OW65172   2.428   5.330   9.461  0.1772  0.0533  0.2981
21244SOL    HW165173   2.423   5.239   9.433  2.0117 -1.2714  3.7001
21244SOL    HW265174   2.522   5.351   9.458  0.2568  0.4699  3.0756
21245SOL     OW65175   0.572   4.033   5.565  0.1984 -0.0909  0.6500
21245SOL    HW165176   0.559   3.963   5.501  1.7512  1.0000 -0.9472
21245SOL    HW265177   0.490   4.083   5.563 -0.4988 -1.1784  0.9854
21246SOL     OW65178   6.635   7.646  10.982 -0.0542  0.5340 -0.2690
21246SOL    HW165179   6.573   7.602  11.041 -0.5238  1.5576  0.0247
21246SOL    HW265180   6.720   7.637  11.026 -0.0418 -0.5656 -0.4974
21247SOL     OW65181   7.706   3.235   9.284  0.4544  0.2338  0.2394
21247SOL    HW165182   7.772   3.174   9.253 -2.0673 -1.2104 -2.8606
21247SOL    HW265183   7.724   3.316   9.236  0.2468  0.0026 -0.2262
21248SOL     OW65184   2.439   1.517   2.833 -0.1511 -0.6710  0.4616
21248SOL    HW165185   2.516   1.568   2.860 -0.6671  0.1877  0.3700
21248SOL    HW265186   2.366   1.562   2.876 -0.8994  0.2053 -1.6160
21249SOL     OW65187   0.827   0.356   8.273 -0.0467 -0.1263  0.1696
21249SOL    HW165188   0.879   0.357   8.354 -0.0279 -0.1988  0.1583
21249SOL    HW265189   0.743   0.320   8.299  0.1266 -0.6234  0.0583
21250SOL     OW65190   6.961   5.395   0.665  0.8993  0.2687  0.0837
21250SOL    HW165191   7.018   5.361   0.596  2.0854 -1.0876  1.6416
21250SOL    HW265192   7.001   5.364   0.746 -0.6813  1.4385  1.3781
21251SOL     OW65193   6.477   2.191   8.144 -0.3830  0.0526  0.4880
21251SOL    HW165194   6.540   2.171   8.214 -1.5417 -1.2490  1.2091
21251SOL    HW265195   6.467   2.286   8.147  1.4185  0.2841  0.4467
21252SOL     OW65196   1.900   1.721   4.323  0.0351  0.1731 -0.5656
21252SOL    HW165197   1.938   1.634   4.319 -2.2114 -1.0538  1.7088
21252SOL    HW265198   1.810   1.709   4.292 -0.5535  1.5039  0.5430
21253SOL     OW65199   5.031   1.796  11.375 -0.3240  0.4034 -0.3304
21253SOL    HW165200   4.968   1.779  11.445  0.0681  2.2531  0.5196
21253SOL    HW265201   5.114   1.759  11.408 -0.6540 -0.9574 -0.9374
21254SOL     OW65202   4.669   0.439   0.112 -0.6526  0.4040  0.0547
21254SOL    HW165203   4.748   0.407   0.156 -0.4318  0.5625 -0.2246
21254SOL    HW265204   4.600   0.433   0.179 -0.4535  0.0589  0.2324
21255SOL     OW65205   5.205   7.742  10.353  0.3741 -0.5016  0.0841
21255SOL    HW165206   5.273   7.708  10.411  0.2475  0.0323  0.5530
21255SOL    HW265207   5.251   7.807  10.299 -0.0750  1.1055  1.5414
21256SOL     OW65208   4.617   6.581   3.435  0.3580  0.0450 -0.1941
21256SOL    HW165209   4.683   6.599   3.502  1.2683 -0.1370 -1.0103
21256SOL    HW265210   4.639   6.640   3.363 -1.7907  1.6417  0.3731
21257SOL     OW65211   3.436   0.679   6.928  0.3241 -0.4626 -0.5196
21257SOL    HW165212   3.530   0.657   6.925  0.3991 -0.0131 -2.9132
21257SOL    HW265213   3.402   0.651   6.843 -1.6103 -0.0527  0.0842
21258SOL     OW65214   0.207   6.034   1.616 -0.1840 -0.4686  0.0776
21258SOL    HW165215   0.198   5.940   1.629 -0.5443 -0.7562 -2.0133
21258SOL    HW265216   0.299   6.053   1.633 -0.0084 -1.2815  0.0326
21259SOL     OW65217   7.044   0.804   6.846 -0.5023 -0.1863 -0.5453
21259SOL    HW165218   7.084   0.718   6.861 -1.7596 -0.5089  1.1937
21259SOL    HW265219   7.059   0.852   6.928 -3.3519 -0.2248  0.0893
21260SOL     OW65220   7.295   5.989   7.904 -0.0380 -0.0511  0.2819
21260SOL    HW165221   7.351   5.944   7.842 -2.4540 -1.2524 -1.1482
21260SOL    HW265222   7.312   5.946   7.988 -0.3557 -1.8797 -0.5445
21261SOL     OW65223   7.046   6.150   5.838  0.2414  0.3853  0.6220
21261SOL    HW165224   7.064   6.241   5.862 -1.5290  0.8991  0.1799
21261SOL    HW265225   7.000   6.157   5.754 -1.5175 -0.7697  1.4272
21262SOL     OW65226   7.486   2.949  11.241  0.5086  0.3113  0.4950
21262SOL    HW165227   7.523   2.974  11.325  0.4114 -0.8172  0.8933
21262SOL    HW265228   7.558   2.956  11.179  0.5955  1.0885  0.6754
21263SOL     OW65229   2.881   4.369  10.705  0.0303  0.4624 -0.3346
21263SOL    HW165230   2.845   4.448  10.664  0.1504  1.3379  1.1700
21263SOL    HW265231   2.927   4.401  10.782  2.6926 -0.7831 -1.2723
21264SOL     OW65232   2.128   7.880   2.605 -0.0114 -0.3502 -0.0142
21264SOL    HW165233   2.179   7.886   2.524 -0.3116 -1.8228 -0.3382
21264SOL    HW265234   2.052   7.827   2.582 -0.5952  0.0160  1.0026
21265SOL     OW65235   6.130   1.040   5.296 -0.4285  0.4533  0.2294
21265SOL    HW165236   6.060   1.044   5.362 -0.2974 -0.4260  0.4292
21265SOL    HW265237   6.088   1.000   5.220 -0.7542  2.0475 -0.4766
21266SOL     OW65238   2.435   4.718   8.958 -0.1026  0.1379 -0.1673
21266SOL    HW165239   2.391   4.714   9.043 -1.1516 -0.5580 -0.7167
21266SOL    HW265240   2.413   4.805   8.924 -0.8928 -0.1261 -0.3442
21267SOL     OW65241   4.215   6.426  10.411  0.2662 -0.2419 -0.2745
21267SOL    HW165242   4.267   6.384  10.343 -1.0361 -2.2321 -0.1414
21267SOL    HW265243   4.247   6.516  10.415  1.8281 -0.6745 -2.0022
21268SOL     OW65244   2.443   3.019   1.572  0.6692  0.1793  0.6674
21268SOL    HW165245   2.432   3.058   1.659 -0.6701 -0.6620  0.8985
21268SOL    HW265246   2.440   2.925   1.587 -2.0638 -0.0117 -0.5283
21269SOL     OW65247   5.863   1.062  11.384 -0.5735 -0.0206 -0.3148
21269SOL    HW165248   5.917   1.116  11.442  0.1902  0.5978 -1.5666
21269SOL    HW265249   5.802   1.018  11.443 -0.5889  1.4758  0.8580
21270SOL     OW65250   2.665   5.012   5.750 -0.2168  0.1943 -0.6447
21270SOL    HW165251   2.669   5.015   5.655 -1.3919 -0.3766 -0.7289
21270SOL    HW265252   2.600   5.079   5.774 -0.8017 -0.4721 -0.3345
21271SOL     OW65253   7.245   7.616   8.114  0.2199 -0.1724 -0.4224
21271SOL    HW165254   7.320   7.674   8.133 -1.3583  1.6750  0.4733
21271SOL    HW265255   7.251   7.547   8.179  1.4427 -0.3679 -0.7143
21272SOL     OW65256   6.766   6.470   8.908 -0.4112  0.1514  0.1051
21272SOL    HW165257   6.852   6.429   8.917 -0.0406  1.0113  0.6406
21272SOL    HW265258   6.765   6.540   8.974 -2.2173 -0.9976  1.4035
21273SOL     OW65259   0.006   2.442   1.278 -0.7688 -0.0142 -0.0962
21273SOL    HW165260   0.044   2.364   1.238 -1.2855  0.4001 -1.4529
21273SOL    HW265261   0.082   2.499   1.295 -0.5583 -0.0865 -0.7566
21274SOL     OW65262   4.601   4.114   2.548 -0.7481  0.3665  0.0631
21274SOL    HW165263   4.614   4.065   2.629 -1.4475  1.0947  0.6366
21274SOL    HW265264   4.573   4.048   2.484 -0.8376 -0.1083  0.5860
21275SOL     OW65265   1.220   1.773   1.534  0.2403 -0.2528 -0.3902
21275SOL    HW165266   1.265   1.787   1.618  0.5362  0.3173 -0.6429
21275SOL    HW265267   1.254   1.689   1.503  0.7158 -0.0918 -0.3140
21276SOL     OW65268   4.645   5.166   3.677  0.0606  0.0830  0.0897
21276SOL    HW165269   4.589   5.242   3.692 -1.3382 -1.2122  1.7998
21276SOL    HW265270   4.587   5.091   3.682  1.7227 -1.2473  0.5931
21277SOL     OW65271   1.128   4.520  10.197  0.6615 -0.2982  0.8079
21277SOL    HW165272   1.042   4.484  10.220  0.5435 -0.1869  0.5487
21277SOL    HW265273   1.122   4.536  10.103  0.9117 -0.1354  0.8210
21278SOL     OW65274   1.310   5.424  10.637  0.1447  0.3933  0.1710
21278SOL    HW165275   1.388   5.476  10.653  0.1165  0.8813 -1.1582
21278SOL    HW265276   1.238   5.487  10.640  0.0153  0.2922 -0.5422
21279SOL     OW65277   4.833   4.442  10.836 -0.4353 -0.0232 -0.2063
21279SOL    HW165278   4.896   4.509  10.863 -1.4279  0.1676  1.8148
21279SOL    HW265279   4.813   4.464  10.745  1.1172  0.9212 -0.3605
21280SOL     OW65280   3.692   3.203   2.925  0.0745  0.0656 -0.3469
21280SOL    HW165281   3.735   3.271   2.874 -0.2430  0.3867 -0.1902
21280SOL    HW265282   3.647   3.250   2.995 -1.5227 -0.1442 -1.1934
21281SOL     OW65283   1.639   3.206  10.553 -0.5079 -0.1213  0.0317
21281SOL    HW165284   1.597   3.185  10.470 -1.5180  1.4248  0.1169
21281SOL    HW265285   1.567   3.216  10.615  0.2274 -1.2248  1.1209
21282SOL     OW65286   6.970   0.707   2.575  0.3711 -0.2841 -0.2453
21282SOL    HW165287   7.053   0.668   2.548  1.2475  1.3431  0.0102
21282SOL    HW265288   6.993   0.764   2.648 -0.4235  2.6306 -2.1356
21283SOL     OW65289   0.051   1.259  10.726  0.9324 -0.7091 -0.1412
21283SOL    HW165290   0.022   1.349  10.742  1.4769 -0.1432 -2.0707
21283SOL    HW265291   0.111   1.240  10.797  0.0242  0.0646  0.8724
21284SOL     OW65292   2.001   0.100   7.817  0.0932  0.8476  0.3869
21284SOL    HW165293   1.971   0.118   7.727 -0.2403 -0.7937  0.1520
21284SOL    HW265294   1.970   0.012   7.836  1.1678  0.7237  1.7011
21285SOL     OW65295   3.900   2.089   5.095  0.2225 -0.1626 -0.0086
21285SOL    HW165296   3.975   2.040   5.127  0.3276  0.5328  0.8653
21285SOL    HW265297   3.881   2.152   5.165 -1.9312 -1.1277  0.3633
21286SOL     OW65298   5.226   0.991   1.623 -0.2349  0.2431  0.1551
21286SOL    HW165299   5.198   1.076   1.659 -0.7416 -0.9239  2.7342
21286SOL    HW265300   5.304   0.968   1.674 -0.9189 -1.4583  0.4994
21287SOL     OW65301   2.218   1.621   1.331  0.0906 -0.5369  0.1762
21287SOL    HW165302   2.236   1.715   1.331 -0.1306 -0.4755 -0.9561
21287SOL    HW265303   2.144   1.611   1.270 -0.1606 -1.3925  0.6068
21288SOL     OW65304   1.866   5.917   2.041 -0.4028  0.0819  0.1379
21288SOL    HW165305   1.812   5.985   2.001  1.9945  1.9072 -0.2316
21288SOL    HW265306   1.858   5.842   1.982 -2.4170  0.2872  0.0875
21289SOL     OW65307   4.016   0.251   0.228 -0.0177 -0.1456  0.3156
21289SOL    HW165308   3.947   0.189   0.251 -1.8695  1.2829 -1.0658
21289SOL    HW265309   4.044   0.289   0.311 -0.4112 -1.2135  0.9541
21290SOL     OW65310   4.291   0.363   5.112 -0.1410  0.5787 -0.2105
21290SOL    HW165311   4.309   0.343   5.020 -1.4929  1.1365 -0.6129
21290SOL    HW265312   4.214   0.420   5.111 -0.9605 -0.4126  1.3252
21291SOL     OW65313   6.672   0.627   8.943  0.4767 -0.1814 -0.3741
21291SOL    HW165314   6.631   0.624   9.029  1.8592  0.0682  0.3182
21291SOL    HW265315   6.764   0.608   8.959  1.0257  1.2071 -1.6083
21292SOL     OW65316   5.532   0.596   5.295 -1.1083  0.2022  0.3815
21292SOL    HW165317   5.458   0.567   5.242 -1.3661 -3.9951  2.6410
21292SOL    HW265318   5.491   0.645   5.367 -1.1513  1.9403 -0.7675
21293SOL     OW65319   1.733   4.704   7.610  0.0430 -0.8171  0.3452
21293SOL    HW165320   1.792   4.773   7.640 -0.2842  0.2738 -1.3698
21293SOL    HW265321   1.649   4.747   7.597 -0.5971 -1.9024  0.7762
21294SOL     OW65322   5.894   0.733   7.080  0.1983 -0.0943 -0.3734
21294SOL    HW165323   5.809   0.775   7.096 -0.2639 -0.8028 -0.8642
21294SOL    HW265324   5.875   0.639   7.083  0.9432 -0.2603 -0.6133
21295SOL     OW65325   2.952   1.868   6.490 -0.2613 -0.2909 -0.1006
21295SOL    HW165326   2.928   1.822   6.571  0.6794 -1.9636 -0.7093
21295SOL    HW265327   2.929   1.806   6.421  0.4110  0.4681 -1.0200
21296SOL     OW65328   2.949   1.068   6.446  0.6963  0.0734  0.0964
21296SOL    HW165329   2.973   1.160   6.436  1.5007  0.1360  2.2395
21296SOL    HW265330   2.972   1.028   6.362 -0.1925  1.9006 -1.0682
21297SOL     OW65331   3.863   2.492  11.425 -0.4511  0.2657 -0.1750
21297SOL    HW165332   3.943   2.449  11.454  0.9876  2.1540 -1.0738
21297SOL    HW265333   3.872   2.583  11.456 -2.8148  0.2897  0.7024
21298SOL     OW65334   1.267   3.376  10.095 -0.6665 -0.7314  0.0175
21298SOL    HW165335   1.235   3.374  10.185 -0.0134  1.2199  0.3458
21298SOL    HW265336   1.247   3.290  10.060 -0.7936 -1.5870  2.0847
21299SOL     OW65337   1.061   7.583   9.126  0.3210  0.0133  0.1855
21299SOL    HW165338   0.993   7.638   9.087  0.2825 -1.3245 -1.7253
21299SOL    HW265339   1.027   7.494   9.120  0.9565 -0.4007  2.0284
21300SOL     OW65340   7.043   6.720   9.593 -0.1429 -0.0366 -0.0370
21300SOL    HW165341   6.979   6.747   9.659  0.0816  0.7101 -0.1148
21300SOL    HW265342   7.017   6.767   9.514  1.1368  1.1526  0.2155
21301SOL     OW65343   0.448   3.103   6.833  0.1232  0.3231 -0.3719
21301SOL    HW165344   0.372   3.054   6.801  0.3314  0.5106 -1.1786
21301SOL    HW265345   0.433   3.111   6.927 -0.3101 -0.5904 -0.3460
21302SOL     OW65346   6.063   1.015   0.704  0.2603 -0.3294  0.2695
21302SOL    HW165347   6.158   1.014   0.720  0.4550  2.1715 -0.2992
21302SOL    HW265348   6.024   1.030   0.790  0.3884 -1.1880  0.4795
21303SOL     OW65349   0.137   6.019  10.204 -0.3972  0.2809 -0.3615
21303SOL    HW165350   0.100   5.936  10.175  0.5502 -0.1665 -0.3403
21303SOL    HW265351   0.064   6.081  10.200 -1.3351 -0.7292  0.4084
21304SOL     OW65352   5.512   6.680   6.780  0.0329 -0.4387 -0.4615
21304SOL    HW165353   5.595   6.693   6.826  0.9053  0.1052 -2.1343
21304SOL    HW265354   5.483   6.768   6.756 -0.3443 -0.7304 -1.0879
21305SOL     OW65355   5.523   0.741  10.420  0.1642  0.1111  0.0770
21305SOL    HW165356   5.472   0.818  10.448  1.5284  1.1925 -0.2801
21305SOL    HW265357   5.572   0.716  10.498  0.0929 -0.0848  0.0573
21306SOL     OW65358   4.748   1.744   8.657  0.3103 -0.2038 -0.0415
21306SOL    HW165359   4.694   1.806   8.608 -0.0305 -0.7043 -0.2983
21306SOL    HW265360   4.834   1.750   8.614 -0.4831 -2.1599 -2.1181
21307SOL     OW65361   3.654   6.821   3.747 -0.1113 -0.5596 -0.1157
21307SOL    HW165362   3.560   6.810   3.758 -0.3453  0.9788 -0.3882
21307SOL    HW265363   3.688   6.827   3.837 -0.4054 -0.1600 -0.0297
21308SOL     OW65364   1.536   3.199   0.242 -0.5191  0.2508  0.6524
21308SOL    HW165365   1.536   3.140   0.166  1.1142  1.0551 -0.0141
21308SOL    HW265366   1.579   3.149   0.311 -1.4997 -0.2751  0.9012
21309SOL     OW65367   1.283   6.111   7.558  0.0356  0.2979 -0.0574
21309SOL    HW165368   1.226   6.095   7.483  0.3617  0.7223 -0.3962
21309SOL    HW265369   1.244   6.059   7.628 -0.5862  0.3264 -0.3712
21310SOL     OW65370   5.004   5.777   6.800 -0.1786  0.4541 -0.4473
21310SOL    HW165371   4.922   5.804   6.759 -0.2594  0.5542 -0.2210
21310SOL    HW265372   5.049   5.860   6.819  0.1893  0.3920 -0.9993
21311SOL     OW65373   6.663   7.200   2.320  0.2089  0.0428 -0.4914
21311SOL    HW165374   6.663   7.277   2.263 -2.0977 -0.6960 -1.6280
21311SOL    HW265375   6.582   7.153   2.297  0.8408 -2.0046  1.1254
21312SOL     OW65376   1.675   5.256   9.414 -0.5849 -0.1563  0.0455
21312SOL    HW165377   1.755   5.217   9.378 -2.6338 -1.8485 -3.1239
21312SOL    HW265378   1.650   5.197   9.485 -0.7962 -1.6193 -1.2042
21313SOL     OW65379   5.654   4.746   2.002  0.3212  0.0907  0.0722
21313SOL    HW165380   5.593   4.735   2.075  0.9801  0.3315  0.6710
21313SOL    HW265381   5.602   4.786   1.932 -0.0411  0.9743  0.8316
21314SOL     OW65382   7.882   0.702  10.893 -0.0221 -0.5830  0.3255
21314SOL    HW165383   7.797   0.668  10.863 -0.1169 -0.7806  0.8093
21314SOL    HW265384   7.927   0.727  10.812 -0.8050  0.1520  0.0975
21315SOL     OW65385   3.891   1.236  10.463  0.4691  0.0774  0.1935
21315SOL    HW165386   3.962   1.298  10.478  0.5870 -0.3797  1.6049
21315SOL    HW265387   3.846   1.229  10.547 -0.8762 -0.1208 -0.5098
21316SOL     OW65388   0.968   5.952   8.539  0.0304  0.3598 -0.4058
21316SOL    HW165389   0.971   6.048   8.538  0.1239  0.3727  0.4437
21316SOL    HW265390   0.889   5.931   8.588  1.8408  0.0480  2.6942
21317SOL     OW65391   0.952   4.720   8.184  0.1399  0.7191  0.0345
21317SOL    HW165392   0.877   4.772   8.155 -0.5964 -1.5949 -2.6089
21317SOL    HW265393   0.926   4.687   8.270 -1.3137  1.0020 -0.2706
21318SOL     OW65394   6.144   3.431   7.354 -0.2751 -0.1328 -0.0281
21318SOL    HW165395   6.147   3.373   7.429 -0.7367 -1.1766 -0.7895
21318SOL    HW265396   6.159   3.374   7.278  0.9478  0.9983 -0.6940
21319SOL     OW65397   6.965   0.423   6.967 -0.6598  0.3103  0.0569
21319SOL    HW165398   7.017   0.460   6.896 -1.4132  0.0152 -0.6701
21319SOL    HW265399   6.892   0.378   6.923 -0.0349 -1.6750  0.9082
21320SOL     OW65400   4.416   7.716   6.805  0.9426 -0.0454 -0.1271
21320SOL    HW165401   4.418   7.748   6.896  1.9070  1.5314 -0.6468
21320SOL    HW265402   4.508   7.720   6.777  0.5602  0.2176 -1.3935
21321SOL     OW65403   3.349   0.612   6.676  0.1692  0.2273  0.4454
21321SOL    HW165404   3.420   0.598   6.613 -0.3929  0.9384 -0.3709
21321SOL    HW265405   3.288   0.540   6.659 -0.1940  0.6662 -0.1350
21322SOL     OW65406   2.659   4.815   6.456 -0.1339 -0.4656  0.2764
21322SOL    HW165407   2.659   4.808   6.551 -0.5917  0.4495  0.3584
21322SOL    HW265408   2.746   4.851   6.436  0.1929 -1.2248  0.2857
21323SOL     OW65409   4.201   0.532   8.455 -0.4861 -0.2106 -0.4082
21323SOL    HW165410   4.131   0.472   8.429 -1.4065 -0.4959  2.4239
21323SOL    HW265411   4.155   0.610   8.486  0.3742 -0.4606  1.6632
21324SOL     OW65412   1.443   0.632   7.867 -0.4376  0.0862 -0.1177
21324SOL    HW165413   1.377   0.562   7.861 -0.2598 -0.1714  0.8674
21324SOL    HW265414   1.504   0.612   7.796  0.4389 -1.6514  1.0556
21325SOL     OW65415   7.916   4.829   9.961  0.2996  0.1739 -0.3794
21325SOL    HW165416   7.981   4.844   9.893  0.0221  1.5687 -0.3626
21325SOL    HW265417   7.963   4.780  10.029  1.0461  0.2941 -0.7996
21326SOL     OW65418   1.860   2.562   6.750  0.3995  0.0472 -0.1159
21326SOL    HW165419   1.791   2.624   6.727 -1.4961 -2.0847 -0.5214
21326SOL    HW265420   1.900   2.538   6.666  0.9603  0.5164  0.0133
21327SOL     OW65421   6.480   1.608   6.298 -0.2604 -0.2642 -0.1320
21327SOL    HW165422   6.447   1.537   6.242  0.7222 -1.5061  0.8048
21327SOL    HW265423   6.510   1.675   6.236 -1.7178 -0.3952 -1.0315
21328SOL     OW65424   3.494   0.238   7.790 -0.0707  0.6077  0.5492
21328SOL    HW165425   3.528   0.184   7.719 -2.3207 -0.7585  0.4304
21328SOL    HW265426   3.542   0.208   7.868 -0.2653 -0.5649  0.2328
21329SOL     OW65427   7.048   7.641   8.858 -0.3586  0.3611  0.1877
21329SOL    HW165428   7.009   7.726   8.837  0.9076  0.8945 -0.1138
21329SOL    HW265429   7.063   7.645   8.953 -2.5925 -0.5595  0.6633
21330SOL     OW65430   2.431   5.728   1.144 -0.4804 -0.4082  0.0490
21330SOL    HW165431   2.372   5.788   1.099 -0.6335 -0.5459  0.0658
21330SOL    HW265432   2.513   5.733   1.095 -0.2940  0.2835  0.4156
21331SOL     OW65433   0.710   3.269   7.596  0.1623 -0.5675  0.2800
21331SOL    HW165434   0.754   3.184   7.586  0.7258 -0.1669 -0.8765
21331SOL    HW265435   0.755   3.311   7.669  0.5917 -0.8335  0.1740
21332SOL     OW65436   7.655   6.929   9.505 -0.0100  0.4367  0.1201
21332SOL    HW165437   7.707   6.964   9.577  3.1413 -1.6154 -0.9604
21332SOL    HW265438   7.717   6.918   9.433 -2.4335 -0.1959 -2.0408
21333SOL     OW65439   7.090   6.047  10.118  0.0848 -0.5447  0.0212
21333SOL    HW165440   7.126   5.961  10.097  0.5875 -0.1730 -0.7122
21333SOL    HW265441   7.108   6.059  10.211 -0.6697 -1.5463  0.3018
21334SOL     OW65442   2.279   6.312   5.155  0.2569  0.8512  0.3299
21334SOL    HW165443   2.258   6.371   5.228 -1.6524 -2.7749  3.0738
21334SOL    HW265444   2.209   6.327   5.091  1.1694  3.1105 -0.2179
21335SOL     OW65445   4.846   6.514   7.462  0.0933 -0.2495 -0.0511
21335SOL    HW165446   4.854   6.577   7.533  0.4383  0.0349 -0.3360
21335SOL    HW265447   4.874   6.563   7.384 -1.0055 -0.3220 -0.5061
21336SOL     OW65448   0.395   7.681   9.202 -0.4096  0.1739  0.1647
21336SOL    HW165449   0.435   7.766   9.221  0.6158  0.2173 -1.9028
21336SOL    HW265450   0.307   7.688   9.240 -0.4299  2.2557 -0.0994
21337SOL     OW65451   4.094   6.908   7.929 -0.0123 -0.3200  0.1079
21337SOL    HW165452   4.089   6.996   7.891 -0.7668 -0.3740  0.0700
21337SOL    HW265453   4.006   6.892   7.964  0.5105 -0.4933  1.4041
21338SOL     OW65454   2.838   1.433   6.433 -0.0597  0.6107  0.8278
21338SOL    HW165455   2.933   1.424   6.441  0.1957  0.8902 -1.2197
21338SOL    HW265456   2.813   1.490   6.505  1.4803  1.3836  0.8013
21339SOL     OW65457   1.853   3.871   6.446 -0.2926  0.0929  0.3886
21339SOL    HW165458   1.814   3.928   6.512  1.1942 -1.2291  2.5287
21339SOL    HW265459   1.801   3.791   6.449  1.1023 -0.8334  1.6825
21340SOL     OW65460   7.506   2.121  12.319  0.9696  0.0833 -0.2409
21340SOL    HW165461   7.512   2.172  12.400  2.1202  1.2331 -1.0055
21340SOL    HW265462   7.415   2.132  12.290 -0.0899 -2.0825  1.9352
21341SOL     OW65463   0.145   6.962   6.223 -0.0658  0.0657 -0.0047
21341SOL    HW165464   0.220   6.939   6.167  0.7919  0.3051  1.0150
21341SOL    HW265465   0.179   7.032   6.280 -0.5281 -0.9987  1.6419
21342SOL     OW65466   0.704   4.988   7.793 -0.2962  0.4060 -0.3583
21342SOL    HW165467   0.764   5.053   7.757 -0.2522 -0.5626 -2.1551
21342SOL    HW265468   0.618   5.012   7.757 -0.6304  0.5902  0.5388
21343SOL     OW65469   4.270   2.047  10.394  0.0900  0.3766  0.0741
21343SOL    HW165470   4.280   2.097  10.475  0.9441  0.5475 -0.1250
21343SOL    HW265471   4.278   2.113  10.325 -1.6201  0.3877 -0.1473
21344SOL     OW65472   3.918   1.486   2.901 -0.5206 -0.3650 -0.6151
21344SOL    HW165473   3.846   1.426   2.919 -0.5081  0.0419  1.0171
21344SOL    HW265474   3.888   1.570   2.936  1.3089 -0.5440  1.6395
21345SOL     OW65475   2.893   3.628   8.187 -0.1352  0.3620 -0.2026
21345SOL    HW165476   2.918   3.538   8.209 -0.1300  0.5103  0.4078
21345SOL    HW265477   2.968   3.682   8.216 -0.6590  0.6866  0.5866
21346SOL     OW65478   2.211   0.095   7.998  0.8428  0.3714  0.4519
21346SOL    HW165479   2.226   0.189   8.013 -0.9906  1.1442 -1.8795
21346SOL    HW265480   2.134   0.092   7.942  1.1793 -2.5462 -0.0106
21347SOL     OW65481   3.191   0.247   7.808  0.0527 -0.0575 -0.0156
21347SOL    HW165482   3.203   0.163   7.764  0.1068  0.5730 -1.2157
21347SOL    HW265483   3.269   0.256   7.863 -0.6126 -1.4357  1.2593
21348SOL     OW65484   1.414   5.704  11.255 -0.2747  0.5607 -0.6004
21348SOL    HW165485   1.327   5.732  11.227 -0.5267 -0.0442 -0.4340
21348SOL    HW265486   1.462   5.786  11.268 -0.8170  0.8998 -0.6850
21349SOL     OW65487   1.509   5.537   6.350  0.0366  0.0645  0.0786
21349SOL    HW165488   1.430   5.509   6.398  0.1522  0.8215  0.7289
21349SOL    HW265489   1.577   5.475   6.378 -0.6063 -1.4442 -1.5122
21350SOL     OW65490   4.620   7.038   7.205  0.0374  0.0834 -0.3575
21350SOL    HW165491   4.618   6.942   7.201  2.4999 -0.0032 -1.0846
21350SOL    HW265492   4.577   7.059   7.288 -0.5487 -1.6407 -0.1735
21351SOL     OW65493   5.383   7.005   5.014 -0.4410  0.2618  0.0994
21351SOL    HW165494   5.319   7.075   5.031 -0.8028  0.0322 -0.3051
21351SOL    HW265495   5.342   6.926   5.049  0.9852  0.5839  2.8308
21352SOL     OW65496   6.865   5.123   4.425 -0.3263  0.5358 -0.5347
21352SOL    HW165497   6.802   5.145   4.493  0.5902  0.4027  0.3827
21352SOL    HW265498   6.813   5.086   4.354 -1.5250  2.4883 -0.7331
21353SOL     OW65499   5.499   5.529   6.173 -0.7511  0.2684 -0.1355
21353SOL    HW165500   5.518   5.608   6.223 -0.7675  1.2578 -1.6179
21353SOL    HW265501   5.574   5.519   6.115 -0.3229 -1.3460  0.6544
21354SOL     OW65502   2.451   5.373   5.236  0.0577  0.3404 -0.0191
21354SOL    HW165503   2.397   5.388   5.313  0.2004 -1.1620  0.4037
21354SOL    HW265504   2.391   5.385   5.162 -0.5357 -0.0101  0.3956
21355SOL     OW65505   4.101   6.589   6.965  0.3657 -0.8963  0.2653
21355SOL    HW165506   4.087   6.539   7.045 -0.0530  2.3829  2.4165
21355SOL    HW265507   4.054   6.671   6.979  2.7725  1.0682 -2.0816
21356SOL     OW65508   5.200   6.921  10.840 -0.4407  0.3100 -0.0371
21356SOL    HW165509   5.148   7.001  10.848  0.0886  0.7140 -0.5919
21356SOL    HW265510   5.195   6.898  10.747 -0.4186 -0.1952  0.0824
21357SOL     OW65511   1.857   4.101   0.929 -0.1774 -0.4665  0.1090
21357SOL    HW165512   1.858   4.077   0.836  0.7904 -1.4031  0.3538
21357SOL    HW265513   1.886   4.023   0.975 -0.8371 -0.0760  1.2356
21358SOL     OW65514   4.035   2.221   5.841  0.0271  0.3397 -0.3033
21358SOL    HW165515   3.961   2.273   5.871 -0.2126 -0.5946  0.7822
21358SOL    HW265516   4.012   2.195   5.751 -0.4099  1.0409 -0.3981
21359SOL     OW65517   0.058   2.320   4.129  0.2488 -0.2421  0.2658
21359SOL    HW165518   0.009   2.303   4.209 -0.4230 -0.8334 -0.2481
21359SOL    HW265519   0.087   2.234   4.100  0.4487 -0.0406 -0.1438
21360SOL     OW65520   0.269   2.733   2.064 -0.1902 -0.3239 -0.4987
21360SOL    HW165521   0.229   2.782   1.992 -0.3072 -0.2640 -0.3907
21360SOL    HW265522   0.202   2.729   2.132 -0.5109 -1.4157 -0.8556
21361SOL     OW65523   1.166   3.060   0.880  0.0733 -0.0136  0.0686
21361SOL    HW165524   1.221   3.112   0.821 -1.2969 -1.2594 -2.4812
21361SOL    HW265525   1.227   3.009   0.932  1.3656 -0.3486 -1.7118
21362SOL     OW65526   3.634   7.545   3.049 -0.0165  0.4544 -0.1176
21362SOL    HW165527   3.668   7.538   3.138  0.4741  1.8704 -0.1699
21362SOL    HW265528   3.637   7.638   3.029  1.2502  0.0500 -2.1369
21363SOL     OW65529   7.913   3.223   2.683 -0.4000 -0.6229 -0.6105
21363SOL    HW165530   7.833   3.227   2.736  0.5301  0.7497  0.7836
21363SOL    HW265531   7.979   3.187   2.742  0.1695 -1.0946 -1.5241
21364SOL     OW65532   5.422   6.707   0.802  0.3302 -0.0019  0.0684
21364SOL    HW165533   5.477   6.751   0.867  1.0651 -0.5292 -0.1844
21364SOL    HW265534   5.416   6.768   0.729  0.6205  0.0444  0.0826
21365SOL     OW65535   0.961   0.399   3.470 -0.3226  0.1308  0.2237
21365SOL    HW165536   1.033   0.379   3.411 -0.1457  0.8602  0.1752
21365SOL    HW265537   0.978   0.489   3.498 -0.6898 -0.0216  0.9675
21366SOL     OW65538   7.130   4.181   0.463  0.2864 -0.3462 -0.0339
21366SOL    HW165539   7.118   4.101   0.412 -0.0748  0.4267 -1.1877
21366SOL    HW265540   7.206   4.162   0.519  1.3763 -0.8429 -1.6155
21367SOL     OW65541   5.874   1.540  10.612  0.0851  0.1308 -0.3826
21367SOL    HW165542   5.822   1.492  10.548 -0.6779  0.2874  0.1114
21367SOL    HW265543   5.964   1.514  10.593 -0.3198 -1.8299  0.1236
21368SOL     OW65544   6.231   6.892  10.278 -0.4783 -0.0975 -0.6692
21368SOL    HW165545   6.286   6.818  10.250  2.6501  1.4583  0.8726
21368SOL    HW265546   6.272   6.969  10.239 -2.3498  1.0885 -0.4387
21369SOL     OW65547   1.042   4.797   1.712 -0.6579 -0.4102 -0.1148
21369SOL    HW165548   1.038   4.747   1.630 -3.2222  0.3203 -0.5187
21369SOL    HW265549   1.041   4.731   1.781 -0.9811 -0.9835 -0.6569
21370SOL     OW65550   5.949   6.411   3.361  0.0819  0.2919  0.7333
21370SOL    HW165551   5.979   6.335   3.411  0.7163  0.5723  0.7892
21370SOL    HW265552   5.854   6.401   3.357  0.2850 -1.4719 -0.8551
21371SOL     OW65553   3.079   4.748   7.351 -0.3076 -0.0958 -0.0894
21371SOL    HW165554   3.162   4.744   7.400  1.2201 -0.6005 -2.5335
21371SOL    HW265555   3.073   4.839   7.322 -1.0147  0.1099  0.6555
21372SOL     OW65556   5.808   5.981   4.603  0.3802  0.3649 -0.5966
21372SOL    HW165557   5.734   5.984   4.542  0.6233  1.0540 -0.8662
21372SOL    HW265558   5.882   6.017   4.554  1.1417 -1.1825 -0.6444
21373SOL     OW65559   6.433   3.278  12.159  0.0713 -0.5321  0.4402
21373SOL    HW165560   6.378   3.298  12.235 -1.7076 -0.2179 -0.8759
21373SOL    HW265561   6.384   3.211  12.110  0.5789  0.1349 -1.0483
21374SOL     OW65562   0.673   6.869   6.748 -0.1391 -0.2373  0.3176
21374SOL    HW165563   0.689   6.775   6.749  0.0079 -0.2171  1.8808
21374SOL    HW265564   0.612   6.884   6.820  0.7911  1.0207  0.8756
21375SOL     OW65565   4.918   5.747   8.722 -0.3617  0.5959 -0.2633
21375SOL    HW165566   4.871   5.803   8.784  1.8668  3.1660 -0.6778
21375SOL    HW265567   4.999   5.724   8.768  0.4778  0.9692 -1.5184
21376SOL     OW65568   3.210   4.828   8.604 -0.7494 -0.3599 -0.1616
21376SOL    HW165569   3.204   4.831   8.509 -0.6182  0.4992 -0.1475
21376SOL    HW265570   3.131   4.782   8.632 -1.2275  0.1568 -0.6440
21377SOL     OW65571   6.732   0.269   9.094  0.1072  0.3159 -0.5861
21377SOL    HW165572   6.704   0.297   9.181 -0.2493 -2.0032  0.0989
21377SOL    HW265573   6.800   0.332   9.070 -1.5325  2.5739  0.2112
21378SOL     OW65574   6.066   4.524   7.177  0.1351 -0.1174  0.0561
21378SOL    HW165575   6.055   4.462   7.249  0.5330 -1.4415 -0.9791
21378SOL    HW265576   6.133   4.484   7.121 -1.6108 -0.1810 -2.1380
21379SOL     OW65577   6.372   4.259   3.067 -0.6378  0.1409 -0.0787
21379SOL    HW165578   6.303   4.322   3.087 -1.4388 -0.8313  0.2564
21379SOL    HW265579   6.429   4.306   3.006 -1.5676  0.9660 -0.3447
21380SOL     OW65580   7.432   2.095   6.824 -0.1070  0.0743 -0.3500
21380SOL    HW165581   7.525   2.110   6.809 -0.2110  1.4054  0.2124
21380SOL    HW265582   7.392   2.107   6.737  0.3030 -1.2424 -0.7473
21381SOL     OW65583   6.294   2.702   3.354  0.3018 -0.0791  0.2862
21381SOL    HW165584   6.358   2.753   3.304  0.5896  0.4778  1.2016
21381SOL    HW265585   6.214   2.755   3.353  0.9996  1.1384  2.4277
21382SOL     OW65586   4.004   4.740   7.133  0.9695  0.1716  0.3380
21382SOL    HW165587   4.015   4.647   7.155 -2.2522 -0.4736 -0.2300
21382SOL    HW265588   3.948   4.774   7.202 -3.2602 -0.0825 -2.5903
21383SOL     OW65589   7.402   6.470   9.722  0.5058  0.2714 -0.3357
21383SOL    HW165590   7.390   6.386   9.679  2.1726 -1.0166  1.5456
21383SOL    HW265591   7.367   6.458   9.810 -1.1601  2.2639 -0.6457
21384SOL     OW65592   6.286   6.243   6.439  0.7055 -0.0271 -0.8223
21384SOL    HW165593   6.192   6.241   6.425  0.0106  1.7142  2.4913
21384SOL    HW265594   6.314   6.326   6.401  0.8300 -0.2670 -1.2679
21385SOL     OW65595   2.864   2.295   3.319  0.1920  0.2500 -0.2426
21385SOL    HW165596   2.905   2.295   3.233 -0.6210  3.5149 -0.7790
21385SOL    HW265597   2.935   2.318   3.380  0.2445  0.6196 -0.4397
21386SOL     OW65598   4.510   3.840   5.627 -0.2564  0.5844  0.2700
21386SOL    HW165599   4.443   3.797   5.574 -0.7878  0.2170  1.1998
21386SOL    HW265600   4.592   3.823   5.581 -0.5460 -0.8255  0.2174
21387SOL     OW65601   2.302   3.900   9.046  0.4956 -0.0911 -0.0260
21387SOL    HW165602   2.311   3.820   8.994  0.1427  0.3084 -0.7154
21387SOL    HW265603   2.373   3.956   9.017 -0.0211  0.3426 -0.4797
21388SOL     OW65604   6.091   6.820  11.842 -0.2279 -0.1638  0.4308
21388SOL    HW165605   6.183   6.802  11.862 -0.1124  0.6373  0.6606
21388SOL    HW265606   6.043   6.789  11.919 -0.2038 -1.0316  0.1037
21389SOL     OW65607   7.441   5.578   4.106  0.1935  0.1927 -0.2431
21389SOL    HW165608   7.414   5.585   4.014 -1.0549 -1.8531 -0.0878
21389SOL    HW265609   7.378   5.634   4.153 -0.6268 -0.5487 -0.4238
21390SOL     OW65610   2.927   0.296   2.693 -1.0774  0.4592  0.0268
21390SOL    HW165611   2.873   0.299   2.614 -1.2906 -0.0461  0.1486
21390SOL    HW265612   2.923   0.204   2.722 -1.2108  0.6888  0.7694
21391SOL     OW65613   6.005   1.633   4.774  0.0130 -0.5398  0.1075
21391SOL    HW165614   6.088   1.667   4.741 -1.2075  1.0868 -1.4576
21391SOL    HW265615   5.967   1.587   4.700 -2.5373  2.7240 -0.8465
21392SOL     OW65616   7.391   4.670   2.115  0.0226  0.2738  0.4342
21392SOL    HW165617   7.450   4.715   2.054  1.6657  1.7726  2.9634
21392SOL    HW265618   7.449   4.622   2.174 -1.2142  1.4287  2.7496
21393SOL     OW65619   5.751   6.699   5.697 -0.3646 -0.4820  0.0301
21393SOL    HW165620   5.737   6.707   5.792  0.5826 -0.1295  0.1592
21393SOL    HW265621   5.688   6.634   5.669 -1.7903  0.5918  0.6228
21394SOL     OW65622   3.770   3.845  11.133 -0.2852 -0.2585  0.3921
21394SOL    HW165623   3.826   3.876  11.061 -0.2025  0.4212  0.7363
21394SOL    HW265624   3.681   3.859  11.101 -0.2896  2.0284  1.1743
21395SOL     OW65625   1.666   4.683   4.511 -0.4634  0.4382 -0.6307
21395SOL    HW165626   1.695   4.703   4.601  1.0374  0.1966 -1.0196
21395SOL    HW265627   1.678   4.765   4.463 -1.4366  0.6157 -0.5769
21396SOL     OW65628   0.660   3.510   2.446  0.1721  0.0971 -0.4044
21396SOL    HW165629   0.632   3.459   2.370  1.4907 -0.5104 -0.5061
21396SOL    HW265630   0.602   3.586   2.447 -0.8096 -0.6204 -1.1626
21397SOL     OW65631   0.535   5.779   0.037 -0.5813 -0.2359 -0.1696
21397SOL    HW165632   0.626   5.789   0.012 -1.0096 -0.7883 -2.1290
21397SOL    HW265633   0.521   5.685   0.041 -0.9686 -0.1543  0.5273
21398SOL     OW65634   4.286   1.390   3.296 -0.1466  0.3234  0.1817
21398SOL    HW165635   4.355   1.352   3.350 -0.0714  0.3363  0.0959
21398SOL    HW265636   4.333   1.442   3.231 -0.1256 -1.1935 -1.0860
21399SOL     OW65637   2.905   3.468  10.396  0.6320 -0.2345  0.5518
21399SOL    HW165638   2.931   3.462  10.304  2.6174  0.0279  1.0523
21399SOL    HW265639   2.897   3.377  10.424  1.7745 -0.3527  0.5520
21400SOL     OW65640   3.157   2.433   7.514  0.0380 -0.2539 -0.0958
21400SOL    HW165641   3.128   2.519   7.484 -1.0059 -0.8208 -0.8047
21400SOL    HW265642   3.076   2.389   7.539  0.5877 -0.9352  0.5090
21401SOL     OW65643   2.471   5.411   4.570 -0.1487 -0.0397 -0.1724
21401SOL    HW165644   2.491   5.467   4.645 -1.2106 -1.1601  1.0086
21401SOL    HW265645   2.524   5.446   4.499  2.0779  0.1755  1.4713
21402SOL     OW65646   0.040   4.614  11.169 -0.8507 -0.1653  0.4513
21402SOL    HW165647   0.120   4.653  11.135 -1.6121  1.9609  0.9479
21402SOL    HW265648   0.069   4.561  11.243  0.1655  0.0935  0.2573
21403SOL     OW65649   3.054   2.405   7.108  0.6798  0.2525 -0.5433
21403SOL    HW165650   3.049   2.483   7.053  2.6416 -0.1827 -1.3964
21403SOL    HW265651   2.965   2.370   7.108 -0.5238  2.9756  0.6724
21404SOL     OW65652   7.652   6.075   0.997 -0.4531  0.2157  0.0401
21404SOL    HW165653   7.604   6.007   0.949 -2.8282  2.4158 -0.9550
21404SOL    HW265654   7.593   6.150   0.998  1.4415  1.8564  2.3495
21405SOL     OW65655   3.560   1.232   7.956 -0.0685  0.6971 -0.0757
21405SOL    HW165656   3.473   1.201   7.979  0.2315  1.3658  2.1313
21405SOL    HW265657   3.608   1.154   7.930 -0.9892  0.1674 -0.2023
21406SOL     OW65658   7.615   6.136   7.522  0.5576  0.1724 -0.0575
21406SOL    HW165659   7.608   6.049   7.483  0.1505  0.1427  0.0799
21406SOL    HW265660   7.544   6.186   7.482  0.0817  0.1189  0.7066
21407SOL     OW65661   2.644   4.614   7.312 -0.5241 -0.3837  0.0873
21407SOL    HW165662   2.551   4.591   7.300 -1.1686  0.9930  2.0662
21407SOL    HW265663   2.660   4.601   7.405  1.4532 -1.0599 -0.2968
21408SOL     OW65664   3.598   5.023   7.996  0.1620 -0.7222  0.2068
21408SOL    HW165665   3.649   5.059   7.923 -0.7819 -0.4002 -0.2995
21408SOL    HW265666   3.658   4.961   8.037  1.0557 -0.1820 -0.2335
21409SOL     OW65667   1.893   3.281   6.554  0.3205  0.2522  0.6133
21409SOL    HW165668   1.934   3.265   6.469  0.7331 -2.2313  1.2071
21409SOL    HW265669   1.804   3.310   6.533  0.5656  0.1287 -0.6595
21410SOL     OW65670   3.525   5.095   1.774 -0.4044 -0.0213 -0.0225
21410SOL    HW165671   3.592   5.090   1.842  0.6104 -1.1472 -1.0737
21410SOL    HW265672   3.486   5.007   1.772 -0.6204  0.0857 -0.7113
21411SOL     OW65673   1.466   3.945   6.821 -0.5008 -0.1404  0.3334
21411SOL    HW165674   1.535   3.941   6.754 -1.1427  0.6612 -0.3886
21411SOL    HW265675   1.458   4.037   6.843 -1.3842 -0.2158  0.3694
21412SOL     OW65676   0.747   5.695   9.881 -0.3907  0.3065  0.7033
21412SOL    HW165677   0.700   5.723   9.959 -0.3534  0.1333  0.7865
21412SOL    HW265678   0.785   5.611   9.904 -0.0400  0.4465  0.6333
21413SOL     OW65679   5.262   1.881   1.757  0.2712  0.1042  0.1975
21413SOL    HW165680   5.354   1.907   1.754  0.1041  0.8258  1.0525
21413SOL    HW265681   5.259   1.801   1.704  1.4562 -0.1434  0.4683
21414SOL     OW65682   4.663   6.398   4.280 -0.1546 -0.3615 -0.0184
21414SOL    HW165683   4.683   6.448   4.359 -0.4391 -1.2881  0.6613
21414SOL    HW265684   4.570   6.378   4.286 -0.3575  0.2063 -0.9877
21415SOL     OW65685   7.398   4.440   8.367 -0.0655  0.2434  0.1589
21415SOL    HW165686   7.453   4.393   8.305 -1.6048 -0.8406 -0.4557
21415SOL    HW265687   7.445   4.522   8.384  2.3137 -1.1129  0.6376
21416SOL     OW65688   1.627   6.991   5.215 -0.1071  0.0178 -0.2158
21416SOL    HW165689   1.704   7.036   5.181  0.5653 -1.3434 -0.5545
21416SOL    HW265690   1.651   6.898   5.214 -1.5147 -0.3741  0.2899
21417SOL     OW65691   5.845   1.598   3.934 -0.3822  0.1357 -0.3746
21417SOL    HW165692   5.862   1.691   3.950 -0.5649  0.1782 -0.4293
21417SOL    HW265693   5.927   1.565   3.898 -0.6311  0.4925 -1.2997
21418SOL     OW65694   3.406   0.422   0.275  0.5189  0.2882  0.0191
21418SOL    HW165695   3.489   0.395   0.315  1.0379  1.3531 -0.2743
21418SOL    HW265696   3.432   0.490   0.212 -0.4077 -0.4269 -1.1862
21419SOL     OW65697   0.735   5.341   8.067 -0.3451 -0.6962 -0.4442
21419SOL    HW165698   0.735   5.339   7.972  2.6955  0.3148 -0.5589
21419SOL    HW265699   0.755   5.251   8.093  0.6119 -0.6227 -0.8688
21420SOL     OW65700   6.184   7.440  11.281  0.2119 -0.1653  0.2713
21420SOL    HW165701   6.273   7.415  11.255 -0.6652 -2.3079 -0.8575
21420SOL    HW265702   6.195   7.526  11.323  2.7991 -0.3963  0.2148
21421SOL     OW65703   6.660   6.257   0.158 -0.5142  0.2474 -0.5749
21421SOL    HW165704   6.626   6.347   0.158 -0.1182  0.4183 -1.7781
21421SOL    HW265705   6.748   6.264   0.195 -1.2269  0.0200  1.2382
21422SOL     OW65706   1.959   4.485   6.414  0.2740  0.7589 -0.3825
21422SOL    HW165707   1.914   4.406   6.386  0.1212 -0.0402  1.9066
21422SOL    HW265708   1.901   4.557   6.390 -0.2406  0.0636 -1.2222
21423SOL     OW65709   5.510   4.067   8.473 -0.4759  0.2321 -0.5174
21423SOL    HW165710   5.415   4.085   8.475 -0.5288  0.0890 -1.3550
21423SOL    HW265711   5.516   3.973   8.456 -0.1766 -0.0429  0.9366
21424SOL     OW65712   0.591   6.152   6.398 -0.2154 -0.4226 -0.0240
21424SOL    HW165713   0.617   6.211   6.327  0.9085  0.0209  0.7373
21424SOL    HW265714   0.495   6.157   6.399 -0.1359  2.1296  0.6066
21425SOL     OW65715   1.187   2.464   8.144  0.2271 -0.1410  0.0879
21425SOL    HW165716   1.125   2.474   8.072  1.7709  0.5173 -1.1840
21425SOL    HW265717   1.132   2.438   8.219 -1.3756 -1.2075 -1.3757
21426SOL     OW65718   3.387   5.994   4.235 -0.3648 -0.2175  0.1641
21426SOL    HW165719   3.375   5.937   4.158  2.3645  2.5835 -2.6326
21426SOL    HW265720   3.476   5.976   4.264  0.4058  2.1149 -0.5162
21427SOL     OW65721   5.510   3.975  11.838 -0.6297 -0.0338 -0.7068
21427SOL    HW165722   5.430   4.018  11.809 -1.1415 -0.0819  0.5900
21427SOL    HW265723   5.517   3.997  11.931  0.6128 -0.4263 -0.6854
21428SOL     OW65724   4.855   4.042   3.961  0.3073 -0.3922  0.5818
21428SOL    HW165725   4.821   4.125   3.994  1.5153 -0.3756  1.8602
21428SOL    HW265726   4.809   3.975   4.012 -1.0397 -0.5771 -0.7946
21429SOL     OW65727   5.931   7.826  11.186  0.1431 -0.5991 -0.3943
21429SOL    HW165728   5.935   7.835  11.281  1.2868  1.9533 -0.6079
21429SOL    HW265729   5.966   7.739  11.169  0.4316 -0.9012  1.4690
21430SOL     OW65730   0.958   6.907   4.613 -0.0336  0.0854 -0.5540
21430SOL    HW165731   0.997   6.962   4.681 -0.9079 -0.1851  0.1767
21430SOL    HW265732   0.874   6.879   4.649  0.8536 -2.7043 -0.4085
21431SOL     OW65733   0.694   4.077   5.155 -0.0456 -0.1883 -0.4417
21431SOL    HW165734   0.604   4.048   5.171  0.2697 -1.3221 -0.5963
21431SOL    HW265735   0.744   3.995   5.153  1.3836  0.5220  2.0150
21432SOL     OW65736   5.548   1.237   6.500 -0.1850 -0.2315  0.0206
21432SOL    HW165737   5.515   1.147   6.498 -1.2961  0.1615  0.0070
21432SOL    HW265738   5.470   1.292   6.498  0.3805  0.7387  1.7753
21433SOL     OW65739   2.239   1.532   9.062  0.3989 -0.2824  0.5992
21433SOL    HW165740   2.157   1.483   9.051 -0.4728  0.8554  1.7636
21433SOL    HW265741   2.307   1.464   9.063 -0.3021 -1.1599 -1.9333
21434SOL     OW65742   2.102   6.116   6.977 -0.4920  0.3212  0.3142
21434SOL    HW165743   2.007   6.121   6.965 -0.6406 -2.1643  0.0505
21434SOL    HW265744   2.115   6.044   7.038  1.2115  1.3358  1.2321
21435SOL     OW65745   3.462   4.832   1.822  0.8655  0.5007 -0.3863
21435SOL    HW165746   3.422   4.773   1.759 -0.5378  1.3560 -0.3276
21435SOL    HW265747   3.490   4.776   1.894 -0.2032 -0.1180 -0.4444
21436SOL     OW65748   7.898   7.467   9.518 -0.3541 -0.5165 -0.0330
21436SOL    HW165749   7.825   7.435   9.465 -0.7904 -0.2942  0.4293
21436SOL    HW265750   7.975   7.453   9.463 -0.9409  1.0621 -1.3418
21437SOL     OW65751   1.915   1.803  10.617  0.2889 -0.3090  0.2218
21437SOL    HW165752   1.955   1.718  10.599  2.1570  0.5311  0.1088
21437SOL    HW265753   1.888   1.836  10.532  1.6597  0.1581 -0.0609
21438SOL     OW65754   7.717   1.040  11.898 -0.1673  1.0030 -0.2358
21438SOL    HW165755   7.789   0.992  11.859 -0.0796 -0.2887  1.4317
21438SOL    HW265756   7.737   1.042  11.991 -1.0353  2.8323 -0.0438
21439SOL     OW65757   0.932   4.205   8.759 -0.5163  0.1314 -0.9283
21439SOL    HW165758   0.884   4.286   8.741 -1.3468  0.1194  1.0541
21439SOL    HW265759   0.865   4.139   8.773  0.1337 -0.5408 -0.9115
21440SOL     OW65760   7.828   3.142   4.158 -0.0545 -0.6041  0.7759
21440SOL    HW165761   7.807   3.195   4.234  0.9035  1.3036 -0.2010
21440SOL    HW265762   7.744   3.125   4.115 -0.3491  0.5328  0.8776
21441SOL     OW65763   7.513   0.241   2.803 -0.1017 -0.1500  0.1111
21441SOL    HW165764   7.449   0.169   2.811  0.1535 -0.2797  1.2353
21441SOL    HW265765   7.460   0.320   2.808 -0.3884 -0.2427 -1.1618
21442SOL     OW65766   1.994   4.911   7.674 -0.5073 -0.1550 -0.0356
21442SOL    HW165767   1.959   4.998   7.654  0.7359  0.6108  0.9789
21442SOL    HW265768   2.078   4.928   7.717  0.1548 -1.8844 -0.5602
21443SOL     OW65769   6.285   7.466   1.830  0.4358  1.2412  0.1344
21443SOL    HW165770   6.193   7.456   1.854  0.5431  0.2780  0.1851
21443SOL    HW265771   6.332   7.465   1.913  0.6528 -0.2887  0.0169
21444SOL     OW65772   5.383   3.591   0.118  0.0955  0.3168  0.0275
21444SOL    HW165773   5.303   3.620   0.161 -0.7627 -1.0931 -0.5427
21444SOL    HW265774   5.451   3.599   0.186 -0.7357  0.5589  0.8434
21445SOL     OW65775   4.193   3.102   0.997 -0.2653  0.6797 -0.0002
21445SOL    HW165776   4.102   3.132   1.006 -0.8258 -0.4414 -1.4292
21445SOL    HW265777   4.235   3.170   0.945 -0.4575  0.9004  0.1300
21446SOL     OW65778   2.431   0.679   0.693 -0.7629 -0.4923  0.0066
21446SOL    HW165779   2.370   0.682   0.767  1.0772 -0.4541  1.6335
21446SOL    HW265780   2.494   0.611   0.717  1.0703  0.9350 -0.5061
21447SOL     OW65781   7.215   1.890  12.294  0.1123  0.4950 -0.5804
21447SOL    HW165782   7.261   1.817  12.252 -0.8484 -0.0762 -0.6703
21447SOL    HW265783   7.240   1.967  12.242  1.1344  0.2342 -0.4828
21448SOL     OW65784   1.956   4.933   3.359 -0.3092 -0.1829 -0.1198
21448SOL    HW165785   1.905   4.856   3.384  1.7229 -1.4024  0.5458
21448SOL    HW265786   1.950   4.991   3.435 -0.5581 -0.4068  0.0344
21449SOL     OW65787   4.303   3.011   5.597 -0.0777  0.0015 -0.7080
21449SOL    HW165788   4.358   2.979   5.668  1.3182  2.5884 -0.4894
21449SOL    HW265789   4.309   2.944   5.529  1.2271 -0.9863  0.3440
21450SOL     OW65790   6.287   6.313   1.791 -0.1564 -0.2717  0.1164
21450SOL    HW165791   6.325   6.397   1.815  0.3344 -0.0368 -1.3893
21450SOL    HW265792   6.354   6.248   1.812 -1.2897 -0.6028  3.2392
21451SOL     OW65793   7.636   0.661  10.781 -0.1989 -0.0162 -0.3944
21451SOL    HW165794   7.602   0.572  10.775  0.6420 -0.3391 -0.5994
21451SOL    HW265795   7.627   0.696  10.692 -0.2556  0.0036 -0.3810
21452SOL     OW65796   7.387   5.264   8.094 -0.0765 -0.1839 -0.6230
21452SOL    HW165797   7.298   5.272   8.060 -0.2791 -0.1142 -0.0993
21452SOL    HW265798   7.385   5.315   8.175  0.8321  0.9788 -1.3095
21453SOL     OW65799   4.489   1.484   3.915 -0.5258  0.0936 -0.1351
21453SOL    HW165800   4.430   1.560   3.910 -0.7471 -0.1701 -3.0704
21453SOL    HW265801   4.438   1.412   3.877 -0.0358 -1.3971  1.8673
21454SOL     OW65802   2.398   3.535  10.248  0.7291  0.4859 -0.1121
21454SOL    HW165803   2.321   3.513  10.196  0.7518  0.6895 -0.2296
21454SOL    HW265804   2.462   3.467  10.227 -0.4165 -1.4806  2.2033
21455SOL     OW65805   2.401   0.426   2.623 -0.1974  0.0358  0.2227
21455SOL    HW165806   2.319   0.462   2.591 -0.3138  0.7210  1.2583
21455SOL    HW265807   2.447   0.500   2.663  0.0253 -0.7284  1.4414
21456SOL     OW65808   1.070   7.437  10.706  0.4712  0.3485  0.1629
21456SOL    HW165809   1.032   7.518  10.672  1.0147  0.3589 -0.4406
21456SOL    HW265810   1.144   7.466  10.760  0.4315  0.2676  0.2615
21457SOL     OW65811   1.796   6.625   8.324  0.9006 -0.3936 -0.0052
21457SOL    HW165812   1.865   6.588   8.270  0.4176 -2.1566  0.5173
21457SOL    HW265813   1.841   6.662   8.400  1.3086 -1.3653  0.2435
21458SOL     OW65814   4.262   0.660   7.301  0.5796  0.3426 -0.4771
21458SOL    HW165815   4.258   0.741   7.351 -0.0678 -0.0266  0.0977
21458SOL    HW265816   4.194   0.670   7.234  1.7778  1.0383 -1.6178
21459SOL     OW65817   5.390   3.225   6.377 -0.6528  0.3980  0.0348
21459SOL    HW165818   5.333   3.261   6.445 -2.8324 -1.5890 -0.5866
21459SOL    HW265819   5.462   3.184   6.424 -0.4992  1.6732  0.9482
21460SOL     OW65820   6.497   0.316   0.359  0.0325 -0.1706 -0.1501
21460SOL    HW165821   6.575   0.352   0.317 -1.3739  0.0527 -2.7567
21460SOL    HW265822   6.530   0.242   0.410  1.8302 -0.9513 -2.2693
21461SOL     OW65823   6.974   4.324   3.883 -0.2487  0.1799 -0.3822
21461SOL    HW165824   6.890   4.368   3.880 -1.2935 -1.6899 -0.0646
21461SOL    HW265825   6.982   4.292   3.972  0.3825 -0.4153 -0.6409
21462SOL     OW65826   0.100   0.722   7.042 -0.4657 -0.2382 -0.2804
21462SOL    HW165827   0.055   0.640   7.062 -0.0114 -0.4843 -0.2332
21462SOL    HW265828   0.134   0.710   6.953  0.5213 -0.5279  0.1268
21463SOL     OW65829   6.714   7.360   5.897 -0.4492 -0.4680  0.3069
21463SOL    HW165830   6.740   7.270   5.919 -0.0653 -0.4537 -0.0679
21463SOL    HW265831   6.749   7.374   5.809 -0.6610 -0.0099  0.2930
21464SOL     OW65832   5.082   5.736   7.469 -0.1823  0.0089 -0.3492
21464SOL    HW165833   5.020   5.760   7.400 -1.8542 -1.6575  0.4860
21464SOL    HW265834   5.089   5.641   7.462 -0.1556 -0.1631  1.5748
21465SOL     OW65835   0.921   7.412   9.424  0.2853 -0.4825  0.2926
21465SOL    HW165836   0.948   7.459   9.504  2.6725 -1.3759  0.0980
21465SOL    HW265837   0.907   7.322   9.453 -1.5069 -0.2659  0.1569
21466SOL     OW65838   0.897   6.443   7.716  0.6465  0.0333 -0.0205
21466SOL    HW165839   0.981   6.488   7.722  1.7521 -1.3821 -2.9848
21466SOL    HW265840   0.917   6.352   7.736 -0.3245 -0.1917 -0.0289
21467SOL     OW65841   5.770   7.316   3.873  0.5925 -0.3085  0.6632
21467SOL    HW165842   5.836   7.247   3.873  0.7102 -0.2003  0.2796
21467SOL    HW265843   5.779   7.358   3.958 -0.3032 -1.5383  1.3884
21468SOL     OW65844   4.945   3.979   4.709  0.0539 -0.6738  0.2285
21468SOL    HW165845   4.882   3.938   4.769 -0.7255 -3.5097 -2.2891
21468SOL    HW265846   4.891   4.035   4.652  0.5015  0.3780  0.8057
21469SOL     OW65847   6.430   5.509   5.677  0.1939  0.4584 -0.5641
21469SOL    HW165848   6.356   5.519   5.618  0.3507  0.8678 -0.6969
21469SOL    HW265849   6.474   5.594   5.675  0.3306  0.4053 -0.0390
21470SOL     OW65850   6.484   3.338   5.624  0.9478  0.3788  0.1032
21470SOL    HW165851   6.447   3.409   5.570 -3.2574 -1.0108  0.7876
21470SOL    HW265852   6.501   3.267   5.563  0.4129  0.3235  0.0123
21471SOL     OW65853   2.850   2.353   3.838  0.5759  0.0735 -0.1841
21471SOL    HW165854   2.829   2.260   3.850  1.5987 -0.0247  0.9501
21471SOL    HW265855   2.781   2.385   3.779 -0.5095 -1.1114  0.3843
21472SOL     OW65856   3.084   5.825   3.549  0.5265 -0.2320  0.2251
21472SOL    HW165857   3.160   5.810   3.606  1.4243  0.5917 -0.6985
21472SOL    HW265858   3.111   5.788   3.465  0.5416  1.4262 -0.5347
21473SOL     OW65859   3.597   6.520   0.443 -0.4799 -0.1676  0.2554
21473SOL    HW165860   3.545   6.587   0.398  1.4053  0.1543 -1.6129
21473SOL    HW265861   3.598   6.446   0.382  2.4040  0.4014 -0.5207
21474SOL     OW65862   6.659   0.105   8.225  0.6417  0.1560  0.5750
21474SOL    HW165863   6.602   0.033   8.251 -0.4687  1.0865  0.8324
21474SOL    HW265864   6.685   0.146   8.307  2.3442 -0.6988  0.5108
21475SOL     OW65865   1.462   7.527   6.406 -0.5504  0.1216  0.7933
21475SOL    HW165866   1.444   7.616   6.437 -1.5221  0.5093 -0.7574
21475SOL    HW265867   1.508   7.540   6.323  1.2363 -0.8653  1.5806
21476SOL     OW65868   1.796   7.431   3.775  0.6971  0.5852 -0.2932
21476SOL    HW165869   1.759   7.368   3.836  0.7250  1.1009  0.2663
21476SOL    HW265870   1.863   7.383   3.727  1.4507  0.4579  0.8538
21477SOL     OW65871   5.132   3.914   1.546 -0.5175  0.4798 -0.0098
21477SOL    HW165872   5.056   3.857   1.556 -0.8966  1.2929  2.4594
21477SOL    HW265873   5.163   3.896   1.457 -2.1310 -1.6437 -0.2516
21478SOL     OW65874   6.163   4.417   0.610 -0.7820 -0.1373  0.8602
21478SOL    HW165875   6.166   4.511   0.626  0.5566 -0.0930  0.4309
21478SOL    HW265876   6.179   4.378   0.696 -0.7941  0.0238  0.9365
21479SOL     OW65877   5.166   2.168  10.900 -0.2231 -0.0473 -0.0776
21479SOL    HW165878   5.248   2.211  10.875 -0.3819 -0.7965 -2.1524
21479SOL    HW265879   5.111   2.175  10.822 -1.1306 -1.8678  0.3392
21480SOL     OW65880   6.841   5.748   2.184  0.8772  0.0905 -0.0350
21480SOL    HW165881   6.849   5.804   2.106  2.6382  0.1761  0.1644
21480SOL    HW265882   6.751   5.761   2.214  0.5632  1.0566 -1.2994
21481SOL     OW65883   0.044   6.398   8.743 -0.4439  0.2102 -0.1137
21481SOL    HW165884   0.026   6.424   8.833 -2.2231  0.7530 -0.5971
21481SOL    HW265885   0.110   6.461   8.713  1.9594 -1.3834  1.4630
21482SOL     OW65886   3.061   7.265   0.413  0.1276  0.2105 -0.1757
21482SOL    HW165887   2.992   7.323   0.380 -0.5527 -0.3627  0.2032
21482SOL    HW265888   3.142   7.312   0.394 -0.4355  1.8615  1.1994
21483SOL     OW65889   6.456   3.016   7.590  0.1106  0.1923  0.1112
21483SOL    HW165890   6.472   2.983   7.678  1.4866 -2.1424 -0.8851
21483SOL    HW265891   6.537   3.061   7.566  0.1603 -0.0904 -0.2841
21484SOL     OW65892   3.501   7.561   8.484  0.3582  0.1520  0.2061
21484SOL    HW165893   3.536   7.644   8.453  0.1986  0.2585  0.3151
21484SOL    HW265894   3.548   7.495   8.432  1.2924  0.2491  0.8900
21485SOL     OW65895   0.467   5.308   4.780  0.4869  0.4218  0.5989
21485SOL    HW165896   0.561   5.291   4.789  0.0037 -1.9173  1.9042
21485SOL    HW265897   0.447   5.369   4.850  0.8743  0.2387  0.8736
21486SOL     OW65898   3.838   5.678   5.007 -0.9367 -0.1627  0.2222
21486SOL    HW165899   3.756   5.693   5.056 -1.0518  0.5335 -0.1603
21486SOL    HW265900   3.827   5.591   4.969  0.1759 -1.8586  3.3759
21487SOL     OW65901   3.723   1.462   1.388  0.8890  0.4455 -0.4526
21487SOL    HW165902   3.655   1.442   1.324 -0.1561  0.4663  0.6285
21487SOL    HW265903   3.753   1.376   1.418 -1.1032  0.3645  1.5698
21488SOL     OW65904   6.931   1.339   7.195 -0.6100 -0.3824 -0.8675
21488SOL    HW165905   6.980   1.273   7.146  0.9243  2.1807 -3.0760
21488SOL    HW265906   6.840   1.325   7.171 -0.2407 -1.3055 -1.7770
21489SOL     OW65907   0.546   5.727   9.442 -0.3357 -0.5186 -0.2873
21489SOL    HW165908   0.591   5.707   9.360 -2.9799 -0.4643 -1.8825
21489SOL    HW265909   0.615   5.728   9.508  1.8649 -0.9006 -2.4369
21490SOL     OW65910   0.762   4.525  10.713  0.0068 -0.1735  0.5982
21490SOL    HW165911   0.835   4.490  10.661  0.1143  2.0260 -0.8280
21490SOL    HW265912   0.803   4.551  10.796  0.2448 -1.6354  0.9790
21491SOL     OW65913   6.543   3.902   3.559  0.5851  0.0944 -0.2359
21491SOL    HW165914   6.532   3.936   3.648 -1.0633 -1.2502  0.1252
21491SOL    HW265915   6.494   3.820   3.558  2.5826 -1.1984 -1.6969
21492SOL     OW65916   2.514   7.158   3.667  0.1863 -0.2660 -0.2800
21492SOL    HW165917   2.445   7.129   3.608  1.0031 -0.6114 -1.1061
21492SOL    HW265918   2.513   7.254   3.660  1.5479 -0.3337 -2.4528
21493SOL     OW65919   1.300   0.617  11.209 -0.0640 -0.0595  0.1309
21493SOL    HW165920   1.218   0.628  11.257  0.0726  0.5004  0.2433
21493SOL    HW265921   1.331   0.706  11.193 -0.1754 -0.2242 -1.1245
21494SOL     OW65922   1.808   1.322   8.747  0.3481  0.2320  0.5544
21494SOL    HW165923   1.772   1.300   8.661 -0.2192  0.0662  0.8277
21494SOL    HW265924   1.773   1.408   8.767  1.0572  0.5862  0.3127
21495SOL     OW65925   4.971   1.628   3.082  0.3285  0.4485  0.3639
21495SOL    HW165926   5.029   1.662   3.150 -0.5544 -1.2690  2.0881
21495SOL    HW265927   4.898   1.588   3.130 -0.8951  0.1237 -1.6395
21496SOL     OW65928   4.405   4.216   4.933  0.3266 -0.0128  0.6521
21496SOL    HW165929   4.415   4.294   4.878 -0.9083  1.1652  1.9919
21496SOL    HW265930   4.473   4.225   5.000  1.0708 -0.8246  0.0176
21497SOL     OW65931   2.851   0.692   1.690 -0.5095 -0.2165  0.1638
21497SOL    HW165932   2.759   0.674   1.709 -0.5833 -0.3328 -0.2860
21497SOL    HW265933   2.861   0.786   1.707 -1.4170  0.4500 -2.4258
21498SOL     OW65934   4.342   6.071   8.390 -0.2544 -0.2263 -0.5043
21498SOL    HW165935   4.286   6.070   8.312  1.2310 -0.6675 -1.6152
21498SOL    HW265936   4.362   6.164   8.404 -1.2789 -0.0624 -0.0694
21499SOL     OW65937   7.402   0.212   9.614  0.0920 -0.1103  0.5377
21499SOL    HW165938   7.497   0.202   9.612  0.2606  1.2764  0.5734
21499SOL    HW265939   7.369   0.142   9.558  1.1059 -0.8339  0.8281
21500SOL     OW65940   5.398   6.669  11.667  0.6107 -0.5791 -0.0472
21500SOL    HW165941   5.369   6.666  11.576 -1.0804  1.3318  0.3633
21500SOL    HW265942   5.354   6.596  11.709 -1.2691  0.4397 -0.1223
21501SOL     OW65943   6.673   2.270   4.626 -0.1309  0.1981  0.2852
21501SOL    HW165944   6.700   2.320   4.549  1.7826 -0.8993  0.1813
21501SOL    HW265945   6.608   2.326   4.669 -0.3715  1.3628 -1.4647
21502SOL     OW65946   3.169   4.914   2.879 -0.3478  0.2418  0.0569
21502SOL    HW165947   3.140   4.991   2.829 -0.4335  0.6717  0.7499
21502SOL    HW265948   3.248   4.885   2.834 -0.8835  0.1048 -0.8268
21503SOL     OW65949   6.482   4.086   2.495  0.3924  0.1754 -0.6532
21503SOL    HW165950   6.395   4.075   2.456 -1.1319  0.2273  2.3679
21503SOL    HW265951   6.488   4.179   2.515  0.1430 -0.1456  1.0962
21504SOL     OW65952   4.756   1.909   7.606  0.2744 -0.4375  0.2779
21504SOL    HW165953   4.729   1.998   7.583  1.8592  0.3653  1.3509
21504SOL    HW265954   4.674   1.864   7.627 -0.5581  0.7564 -0.3055
21505SOL     OW65955   1.035   6.195   3.375 -0.4309 -0.9742  0.1900
21505SOL    HW165956   1.057   6.167   3.464  1.1340 -0.5683 -0.0410
21505SOL    HW265957   1.032   6.290   3.380 -0.3249 -0.9496 -0.2051
21506SOL     OW65958   2.478   4.286   2.463 -0.6826 -0.2692  0.4081
21506SOL    HW165959   2.565   4.319   2.440 -0.2350  0.8089  3.2673
21506SOL    HW265960   2.487   4.191   2.455 -0.0935 -0.0803 -1.8870
21507SOL     OW65961   5.094   0.428   5.004  0.5035  0.1671 -0.5749
21507SOL    HW165962   5.091   0.521   4.984  0.0409  0.4362  0.6523
21507SOL    HW265963   5.145   0.389   4.932  1.3269  1.4592 -0.7174
21508SOL     OW65964   6.133   3.198   7.187  0.4065  0.0889  0.3756
21508SOL    HW165965   6.137   3.128   7.253  0.5337 -0.4109 -0.1569
21508SOL    HW265966   6.040   3.218   7.179  0.0316 -1.9785 -1.4770
21509SOL     OW65967   3.071   6.608   1.518 -0.3391  0.5546 -0.1998
21509SOL    HW165968   3.120   6.687   1.542 -0.9387  0.7397  0.4154
21509SOL    HW265969   3.012   6.593   1.591 -0.7271 -0.0645 -0.6368
21510SOL     OW65970   0.099   6.694   4.990 -0.6007  0.0156  0.1538
21510SOL    HW165971   0.058   6.621   4.944 -0.4467 -0.0973  0.1949
21510SOL    HW265972   0.162   6.730   4.927  1.4244 -1.6799  1.0841
21511SOL     OW65973   0.594   2.717   1.452 -0.3784  0.0945  0.1811
21511SOL    HW165974   0.537   2.781   1.409  1.0208  1.7504  0.6719
21511SOL    HW265975   0.654   2.688   1.383 -0.9286 -0.6467 -0.0084
21512SOL     OW65976   3.329   2.294   4.076 -0.2079  0.4230  0.1838
21512SOL    HW165977   3.318   2.225   4.011 -0.3534  0.8900 -0.2890
21512SOL    HW265978   3.386   2.256   4.143 -1.2432 -0.5847  0.5375
21513SOL     OW65979   2.088   6.456   2.368  0.1711 -0.1839 -0.1290
21513SOL    HW165980   2.140   6.375   2.366 -1.6021 -1.3941  0.5632
21513SOL    HW265981   2.096   6.486   2.459 -0.6880 -0.6305  0.1009
21514SOL     OW65982   3.655   1.970   6.483  0.2477  0.1799  0.4358
21514SOL    HW165983   3.592   1.951   6.553  0.0805  0.3969  0.3460
21514SOL    HW265984   3.615   2.043   6.435 -0.3288 -0.8900 -0.7743
21515SOL     OW65985   3.990   6.601   2.222 -0.1835  0.0863  0.2652
21515SOL    HW165986   3.979   6.692   2.193 -0.6508 -0.3670 -1.0652
21515SOL    HW265987   3.906   6.560   2.204  0.2677 -0.8003  0.1300
21516SOL     OW65988   0.486   2.912  10.204  0.0730 -0.4968 -0.2272
21516SOL    HW165989   0.499   3.001  10.172 -0.5662 -0.6129 -0.8426
21516SOL    HW265990   0.446   2.923  10.290 -0.6844 -0.1793 -0.6085
21517SOL     OW65991   4.571   0.080   4.867  0.2433  0.2638 -0.3007
21517SOL    HW165992   4.567   0.150   4.801 -0.2886  1.9011  1.3915
21517SOL    HW265993   4.622   0.117   4.938  0.8210 -1.4777  0.2348
21518SOL     OW65994   7.891   5.455   6.093 -0.3779  0.0688 -1.0412
21518SOL    HW165995   7.836   5.511   6.148  0.8109  1.3494 -1.1180
21518SOL    HW265996   7.842   5.447   6.011 -0.3927  1.3053 -1.1661
21519SOL     OW65997   3.757   1.142   4.488 -0.5011  0.0552  0.3754
21519SOL    HW165998   3.845   1.105   4.502 -0.3087  1.1419  2.4652
21519SOL    HW265999   3.769   1.206   4.419  0.2836 -0.0465  0.4043
21520SOL     OW66000   0.142   7.412   9.313 -0.0073  0.1293 -0.5431
21520SOL    HW166001   0.091   7.333   9.295 -0.0492  0.2043 -0.7586
21520SOL    HW266002   0.210   7.412   9.246  0.4888 -0.1533 -0.0397
21521SOL     OW66003   3.295   1.221   4.671  0.6323 -0.1137  0.2007
21521SOL    HW166004   3.273   1.197   4.581  0.7887 -1.4588  0.5004
21521SOL    HW266005   3.390   1.212   4.676  0.5961 -0.3044  0.5746
21522SOL     OW66006   5.534   4.473   7.376  0.4719  0.0479  0.4249
21522SOL    HW166007   5.552   4.391   7.330  1.5052  0.6747 -0.3165
21522SOL    HW266008   5.496   4.446   7.460  0.0101 -1.1526 -0.1533
21523SOL     OW66009   3.044   2.406   8.387 -0.2850  0.6267  0.0787
21523SOL    HW166010   3.058   2.374   8.297  0.2033  1.2424 -0.0663
21523SOL    HW266011   2.953   2.436   8.388 -0.4060  0.2796 -0.1001
21524SOL     OW66012   7.830   5.949   4.145  0.2959 -0.1531  0.2931
21524SOL    HW166013   7.881   5.904   4.213 -1.0381  0.1284  1.5308
21524SOL    HW266014   7.861   6.039   4.149  0.2208 -0.1362  0.5509
21525SOL     OW66015   0.498   2.464   4.385  0.0069 -0.4232 -0.1385
21525SOL    HW166016   0.422   2.422   4.425  0.2090  0.4602  1.2360
21525SOL    HW266017   0.545   2.392   4.342 -2.2665 -0.8130 -2.2380
21526SOL     OW66018   7.853   4.634  10.768 -0.0071 -0.2118 -0.0630
21526SOL    HW166019   7.810   4.654  10.851 -0.4849  0.3977 -0.4418
21526SOL    HW266020   7.946   4.648  10.786 -0.2521  1.8875 -0.1265
21527SOL     OW66021   7.452   6.335   2.875 -0.2273 -0.1824  0.0018
21527SOL    HW166022   7.503   6.330   2.794  1.0706  1.6322  0.6514
21527SOL    HW266023   7.362   6.347   2.845 -0.1628 -2.1788 -1.1567
21528SOL     OW66024   6.406   0.369   4.899  0.0978  0.2194  0.4001
21528SOL    HW166025   6.377   0.325   4.978 -2.6008  1.7977  0.4265
21528SOL    HW266026   6.476   0.428   4.928  0.3507 -0.4932  1.2534
21529SOL     OW66027   7.644   2.140   1.073  0.0942 -0.0974  0.2319
21529SOL    HW166028   7.730   2.170   1.041  0.4104 -0.9784  0.2419
21529SOL    HW266029   7.598   2.111   0.994 -1.0814  2.4122 -0.1201
21530SOL     OW66030   5.588   6.010   7.763 -0.0448  0.2317 -0.2932
21530SOL    HW166031   5.577   5.926   7.719  0.0990 -0.1837  0.4487
21530SOL    HW266032   5.680   6.033   7.751 -0.0048  0.1154 -0.2090
21531SOL     OW66033   6.076   4.135  11.660  0.2897  0.0087  0.3689
21531SOL    HW166034   6.034   4.120  11.575 -0.0865 -0.9975  0.7288
21531SOL    HW266035   6.153   4.189  11.639  0.2272 -0.2736 -0.6132
21532SOL     OW66036   0.405   5.361   3.701  0.1974 -0.0074  0.1068
21532SOL    HW166037   0.499   5.344   3.705  0.2828  0.3672 -0.2568
21532SOL    HW266038   0.379   5.331   3.614 -0.0230 -0.1143  0.2084
21533SOL     OW66039   5.316   3.881   1.772  0.3361 -0.2534 -0.1944
21533SOL    HW166040   5.247   3.943   1.791  0.8307 -0.4787  2.7812
21533SOL    HW266041   5.377   3.928   1.716 -1.5708  0.3289 -1.8680
21534SOL     OW66042   1.085   2.703  11.363 -0.0873 -0.2049 -0.3318
21534SOL    HW166043   1.171   2.683  11.400 -0.5677 -2.0193 -0.1187
21534SOL    HW266044   1.086   2.661  11.277 -1.2189 -1.4341  0.2202
21535SOL     OW66045   1.722   2.474   6.964 -0.2059 -0.1847 -0.7750
21535SOL    HW166046   1.740   2.518   6.881 -1.1056  0.7980 -0.4811
21535SOL    HW266047   1.650   2.525   7.003  0.8282 -0.0191  1.0539
21536SOL     OW66048   7.129   3.253   6.795 -0.4107  0.0510  0.0686
21536SOL    HW166049   7.040   3.222   6.783 -0.5034  0.4328 -0.2422
21536SOL    HW266050   7.144   3.314   6.723 -1.2346  3.0103  2.2106
21537SOL     OW66051   1.800   5.427   1.250  0.0349 -0.5404  0.0878
21537SOL    HW166052   1.724   5.484   1.261 -0.8939 -1.6772 -0.2677
21537SOL    HW266053   1.784   5.382   1.167  0.9228 -1.0564  0.1945
21538SOL     OW66054   4.222   2.503   5.200 -0.2435  0.6094 -0.7419
21538SOL    HW166055   4.280   2.525   5.127 -1.1195 -0.1170 -1.6934
21538SOL    HW266056   4.272   2.526   5.278 -0.1057  3.5076 -1.5551
21539SOL     OW66057   0.979   4.089   3.608 -1.0514  0.1548  0.0163
21539SOL    HW166058   0.991   4.017   3.670 -1.5101  1.0111  1.1483
21539SOL    HW266059   0.886   4.111   3.616 -0.9157  0.8647 -0.3074
21540SOL     OW66060   5.228   1.445  11.504  0.0129  0.5193 -0.2205
21540SOL    HW166061   5.227   1.355  11.474  1.1409  0.4898 -0.2311
21540SOL    HW266062   5.137   1.465  11.527  0.0647 -1.3161  1.8403
21541SOL     OW66063   5.987   2.277  11.967 -0.1203 -0.6658 -0.5668
21541SOL    HW166064   6.060   2.338  11.955 -1.4549  1.4090  1.2718
21541SOL    HW266065   5.909   2.329  11.949 -1.2989 -1.8848  0.8224
21542SOL     OW66066   6.252   5.188   1.961  0.1462 -0.0839  0.4829
21542SOL    HW166067   6.298   5.104   1.951  1.5617  0.7324 -0.1091
21542SOL    HW266068   6.321   5.252   1.977 -0.8656  1.0808  0.3589
21543SOL     OW66069   6.691   6.452   6.804 -0.2074 -0.3387 -0.2107
21543SOL    HW166070   6.676   6.545   6.784  0.0257 -0.1219  0.6100
21543SOL    HW266071   6.657   6.440   6.892  3.7290  0.0489  1.5644
21544SOL     OW66072   4.561   4.404   1.573 -0.5123 -0.4062  0.0712
21544SOL    HW166073   4.504   4.348   1.520 -1.0566  0.9977 -0.8977
21544SOL    HW266074   4.648   4.366   1.564 -0.7453 -0.6761 -1.1830
21545SOL     OW66075   1.337   7.118   5.466  0.1475 -0.2476 -0.2400
21545SOL    HW166076   1.374   7.047   5.518 -2.3503 -0.8063  0.8795
21545SOL    HW266077   1.301   7.075   5.388  1.7108  0.2882 -1.3110
21546SOL     OW66078   0.958   4.627  11.507  0.2669  0.1842  0.5982
21546SOL    HW166079   1.000   4.541  11.513 -0.9709 -0.5782 -1.1071
21546SOL    HW266080   0.864   4.608  11.504 -0.0596  1.6450  0.8074
21547SOL     OW66081   5.780   2.354  11.823  0.1116  0.2996 -0.1930
21547SOL    HW166082   5.688   2.369  11.845  0.0781  2.3694 -1.4810
21547SOL    HW266083   5.785   2.261  11.804 -1.2424 -0.2738  1.8700
21548SOL     OW66084   5.483   3.136   6.649 -0.2299  0.3843  0.0018
21548SOL    HW166085   5.553   3.089   6.606  0.1596 -3.0308  3.7466
21548SOL    HW266086   5.403   3.088   6.626 -0.1439 -0.8400  2.0139
21549SOL     OW66087   4.384   2.721   6.490  0.2015  0.2228  0.3229
21549SOL    HW166088   4.361   2.698   6.400  1.2513 -0.4616  0.2150
21549SOL    HW266089   4.445   2.652   6.518 -1.2045 -0.3951  2.0648
21550SOL     OW66090   2.916   6.485   9.386  0.1791  0.1623 -0.3006
21550SOL    HW166091   3.007   6.494   9.359 -0.2620  0.6401 -1.7008
21550SOL    HW266092   2.867   6.543   9.327 -0.9804  0.3016  0.7476
21551SOL     OW66093   5.682   5.417   9.855 -0.3320 -0.1945 -0.2469
21551SOL    HW166094   5.665   5.410   9.762  2.8135 -2.2713 -0.8322
21551SOL    HW266095   5.726   5.335   9.878  0.6892  1.0028  2.6161
21552SOL     OW66096   7.717   7.079  10.369  0.1335 -0.3384 -0.0117
21552SOL    HW166097   7.648   7.103  10.307  0.2968 -0.5732 -0.2863
21552SOL    HW266098   7.723   7.154  10.429  0.0705 -0.0459 -0.3640
21553SOL     OW66099   0.786   2.327   3.622 -0.0571  0.1873  0.3424
21553SOL    HW166100   0.716   2.301   3.682  0.4595 -0.7734  0.5389
21553SOL    HW266101   0.742   2.334   3.537 -0.0703 -2.4193  0.0508
21554SOL     OW66102   7.429   5.761  10.145  0.3653 -0.2246 -0.4666
21554SOL    HW166103   7.387   5.773  10.059  3.0354 -3.0239 -2.3708
21554SOL    HW266104   7.363   5.716  10.197 -1.1870  1.1916 -1.0960
21555SOL     OW66105   7.639   2.378   7.518 -0.2691  0.0898  0.1116
21555SOL    HW166106   7.613   2.387   7.610 -0.6682  0.4690 -0.0346
21555SOL    HW266107   7.556   2.381   7.470 -0.1383 -0.9426 -0.2106
21556SOL     OW66108   0.342   1.043  10.818  0.2258 -0.6486  0.1067
21556SOL    HW166109   0.373   1.134  10.821 -1.0469 -0.1994  0.0852
21556SOL    HW266110   0.267   1.041  10.877 -1.7571 -0.8866 -2.2638
21557SOL     OW66111   4.982   5.171   9.068  0.4064  0.4345 -0.9990
21557SOL    HW166112   5.041   5.170   8.993 -0.1059  0.4717 -1.4130
21557SOL    HW266113   4.913   5.108   9.045  1.1040 -0.8054  0.1600
21558SOL     OW66114   5.037   5.891  11.622 -0.0480  0.5271  0.0024
21558SOL    HW166115   5.053   5.889  11.716  0.1904 -0.3879 -0.0449
21558SOL    HW266116   4.967   5.955  11.611  0.2577  1.0020  0.7448
21559SOL     OW66117   6.556   3.819   7.073 -0.6460  0.6501 -0.4845
21559SOL    HW166118   6.576   3.912   7.065 -1.3283  0.7491 -1.1126
21559SOL    HW266119   6.479   3.815   7.130  1.3295  0.2359  2.4006
21560SOL     OW66120   4.487   7.158   9.425 -0.5403 -0.4989  0.5464
21560SOL    HW166121   4.543   7.084   9.448  0.5948  0.0004 -0.4820
21560SOL    HW266122   4.427   7.122   9.359  0.2583 -0.4419 -0.2371
21561SOL     OW66123   0.203   5.617  12.049 -0.3560 -0.0667  0.0372
21561SOL    HW166124   0.235   5.707  12.053 -1.5373  0.3405  2.6690
21561SOL    HW266125   0.236   5.577  12.130  0.1917 -2.0563 -1.0991
21562SOL     OW66126   5.173   0.719   6.318 -0.2216  0.3389 -0.0637
21562SOL    HW166127   5.103   0.675   6.269  0.4556  1.3909 -2.0734
21562SOL    HW266128   5.139   0.725   6.407 -1.9666 -0.7194 -0.6001
21563SOL     OW66129   2.252   5.109   3.480  0.0548 -0.2435 -0.1876
21563SOL    HW166130   2.162   5.087   3.504  0.1862 -1.3552 -0.6446
21563SOL    HW266131   2.294   5.134   3.563 -0.0288 -2.1063  0.4717
21564SOL     OW66132   5.229   6.899   9.525  0.1924 -0.2663  0.2609
21564SOL    HW166133   5.215   6.902   9.431 -0.4358  0.1604  0.3610
21564SOL    HW266134   5.319   6.870   9.536  0.2144 -0.4746 -0.4674
21565SOL     OW66135   0.655   7.582   3.957  0.4779 -0.2528 -0.5072
21565SOL    HW166136   0.585   7.519   3.975  1.1133 -0.6865  0.5649
21565SOL    HW266137   0.675   7.620   4.043  1.8651 -0.4773 -0.7210
21566SOL     OW66138   7.584   5.201  10.161  0.8648  0.0607 -0.1762
21566SOL    HW166139   7.510   5.161  10.206 -1.3649  1.3050 -2.4800
21566SOL    HW266140   7.642   5.127  10.140  0.6344 -0.8705  2.1546
21567SOL     OW66141   1.376   2.985  11.591 -0.0479  0.8403  0.5478
21567SOL    HW166142   1.337   3.065  11.555  1.4999  2.3232  1.9938
21567SOL    HW266143   1.430   2.951  11.520 -0.4724  1.2466  0.0220
21568SOL     OW66144   5.787   5.652  11.889  0.6054  0.4034 -0.1207
21568SOL    HW166145   5.737   5.733  11.876  0.2515  0.3027  0.5998
21568SOL    HW266146   5.877   5.677  11.867  1.0964  1.8710  3.0259
21569SOL     OW66147   7.295   0.542   5.773  0.2248 -0.5119  0.5595
21569SOL    HW166148   7.218   0.588   5.805 -0.6022  0.2071 -2.1758
21569SOL    HW266149   7.369   0.598   5.798 -0.3923  0.2024  0.8132
21570SOL     OW66150   1.460   3.835   4.806  0.1934  0.6327 -0.3632
21570SOL    HW166151   1.541   3.852   4.759 -0.4046  0.5571 -1.4690
21570SOL    HW266152   1.391   3.869   4.748 -0.5507  0.9356  0.6666
21571SOL     OW66153   3.605   3.211   0.370 -0.1130 -0.2435 -0.4762
21571SOL    HW166154   3.519   3.211   0.411 -0.4764  1.6687 -1.1734
21571SOL    HW266155   3.610   3.294   0.323  1.3803 -1.1410 -2.0132
21572SOL     OW66156   4.622   1.082   5.659 -0.0215  0.6244  0.2949
21572SOL    HW166157   4.578   1.017   5.604  0.7717 -0.3635  0.7807
21572SOL    HW266158   4.553   1.141   5.687 -0.7418  0.0964 -0.3177
21573SOL     OW66159   6.998   5.986   0.698  0.4919  0.5704  0.5200
21573SOL    HW166160   7.005   5.924   0.625 -0.9014  0.4598  0.4366
21573SOL    HW266161   7.084   6.025   0.705  1.0277 -0.4073 -0.3097
21574SOL     OW66162   1.893   6.890   2.983  0.5210  0.1836  0.2201
21574SOL    HW166163   1.868   6.970   3.029  1.7250 -1.0714  3.3641
21574SOL    HW266164   1.948   6.919   2.911  0.0980  2.2219  0.6654
21575SOL     OW66165   2.979   4.534  11.980  0.6537 -0.2835 -0.1490
21575SOL    HW166166   3.035   4.613  11.977  0.3899 -0.1233 -1.3837
21575SOL    HW266167   2.970   4.508  11.888 -1.7183 -0.0177 -0.0473
21576SOL     OW66168   4.396   2.541   8.315 -0.2253  0.3796  0.5279
21576SOL    HW166169   4.373   2.619   8.366  1.0563  0.9856  0.1961
21576SOL    HW266170   4.375   2.564   8.225 -1.5251 -0.3277  0.6216
21577SOL     OW66171   7.608   2.714   9.200  0.3076  0.1046  0.4416
21577SOL    HW166172   7.663   2.774   9.250 -0.5485  0.1966  1.3165
21577SOL    HW266173   7.667   2.672   9.138  1.4463 -0.0869  1.6152
21578SOL     OW66174   2.611   4.332  10.742 -0.4373 -0.1631 -0.6135
21578SOL    HW166175   2.699   4.351  10.772 -0.0463 -0.3985 -1.5863
21578SOL    HW266176   2.585   4.411  10.693 -0.6350 -0.2291 -0.6150
21579SOL     OW66177   3.758   5.420   6.832 -0.3144 -0.1344 -0.3386
21579SOL    HW166178   3.854   5.414   6.838 -0.2595  0.6578 -0.2582
21579SOL    HW266179   3.734   5.488   6.895 -1.2667 -2.4651  1.9580
21580SOL     OW66180   3.079   5.828  12.242  0.0880  0.4101  0.1065
21580SOL    HW166181   3.045   5.746  12.207  0.4942  0.8303 -1.3676
21580SOL    HW266182   3.169   5.832  12.209  0.1491  1.3386  0.3516
21581SOL     OW66183   0.596   5.708   7.284 -0.0198  0.1095  0.4825
21581SOL    HW166184   0.539   5.709   7.207  0.6555 -0.6426 -0.0539
21581SOL    HW266185   0.675   5.662   7.254  0.5682  0.4844  1.4091
21582SOL     OW66186   2.767   4.381   8.572  0.4331 -0.1255  0.3983
21582SOL    HW166187   2.821   4.457   8.553  0.5907 -0.4143 -0.3164
21582SOL    HW266188   2.803   4.311   8.518  0.3143 -0.7225  1.0706
21583SOL     OW66189   6.291   1.890  11.458 -0.3452  0.4683 -0.1770
21583SOL    HW166190   6.278   1.966  11.514 -0.0736 -0.5825  1.3641
21583SOL    HW266191   6.381   1.862  11.474 -0.8363 -0.9556  0.3195
21584SOL     OW66192   1.727   2.916   6.479 -0.5070  0.5449  0.0854
21584SOL    HW166193   1.727   2.839   6.421 -1.4064  0.1821  0.5301
21584SOL    HW266194   1.767   2.985   6.427  0.5437 -0.2853 -0.2433
21585SOL     OW66195   2.890   2.978   9.401 -0.6408  0.4899  0.1774
21585SOL    HW166196   2.892   3.027   9.319  1.0115 -0.0233 -0.1359
21585SOL    HW266197   2.955   2.908   9.389  0.2383  0.8863  2.1843
21586SOL     OW66198   0.832   4.537   3.282 -0.0631  1.1535  0.3878
21586SOL    HW166199   0.844   4.461   3.338  0.4561  0.6797 -0.3362
21586SOL    HW266200   0.917   4.547   3.238 -0.3860  1.6485 -0.1262
21587SOL     OW66201   4.091   5.471   3.952 -0.1211  0.6455 -0.2643
21587SOL    HW166202   4.097   5.561   3.921 -0.5168  1.2322  1.2833
21587SOL    HW266203   4.004   5.442   3.923  1.1136 -0.3583 -3.4389
21588SOL     OW66204   5.318   2.232   6.138  0.6192 -0.0034 -0.2215
21588SOL    HW166205   5.342   2.322   6.115  1.2228 -0.0980  0.0093
21588SOL    HW266206   5.222   2.233   6.144  0.6074  0.5687 -0.4446
21589SOL     OW66207   7.786   6.874   2.303  0.1993 -0.6216 -0.0301
21589SOL    HW166208   7.780   6.918   2.219  1.0928 -1.3540 -0.4955
21589SOL    HW266209   7.866   6.821   2.297  0.4817 -0.3965  1.4113
21590SOL     OW66210   7.045   7.668   7.924  0.1407  0.5273 -0.0401
21590SOL    HW166211   7.112   7.656   7.992  1.1889 -0.4702 -1.1963
21590SOL    HW266212   6.968   7.698   7.972  0.9921  0.3627  1.5205
21591SOL     OW66213   2.048   6.843   6.017  0.2962 -0.9749  0.2244
21591SOL    HW166214   1.977   6.855   6.080 -1.5863  1.2090 -2.1310
21591SOL    HW266215   2.093   6.927   6.016 -0.1382 -0.7319 -1.7618
21592SOL     OW66216   3.067   1.285  12.006 -0.1843  0.0549 -0.0173
21592SOL    HW166217   2.973   1.303  12.005 -0.1932  0.0292  0.4944
21592SOL    HW266218   3.100   1.334  12.081  0.3395  0.7104 -0.6623
21593SOL     OW66219   6.600   3.749   1.874  0.4750 -0.0429  0.2922
21593SOL    HW166220   6.624   3.841   1.872 -0.1887  0.1880  1.8370
21593SOL    HW266221   6.505   3.748   1.862 -0.0325 -0.2212  3.4479
21594SOL     OW66222   7.059   0.999   4.757  0.2389  0.7484  0.2979
21594SOL    HW166223   6.998   1.036   4.821  0.1142  2.5881 -0.8355
21594SOL    HW266224   7.033   1.037   4.674  0.6644 -1.2739 -0.8333
21595SOL     OW66225   4.141   7.280  10.355 -0.1736 -0.5180  0.8590
21595SOL    HW166226   4.196   7.264  10.278  1.4371  2.0669  1.3427
21595SOL    HW266227   4.185   7.231  10.425 -0.0828 -0.6960  0.6801
21596SOL     OW66228   1.254   7.554  10.928 -0.0888  0.0534  0.0258
21596SOL    HW166229   1.240   7.610  10.852 -0.0629 -0.1556 -0.1338
21596SOL    HW266230   1.222   7.606  11.002 -0.5408  0.0768 -0.1838
21597SOL     OW66231   0.874   2.790  10.279  0.1582 -0.2709  0.0616
21597SOL    HW166232   0.854   2.747  10.362  0.0931  0.1959  0.2960
21597SOL    HW266233   0.944   2.852  10.301  1.5127 -1.4915 -0.6293
21598SOL     OW66234   1.030   2.506   6.204 -0.3677 -0.1302  0.6577
21598SOL    HW166235   1.046   2.412   6.218  0.6170  0.0263  0.6631
21598SOL    HW266236   1.097   2.532   6.142  0.1634  0.8405  1.6134
21599SOL     OW66237   1.626   5.410  11.867  0.9608  0.4730  0.0130
21599SOL    HW166238   1.665   5.422  11.953 -1.1474 -0.0068  1.1030
21599SOL    HW266239   1.694   5.366  11.815  1.6978 -0.7713  1.9374
21600SOL     OW66240   2.101   1.400   5.732  0.4766 -0.1548 -0.4209
21600SOL    HW166241   2.148   1.318   5.717 -0.6583 -1.2734  1.6747
21600SOL    HW266242   2.169   1.462   5.759  1.0408 -1.1368  0.4670
21601SOL     OW66243   2.456   1.704   3.076  0.8403  0.1811 -0.8378
21601SOL    HW166244   2.461   1.766   3.003  0.3823  0.3546 -0.7291
21601SOL    HW266245   2.367   1.668   3.071  0.2839  1.2496  0.4714
21602SOL     OW66246   5.361   4.846   2.545  0.1290 -0.0274 -0.0061
21602SOL    HW166247   5.320   4.931   2.532  2.1059  1.0302  0.1849
21602SOL    HW266248   5.329   4.792   2.473 -1.8572  0.5692  0.3745
21603SOL     OW66249   5.664   1.171  10.085 -0.0841  0.0681  0.9711
21603SOL    HW166250   5.628   1.088  10.116  1.1135 -0.7853  0.1782
21603SOL    HW266251   5.707   1.149  10.002  1.2753  1.2431  1.3323
21604SOL     OW66252   1.729   3.913   2.410  0.1335  0.0068 -0.1451
21604SOL    HW166253   1.679   3.992   2.433  0.5003  0.7642 -1.8088
21604SOL    HW266254   1.674   3.841   2.441 -0.5669  0.8880  0.7471
21605SOL     OW66255   6.725   4.904   8.988 -0.1140 -0.1095 -0.1491
21605SOL    HW166256   6.680   4.870   8.912  0.0305  0.7121 -0.6119
21605SOL    HW266257   6.657   4.948   9.040  0.1590  1.3970 -0.9984
21606SOL     OW66258   6.541   6.152   3.134  0.4278 -0.2871  0.0939
21606SOL    HW166259   6.478   6.154   3.207  0.3483 -1.3155  0.0645
21606SOL    HW266260   6.562   6.059   3.123  0.9060 -0.0821 -0.7988
21607SOL     OW66261   3.645   7.241   1.486 -0.1698  0.3407  0.0844
21607SOL    HW166262   3.615   7.175   1.548 -0.0173 -1.3915 -1.6004
21607SOL    HW266263   3.707   7.295   1.536  0.9845 -1.8025  1.0889
21608SOL     OW66264   5.072   1.072   7.052  0.0790  0.7185  0.3517
21608SOL    HW166265   5.023   1.143   7.096  0.7079  1.0951  0.4653
21608SOL    HW266266   5.063   0.997   7.111  0.1602  0.9647  0.6828
21609SOL     OW66267   7.157   6.041   1.034 -0.1355  0.0561  0.0086
21609SOL    HW166268   7.219   6.060   0.964  0.0449 -0.6959 -0.0444
21609SOL    HW266269   7.092   5.983   0.993 -0.4815  0.2690  0.2506
21610SOL     OW66270   0.735   3.475   5.801  0.2867 -0.5087  1.0169
21610SOL    HW166271   0.665   3.426   5.844 -0.2685  0.6109  1.4184
21610SOL    HW266272   0.815   3.446   5.845 -0.0237 -1.0542  1.2332
21611SOL     OW66273   2.761   1.701   5.645 -0.2963 -0.4800  0.0714
21611SOL    HW166274   2.783   1.791   5.620 -1.6347 -0.3287 -0.7289
21611SOL    HW266275   2.708   1.669   5.571 -1.6298 -1.1783  1.2768
21612SOL     OW66276   7.641   6.509   4.916 -0.3416 -0.0193  0.5623
21612SOL    HW166277   7.724   6.529   4.872 -0.6496 -1.1710 -0.6027
21612SOL    HW266278   7.645   6.415   4.932 -1.1002  0.0526  1.1926
21613SOL     OW66279   5.648   6.760  11.703 -0.0757  0.1215 -0.0212
21613SOL    HW166280   5.561   6.720  11.692  0.0813  0.0828 -1.3465
21613SOL    HW266281   5.638   6.819  11.778 -0.8294 -0.9834  0.7744
21614SOL     OW66282   2.857   3.850   2.575 -0.2992 -0.3891  0.5427
21614SOL    HW166283   2.952   3.838   2.568 -0.2023  0.1596  0.8972
21614SOL    HW266284   2.823   3.812   2.494 -0.0145 -2.8931  1.4806
21615SOL     OW66285   7.883   0.616   3.264 -0.2415 -0.0437  0.0282
21615SOL    HW166286   7.921   0.684   3.320 -0.0628  0.1672 -0.3496
21615SOL    HW266287   7.957   0.563   3.235 -0.1029  0.8882 -1.4182
21616SOL     OW66288   2.373   7.216   4.132 -0.0238 -0.1144 -0.0706
21616SOL    HW166289   2.312   7.288   4.117  0.3334 -0.0028 -1.0864
21616SOL    HW266290   2.328   7.158   4.193 -0.3413  0.9251  0.7222
21617SOL     OW66291   1.561   2.190   1.870  0.1473 -0.1910 -0.0502
21617SOL    HW166292   1.555   2.206   1.964  1.3416 -0.8671  0.1680
21617SOL    HW266293   1.587   2.098   1.863  0.7699  0.0406 -1.0118
21618SOL     OW66294   3.163   7.099   2.104  0.3228  0.0159  0.0635
21618SOL    HW166295   3.203   7.084   2.018  0.3075 -0.2168  0.0960
21618SOL    HW266296   3.088   7.040   2.106 -0.1950  0.6565 -0.1107
21619SOL     OW66297   1.155   3.823   4.128  0.1455 -0.0817  0.1027
21619SOL    HW166298   1.061   3.812   4.136  0.1821  0.2646  1.2161
21619SOL    HW266299   1.179   3.777   4.048 -1.0979  0.6132 -0.6994
21620SOL     OW66300   3.024   1.611   6.078  0.1682 -0.2118  0.2760
21620SOL    HW166301   3.010   1.521   6.109  2.8405 -0.3991  1.1604
21620SOL    HW266302   2.962   1.621   6.005 -2.3142 -1.7058  2.0127
21621SOL     OW66303   5.522   6.326   8.507 -0.0191 -0.1334  0.2667
21621SOL    HW166304   5.483   6.378   8.437 -1.1378 -1.2569  0.0244
21621SOL    HW266305   5.608   6.301   8.473  0.0064  0.4730 -0.1332
21622SOL     OW66306   3.991   5.962   5.287 -0.0408 -0.3065 -0.2056
21622SOL    HW166307   3.902   5.929   5.304  0.5322 -2.5367 -1.1851
21622SOL    HW266308   4.035   5.889   5.244  2.0131  1.0894 -0.5658
21623SOL     OW66309   4.701   2.255   2.712 -0.2163 -0.1037 -0.2936
21623SOL    HW166310   4.723   2.291   2.626  1.8982  0.9992  0.6310
21623SOL    HW266311   4.606   2.263   2.718 -0.2191  1.5317 -1.7952
21624SOL     OW66312   1.472   1.948   7.361 -0.3949 -0.0863  0.2970
21624SOL    HW166313   1.433   1.886   7.300 -1.1112 -0.8114  1.4648
21624SOL    HW266314   1.467   2.033   7.316 -1.5850 -0.4786 -0.3347
21625SOL     OW66315   1.957   7.815   8.715 -0.4430  0.4035  0.3200
21625SOL    HW166316   2.050   7.835   8.708 -0.1466 -1.1161 -0.6674
21625SOL    HW266317   1.927   7.866   8.791  0.8438  2.0265 -0.2115
21626SOL     OW66318   5.854   6.199   1.535 -0.8470  0.3848  0.4902
21626SOL    HW166319   5.860   6.231   1.445  0.2147 -1.7443 -0.2538
21626SOL    HW266320   5.770   6.232   1.567 -2.3475 -0.6935 -2.0651
21627SOL     OW66321   1.757   5.467  12.120 -0.1164  0.0526  0.1258
21627SOL    HW166322   1.820   5.524  12.075 -1.6501  1.3044 -0.5356
21627SOL    HW266323   1.799   5.445  12.203  1.7458 -0.2764 -0.8370
21628SOL     OW66324   5.555   1.034   8.228  0.5480 -0.1498 -0.3248
21628SOL    HW166325   5.574   1.013   8.319  1.5535  0.5907 -0.3410
21628SOL    HW266326   5.586   1.124   8.217  0.1960 -0.1357 -1.3284
21629SOL     OW66327   5.977   3.656  11.341  0.2944 -0.4135 -0.3214
21629SOL    HW166328   5.962   3.600  11.417  0.6624 -0.3823 -0.2216
21629SOL    HW266329   6.052   3.617  11.297  0.6491  0.0793 -0.1685
21630SOL     OW66330   1.881   3.471   5.749 -0.1824 -0.0370 -0.6995
21630SOL    HW166331   1.975   3.454   5.738 -0.4468 -0.5046 -2.5750
21630SOL    HW266332   1.877   3.550   5.801  1.2908  0.4711 -1.2968
21631SOL     OW66333   5.449   1.452   4.946  0.4252  0.9471 -0.3407
21631SOL    HW166334   5.522   1.421   4.891 -0.7064  1.3873 -2.1598
21631SOL    HW266335   5.411   1.525   4.898 -2.0763 -0.1226 -0.1516
21632SOL     OW66336   4.370   1.292  11.998 -0.3005  0.2671  0.3550
21632SOL    HW166337   4.299   1.313  12.059  1.6235 -0.3181  2.9599
21632SOL    HW266338   4.336   1.217  11.948 -1.5012 -0.0530  1.5824
21633SOL     OW66339   6.451   7.376   5.752 -0.2586  0.2675 -0.1362
21633SOL    HW166340   6.438   7.318   5.827  1.2048 -0.0825 -0.1185
21633SOL    HW266341   6.387   7.347   5.687 -1.2680  0.3085  0.8093
21634SOL     OW66342   0.588   7.622   3.251  0.7473 -0.2413 -0.0862
21634SOL    HW166343   0.682   7.623   3.230  0.8250  0.7596  0.2250
21634SOL    HW266344   0.583   7.573   3.333  1.1402  0.5906  0.4485
21635SOL     OW66345   4.369   4.646   7.862  0.3538 -0.1868  0.1547
21635SOL    HW166346   4.417   4.678   7.786  0.2608 -0.2785  0.0583
21635SOL    HW266347   4.311   4.578   7.828 -0.0003  0.0704  0.2342
21636SOL     OW66348   5.803   4.182   7.465  0.4289 -0.0232  0.6683
21636SOL    HW166349   5.733   4.205   7.404 -0.8288 -0.9261  1.7125
21636SOL    HW266350   5.773   4.101   7.507  0.8117  1.0166  3.1248
21637SOL     OW66351   2.025   6.083   1.495  0.0566  0.1205  0.0894
21637SOL    HW166352   1.946   6.129   1.466  1.1534  2.5241  0.6354
21637SOL    HW266353   2.003   6.050   1.582 -0.6043  0.0799 -0.0918
21638SOL     OW66354   6.602   1.894   7.218 -0.1913  0.0268 -0.2295
21638SOL    HW166355   6.694   1.876   7.238 -0.1776 -0.8627 -1.0105
21638SOL    HW266356   6.599   1.987   7.197  0.0235  0.7521  2.5083
21639SOL     OW66357   0.243   5.728   4.061 -0.1609 -0.7540 -0.5922
21639SOL    HW166358   0.332   5.714   4.029 -0.1148 -1.9251  0.0106
21639SOL    HW266359   0.239   5.682   4.145 -0.1481  2.5288  1.4086
21640SOL     OW66360   1.817   5.804   2.279 -0.0180  0.2898 -0.0337
21640SOL    HW166361   1.833   5.840   2.192  0.4914  0.9421  0.3274
21640SOL    HW266362   1.864   5.720   2.279  0.5872  0.6208 -0.1478
21641SOL     OW66363   5.918   0.573   6.600  0.2463 -0.6444  0.0517
21641SOL    HW166364   5.828   0.542   6.609 -1.0825  2.9647  0.5604
21641SOL    HW266365   5.950   0.578   6.690 -0.7156  2.2660  0.3221
21642SOL     OW66366   2.700   7.547   0.325  0.3026  0.5267 -0.4707
21642SOL    HW166367   2.624   7.595   0.358  1.2635  1.2356  0.7478
21642SOL    HW266368   2.768   7.561   0.390  1.6968  0.4312 -1.8576
21643SOL     OW66369   0.968   0.239   3.120  0.0390  0.3278 -0.3320
21643SOL    HW166370   1.017   0.246   3.202  1.4900  2.1885 -1.2583
21643SOL    HW266371   0.904   0.170   3.135  1.1001 -0.2446  1.9219
21644SOL     OW66372   1.034   4.970  10.735  0.0119 -0.4309  0.5030
21644SOL    HW166373   1.071   5.059  10.741  0.3557 -0.4739 -0.7274
21644SOL    HW266374   1.109   4.915  10.710 -0.5222 -0.7930 -0.3420
21645SOL     OW66375   7.680   4.533   4.330 -0.6088  0.5999 -0.3058
21645SOL    HW166376   7.732   4.469   4.379 -0.0579  0.6608 -0.7933
21645SOL    HW266377   7.673   4.608   4.388  0.4683  0.8684 -0.4886
21646SOL     OW66378   3.593   0.014  11.754 -0.3627  0.0981  0.4334
21646SOL    HW166379   3.529   0.085  11.764 -0.1684  0.3084  0.1811
21646SOL    HW266380   3.584  -0.015  11.664 -0.8633 -0.6105  0.7017
21647SOL     OW66381   0.493   0.524  12.034 -0.2908 -0.1993 -0.3988
21647SOL    HW166382   0.426   0.500  11.970 -1.0342 -0.6166  0.5057
21647SOL    HW266383   0.516   0.442  12.076  0.7103 -0.0380 -0.6008
21648SOL     OW66384   6.646   2.644  11.677 -0.0721 -0.3393 -0.0638
21648SOL    HW166385   6.606   2.672  11.760  1.2966 -1.4573  1.0376
21648SOL    HW266386   6.627   2.551  11.672  2.2127 -0.8918  0.4611
21649SOL     OW66387   5.934   0.911   3.089  0.1111 -0.1880 -0.4231
21649SOL    HW166388   5.934   1.004   3.112 -0.5415 -0.1414 -0.5969
21649SOL    HW266389   6.027   0.888   3.081  0.2972  0.2303  0.4741
21650SOL     OW66390   6.445   0.442   9.066 -0.9980 -0.3057  0.1635
21650SOL    HW166391   6.384   0.376   9.032 -1.1860 -0.4423  0.7567
21650SOL    HW266392   6.531   0.406   9.050 -1.0881 -1.8208  2.5691
21651SOL     OW66393   6.568   3.982   2.716 -0.1384 -0.0973  0.4602
21651SOL    HW166394   6.636   3.934   2.668 -0.2474  0.2512 -0.0541
21651SOL    HW266395   6.527   4.038   2.650 -0.8911 -0.2622  0.7736
21652SOL     OW66396   1.428   3.974   3.414  0.0182 -0.2622 -0.3802
21652SOL    HW166397   1.388   3.991   3.329 -0.1285  1.7958  0.0447
21652SOL    HW266398   1.506   4.030   3.415 -0.0990 -0.0982  0.9256
21653SOL     OW66399   3.630   0.246   9.734  0.1559 -0.5327 -0.0162
21653SOL    HW166400   3.544   0.277   9.706  0.0307 -0.5588  0.3357
21653SOL    HW266401   3.689   0.320   9.720  0.1155 -0.5774 -0.4413
21654SOL     OW66402   1.782   4.549   4.284  0.4829  0.0586 -0.1723
21654SOL    HW166403   1.739   4.474   4.243  0.7159 -0.8437  1.1394
21654SOL    HW266404   1.723   4.574   4.355  1.8517 -0.9195  1.3852
21655SOL     OW66405   7.234   2.896  11.135 -0.2281 -0.1279  0.4585
21655SOL    HW166406   7.225   2.916  11.042  0.9964 -1.1992  0.0873
21655SOL    HW266407   7.328   2.900  11.152 -0.0922 -2.9935  0.8909
21656SOL     OW66408   6.430   3.057   9.700  0.6591 -0.4110  0.7379
21656SOL    HW166409   6.519   3.092   9.711  1.2941 -1.7344  0.0948
21656SOL    HW266410   6.384   3.124   9.650  1.1730  0.4586  1.3954
21657SOL     OW66411   2.126   7.745  12.227  0.0334  0.2709 -0.4591
21657SOL    HW166412   2.096   7.778  12.311  0.2647 -0.5542 -0.0494
21657SOL    HW266413   2.049   7.751  12.170 -0.5148 -0.4527  0.1822
21658SOL     OW66414   4.003   6.797   5.283 -0.2273 -0.7142 -0.2727
21658SOL    HW166415   3.939   6.858   5.246 -0.9513 -0.8641  0.6826
21658SOL    HW266416   4.006   6.821   5.376  0.5046 -1.2488 -0.1552
21659SOL     OW66417   4.115   1.829   7.860 -0.1627 -0.3424 -0.4270
21659SOL    HW166418   4.082   1.773   7.931  0.2589  1.2432  1.1113
21659SOL    HW266419   4.063   1.909   7.867  2.1165  1.1692  0.3304
21660SOL     OW66420   6.075   0.492  12.194 -0.2135  0.1600 -0.1224
21660SOL    HW166421   6.114   0.405  12.192 -2.4429 -0.8881 -1.1604
21660SOL    HW266422   6.077   0.522  12.104 -1.4370  0.2247 -0.1427
21661SOL     OW66423   0.728   7.132   3.882 -0.0319 -0.3660 -0.0449
21661SOL    HW166424   0.803   7.177   3.920  0.5193 -0.9307 -0.4588
21661SOL    HW266425   0.756   7.107   3.794 -0.4178 -1.2732  0.0748
21662SOL     OW66426   7.703   3.135   1.384 -0.3801 -0.9407  0.4142
21662SOL    HW166427   7.641   3.075   1.343  1.1971 -1.2780 -1.6802
21662SOL    HW266428   7.746   3.082   1.452 -1.9408 -0.8557  1.5094
21663SOL     OW66429   6.539   1.839   0.276 -0.3902 -0.4012  0.1870
21663SOL    HW166430   6.606   1.890   0.322  0.0655  1.9995 -2.8234
21663SOL    HW266431   6.457   1.881   0.300 -0.9625 -2.8310  3.2109
21664SOL     OW66432   6.697   1.025   1.375 -0.1934  0.3311 -0.0144
21664SOL    HW166433   6.642   0.990   1.305 -1.2308  1.9835 -0.0676
21664SOL    HW266434   6.758   0.954   1.395 -0.8557 -0.7161 -1.5386
21665SOL     OW66435   6.268   6.636   7.365 -0.2231  0.4339  0.0031
21665SOL    HW166436   6.330   6.636   7.438 -0.2171  0.1629 -0.0014
21665SOL    HW266437   6.321   6.618   7.288  0.0216  2.2463 -0.2934
21666SOL     OW66438   6.111   3.236   4.527  0.3883 -0.6153 -0.3027
21666SOL    HW166439   6.098   3.326   4.499  0.6910  0.0303  1.5301
21666SOL    HW266440   6.148   3.192   4.451  0.0383  0.7423 -1.2869
21667SOL     OW66441   6.638   0.750   0.606  0.4873  0.6043 -0.1650
21667SOL    HW166442   6.604   0.753   0.695  0.3249 -0.3919 -0.1794
21667SOL    HW266443   6.561   0.754   0.550  0.2474 -2.2920 -0.1904
21668SOL     OW66444   0.520   5.404  11.125 -0.6526 -0.4454  0.2713
21668SOL    HW166445   0.446   5.460  11.102  0.2969  0.4311 -0.7678
21668SOL    HW266446   0.596   5.462  11.122  0.1870 -1.4917  0.5424
21669SOL     OW66447   2.789   6.050   9.328  0.2004 -0.5321  0.0433
21669SOL    HW166448   2.804   6.082   9.239 -0.4165 -2.9671 -1.0095
21669SOL    HW266449   2.862   5.991   9.345 -0.1863 -0.8083  0.8029
21670SOL     OW66450   1.083   5.524  10.273  0.5061  0.0390 -0.9875
21670SOL    HW166451   1.112   5.443  10.233  0.1532 -0.6390  0.0655
21670SOL    HW266452   0.991   5.531  10.248  0.3343 -0.2912 -0.4757
21671SOL     OW66453   0.512   4.806   5.412  0.3707 -0.3357  0.0529
21671SOL    HW166454   0.576   4.803   5.341  0.6263  1.3887  0.1691
21671SOL    HW266455   0.440   4.857   5.377  0.9211  1.3839  1.3145
21672SOL     OW66456   4.893   0.999  11.571 -0.0299  0.4757 -0.6570
21672SOL    HW166457   4.898   0.967  11.661  1.4300 -0.8417 -1.1511
21672SOL    HW266458   4.850   0.929  11.523 -1.1447  1.3312 -0.9347
21673SOL     OW66459   7.898   1.201   0.052 -0.2902 -0.4428  0.0448
21673SOL    HW166460   7.851   1.282   0.067 -0.9879 -0.7310 -0.5257
21673SOL    HW266461   7.834   1.144   0.008 -0.4405 -1.9601  2.0915
21674SOL     OW66462   5.846   1.663   4.284  0.0199  0.2145  0.0543
21674SOL    HW166463   5.761   1.626   4.309 -0.2203  0.0803 -0.8980
21674SOL    HW266464   5.873   1.611   4.208 -0.6665  2.3791 -1.7983
21675SOL     OW66465   4.191   1.413   3.868 -0.0682  0.0605  0.3120
21675SOL    HW166466   4.105   1.396   3.907 -0.2109  1.6579  0.7943
21675SOL    HW266467   4.172   1.468   3.792  0.4135 -1.0346 -0.6338
21676SOL     OW66468   6.362   6.689   3.276  0.0344 -0.4079 -0.2440
21676SOL    HW166469   6.363   6.596   3.298 -1.5463 -0.4575 -0.3090
21676SOL    HW266470   6.455   6.715   3.280  0.6021 -2.1600 -1.0695
21677SOL     OW66471   5.272   4.674  12.207  0.0403 -0.1230 -0.5885
21677SOL    HW166472   5.245   4.584  12.188 -3.0087  0.5114  0.2498
21677SOL    HW266473   5.204   4.728  12.169  0.8602  1.7648  0.5011
21678SOL     OW66474   4.113   6.242   7.267  0.3405 -0.4176 -0.1145
21678SOL    HW166475   4.084   6.164   7.220 -0.2523 -0.1026 -0.2799
21678SOL    HW266476   4.068   6.315   7.223  1.0663  0.0423 -0.1113
21679SOL     OW66477   7.107   7.351   4.876  0.6184  0.5111 -0.2394
21679SOL    HW166478   7.105   7.263   4.912  0.2656 -0.1337 -1.7558
21679SOL    HW266479   7.047   7.401   4.931  0.2837 -0.3710  0.2150
21680SOL     OW66480   7.605   6.297  11.239  0.5355 -0.3619 -0.4683
21680SOL    HW166481   7.637   6.342  11.160  0.1253  2.4717  0.8320
21680SOL    HW266482   7.650   6.341  11.311 -1.2990 -0.8089  1.0307
21681SOL     OW66483   5.211   1.529  11.187 -0.1775  0.3392 -0.7148
21681SOL    HW166484   5.133   1.486  11.221 -0.0964  0.7344  0.0126
21681SOL    HW266485   5.186   1.563  11.102 -0.6098 -0.0731 -0.7520
21682SOL     OW66486   2.741   0.583   7.603 -0.8504 -0.0103  0.3486
21682SOL    HW166487   2.765   0.545   7.519 -1.4460 -1.2208  0.7117
21682SOL    HW266488   2.808   0.551   7.664 -0.6538  0.5325  0.4231
21683SOL     OW66489   4.929   6.114   9.615 -0.1797 -0.0932 -0.1132
21683SOL    HW166490   5.009   6.063   9.605 -1.2100 -1.4677 -2.1049
21683SOL    HW266491   4.879   6.096   9.535 -2.5615  0.5419  1.1348
21684SOL     OW66492   1.010   6.749  10.022  0.0439  0.5872 -0.2896
21684SOL    HW166493   0.977   6.774  10.108 -0.0336  0.0903 -0.1731
21684SOL    HW266494   1.064   6.671  10.038 -1.6690 -0.8070 -0.9431
21685SOL     OW66495   6.284   0.160   8.942 -0.1306  0.0904  0.3090
21685SOL    HW166496   6.243   0.075   8.930 -2.4905  1.3096 -1.0040
21685SOL    HW266497   6.285   0.199   8.855  0.4471  1.6065  0.9533
21686SOL     OW66498   6.847   1.891   6.692  0.2987 -0.1046  0.0380
21686SOL    HW166499   6.830   1.805   6.655  0.0390  0.6803 -1.7737
21686SOL    HW266500   6.942   1.897   6.695  0.3258 -0.2132 -0.4685
21687SOL     OW66501   7.522   7.525   8.624  0.3387 -0.0962 -0.3758
21687SOL    HW166502   7.479   7.498   8.542  0.8772  0.8067 -0.9681
21687SOL    HW266503   7.527   7.620   8.618  0.3178 -0.0139  0.7545
21688SOL     OW66504   0.092   6.439   0.170  1.1926  1.0051  0.3539
21688SOL    HW166505   0.024   6.385   0.209  0.9595 -0.0130 -1.3552
21688SOL    HW266506   0.056   6.466   0.085  2.6008  1.0730 -0.2586
21689SOL     OW66507   5.846   5.248   2.623  0.6049  0.0443 -0.3423
21689SOL    HW166508   5.856   5.343   2.633 -1.3063  0.2128  0.3812
21689SOL    HW266509   5.828   5.216   2.711 -0.2778 -0.7740 -0.7988
21690SOL     OW66510   0.064   4.174   6.375  0.0680  0.4433 -0.2344
21690SOL    HW166511  -0.004   4.242   6.375  0.3707  0.7692 -1.5622
21690SOL    HW266512   0.018   4.094   6.400 -0.8593  0.6237 -1.2717
21691SOL     OW66513   6.882   6.543   4.005 -0.4811  0.2551  0.0111
21691SOL    HW166514   6.909   6.548   3.913  0.4920  0.4583  0.2929
21691SOL    HW266515   6.933   6.470   4.041  0.0137  0.9070  0.6578
21692SOL     OW66516   5.544   5.641   2.318 -0.3168 -0.7569 -0.2446
21692SOL    HW166517   5.564   5.580   2.389  1.7437  0.3122  0.1557
21692SOL    HW266518   5.580   5.725   2.348 -1.0547  0.1340 -1.7674
21693SOL     OW66519   3.900   2.054  10.422 -0.1706  0.5969 -0.2178
21693SOL    HW166520   3.898   2.137  10.376 -2.8661  1.7113  1.6261
21693SOL    HW266521   3.842   1.997  10.372 -0.3073  0.6751 -0.1516
21694SOL     OW66522   5.811   4.889   3.432  0.2000  0.0562 -0.1321
21694SOL    HW166523   5.834   4.836   3.509  0.5511 -0.2719 -0.4587
21694SOL    HW266524   5.823   4.830   3.358  0.7871  0.6437 -0.5199
21695SOL     OW66525   7.195   1.196   4.388 -0.3376  0.0873 -0.3680
21695SOL    HW166526   7.207   1.291   4.393 -2.8232  0.5156 -1.3245
21695SOL    HW266527   7.184   1.179   4.294  2.3087 -1.5437 -0.5048
21696SOL     OW66528   3.473   0.298  12.092  0.1470 -0.3533  0.0036
21696SOL    HW166529   3.555   0.347  12.093  0.1661 -0.3286  2.1242
21696SOL    HW266530   3.433   0.319  12.007  0.8815  2.1182  0.1843
21697SOL     OW66531   6.195   0.162   2.801  0.7547 -0.2235 -0.4890
21697SOL    HW166532   6.225   0.074   2.781  1.7095 -0.1220  0.4409
21697SOL    HW266533   6.224   0.215   2.727 -2.2428 -1.1088 -2.4887
21698SOL     OW66534   6.962   2.701   4.015  0.3124  0.1121  0.3823
21698SOL    HW166535   7.003   2.616   4.030  0.7265  0.2860  0.2565
21698SOL    HW266536   6.896   2.684   3.948 -1.3025 -0.5892  2.0803
21699SOL     OW66537   6.033   6.136  11.079  0.0310  0.1105  0.7920
21699SOL    HW166538   6.033   6.058  11.135 -1.3887  0.1311  0.8407
21699SOL    HW266539   5.954   6.128  11.026  1.2530  0.1841 -1.1240
21700SOL     OW66540   2.463   5.145   5.925  0.0070  0.5624 -0.0315
21700SOL    HW166541   2.380   5.191   5.937  0.0403  0.6084  0.0235
21700SOL    HW266542   2.528   5.199   5.969  0.1172  0.6876 -0.3406
21701SOL     OW66543   2.825   3.896   7.654  0.1989 -0.1254  0.6323
21701SOL    HW166544   2.777   3.906   7.736 -1.0185 -0.9006  0.0357
21701SOL    HW266545   2.914   3.874   7.681 -0.6567 -2.5556  1.7881
21702SOL     OW66546   6.941   1.150  11.069 -0.5448 -0.0117 -0.1312
21702SOL    HW166547   6.900   1.117  11.149  0.1702  0.1584  0.3155
21702SOL    HW266548   7.025   1.185  11.098 -0.6730  0.9050 -0.8215
21703SOL     OW66549   0.783   1.445   8.022 -0.1320 -0.0282 -0.5820
21703SOL    HW166550   0.862   1.452   8.074 -2.0420  0.3840  2.5388
21703SOL    HW266551   0.762   1.535   7.996 -0.4098  0.0814  0.0042
21704SOL     OW66552   7.404   6.927  10.819 -0.3648  0.4518 -0.2675
21704SOL    HW166553   7.435   6.887  10.738 -0.9996 -1.0726  0.2131
21704SOL    HW266554   7.309   6.919  10.815 -0.3912 -0.0583  0.8138
21705SOL     OW66555   5.087   3.231   1.553 -0.3171 -0.4684  0.1279
21705SOL    HW166556   5.153   3.167   1.580  0.5516  0.8677  1.3314
21705SOL    HW266557   5.099   3.239   1.458  2.4804  0.9748  0.4998
21706SOL     OW66558   5.707   5.099   5.117  0.0101 -0.1079  0.2940
21706SOL    HW166559   5.631   5.134   5.164 -1.0515 -1.2494 -0.4792
21706SOL    HW266560   5.690   5.123   5.025 -2.0522 -4.4526 -0.7219
21707SOL     OW66561   2.579   4.868  11.046  0.1764  0.1456  1.0995
21707SOL    HW166562   2.636   4.903  10.977  0.3265 -2.7870 -0.3913
21707SOL    HW266563   2.587   4.931  11.117  1.9057  2.0616 -0.6530
21708SOL     OW66564   7.531   0.185   9.090  0.0772  0.0138  0.2464
21708SOL    HW166565   7.596   0.128   9.130 -0.8524 -0.8447  0.5931
21708SOL    HW266566   7.475   0.127   9.039  1.1367  1.0651 -2.2488
21709SOL     OW66567   7.127   7.226   1.257  0.1395 -0.1149 -0.5236
21709SOL    HW166568   7.184   7.301   1.240 -1.1560  0.8650 -0.7280
21709SOL    HW266569   7.123   7.180   1.174 -1.5573  1.4048 -1.3574
21710SOL     OW66570   1.569   6.955  11.524 -0.1177 -0.0833  0.0833
21710SOL    HW166571   1.501   7.000  11.474 -1.1948 -2.2802 -0.5371
21710SOL    HW266572   1.558   6.989  11.613 -0.5798  1.1948 -0.4299
21711SOL     OW66573   2.355   4.173   4.111  0.3714  0.4408  0.8154
21711SOL    HW166574   2.260   4.184   4.104  0.3228 -0.5517 -0.2676
21711SOL    HW266575   2.377   4.108   4.045  1.6582 -0.1902  1.8195
21712SOL     OW66576   2.053   4.453   9.055 -0.0702  0.1572  0.2589
21712SOL    HW166577   1.987   4.464   9.124 -0.9620 -2.3372 -0.1020
21712SOL    HW266578   2.035   4.524   8.993 -0.0242  1.7119  1.9276
21713SOL     OW66579   0.471   4.794   1.958  0.2106  0.3357 -0.0439
21713SOL    HW166580   0.428   4.772   1.876 -0.5509  1.4408  0.0249
21713SOL    HW266581   0.465   4.715   2.011  0.4988 -0.3111 -0.9596
21714SOL     OW66582   2.328   1.042   4.812 -0.1338  0.3869  0.0795
21714SOL    HW166583   2.284   0.972   4.764  0.8918  0.1705 -0.5888
21714SOL    HW266584   2.283   1.122   4.786  0.0492  0.2045 -0.8295
21715SOL     OW66585   7.882   3.833  12.339  0.0226  0.3236  0.1738
21715SOL    HW166586   7.913   3.923  12.333 -0.7941  0.6075  0.0864
21715SOL    HW266587   7.859   3.821  12.431  1.0982 -0.1358  0.3980
21716SOL     OW66588   0.627   1.143   5.327 -0.1407  0.2600 -0.0539
21716SOL    HW166589   0.655   1.096   5.405  0.6569  1.7104  0.5603
21716SOL    HW266590   0.532   1.130   5.324  0.0596 -1.4585  0.0183
21717SOL     OW66591   2.191   5.726   9.856 -0.3492  0.3580  0.7121
21717SOL    HW166592   2.149   5.667   9.918 -2.6736  2.3474  1.1813
21717SOL    HW266593   2.155   5.812   9.876  2.1619  1.8259 -0.5592
21718SOL     OW66594   1.669   1.514   1.228  0.5765 -0.3733 -0.0062
21718SOL    HW166595   1.655   1.602   1.261  0.7556 -0.5426  0.5458
21718SOL    HW266596   1.698   1.464   1.305  1.9100 -0.5665 -0.6091
21719SOL     OW66597   6.413   2.760  10.852 -0.1213  0.7677  0.0586
21719SOL    HW166598   6.464   2.751  10.771 -0.0106  0.5675  0.1497
21719SOL    HW266599   6.478   2.781  10.919 -0.3541  2.1394 -0.1175
21720SOL     OW66600   2.448   7.495   0.829 -0.0102 -0.6019  0.2364
21720SOL    HW166601   2.400   7.500   0.912  1.5524  0.9064  1.0967
21720SOL    HW266602   2.520   7.434   0.846 -0.2092 -1.0006 -0.3123
21721SOL     OW66603   7.115   7.285   8.250  0.2478 -0.0960 -0.1067
21721SOL    HW166604   7.061   7.251   8.321  1.6431 -2.8100 -0.1903
21721SOL    HW266605   7.203   7.292   8.288  1.0361 -1.6954 -1.5118
21722SOL     OW66606   3.552   0.897   8.178  0.6069 -0.2439  0.2301
21722SOL    HW166607   3.638   0.918   8.213  1.1582  0.2633 -1.3701
21722SOL    HW266608   3.569   0.857   8.093 -0.7446  0.0297 -0.1960
21723SOL     OW66609   2.500   3.247   3.766  0.1034 -0.6683 -0.1309
21723SOL    HW166610   2.468   3.326   3.724  0.1033 -0.1538  0.8070
21723SOL    HW266611   2.572   3.218   3.711  0.4661  0.2984 -0.1814
21724SOL     OW66612   6.595   3.855   0.342  0.0378 -0.0011  0.1583
21724SOL    HW166613   6.555   3.910   0.410  0.3589  0.5517 -0.0988
21724SOL    HW266614   6.522   3.802   0.310 -0.0085 -0.6843  1.3230
21725SOL     OW66615   2.608   7.194  10.306  0.5096 -0.2789  0.2915
21725SOL    HW166616   2.635   7.205  10.215  0.2259 -0.8082  0.1326
21725SOL    HW266617   2.640   7.107  10.330  0.3422 -0.2568  0.6056
21726SOL     OW66618   1.765   3.458   0.514  0.1415  0.4843  0.1073
21726SOL    HW166619   1.683   3.409   0.517  0.7603 -0.5587  0.7388
21726SOL    HW266620   1.829   3.400   0.556  1.1432  1.3862 -0.1274
21727SOL     OW66621   3.849   7.645  10.660 -0.1999 -0.0569 -0.3226
21727SOL    HW166622   3.758   7.632  10.686  0.3276  0.7711  2.2509
21727SOL    HW266623   3.852   7.735  10.627  0.1790  1.0932  2.5744
21728SOL     OW66624   4.456   1.707   8.071 -0.2173  0.4262 -0.0217
21728SOL    HW166625   4.490   1.796   8.082  0.5760  0.0402  0.6686
21728SOL    HW266626   4.445   1.698   7.976  0.0463  1.1314 -0.1263
21729SOL     OW66627   7.237   3.124   7.493 -0.2189  0.1345  0.0413
21729SOL    HW166628   7.255   3.192   7.558  1.3279 -0.7408  0.5832
21729SOL    HW266629   7.297   3.053   7.515 -0.2301 -0.5245 -1.8690
21730SOL     OW66630   4.639   5.912   0.507  0.0976 -0.2911  0.1478
21730SOL    HW166631   4.685   5.858   0.571  1.6758  0.4362 -0.3177
21730SOL    HW266632   4.573   5.959   0.559  2.5414  1.7102  1.7015
21731SOL     OW66633   2.842   3.524   4.498 -0.6922 -0.2830  0.2684
21731SOL    HW166634   2.831   3.568   4.582  0.8935 -0.5906  0.6583
21731SOL    HW266635   2.780   3.451   4.501 -0.3412 -0.5508  1.3624
21732SOL     OW66636   4.736   7.557   6.011  0.2038  0.4261  0.3198
21732SOL    HW166637   4.795   7.508   5.954  0.3009 -0.6436  1.2887
21732SOL    HW266638   4.783   7.638   6.031  0.8804  0.0696  0.2106
21733SOL     OW66639   0.939   1.724   4.158 -0.2779  0.4370  0.1058
21733SOL    HW166640   0.986   1.734   4.075  3.1776 -0.3313  1.7822
21733SOL    HW266641   0.958   1.804   4.206 -0.8111  0.1422  0.8220
21734SOL     OW66642   4.234   5.968   8.666  0.1248  0.0474 -0.1660
21734SOL    HW166643   4.241   6.024   8.588 -1.9985 -1.2291 -1.3734
21734SOL    HW266644   4.236   5.879   8.632 -0.8575 -0.5443  1.2277
21735SOL     OW66645   5.417   3.397   2.736  0.0060  0.1637  0.0494
21735SOL    HW166646   5.479   3.339   2.781  0.9821  0.9770 -0.2196
21735SOL    HW266647   5.366   3.437   2.807  0.3259  0.0905  0.3231
21736SOL     OW66648   2.388   2.647   0.819  0.1342 -0.1068  0.1785
21736SOL    HW166649   2.337   2.579   0.862  0.4234 -0.6503 -0.3272
21736SOL    HW266650   2.428   2.603   0.744  2.4332 -0.0409  1.2793
21737SOL     OW66651   1.083   4.124   2.862  0.6247 -0.0671  0.1753
21737SOL    HW166652   1.028   4.195   2.895  1.3748  0.0926  1.1390
21737SOL    HW266653   1.141   4.165   2.799 -0.0264 -0.1488 -0.4935
21738SOL     OW66654   3.630   1.688  11.235  0.2409 -0.0531  0.1566
21738SOL    HW166655   3.646   1.600  11.270  2.1856 -0.0695 -0.6159
21738SOL    HW266656   3.554   1.678  11.179  0.2512 -1.1851  0.3167
21739SOL     OW66657   6.802   6.669  10.298 -0.3235  0.7371  0.3704
21739SOL    HW166658   6.743   6.661  10.373  0.3301 -0.3706  0.7869
21739SOL    HW266659   6.858   6.592  10.303 -0.8052  0.1909 -1.7488
21740SOL     OW66660   0.255   1.163  11.427 -0.0960  0.2876  0.2139
21740SOL    HW166661   0.193   1.232  11.450 -0.4027  0.3373 -0.7232
21740SOL    HW266662   0.234   1.091  11.486 -1.3331  0.1566 -0.3544
21741SOL     OW66663   5.820   4.553   0.913 -0.1967  0.3051  0.4693
21741SOL    HW166664   5.798   4.621   0.851  0.6271  0.0886 -0.0801
21741SOL    HW266665   5.910   4.573   0.940 -0.5280  0.3869  1.5830
21742SOL     OW66666   2.407   5.998   2.525  0.4180  0.2545 -0.2030
21742SOL    HW166667   2.394   5.968   2.615  0.5319  0.2984 -0.1711
21742SOL    HW266668   2.335   6.060   2.510  0.8848  0.9026  0.1528
21743SOL     OW66669   4.437   4.232   0.485 -0.0582  0.2312 -0.2048
21743SOL    HW166670   4.465   4.312   0.529  0.8346  0.5558 -1.3120
21743SOL    HW266671   4.432   4.256   0.392  2.2795 -1.4474 -0.8847
21744SOL     OW66672   1.569   6.576   5.299  0.3699  0.1325  0.3611
21744SOL    HW166673   1.491   6.631   5.295  0.9221  0.9990  1.2314
21744SOL    HW266674   1.628   6.614   5.233  0.0721 -0.5266 -0.3030
21745SOL     OW66675   1.867   7.266   4.086  0.3302  0.1589  0.0866
21745SOL    HW166676   1.822   7.244   4.004  1.3439 -2.9949  0.2368
21745SOL    HW266677   1.955   7.232   4.074  1.0764  1.3899  1.8152
21746SOL     OW66678   7.793   4.743  11.900 -0.5050  0.3611 -0.1175
21746SOL    HW166679   7.754   4.720  11.984  1.0456  2.3500  1.2378
21746SOL    HW266680   7.853   4.815  11.920  0.2365  0.6228 -2.8709
21747SOL     OW66681   6.753   2.922  12.021  0.6855 -0.6947  0.0532
21747SOL    HW166682   6.846   2.940  12.036  0.9843 -0.9061 -1.4368
21747SOL    HW266683   6.742   2.830  12.045  0.6224 -0.4269  1.1472
21748SOL     OW66684   5.042   6.618  11.923  0.1638 -0.4573 -0.4360
21748SOL    HW166685   5.115   6.583  11.873  0.8045  0.8042 -0.4140
21748SOL    HW266686   4.966   6.567  11.894  0.9188 -1.3043 -0.9668
21749SOL     OW66687   7.499   5.672   1.786  1.0902 -0.3437 -0.5738
21749SOL    HW166688   7.432   5.709   1.845  0.7631 -2.9326  0.8125
21749SOL    HW266689   7.474   5.704   1.700 -0.2149  1.1217  0.2757
21750SOL     OW66690   1.988   1.283   0.016  0.5154 -0.1381  0.5082
21750SOL    HW166691   1.976   1.305   0.109 -1.1626  3.3682 -0.3449
21750SOL    HW266692   1.909   1.235  -0.008 -1.3208  2.8582  0.0470
21751SOL     OW66693   1.837   0.006  11.827 -0.4633  0.4038 -0.1872
21751SOL    HW166694   1.874  -0.032  11.747 -1.3113  0.6023 -0.6782
21751SOL    HW266695   1.785  -0.065  11.865 -0.2950  0.4030  0.0456
21752SOL     OW66696   5.177   5.534   8.484 -0.0827  0.2260 -0.4118
21752SOL    HW166697   5.262   5.492   8.476  0.8786  2.0531 -0.2017
21752SOL    HW266698   5.138   5.493   8.562  0.5913 -0.6075 -0.4945
21753SOL     OW66699   0.009   2.969   3.640 -0.6999  0.2577  0.4517
21753SOL    HW166700   0.084   2.913   3.623 -1.0765 -0.0832 -0.1088
21753SOL    HW266701  -0.014   2.950   3.731 -0.9054 -0.6056  0.2324
21754SOL     OW66702   1.169   1.370   3.806  0.6537  0.4912  0.4321
21754SOL    HW166703   1.077   1.349   3.823  1.3016 -1.2840  2.1725
21754SOL    HW266704   1.191   1.319   3.728  0.1013  1.1968 -0.2008
21755SOL     OW66705   5.791   6.008   0.963  0.6147  0.1055 -0.1450
21755SOL    HW166706   5.713   6.058   0.937  1.2685  1.0117 -0.4508
21755SOL    HW266707   5.776   5.986   1.054  0.0831  0.4494 -0.1430
21756SOL     OW66708   2.436   5.173   4.405 -0.4716 -0.7767  0.2243
21756SOL    HW166709   2.432   5.228   4.483 -0.3763 -2.1668  1.2638
21756SOL    HW266710   2.508   5.209   4.353 -2.5706  2.1887 -0.8829
21757SOL     OW66711   3.317   3.777   5.718 -0.3903  0.4528 -0.2182
21757SOL    HW166712   3.409   3.798   5.703 -0.5173 -0.7828 -3.6724
21757SOL    HW266713   3.269   3.844   5.669 -1.4279  1.1703  1.6619
21758SOL     OW66714   1.942   7.892   2.921  0.2414 -0.4146 -0.1694
21758SOL    HW166715   1.847   7.879   2.922  0.0378  0.7943 -1.3501
21758SOL    HW266716   1.967   7.889   3.013 -1.0242 -0.2462  0.2028
21759SOL     OW66717   2.590   2.608   7.020 -0.3687 -0.1939 -0.2024
21759SOL    HW166718   2.634   2.540   6.970  0.4556  0.0576  0.1761
21759SOL    HW266719   2.658   2.673   7.038 -0.4601 -0.6018  1.8361
21760SOL     OW66720   6.470   2.760   8.241  0.2243 -0.3731  0.4820
21760SOL    HW166721   6.524   2.813   8.300  0.1732  1.3663 -0.9341
21760SOL    HW266722   6.528   2.740   8.167 -0.3698 -0.5600  0.0595
21761SOL     OW66723   4.037   7.452   5.885 -0.1391 -0.2458 -0.2178
21761SOL    HW166724   4.097   7.380   5.866  0.8002  0.1126  1.2366
21761SOL    HW266725   4.029   7.499   5.803  1.3935 -0.4498 -0.5091
21762SOL     OW66726   3.112   6.034  10.187  0.1067  0.4870 -0.0405
21762SOL    HW166727   3.117   6.115  10.136  1.3194 -0.2458 -1.1411
21762SOL    HW266728   3.060   5.975  10.134 -1.0425  0.6124  0.9050
21763SOL     OW66729   4.764   3.821   0.045  0.3652 -0.0835  0.0836
21763SOL    HW166730   4.740   3.811   0.137 -1.0980 -0.1799 -0.2790
21763SOL    HW266731   4.709   3.758  -0.001 -0.0170  1.0064 -0.9995
21764SOL     OW66732   3.393   1.700  11.064 -0.1382  0.3134  0.0851
21764SOL    HW166733   3.404   1.762  10.992  2.6342  1.0603  1.0407
21764SOL    HW266734   3.364   1.619  11.021  0.0988  1.1096 -1.6905
21765SOL     OW66735   0.274   7.612   0.282 -0.1620  0.2967 -0.4014
21765SOL    HW166736   0.331   7.550   0.327 -0.5665 -0.4539 -0.9082
21765SOL    HW266737   0.191   7.608   0.329 -0.7177 -0.7893 -1.4146
21766SOL     OW66738   3.330   6.688  11.102  0.0202 -0.1540  1.0718
21766SOL    HW166739   3.280   6.607  11.110 -0.6486  0.2762  1.3912
21766SOL    HW266740   3.350   6.696  11.009  1.0955 -1.2671  1.1833
21767SOL     OW66741   3.520   7.847  10.855 -0.0105 -0.3321  0.6864
21767SOL    HW166742   3.508   7.899  10.776 -3.3241 -0.9518  0.6642
21767SOL    HW266743   3.562   7.767  10.825  1.3521  0.5767  0.0702
21768SOL     OW66744   7.206   2.279   3.732  0.0758  0.3193  0.0182
21768SOL    HW166745   7.203   2.232   3.649  1.8680  2.0276 -1.0841
21768SOL    HW266746   7.232   2.213   3.796  0.9812 -0.5461 -1.1952
21769SOL     OW66747   6.647   4.984   6.799  0.4639 -0.0482 -0.0769
21769SOL    HW166748   6.662   4.913   6.737 -0.6276 -1.5482  1.2730
21769SOL    HW266749   6.668   4.946   6.884  0.4266  1.4462  0.6301
21770SOL     OW66750   4.721   1.847  11.794  0.4924  0.6346 -0.1048
21770SOL    HW166751   4.643   1.897  11.770  0.6427  0.5582 -0.7903
21770SOL    HW266752   4.708   1.825  11.886 -0.2419  0.7166 -0.1796
21771SOL     OW66753   4.530   2.534   2.989 -0.0598  0.0878  0.3542
21771SOL    HW166754   4.557   2.625   2.979 -1.4571  0.5258  0.2300
21771SOL    HW266755   4.464   2.536   3.058  0.5996 -1.0024  1.0457
21772SOL     OW66756   2.369   6.671  10.210  0.0720  0.4852  0.2923
21772SOL    HW166757   2.283   6.688  10.250 -0.4969  0.1267 -0.7332
21772SOL    HW266758   2.370   6.577  10.195  0.7223  0.4638  0.4573
21773SOL     OW66759   2.482   7.166   0.032 -0.1941 -0.2075 -0.0820
21773SOL    HW166760   2.534   7.241   0.003  0.8205 -1.3538 -1.3700
21773SOL    HW266761   2.469   7.114  -0.048  0.9498 -2.4721  1.1043
21774SOL     OW66762   7.484   0.582   4.411  0.7175  0.1111 -0.1605
21774SOL    HW166763   7.519   0.630   4.335 -0.9599  0.5184 -0.7457
21774SOL    HW266764   7.535   0.613   4.485  1.0306  1.2799 -0.8389
21775SOL     OW66765   6.686   4.263   6.788  0.6055  0.1786  0.4811
21775SOL    HW166766   6.644   4.324   6.727  3.1031  1.0810 -0.4997
21775SOL    HW266767   6.682   4.178   6.744  1.0828  0.5490 -0.3155
21776SOL     OW66768   6.104   2.983   1.604 -0.5339 -0.0382 -1.0020
21776SOL    HW166769   6.180   2.996   1.548  1.7914  0.1710  1.9527
21776SOL    HW266770   6.128   2.910   1.661 -2.3760  0.2954  0.3208
21777SOL     OW66771   3.186   0.197   0.378  0.0206 -0.2429  0.2440
21777SOL    HW166772   3.211   0.133   0.444 -0.2622 -0.1586  0.4334
21777SOL    HW266773   3.103   0.166   0.344  0.1601 -0.2796 -0.0668
21778SOL     OW66774   1.124   0.752   7.635 -0.2834  0.2552 -0.2148
21778SOL    HW166775   1.153   0.770   7.724  1.2994  1.8368 -0.9936
21778SOL    HW266776   1.116   0.656   7.631 -1.1040  0.1967  1.7917
21779SOL     OW66777   2.630   5.328   1.007  0.0086  0.2255  0.1184
21779SOL    HW166778   2.540   5.314   1.035  0.2646  0.2578  1.0007
21779SOL    HW266779   2.654   5.413   1.045 -0.0007  0.8660 -1.2154
21780SOL     OW66780   7.258   5.155   2.965  0.6750 -0.2911  0.2596
21780SOL    HW166781   7.314   5.086   2.929  1.6456  0.1018  0.9661
21780SOL    HW266782   7.224   5.118   3.047 -0.6783 -0.7841 -0.4933
21781SOL     OW66783   5.195   6.129   4.668  0.7253 -0.1297  0.5413
21781SOL    HW166784   5.125   6.156   4.608 -0.4304 -0.0253  1.8876
21781SOL    HW266785   5.266   6.190   4.651 -0.1663  0.8928  0.3744
21782SOL     OW66786   7.413   4.301   7.810 -0.0819 -0.1334  0.0489
21782SOL    HW166787   7.489   4.359   7.804  0.2015 -0.5499 -0.4545
21782SOL    HW266788   7.351   4.349   7.865  1.2637 -0.5985  2.0474
21783SOL     OW66789   7.542   5.113   7.813 -0.3448  0.4093  0.5210
21783SOL    HW166790   7.627   5.134   7.853  0.8685 -2.0755 -0.5029
21783SOL    HW266791   7.504   5.198   7.790  2.1938  1.6054  0.3636
21784SOL     OW66792   6.956   4.718   5.872 -0.0744  0.6310  0.1112
21784SOL    HW166793   6.893   4.708   5.943 -1.8955  0.3975 -1.4444
21784SOL    HW266794   6.925   4.793   5.822  2.4027  2.1591  0.7119
21785SOL     OW66795   5.374   2.629   0.302 -0.3059 -0.0327 -0.2819
21785SOL    HW166796   5.329   2.609   0.384 -0.6212  0.9244 -0.2158
21785SOL    HW266797   5.349   2.719   0.282 -0.3509 -0.3073 -1.5107
21786SOL     OW66798   4.358   3.518   7.803  0.0634 -0.5302 -0.6818
21786SOL    HW166799   4.279   3.478   7.767 -2.0495  0.5687  2.2970
21786SOL    HW266800   4.408   3.445   7.839 -0.2534 -1.1295 -1.4477
21787SOL     OW66801   0.396   5.747   7.037 -0.0703 -0.1589 -0.7379
21787SOL    HW166802   0.344   5.749   6.957 -0.1310 -0.3370 -0.7026
21787SOL    HW266803   0.374   5.829   7.083 -1.2334 -0.7866 -0.1408
21788SOL     OW66804   7.096   1.934   9.935  0.5377 -0.4025  0.0561
21788SOL    HW166805   7.068   1.980  10.013  1.5587 -1.7313  1.2603
21788SOL    HW266806   7.189   1.954   9.927  0.3456  0.1388 -1.1464
21789SOL     OW66807   0.974   4.776   1.454 -0.2133 -0.2344  0.0591
21789SOL    HW166808   1.011   4.855   1.415 -0.6625  0.5485  1.1549
21789SOL    HW266809   0.881   4.796   1.466 -0.2761 -0.8146  0.6074
21790SOL     OW66810   2.591   3.598  11.952 -0.3049 -0.4428 -0.2875
21790SOL    HW166811   2.538   3.526  11.988 -0.8156 -0.0929 -0.3248
21790SOL    HW266812   2.678   3.560  11.941 -0.3089 -0.7634  0.6481
21791SOL     OW66813   3.159   6.777  11.795  0.0243 -0.3981 -0.3018
21791SOL    HW166814   3.148   6.737  11.709  0.1452  0.1523 -0.5831
21791SOL    HW266815   3.090   6.739  11.848 -1.0920  0.4257 -1.0878
21792SOL     OW66816   5.528   2.113   3.179  0.6214 -0.1187  0.1779
21792SOL    HW166817   5.570   2.196   3.157 -0.6162  0.2443 -0.9147
21792SOL    HW266818   5.515   2.117   3.274 -1.6212  2.0630 -0.1203
21793SOL     OW66819   7.737   3.683   3.836 -0.7212  0.6011  0.4592
21793SOL    HW166820   7.650   3.643   3.844 -0.5975  0.2446  0.1125
21793SOL    HW266821   7.721   3.765   3.789 -0.9173  0.7154  0.7234
21794SOL     OW66822   3.026   5.780   0.274 -0.2013 -0.0801  0.1614
21794SOL    HW166823   2.989   5.823   0.196 -0.7675  0.8743  0.9359
21794SOL    HW266824   3.078   5.707   0.239  0.2200  0.8238 -1.1532
21795SOL     OW66825   0.146   4.444  11.355  0.2349 -0.1234  0.0492
21795SOL    HW166826   0.240   4.426  11.364 -0.1725 -2.3758  0.4441
21795SOL    HW266827   0.112   4.437  11.444 -0.3427  0.6943 -0.0885
21796SOL     OW66828   3.092   5.202   5.979 -0.6030 -0.0581 -0.0278
21796SOL    HW166829   3.163   5.209   6.043 -0.3969 -0.0336 -0.2538
21796SOL    HW266830   3.019   5.163   6.027 -0.5157  0.1421  0.2712
21797SOL     OW66831   1.648   6.826   2.893 -0.5030 -0.0444 -0.4451
21797SOL    HW166832   1.739   6.836   2.921  0.1897  0.0679 -2.6277
21797SOL    HW266833   1.637   6.890   2.823 -2.5491  0.5554  0.3522
21798SOL     OW66834   7.805   5.344  10.023  0.6981  0.2275  0.0377
21798SOL    HW166835   7.716   5.311  10.037  0.6551  0.2899 -0.0899
21798SOL    HW266836   7.861   5.277  10.062  0.6296 -0.2087 -0.5945
21799SOL     OW66837   2.619   7.223   2.982 -0.3457 -0.2557 -0.3273
21799SOL    HW166838   2.590   7.298   2.930  0.8362 -0.2340 -0.9747
21799SOL    HW266839   2.702   7.196   2.943 -0.0454 -1.0230  0.7775
21800SOL     OW66840   2.841   5.651   2.432  0.2914  0.3310 -0.4987
21800SOL    HW166841   2.865   5.575   2.485  2.2109  1.9767  1.2164
21800SOL    HW266842   2.798   5.710   2.495 -0.0861  1.1493 -1.5081
21801SOL     OW66843   6.743   6.171   5.727  0.2132  0.2849 -0.1226
21801SOL    HW166844   6.752   6.094   5.671 -0.2798  1.2118 -1.5266
21801SOL    HW266845   6.708   6.239   5.670 -1.7032  0.8942  1.6599
21802SOL     OW66846   1.151   1.548   0.403 -0.5962 -0.5000  0.2778
21802SOL    HW166847   1.133   1.469   0.454 -0.4882  1.0358  2.8956
21802SOL    HW266848   1.070   1.599   0.410 -1.0483 -0.7324 -2.2620
21803SOL     OW66849   7.712   2.458   3.138 -0.2029 -0.0995 -0.0647
21803SOL    HW166850   7.769   2.402   3.087 -1.6010 -3.6116  1.8389
21803SOL    HW266851   7.628   2.456   3.092 -1.2378 -2.6260  1.6754
21804SOL     OW66852   5.658   2.190   8.704 -0.4720  0.0303  0.1817
21804SOL    HW166853   5.689   2.275   8.735 -0.2184 -0.4113  1.1639
21804SOL    HW266854   5.590   2.212   8.640 -0.6580  0.9729  0.6763
21805SOL     OW66855   3.775   2.273   1.408  0.4810 -0.3751 -0.1007
21805SOL    HW166856   3.749   2.226   1.329 -0.0404 -1.2974  0.6078
21805SOL    HW266857   3.871   2.273   1.406  0.4962  0.5903 -1.2836
21806SOL     OW66858   6.619   2.565   7.242  0.6563  0.2795 -0.0021
21806SOL    HW166859   6.635   2.654   7.211  1.0185  0.0123 -0.5822
21806SOL    HW266860   6.569   2.577   7.323 -1.8575  0.9467 -1.5459
21807SOL     OW66861   7.056   7.588   2.521  0.0008 -0.1672 -0.2060
21807SOL    HW166862   7.031   7.535   2.596 -3.0189  0.0827 -0.8921
21807SOL    HW266863   7.015   7.673   2.537  2.4420  1.1217 -0.4322
21808SOL     OW66864   5.171   3.309   1.832 -0.3034 -0.1884  0.5157
21808SOL    HW166865   5.206   3.233   1.785 -1.0828  0.8907 -1.9572
21808SOL    HW266866   5.086   3.280   1.863 -0.2919 -0.5500  0.2175
21809SOL     OW66867   0.960   2.156  11.574  0.0444  0.2200 -0.2552
21809SOL    HW166868   0.973   2.246  11.603 -1.6761  0.7977 -1.1379
21809SOL    HW266869   0.893   2.122  11.633  0.2455 -0.2850 -0.3151
21810SOL     OW66870   3.638   0.391  10.425 -0.1827  0.7984 -0.1610
21810SOL    HW166871   3.616   0.302  10.397  0.4131  0.4993  0.3267
21810SOL    HW266872   3.708   0.418  10.366  0.2084  0.6325  0.2222
21811SOL     OW66873   2.981   7.747   4.840 -0.1636 -0.4002  0.3972
21811SOL    HW166874   2.921   7.798   4.894  0.2163  0.9253 -0.3839
21811SOL    HW266875   3.042   7.812   4.805  1.6963 -1.6915  1.1104
21812SOL     OW66876   2.161   7.722   4.399 -0.1406  0.4980 -0.4086
21812SOL    HW166877   2.238   7.774   4.421  0.3076  0.4647 -1.8330
21812SOL    HW266878   2.193   7.659   4.334 -0.9409 -0.7736  0.3889
21813SOL     OW66879   7.166   0.042   8.060 -0.0819 -0.4214  0.0444
21813SOL    HW166880   7.176   0.085   7.975 -1.7137 -0.5536 -0.2535
21813SOL    HW266881   7.075   0.058   8.084 -0.3796 -2.5920  0.5403
21814SOL     OW66882   6.438   2.257   4.195  0.1523 -0.2336  0.1046
21814SOL    HW166883   6.450   2.277   4.288  1.1840 -2.2441  0.4597
21814SOL    HW266884   6.476   2.332   4.150  0.6005  0.2904  1.3013
21815SOL     OW66885   3.875   0.502   0.125 -0.0035  0.1080 -0.1765
21815SOL    HW166886   3.910   0.440   0.189  5.2195  1.9041 -0.8610
21815SOL    HW266887   3.889   0.459   0.040  0.8310  1.0037 -0.4978
21816SOL     OW66888   1.936   5.797   7.549  0.0309 -0.5642  0.2152
21816SOL    HW166889   1.965   5.739   7.479 -0.0399 -0.7587  0.3475
21816SOL    HW266890   2.017   5.838   7.581  0.1830 -1.2174  0.6823
21817SOL     OW66891   2.402   2.552   3.137 -0.3362  0.2710  0.4485
21817SOL    HW166892   2.374   2.460   3.135 -0.1821  0.2254  0.3013
21817SOL    HW266893   2.345   2.596   3.074 -2.8221  0.9957  3.0374
21818SOL     OW66894   5.138   3.472  11.173 -0.3827  0.3458  0.0398
21818SOL    HW166895   5.089   3.494  11.094 -0.3538  1.0531  0.2047
21818SOL    HW266896   5.082   3.412  11.221 -0.0748 -0.6827 -0.8646
21819SOL     OW66897   2.001   1.993   0.723 -0.2072 -0.4963 -0.0431
21819SOL    HW166898   1.950   2.048   0.664  0.0595 -0.6260 -0.3944
21819SOL    HW266899   1.949   1.914   0.733 -0.2979 -0.4344 -0.0237
21820SOL     OW66900   0.402   2.533   5.660  0.2157 -0.2443 -0.1038
21820SOL    HW166901   0.482   2.532   5.607  0.7513  0.0686  0.6708
21820SOL    HW266902   0.417   2.603   5.723 -0.6447 -0.2395  0.0990
21821SOL     OW66903   1.267   4.874  10.575 -0.5641  0.2317 -0.3522
21821SOL    HW166904   1.214   4.856  10.498 -0.6289 -0.0372 -0.2444
21821SOL    HW266905   1.313   4.955  10.554 -0.7008  0.2424 -0.6097
21822SOL     OW66906   0.312   3.865   8.608 -0.0437  0.1324  0.5039
21822SOL    HW166907   0.382   3.829   8.663  0.3896 -0.0395 -0.1366
21822SOL    HW266908   0.235   3.867   8.664 -0.4467 -3.0310  0.2746
21823SOL     OW66909   2.180   5.210   7.349 -0.3928 -0.3544 -0.2256
21823SOL    HW166910   2.146   5.280   7.405 -1.7898  0.2937 -1.8007
21823SOL    HW266911   2.275   5.223   7.350 -0.5025  0.5225  0.8313
21824SOL     OW66912   2.505   0.554   2.315  0.3556  0.2420 -0.7411
21824SOL    HW166913   2.495   0.596   2.230  0.0812 -1.0961 -1.3767
21824SOL    HW266914   2.494   0.626   2.378 -1.1746  0.9540 -1.7633
21825SOL     OW66915   2.796   2.385   4.185 -0.7007  0.0062 -0.3168
21825SOL    HW166916   2.804   2.415   4.094  0.1288 -1.1349 -0.6428
21825SOL    HW266917   2.795   2.290   4.179  0.0668 -0.1038  0.9179
21826SOL     OW66918   4.740   6.101   5.867  0.0330 -0.0293 -0.2952
21826SOL    HW166919   4.819   6.108   5.813  0.3494  0.2272  0.1951
21826SOL    HW266920   4.713   6.010   5.857 -1.0282  0.4564 -2.4201
21827SOL     OW66921   4.044   6.520  10.817  0.3299 -0.3435 -0.0087
21827SOL    HW166922   4.122   6.556  10.860  1.4480 -2.5969  0.0201
21827SOL    HW266923   4.078   6.473  10.741 -1.1403 -0.4167 -0.6611
21828SOL     OW66924   4.065   4.924   6.927 -0.4696 -0.4181  0.2650
21828SOL    HW166925   3.997   4.981   6.963 -0.2389 -0.5914  0.9915
21828SOL    HW266926   4.090   4.867   7.000  0.8723  0.0467  0.2062
21829SOL     OW66927   1.030   4.462   3.596 -0.2243 -0.4127  0.4728
21829SOL    HW166928   1.099   4.465   3.529  0.2100  0.7945  0.9452
21829SOL    HW266929   0.967   4.529   3.569 -0.2486 -0.1963  1.0437
21830SOL     OW66930   4.138   4.531   8.065  0.0352 -0.4357  0.1781
21830SOL    HW166931   4.177   4.618   8.053 -2.5548  0.5631 -1.8554
21830SOL    HW266932   4.096   4.535   8.150  1.7265 -0.5270  1.0691
21831SOL     OW66933   3.446   0.230  11.585  0.3901 -0.1398 -0.2578
21831SOL    HW166934   3.400   0.179  11.518 -2.2427  1.0685  0.5099
21831SOL    HW266935   3.481   0.306  11.539 -0.9899  0.4372 -0.3867
21832SOL     OW66936   5.515   4.537   1.259  0.2862  0.0899  0.2568
21832SOL    HW166937   5.576   4.464   1.258  0.6936  0.4234 -0.6179
21832SOL    HW266938   5.490   4.549   1.168  1.1419  1.7657  0.1864
21833SOL     OW66939   1.338   0.179   6.168  0.3302 -0.3724 -0.2599
21833SOL    HW166940   1.261   0.227   6.200  0.1057 -0.6646 -0.3611
21833SOL    HW266941   1.357   0.218   6.083  0.6251  0.0679  0.0044
21834SOL     OW66942   3.015   5.291   8.789  0.0634  0.0737 -0.3379
21834SOL    HW166943   3.103   5.288   8.827  0.5192  1.5758 -1.2014
21834SOL    HW266944   2.998   5.202   8.760  1.3159 -0.2302 -0.1928
21835SOL     OW66945   7.429   4.411   3.925  0.3837 -0.1013  0.3590
21835SOL    HW166946   7.430   4.343   3.858 -0.8782 -0.2873  0.5194
21835SOL    HW266947   7.519   4.413   3.958  0.5722 -1.2941 -0.0381
21836SOL     OW66948   3.217   0.065   8.762 -0.3492 -0.6189 -0.0696
21836SOL    HW166949   3.289   0.002   8.760 -0.1137 -0.3434 -1.4447
21836SOL    HW266950   3.159   0.036   8.691 -1.0867 -0.2461  0.3697
21837SOL     OW66951   2.932   2.445   2.764 -0.0045 -0.2308 -0.0967
21837SOL    HW166952   2.862   2.510   2.760 -0.4681 -0.7674 -1.8808
21837SOL    HW266953   2.902   2.374   2.707  0.8863 -1.6268  1.0869
21838SOL     OW66954   5.388   4.817  10.316  0.2610  0.0666 -0.5890
21838SOL    HW166955   5.434   4.864  10.246  1.2254 -0.6300 -0.4402
21838SOL    HW266956   5.402   4.725  10.296 -0.1209 -0.1416  0.0892
21839SOL     OW66957   0.432   3.341   2.379 -0.2677 -0.2460  0.3089
21839SOL    HW166958   0.361   3.394   2.344  0.5570  1.3878  1.0299
21839SOL    HW266959   0.394   3.295   2.454 -0.5207  0.8113  0.8401
21840SOL     OW66960   3.221   0.861   6.588  0.3043 -0.0909  0.3429
21840SOL    HW166961   3.288   0.871   6.520 -0.2118  1.9044  0.0573
21840SOL    HW266962   3.249   0.785   6.639  1.8382 -0.3449 -0.8088
21841SOL     OW66963   6.121   3.038   2.941  0.2041 -0.0821 -0.7080
21841SOL    HW166964   6.215   3.019   2.936  0.1761 -0.4361 -0.0945
21841SOL    HW266965   6.106   3.056   3.034  0.3978  4.0605 -1.2931
21842SOL     OW66966   4.153   3.872   3.765  0.6328  0.4858 -0.1547
21842SOL    HW166967   4.159   3.822   3.683 -0.3952  1.3969 -0.8062
21842SOL    HW266968   4.224   3.837   3.819 -0.4652 -2.2256 -0.2807
21843SOL     OW66969   6.912   0.731   4.040 -0.5228  0.0525  0.7127
21843SOL    HW166970   6.828   0.727   4.086 -0.6452  0.5796  0.5385
21843SOL    HW266971   6.889   0.724   3.948 -0.3810  0.2395  0.6634
21844SOL     OW66972   7.109   5.322   0.873 -0.6271  0.0710  0.6099
21844SOL    HW166973   7.192   5.340   0.828 -0.6856  2.1650  1.2481
21844SOL    HW266974   7.119   5.233   0.906  2.3833  0.9720  2.6351
21845SOL     OW66975   4.529   0.333   8.145  0.5693  0.9275 -0.7234
21845SOL    HW166976   4.538   0.406   8.083  1.4830  1.1498 -0.3396
21845SOL    HW266977   4.568   0.365   8.226  0.9093  0.0402 -0.5268
21846SOL     OW66978   7.047   0.321   4.925  0.4581  0.1881  0.4282
21846SOL    HW166979   7.061   0.415   4.925  0.3302  0.2071  0.0472
21846SOL    HW266980   6.972   0.307   4.866  1.1283 -0.2478 -0.3360
21847SOL     OW66981   7.708   5.917   1.778 -0.1957  0.1174 -0.5571
21847SOL    HW166982   7.616   5.891   1.773 -0.0167 -0.3602 -1.7504
21847SOL    HW266983   7.706   6.004   1.819 -1.1847  0.1271 -0.6032
21848SOL     OW66984   4.306   1.760  10.966 -0.0538  0.2417  0.7474
21848SOL    HW166985   4.345   1.772  10.879  0.8848 -1.4017  0.9090
21848SOL    HW266986   4.216   1.734  10.949 -0.2250  1.0727  0.3094
21849SOL     OW66987   7.687   4.774   2.972 -0.4554  0.2240  0.4261
21849SOL    HW166988   7.767   4.770   3.023 -0.2419 -0.1473  0.0625
21849SOL    HW266989   7.617   4.777   3.037 -0.1526  0.5033  0.7429
21850SOL     OW66990   1.248   3.153   6.398  0.1653 -0.2884  0.1001
21850SOL    HW166991   1.294   3.236   6.414  0.9201 -0.6409 -0.1620
21850SOL    HW266992   1.266   3.134   6.305  3.2087 -2.5968  0.9903
21851SOL     OW66993   5.336   2.304   4.893  0.0641  0.0145  0.2698
21851SOL    HW166994   5.256   2.276   4.847 -0.4853 -0.2953  1.3674
21851SOL    HW266995   5.378   2.365   4.833 -0.6945 -0.2736 -0.5841
21852SOL     OW66996   4.313   6.397   7.843 -0.6878  0.3671  0.2228
21852SOL    HW166997   4.335   6.437   7.759  0.8912  3.6534  2.0157
21852SOL    HW266998   4.398   6.369   7.879 -1.5847 -3.8186 -0.3796
21853SOL     OW66999   5.703   5.091   5.736 -0.3811 -0.2237  0.8502
21853SOL    HW167000   5.795   5.092   5.762 -0.4800  0.0648  1.2008
21853SOL    HW267001   5.659   5.141   5.805 -0.8234 -0.5149  0.7756
21854SOL     OW67002   5.072   7.222   9.854 -0.6281  0.3605 -0.0439
21854SOL    HW167003   5.062   7.148   9.794 -2.2018 -1.1968  1.9427
21854SOL    HW267004   5.033   7.296   9.808 -0.4942 -0.4191 -1.4781
21855SOL     OW67005   3.973   0.540  10.468 -0.1663 -0.4396  0.0591
21855SOL    HW167006   4.029   0.482  10.418  1.5800 -0.2430  1.6963
21855SOL    HW267007   4.030   0.612  10.495 -1.4138  0.2323  1.0266
21856SOL     OW67008   4.628   5.276  12.223 -0.3462  0.4651 -0.7644
21856SOL    HW167009   4.542   5.303  12.255  0.0188 -0.8629  1.5172
21856SOL    HW267010   4.613   5.190  12.184 -0.0599  0.2278 -0.3535
21857SOL     OW67011   4.651   0.112   4.338 -0.4626  0.2493  0.4707
21857SOL    HW167012   4.704   0.058   4.279 -2.1342 -0.5734 -0.3669
21857SOL    HW267013   4.714   0.154   4.396  0.9927 -1.7602  0.4306
21858SOL     OW67014   0.724   6.371   1.715 -0.2562  0.3803 -0.3703
21858SOL    HW167015   0.786   6.298   1.705 -1.2020 -0.4603 -0.2881
21858SOL    HW267016   0.643   6.340   1.674 -1.1485  0.7808  1.0072
21859SOL     OW67017   1.899   7.728   6.502 -0.3566  0.0264  0.2639
21859SOL    HW167018   1.893   7.658   6.566  0.3274 -0.3994 -0.1247
21859SOL    HW267019   1.971   7.783   6.532  1.3261 -1.2865 -1.1624
21860SOL     OW67020   3.782   3.455   8.296 -0.1172 -0.1165  0.7957
21860SOL    HW167021   3.735   3.388   8.347 -2.2486  0.0979 -0.7295
21860SOL    HW267022   3.713   3.514   8.265  1.1731  0.3129 -1.5043
21861SOL     OW67023   4.397   7.586   5.835 -0.0007 -0.6655  0.2898
21861SOL    HW167024   4.323   7.533   5.805 -0.5747 -0.1816  0.8426
21861SOL    HW267025   4.390   7.587   5.930 -0.4802  1.0675  0.2659
21862SOL     OW67026   0.693   1.076   2.131 -0.0262 -0.1691 -0.0637
21862SOL    HW167027   0.617   1.101   2.077  0.4178  0.5249 -0.3706
21862SOL    HW267028   0.685   1.129   2.210  1.5330  1.9056 -1.1915
21863SOL     OW67029   1.744   4.535  10.068  0.0681  0.1617  0.4869
21863SOL    HW167030   1.792   4.487   9.999 -0.0046 -1.3987  1.4727
21863SOL    HW267031   1.671   4.575  10.022  0.3281 -0.3869 -0.4521
21864SOL     OW67032   6.021   2.898   5.125  0.1420  0.0243  0.3022
21864SOL    HW167033   6.018   2.811   5.164  0.9886 -0.1351  0.0140
21864SOL    HW267034   6.010   2.958   5.200  1.9747 -0.2741  0.8533
21865SOL     OW67035   3.084   6.061   9.722 -0.1467  0.2879  0.1141
21865SOL    HW167036   3.136   6.135   9.755 -0.1877  0.5585 -0.4263
21865SOL    HW267037   3.044   6.094   9.642 -2.3803  0.6054  1.2696
21866SOL     OW67038   4.375   6.499   2.473  0.1730 -0.6778  0.0644
21866SOL    HW167039   4.391   6.489   2.566  0.2326 -0.8853  0.0326
21866SOL    HW267040   4.289   6.539   2.467 -1.6462 -4.1908  0.1525
21867SOL     OW67041   2.889   2.971   0.627 -0.0879 -0.3281  0.1830
21867SOL    HW167042   2.963   2.994   0.571 -0.6345 -1.0095 -0.8456
21867SOL    HW267043   2.823   2.936   0.567 -0.1623 -2.4255  1.3652
21868SOL     OW67044   5.879   7.176   7.194 -0.1893 -0.3487 -0.4414
21868SOL    HW167045   5.786   7.193   7.178 -0.2893 -1.6586 -1.4141
21868SOL    HW267046   5.912   7.143   7.110  1.4363  1.1834 -0.4587
21869SOL     OW67047   4.977   3.008   3.651  0.0299 -0.4596  0.3724
21869SOL    HW167048   4.968   3.094   3.694 -2.0004 -0.3914 -0.0556
21869SOL    HW267049   5.062   2.975   3.679  0.9795  1.7954  0.3687
21870SOL     OW67050   6.312   2.528   6.745  0.5511 -0.6254 -0.0650
21870SOL    HW167051   6.302   2.435   6.722 -2.5758 -0.5254  0.5625
21870SOL    HW267052   6.354   2.566   6.667 -0.1122 -2.1662 -1.2481
21871SOL     OW67053   5.109   3.533  12.251  0.1480 -1.1121  0.0973
21871SOL    HW167054   5.119   3.559  12.342 -0.0330 -1.6062  0.2582
21871SOL    HW267055   5.024   3.490  12.247 -0.3467 -0.1127 -0.5342
21872SOL     OW67056   0.940   1.143  11.881 -0.2998 -0.0484  0.1757
21872SOL    HW167057   1.004   1.146  11.952  1.4839 -0.7841 -1.2917
21872SOL    HW267058   0.944   1.229  11.840 -0.9913  0.2260  0.6701
21873SOL     OW67059   0.263   3.061   4.455 -0.1706 -0.3369  0.1525
21873SOL    HW167060   0.319   2.988   4.429  0.1847  0.9460 -3.1324
21873SOL    HW267061   0.178   3.041   4.414 -0.7106  0.0850  1.0396
21874SOL     OW67062   6.636   6.028   4.387 -0.4343  0.4082  0.0301
21874SOL    HW167063   6.731   6.033   4.373 -0.4959  0.0567 -0.5640
21874SOL    HW267064   6.603   6.113   4.358 -0.2595  0.6774  0.6136
21875SOL     OW67065   2.455   0.835   7.313 -0.2823  0.2338 -0.7484
21875SOL    HW167066   2.537   0.868   7.274 -0.0138 -0.6065 -0.9227
21875SOL    HW267067   2.407   0.798   7.239 -0.3602 -0.1956 -0.4826
21876SOL     OW67068   0.945   1.110  10.322  0.3895 -0.0230 -0.3467
21876SOL    HW167069   0.943   1.030  10.269  1.3686 -2.2184  2.6803
21876SOL    HW267070   0.861   1.110  10.369  1.2615 -0.5192  1.2728
21877SOL     OW67071   0.042   3.615   3.475  0.7113 -0.1209  0.2137
21877SOL    HW167072   0.128   3.610   3.517  1.3672  1.0787 -0.9488
21877SOL    HW267073   0.050   3.685   3.410 -1.4794  0.8248  0.8612
21878SOL     OW67074   5.936   1.777   1.152 -0.0180 -0.0743  0.7470
21878SOL    HW167075   5.942   1.851   1.213 -0.7038  1.3210 -0.8142
21878SOL    HW267076   5.918   1.817   1.067 -0.3578 -2.0495 -0.1641
21879SOL     OW67077   6.071   5.983   0.795 -0.0486  0.3508  0.4467
21879SOL    HW167078   6.024   5.903   0.772 -0.5073  0.9745 -0.9089
21879SOL    HW267079   6.021   6.022   0.866 -0.3097 -0.1291  0.5256
21880SOL     OW67080   1.537   0.936   4.366  0.4114 -0.3852  0.5616
21880SOL    HW167081   1.461   0.879   4.356  0.1009  0.0205  0.5703
21880SOL    HW267082   1.600   0.905   4.300  0.2399 -0.7272  0.5618
21881SOL     OW67083   7.599   4.967   7.294  0.6976  0.5074  0.0188
21881SOL    HW167084   7.639   4.940   7.212 -0.1260 -1.5165  0.2384
21881SOL    HW267085   7.628   4.902   7.358 -1.5354 -0.1050  0.5236
21882SOL     OW67086   2.091   5.591   1.443 -0.0467 -0.0306 -0.1472
21882SOL    HW167087   2.000   5.614   1.462 -0.0669 -0.7911  0.7332
21882SOL    HW267088   2.104   5.618   1.352 -0.7897  1.1667  0.0779
21883SOL     OW67089   0.801   5.411   7.491  0.2058  0.0140 -0.1270
21883SOL    HW167090   0.884   5.458   7.484 -0.3532  1.0815  0.1861
21883SOL    HW267091   0.796   5.384   7.583 -0.2200  0.7871  0.0855
21884SOL     OW67092   0.495   4.214   6.351 -0.1673  0.4282 -0.4457
21884SOL    HW167093   0.428   4.146   6.343  0.7948 -0.3288 -2.8131
21884SOL    HW267094   0.577   4.166   6.360  0.1827  1.3525  2.2080
21885SOL     OW67095   6.348   1.942  11.936 -0.5574 -0.0716  0.1148
21885SOL    HW167096   6.340   1.950  12.031  0.2292  2.0394  0.0614
21885SOL    HW267097   6.337   2.031  11.903  0.6590 -0.5100 -1.6431
21886SOL     OW67098   3.519   6.020   8.038  0.1493  1.1080  0.9047
21886SOL    HW167099   3.435   6.046   8.076 -0.3107  0.4343  0.3832
21886SOL    HW267100   3.515   5.925   8.033  0.3349  1.1502 -0.4686
21887SOL     OW67101   3.032   2.151   5.421  0.8520  0.1141 -0.1687
21887SOL    HW167102   2.949   2.176   5.462  0.2182 -1.0649 -0.6929
21887SOL    HW267103   3.056   2.070   5.465  0.8188 -0.4810 -1.2193
21888SOL     OW67104   1.203   6.222   8.876  0.2443  0.3223 -0.9408
21888SOL    HW167105   1.271   6.281   8.844  1.4368  0.2470  1.2905
21888SOL    HW267106   1.223   6.138   8.835  1.4814  0.3230 -0.3912
21889SOL     OW67107   2.549   3.946   7.578  0.0622  0.1851 -0.5416
21889SOL    HW167108   2.632   3.915   7.613 -1.1836 -3.2593 -0.2281
21889SOL    HW267109   2.522   4.015   7.638  2.0175  0.4153  0.1490
21890SOL     OW67110   3.225   4.998   5.853  0.0027 -0.2247 -0.2359
21890SOL    HW167111   3.262   5.071   5.805  0.3324 -0.2407 -0.0133
21890SOL    HW267112   3.151   5.035   5.902  0.1201 -0.0607 -0.1861
21891SOL     OW67113   7.523   1.643   8.931 -0.0969  0.0010 -0.8183
21891SOL    HW167114   7.441   1.651   8.981  2.0711  0.1200  3.0943
21891SOL    HW267115   7.530   1.550   8.910  0.0948 -0.5429  1.4621
21892SOL     OW67116   4.174   1.028   0.177  0.2665  0.6697  0.2154
21892SOL    HW167117   4.228   1.026   0.256 -0.7814 -0.9274  0.9406
21892SOL    HW267118   4.117   1.104   0.188  0.4374  0.7207  0.7733
21893SOL     OW67119   2.882   7.262   5.686 -0.2488  0.4026  0.2913
21893SOL    HW167120   2.891   7.352   5.718 -3.0413  0.2341  1.8383
21893SOL    HW267121   2.836   7.271   5.602 -1.2999  0.4151  0.8538
21894SOL     OW67122   3.103   3.387   5.743 -0.0736 -0.0890  0.5501
21894SOL    HW167123   3.069   3.381   5.832 -0.2368  1.4819  0.6189
21894SOL    HW267124   3.089   3.479   5.718  0.4890 -0.3676 -0.8805
21895SOL     OW67125   1.558   4.300   7.527  0.6754  0.9174  0.1397
21895SOL    HW167126   1.607   4.230   7.483  1.9844  1.6354  0.3990
21895SOL    HW267127   1.587   4.380   7.482  0.6919  1.4824  1.1422
21896SOL     OW67128   4.954   3.102   6.978 -1.1136  0.4263  0.3479
21896SOL    HW167129   5.033   3.148   6.950 -0.5609 -0.9793 -0.4898
21896SOL    HW267130   4.883   3.144   6.928 -0.4512 -0.4174 -1.4085
21897SOL     OW67131   6.693   2.856   7.475  0.3174 -0.4881  0.0870
21897SOL    HW167132   6.720   2.916   7.405 -1.8760 -0.0269 -0.4317
21897SOL    HW267133   6.743   2.886   7.552 -0.1202  1.5330 -0.3449
21898SOL     OW67134   5.417   3.386   4.700  0.0568  0.0704  0.0559
21898SOL    HW167135   5.403   3.395   4.605 -0.1701  0.7401  0.1489
21898SOL    HW267136   5.463   3.466   4.724 -0.7596  0.3617  0.6809
21899SOL     OW67137   1.582   4.891   2.063 -0.2489 -0.5660  0.5024
21899SOL    HW167138   1.619   4.806   2.087 -0.6452 -1.8353 -2.9220
21899SOL    HW267139   1.648   4.931   2.006 -0.1843  1.3758  1.8423
21900SOL     OW67140   2.459   5.132   1.131 -0.2849  0.1254  0.6813
21900SOL    HW167141   2.419   5.048   1.110 -0.4571  0.6273 -1.1439
21900SOL    HW267142   2.408   5.165   1.205 -1.4534 -0.5109  0.1765
21901SOL     OW67143   6.218   7.519   3.004 -0.1429 -0.4731  0.1278
21901SOL    HW167144   6.185   7.480   2.923 -0.7626  0.1922  0.0512
21901SOL    HW267145   6.301   7.474   3.020  0.2019 -0.3125 -1.1064
21902SOL     OW67146   2.100   0.410   1.890 -0.6754 -0.2899  0.2468
21902SOL    HW167147   2.015   0.452   1.872 -0.7033 -1.1209 -1.8088
21902SOL    HW267148   2.109   0.344   1.822  1.8186  0.0241  0.1948
21903SOL     OW67149   6.943   7.703   4.517 -0.1983  0.1157 -0.0786
21903SOL    HW167150   6.906   7.649   4.587 -1.1233 -0.3787 -0.9285
21903SOL    HW267151   6.937   7.793   4.551 -1.9650  0.0324 -0.0762
21904SOL     OW67152   5.047   5.713   5.277 -0.9558  0.6949  0.1972
21904SOL    HW167153   5.045   5.652   5.203 -0.0473  0.7214  0.1339
21904SOL    HW267154   4.981   5.779   5.255 -0.6145  0.7739 -0.6676
21905SOL     OW67155   3.336   3.287   0.360  0.3868  0.1294 -0.0414
21905SOL    HW167156   3.342   3.382   0.351  2.4837 -0.0044 -0.3829
21905SOL    HW267157   3.284   3.275   0.440 -0.4918  1.5376 -0.3561
21906SOL     OW67158   2.073   4.552  10.107 -0.0251  0.4490 -0.3234
21906SOL    HW167159   2.011   4.611  10.149  1.3677  0.7247  1.4820
21906SOL    HW267160   2.059   4.467  10.150 -0.3171  0.0699 -1.1423
21907SOL     OW67161   3.217   4.596  12.148 -0.8780  0.1352  0.0982
21907SOL    HW167162   3.189   4.654  12.219 -1.0347  0.6822 -0.4099
21907SOL    HW267163   3.155   4.523  12.152 -0.8780  0.1546  0.5296
21908SOL     OW67164   2.587   4.074  11.869 -0.0386 -0.0341 -0.1811
21908SOL    HW167165   2.608   3.994  11.821 -1.0785 -0.1290 -0.4981
21908SOL    HW267166   2.508   4.107  11.827  0.5891  1.3793 -0.3137
21909SOL     OW67167   1.757   5.220   1.032  0.0338  0.5767  0.0694
21909SOL    HW167168   1.828   5.247   0.973 -0.7643 -1.0231 -1.7321
21909SOL    HW267169   1.697   5.171   0.976  0.4608 -3.3458  2.6285
21910SOL     OW67170   4.741   1.540   1.670  0.2127  0.1925 -0.1362
21910SOL    HW167171   4.796   1.520   1.594 -1.4052 -1.1023 -1.0303
21910SOL    HW267172   4.652   1.527   1.639 -0.5403  0.6626  1.7153
21911SOL     OW67173   0.162   4.829   2.932  0.4007 -0.1191 -0.1416
21911SOL    HW167174   0.103   4.762   2.967  1.5628 -0.5507  1.0657
21911SOL    HW267175   0.136   4.910   2.975  1.5783 -0.5772  1.5201
21912SOL     OW67176   1.443   1.430   1.060  0.0864 -0.3213  0.2858
21912SOL    HW167177   1.347   1.429   1.057  0.0304 -2.7104  0.8765
21912SOL    HW267178   1.465   1.522   1.078 -2.0492  0.3634 -0.2152
21913SOL     OW67179   7.773   6.129   8.267  0.5000  0.2498 -0.1329
21913SOL    HW167180   7.868   6.130   8.279  0.6268 -1.6648 -0.6439
21913SOL    HW267181   7.761   6.092   8.180 -0.7420 -0.8247  0.4722
21914SOL     OW67182   2.065   7.681   5.822 -0.7078  0.4173  0.4593
21914SOL    HW167183   2.066   7.617   5.751  1.2935 -0.2401  1.0114
21914SOL    HW267184   2.058   7.629   5.902 -1.5960  1.0654  0.8227
21915SOL     OW67185   1.397   6.365   5.086  0.3579 -0.2584 -0.3136
21915SOL    HW167186   1.433   6.343   5.000  1.5062  1.1389 -0.2225
21915SOL    HW267187   1.445   6.444   5.113 -2.2695  1.3106  0.1359
21916SOL     OW67188   2.481   6.034   1.989 -0.0683  0.1680  0.6172
21916SOL    HW167189   2.493   6.035   2.084  0.4041  1.8401  0.5750
21916SOL    HW267190   2.569   6.034   1.953 -0.2437 -0.1914  0.1788
21917SOL     OW67191   4.629   1.796   1.779 -0.1468 -0.5992 -0.3421
21917SOL    HW167192   4.623   1.717   1.724  0.8673 -0.5281 -0.5641
21917SOL    HW267193   4.716   1.831   1.761  0.0354 -0.3359  1.0038
21918SOL     OW67194   1.600   3.446   6.619  0.3411 -0.1870 -0.7133
21918SOL    HW167195   1.580   3.363   6.662  0.8315  0.2122  0.3399
21918SOL    HW267196   1.642   3.498   6.688  0.1418  0.8896 -1.3880
21919SOL     OW67197   7.812   6.358   3.901  0.0451  0.1880  0.2799
21919SOL    HW167198   7.769   6.349   3.986 -2.2112 -0.1266 -0.8103
21919SOL    HW267199   7.772   6.436   3.862  1.3103  0.5472 -0.3731
21920SOL     OW67200   2.641   3.728   5.996  0.0794 -0.2385 -0.0927
21920SOL    HW167201   2.668   3.651   6.046  1.2903  0.8262  0.9753
21920SOL    HW267202   2.701   3.730   5.921 -0.3830 -0.6694 -0.4889
21921SOL     OW67203   1.599   4.847  10.506 -0.0773  0.3720 -0.1278
21921SOL    HW167204   1.535   4.801  10.451  0.4388 -1.7440  0.9500
21921SOL    HW267205   1.682   4.836  10.460  0.3244 -1.2474  0.9259
21922SOL     OW67206   1.206   1.319   3.480 -0.2322  0.4691 -0.4003
21922SOL    HW167207   1.245   1.268   3.410 -0.7113 -1.0518  0.4088
21922SOL    HW267208   1.262   1.397   3.486  1.3977 -0.6330 -0.7006
21923SOL     OW67209   3.828   6.422  11.048  0.3468  0.1939 -0.1943
21923SOL    HW167210   3.877   6.435  11.129  2.1275  0.7216 -1.2787
21923SOL    HW267211   3.873   6.350  11.005 -1.2773 -0.8348 -0.2298
21924SOL     OW67212   5.948   2.904   2.319  0.1440  0.2005 -0.5380
21924SOL    HW167213   5.971   2.993   2.344  1.6308  0.1971 -1.7736
21924SOL    HW267214   6.031   2.862   2.298 -0.6553 -1.0317 -1.4081
21925SOL     OW67215   7.696   6.444   1.568 -0.2678  0.2191  0.5580
21925SOL    HW167216   7.611   6.424   1.530 -0.3764  0.9581  0.3826
21925SOL    HW267217   7.698   6.540   1.572 -0.0940  0.1759  2.0572
21926SOL     OW67218   1.275   5.566   3.440  0.3490 -0.1838 -0.4293
21926SOL    HW167219   1.336   5.544   3.370  0.1041 -1.3049 -0.3012
21926SOL    HW267220   1.211   5.495   3.440  0.4793 -0.3293  1.0803
21927SOL     OW67221   7.059   7.381   4.440 -0.1167 -0.6610 -0.1838
21927SOL    HW167222   7.085   7.463   4.399 -0.2356  0.0362  1.0767
21927SOL    HW267223   7.108   7.379   4.522 -0.7707 -1.4293  0.2017
21928SOL     OW67224   1.672   7.815   2.907 -0.3989  0.0626  0.1410
21928SOL    HW167225   1.669   7.878   2.836  0.2235  0.6107  0.5949
21928SOL    HW267226   1.606   7.846   2.970 -1.7158 -1.0085 -0.6546
21929SOL     OW67227   4.602   6.331   7.977  0.5694  0.0075  0.0122
21929SOL    HW167228   4.658   6.279   7.920 -0.4274  1.9772 -2.9685
21929SOL    HW267229   4.662   6.365   8.044  2.1267 -1.0491 -0.7685
21930SOL     OW67230   7.669   2.956   8.968  0.6275  0.6564 -0.3681
21930SOL    HW167231   7.650   3.025   8.904  1.4935 -0.7626 -2.2774
21930SOL    HW267232   7.763   2.961   8.981  1.2170 -1.7901 -2.7080
21931SOL     OW67233   4.805   1.287  10.793 -0.4592  0.4494  0.2390
21931SOL    HW167234   4.886   1.298  10.842 -0.2586  2.0899 -0.3946
21931SOL    HW267235   4.769   1.204  10.824  0.6271  0.4955  1.7218
21932SOL     OW67236   0.616   3.646   4.406 -0.0318 -0.3592  0.2249
21932SOL    HW167237   0.704   3.640   4.443 -1.3056  0.0437  3.7590
21932SOL    HW267238   0.576   3.719   4.453 -1.6796  0.8242 -2.7766
21933SOL     OW67239   0.452   3.913  12.123 -0.4276  0.1022  0.5223
21933SOL    HW167240   0.518   3.844  12.134 -0.3391  0.3893  2.1166
21933SOL    HW267241   0.486   3.968  12.053 -0.0589 -0.9708 -0.1583
21934SOL     OW67242   0.460   2.496   9.250 -0.3878 -0.0870 -0.1934
21934SOL    HW167243   0.419   2.499   9.163 -2.1796  1.0692  0.6141
21934SOL    HW267244   0.482   2.587   9.268  1.5035 -0.5387 -0.0787
21935SOL     OW67245   1.994   3.007  10.975 -0.4021 -0.7886 -0.0956
21935SOL    HW167246   1.913   3.042  10.938  0.2830 -0.7322 -1.6211
21935SOL    HW267247   2.064   3.046  10.921  0.6227 -1.1287  0.9453
21936SOL     OW67248   2.294   1.029   6.110  0.6162  0.1133 -0.1830
21936SOL    HW167249   2.341   1.074   6.041  1.3300  2.2088  1.5407
21936SOL    HW267250   2.221   1.088   6.132 -1.2171 -1.7699 -0.9234
21937SOL     OW67251   1.043   0.656   5.900  0.0697  0.0829 -0.0765
21937SOL    HW167252   0.983   0.582   5.907  0.7811 -0.4335  0.6641
21937SOL    HW267253   0.986   0.731   5.883 -0.7449 -0.4707  0.1432
21938SOL     OW67254   2.631   0.766   9.314 -0.4771  0.2544 -0.0089
21938SOL    HW167255   2.548   0.726   9.291 -1.2537  2.2900 -1.0817
21938SOL    HW267256   2.639   0.840   9.253  2.2156  0.0117 -0.0691
21939SOL     OW67257   1.126   5.863  12.154  0.0878  0.3548 -0.2311
21939SOL    HW167258   1.142   5.905  12.239  2.2675 -1.1542  0.1714
21939SOL    HW267259   1.197   5.800  12.144 -1.8055 -1.7168 -1.7995
21940SOL     OW67260   0.271   6.021   7.213 -0.3259 -0.3958  0.0233
21940SOL    HW167261   0.286   6.045   7.122  2.5911 -0.6788  0.3261
21940SOL    HW267262   0.184   6.056   7.233 -0.5558  0.7149 -2.4995
21941SOL     OW67263   3.686   4.187   8.296  0.6639 -0.2428 -0.0380
21941SOL    HW167264   3.714   4.224   8.379 -1.7774  1.4042  0.1482
21941SOL    HW267265   3.727   4.244   8.230 -0.6633  1.0489  0.1898
21942SOL     OW67266   1.555   1.501   7.799  0.2227 -0.1927 -0.1911
21942SOL    HW167267   1.473   1.458   7.773 -0.1222 -0.5339  1.3965
21942SOL    HW267268   1.538   1.533   7.887  1.5744  0.3563 -0.1181
21943SOL     OW67269   3.117   6.244  10.000  0.1159  0.2880  0.5959
21943SOL    HW167270   3.190   6.286   9.955  0.2509 -2.6459 -2.3806
21943SOL    HW267271   3.041   6.297   9.976  0.5217  0.0586 -1.3669
21944SOL     OW67272   0.573   3.726   7.707  0.0604  0.4609 -0.3447
21944SOL    HW167273   0.513   3.652   7.713  1.5620 -0.7765  0.2821
21944SOL    HW267274   0.545   3.785   7.777 -1.2586  0.5885 -0.9586
21945SOL     OW67275   4.837   0.785  12.311 -0.0908 -0.0059 -0.6644
21945SOL    HW167276   4.896   0.851  12.347 -2.0695  1.2616  0.3939
21945SOL    HW267277   4.895   0.721  12.270  2.1047  0.2350  1.8387
21946SOL     OW67278   0.731   5.877   3.390 -0.2476  0.1620  0.1070
21946SOL    HW167279   0.671   5.944   3.356 -0.6819 -0.0709  0.3966
21946SOL    HW267280   0.818   5.916   3.383 -0.2660 -0.0234 -1.6579
21947SOL     OW67281   5.989   6.237   8.804  0.4264  0.5317 -0.3957
21947SOL    HW167282   6.030   6.323   8.804  0.3590  0.5883  0.9020
21947SOL    HW267283   5.925   6.241   8.876 -1.5194  0.2765 -2.0286
21948SOL     OW67284   4.395   4.400   4.504 -0.0102 -0.2616 -0.2699
21948SOL    HW167285   4.453   4.374   4.432  0.9038 -0.0406  0.3719
21948SOL    HW267286   4.320   4.442   4.460  0.5880 -0.0144 -1.0866
21949SOL     OW67287   0.849   4.208   2.069  0.0177  0.2850 -0.7613
21949SOL    HW167288   0.826   4.276   2.133 -0.2754  0.5560 -1.1438
21949SOL    HW267289   0.829   4.248   1.984  0.1188 -0.1774 -1.0055
21950SOL     OW67290   3.442   2.215  11.669  0.7049  0.6538  0.0678
21950SOL    HW167291   3.465   2.283  11.732 -0.0936  0.9093  0.0947
21950SOL    HW267292   3.484   2.243  11.588  1.4472  0.5013  0.3919
21951SOL     OW67293   4.288   6.638   5.777  0.1860 -0.7899 -0.3984
21951SOL    HW167294   4.321   6.727   5.791 -0.5023 -0.4241 -1.0592
21951SOL    HW267295   4.232   6.621   5.853  0.7760 -0.9021  0.0305
21952SOL     OW67296   6.235   5.135   8.929 -0.4013 -0.3553  0.6210
21952SOL    HW167297   6.261   5.201   8.865  0.7679 -0.4416  0.9737
21952SOL    HW267298   6.215   5.186   9.008  0.6524 -0.4011  0.9412
21953SOL     OW67299   4.356   5.785  10.796 -0.0162 -0.4048 -0.0429
21953SOL    HW167300   4.309   5.706  10.771  0.5987 -0.6874 -0.3123
21953SOL    HW267301   4.426   5.794  10.732 -1.2902  1.4993 -1.2936
21954SOL     OW67302   7.587   3.785   5.818 -0.2868 -0.9729  0.0188
21954SOL    HW167303   7.679   3.811   5.811 -0.7452  0.5027 -0.8928
21954SOL    HW267304   7.552   3.838   5.889 -0.6156 -0.9560 -0.1530
21955SOL     OW67305   1.601   1.129   8.566  0.4570 -0.2216  0.4209
21955SOL    HW167306   1.600   1.116   8.660  1.7857 -2.2459  0.2032
21955SOL    HW267307   1.508   1.127   8.541  0.1648 -1.3356  1.4925
21956SOL     OW67308   4.935   1.926  11.159 -0.2028 -0.1607  0.3676
21956SOL    HW167309   4.911   1.873  11.083  0.2971  0.4834 -0.2509
21956SOL    HW267310   4.958   1.861  11.226 -0.7821 -0.7389  0.0236
21957SOL     OW67311   2.817   2.158  12.047  0.0567  0.5795 -0.2271
21957SOL    HW167312   2.820   2.093  12.118  1.0454  0.4365 -0.3798
21957SOL    HW267313   2.893   2.137  11.993 -1.1293  0.1531 -1.8091
21958SOL     OW67314   7.821   1.640   2.909 -0.2987  0.5323  0.5483
21958SOL    HW167315   7.871   1.656   2.829 -0.1064 -1.3227  0.2652
21958SOL    HW267316   7.860   1.561   2.946 -2.8573 -0.8552  0.4350
21959SOL     OW67317   0.956   4.391   0.052  1.0116  0.6134  0.3580
21959SOL    HW167318   0.914   4.418  -0.030 -0.1745 -0.3308  0.6336
21959SOL    HW267319   0.934   4.461   0.114  3.3955  2.2726 -0.4838
21960SOL     OW67320   4.638   6.142   6.731 -0.0233 -0.1401  0.0610
21960SOL    HW167321   4.692   6.196   6.789  0.5435 -0.1506 -0.4394
21960SOL    HW267322   4.549   6.174   6.743  0.1257  0.0368  0.7286
21961SOL     OW67323   1.534   6.951   9.014 -0.1961  0.0542 -0.5674
21961SOL    HW167324   1.538   6.893   9.090  0.4294  0.6367 -0.1340
21961SOL    HW267325   1.505   6.895   8.942  1.5742 -1.1185 -0.4570
21962SOL     OW67326   1.914   3.086  10.490  0.2226  0.0873 -0.1955
21962SOL    HW167327   1.880   2.997  10.497 -0.4716  0.2111 -1.5312
21962SOL    HW267328   1.841   3.142  10.516 -0.0656  0.3051 -1.4132
21963SOL     OW67329   4.839   1.026  11.018 -0.1849 -0.6226 -0.5723
21963SOL    HW167330   4.759   1.066  11.053 -0.3432 -1.0828 -0.4046
21963SOL    HW267331   4.905   1.095  11.025  0.5813 -1.5632  3.4566
21964SOL     OW67332   2.514   1.457   7.220  0.5295 -0.9196  0.7117
21964SOL    HW167333   2.460   1.531   7.190  0.4381 -1.0237  0.6200
21964SOL    HW267334   2.514   1.465   7.316  2.3853  0.5366  0.6457
21965SOL     OW67335   4.183   6.139   0.148  0.2663  0.3930 -0.0941
21965SOL    HW167336   4.277   6.124   0.152  0.1915 -0.6527 -1.5872
21965SOL    HW267337   4.149   6.067   0.095 -1.4203  0.5808  0.6652
21966SOL     OW67338   4.880   2.736   5.204  0.2760  0.4651  0.9370
21966SOL    HW167339   4.885   2.717   5.110 -0.8161  2.3753  0.4363
21966SOL    HW267340   4.944   2.677   5.244  0.4705 -0.6831 -0.9468
21967SOL     OW67341   3.869   7.925   8.127  0.0106  0.1490 -0.3726
21967SOL    HW167342   3.962   7.937   8.108  0.1679  0.5928  0.6017
21967SOL    HW267343   3.859   7.957   8.217 -0.7022 -1.6547  0.2383
21968SOL     OW67344   6.023   6.514   6.245  0.4531 -0.2966  0.2290
21968SOL    HW167345   6.037   6.442   6.184 -1.4174 -1.3600  0.9631
21968SOL    HW267346   6.005   6.471   6.329  0.1080  1.0532  0.8709
21969SOL     OW67347   1.669   7.510   7.281 -0.1655 -0.9072 -0.3085
21969SOL    HW167348   1.746   7.501   7.225 -0.2414 -1.1620 -0.3726
21969SOL    HW267349   1.633   7.422   7.286 -0.9619 -0.6384 -1.0020
21970SOL     OW67350   3.150   7.557   1.469 -0.2887  0.1193  0.0720
21970SOL    HW167351   3.237   7.593   1.486  0.1136 -1.3255  1.4293
21970SOL    HW267352   3.166   7.483   1.410 -0.7579  0.5425 -0.5973
21971SOL     OW67353   3.626   1.610   7.312  0.0926 -0.2261  0.4780
21971SOL    HW167354   3.611   1.680   7.249  1.0373 -0.0755  0.4033
21971SOL    HW267355   3.548   1.554   7.305  0.0758 -0.0821 -0.6564
21972SOL     OW67356   7.354   7.624   5.430 -0.1971  0.0183 -0.4351
21972SOL    HW167357   7.371   7.717   5.413  0.3992 -0.3865 -2.2260
21972SOL    HW267358   7.274   7.606   5.381 -0.6865 -0.2811  0.4507
21973SOL     OW67359   3.480   2.923   1.880 -0.3453  0.3142 -0.1454
21973SOL    HW167360   3.468   2.863   1.807  1.6643 -2.3348  1.5380
21973SOL    HW267361   3.398   2.917   1.930 -1.1404  1.0113 -1.3080
21974SOL     OW67362   0.621   4.952   4.124  0.3344  0.7992  0.3991
21974SOL    HW167363   0.632   4.953   4.029 -0.3818  0.0551  0.2961
21974SOL    HW267364   0.605   5.044   4.148 -1.1603  0.7811 -0.4209
21975SOL     OW67365   1.911   6.195  10.093 -0.4190  0.4783 -0.1226
21975SOL    HW167366   2.006   6.188  10.094 -0.2656  2.1325 -0.5517
21975SOL    HW267367   1.882   6.145  10.169  0.8010  0.1591  0.1504
21976SOL     OW67368   5.254   7.569  11.888  0.1807  0.0900  0.0795
21976SOL    HW167369   5.168   7.562  11.847 -0.9877  0.2161  2.3297
21976SOL    HW267370   5.262   7.488  11.940  1.2529  0.2703  0.2195
21977SOL     OW67371   1.898   1.724   3.049  0.1390 -0.1048 -0.1398
21977SOL    HW167372   1.980   1.692   3.014  0.0359 -1.3790  0.7371
21977SOL    HW267373   1.831   1.686   2.993  0.1255  1.1314 -1.0070
21978SOL     OW67374   0.938   3.452  10.827  0.1356 -0.0533 -0.5104
21978SOL    HW167375   0.914   3.486  10.741  0.9153 -0.0246 -0.7291
21978SOL    HW267376   0.910   3.361  10.825  1.0246 -0.3330 -1.1789
21979SOL     OW67377   4.439   7.613   1.734 -0.0730  0.2251 -0.3544
21979SOL    HW167378   4.494   7.541   1.703  1.8321  1.0980  0.8070
21979SOL    HW267379   4.392   7.576   1.809  1.5770  0.3879  0.8009
21980SOL     OW67380   6.844   4.320  10.852  0.3505  0.7527 -0.1948
21980SOL    HW167381   6.855   4.351  10.762  2.2544 -1.3206 -0.7886
21980SOL    HW267382   6.844   4.399  10.906 -1.8761  2.1117 -2.0399
21981SOL     OW67383   4.818   6.260   7.391  0.4375  0.3060  0.0086
21981SOL    HW167384   4.862   6.196   7.448  1.4801  0.0085 -1.0977
21981SOL    HW267385   4.860   6.343   7.413 -0.7533  0.6209  1.2754
21982SOL     OW67386   5.768   5.451   8.279 -0.5147 -0.8567  0.0845
21982SOL    HW167387   5.716   5.394   8.337  0.3679 -1.7058  0.0659
21982SOL    HW267388   5.800   5.521   8.336 -0.2493 -1.2899  0.4748
21983SOL     OW67389   4.985   6.833   6.474  0.2944  0.2180  0.0862
21983SOL    HW167390   5.010   6.838   6.566  0.7520  2.4182 -0.0916
21983SOL    HW267391   4.946   6.919   6.455  0.8090  0.0771 -1.9167
21984SOL     OW67392   0.795   2.730   1.904  0.6729  0.3968 -0.2056
21984SOL    HW167393   0.763   2.751   1.816 -0.6225  1.5150  0.4881
21984SOL    HW267394   0.722   2.684   1.946  0.7394  1.1015  0.7224
21985SOL     OW67395   1.814   3.031   1.593  0.1117 -0.3896  0.2760
21985SOL    HW167396   1.856   3.030   1.508  0.0809 -1.1784  0.2579
21985SOL    HW267397   1.886   3.039   1.656  0.2241 -0.8468  0.2103
21986SOL     OW67398   2.719   4.769   8.888 -0.1794 -0.7656  0.0777
21986SOL    HW167399   2.745   4.861   8.875  1.1399 -1.0536  0.5563
21986SOL    HW267400   2.624   4.769   8.876 -0.0568  0.4550 -1.1466
21987SOL     OW67401   5.538   0.249   4.702  0.2869  0.7670 -0.3088
21987SOL    HW167402   5.489   0.177   4.743  0.2526  1.0190  0.1020
21987SOL    HW267403   5.502   0.255   4.614  0.7497 -0.1546 -0.5745
21988SOL     OW67404   5.956   2.959   8.946  0.2565 -0.0126 -0.6742
21988SOL    HW167405   5.927   2.939   9.035  0.5528 -0.6010 -0.7105
21988SOL    HW267406   5.950   2.876   8.899 -0.7366  0.4774 -1.4421
21989SOL     OW67407   7.839   0.792   9.504  0.1881 -0.6892  0.5186
21989SOL    HW167408   7.877   0.719   9.554  0.2658 -0.5563  0.6541
21989SOL    HW267409   7.798   0.750   9.429 -0.1110 -0.9123  0.8020
21990SOL     OW67410   3.634   0.774   9.946  0.3967 -0.3127  0.4637
21990SOL    HW167411   3.669   0.756  10.033  0.5414  0.5197  0.5801
21990SOL    HW267412   3.682   0.851   9.916  0.7305 -0.8987 -0.5782
21991SOL     OW67413   1.264   0.775   8.367  1.0698  0.3001  0.1643
21991SOL    HW167414   1.245   0.703   8.308 -0.3649  0.7140  0.1069
21991SOL    HW267415   1.268   0.734   8.454 -0.8665  0.2906  0.2815
21992SOL     OW67416   2.859   7.146   2.824 -0.1232 -0.2068  0.1663
21992SOL    HW167417   2.862   7.158   2.729 -0.0984 -0.8359  0.0803
21992SOL    HW267418   2.886   7.055   2.837  1.0930  0.2287  0.8617
21993SOL     OW67419   6.552   4.728   2.809  0.5631 -0.1649 -0.1670
21993SOL    HW167420   6.533   4.751   2.718 -0.3825  2.2616  0.5788
21993SOL    HW267421   6.575   4.635   2.805 -0.5538 -0.4222 -2.7176
21994SOL     OW67422   3.352   2.478   3.293 -0.2002  0.1864 -0.7707
21994SOL    HW167423   3.308   2.454   3.374  2.3485 -1.6036  0.2294
21994SOL    HW267424   3.299   2.438   3.224 -0.7621 -0.9190  0.2627
21995SOL     OW67425   6.456   0.461  11.761  0.4204  0.1958  0.2075
21995SOL    HW167426   6.532   0.438  11.709 -0.9573  0.9747 -2.3121
21995SOL    HW267427   6.383   0.416  11.718 -0.8861  1.3427  1.1343
21996SOL     OW67428   4.518   3.778   8.305 -0.2525  0.1420 -0.0618
21996SOL    HW167429   4.593   3.768   8.247  0.2850 -0.8411  0.7726
21996SOL    HW267430   4.489   3.689   8.322 -1.5644  0.5061 -0.2969
21997SOL     OW67431   4.182   0.512  11.568 -0.0628  0.1148  0.3774
21997SOL    HW167432   4.228   0.589  11.601  0.8274 -0.2400 -0.0060
21997SOL    HW267433   4.098   0.513  11.614 -0.0431  1.2740  0.4201
21998SOL     OW67434   0.598   5.023   5.641  0.4116  0.1634 -0.2986
21998SOL    HW167435   0.676   5.074   5.621  0.7575 -0.9207 -1.9801
21998SOL    HW267436   0.543   5.031   5.562 -0.5485 -0.1887  0.3150
21999SOL     OW67437   5.545   0.926   3.623  0.0015 -0.2738  0.3409
21999SOL    HW167438   5.568   0.945   3.714 -2.8072 -1.0567  1.3042
21999SOL    HW267439   5.564   0.833   3.613 -0.7986 -0.4611  0.5179
22000SOL     OW67440   0.576   7.854   0.383  0.1124  0.2548  0.2327
22000SOL    HW167441   0.542   7.902   0.458  0.1909  1.3946 -0.4343
22000SOL    HW267442   0.651   7.906   0.353  0.4014 -0.4569 -0.3251
22001SOL     OW67443   5.138   4.513   2.201 -0.6955 -0.1644  0.0023
22001SOL    HW167444   5.127   4.418   2.194 -1.9848 -0.0088 -0.4305
22001SOL    HW267445   5.125   4.546   2.112 -0.2138  0.4236  0.1400
22002SOL     OW67446   6.182   7.062   7.969  0.2789  0.1718 -0.1132
22002SOL    HW167447   6.120   7.134   7.974 -0.5715 -0.5487 -0.1683
22002SOL    HW267448   6.247   7.082   8.037 -1.2073 -0.1774  1.4841
22003SOL     OW67449   3.286   0.920   4.717 -0.0934  0.2811 -0.0287
22003SOL    HW167450   3.271   1.013   4.699  1.0515  0.3154 -0.9081
22003SOL    HW267451   3.380   0.914   4.733 -0.3899 -0.5050  1.5534
22004SOL     OW67452   3.540   6.784   4.034 -0.0637 -0.5583 -0.7782
22004SOL    HW167453   3.587   6.866   4.016  0.3741 -1.0559 -2.0158
22004SOL    HW267454   3.452   6.813   4.061  0.0547  0.3246 -1.2853
22005SOL     OW67455   7.020   7.860   1.693  0.1381 -0.3193 -0.7252
22005SOL    HW167456   7.108   7.822   1.691  0.8736  1.1745  0.4366
22005SOL    HW267457   6.998   7.875   1.601 -0.1097 -3.2196 -1.2113
22006SOL     OW67458   7.381   3.700  11.025 -0.8122 -0.2416 -0.5811
22006SOL    HW167459   7.390   3.662  10.938  0.2769 -4.9009  1.2219
22006SOL    HW267460   7.291   3.682  11.051 -1.2903  1.5880 -0.8223
22007SOL     OW67461   5.788   7.378   2.334 -0.2865 -0.0470 -0.1318
22007SOL    HW167462   5.732   7.379   2.257  0.4469 -0.1666 -0.6809
22007SOL    HW267463   5.733   7.410   2.405 -0.8993  0.2894 -0.7539
22008SOL     OW67464   3.725   5.969   1.935  0.2723 -0.3264 -0.2135
22008SOL    HW167465   3.652   6.003   1.988  0.5131  0.8033 -0.5849
22008SOL    HW267466   3.798   6.027   1.954  0.6579 -0.5392 -0.9912
22009SOL     OW67467   4.728   2.190   0.349 -0.1833  0.5246  0.4588
22009SOL    HW167468   4.713   2.184   0.255 -2.0217  1.5613  0.6426
22009SOL    HW267469   4.675   2.120   0.387  1.5939 -0.7639  0.6855
22010SOL     OW67470   4.018   0.680   9.932 -0.3087 -0.5173  0.2894
22010SOL    HW167471   4.016   0.705  10.024  0.7486  1.2464 -0.1198
22010SOL    HW267472   3.962   0.744   9.888  0.0119 -0.7178 -0.4269
22011SOL     OW67473   0.447   1.787   3.724 -0.0354 -0.7138  0.8877
22011SOL    HW167474   0.525   1.842   3.734 -0.5886  0.3590 -0.5010
22011SOL    HW267475   0.383   1.843   3.681 -2.2300 -0.9877  3.4778
22012SOL     OW67476   5.711   7.657   8.059 -0.3707 -0.5176 -0.2691
22012SOL    HW167477   5.647   7.623   8.121 -2.0449 -1.2600 -2.2885
22012SOL    HW267478   5.661   7.716   8.002  0.9934 -0.2191 -1.2045
22013SOL     OW67479   6.675   6.723   0.857  0.2607  0.4625 -0.0577
22013SOL    HW167480   6.649   6.742   0.948 -0.4161  1.0466 -0.3595
22013SOL    HW267481   6.763   6.760   0.849  1.5670 -2.1222  1.1795
22014SOL     OW67482   5.892   7.103   1.809 -0.0305  0.1538  0.2609
22014SOL    HW167483   5.956   7.114   1.739  1.7355  0.4495  1.8401
22014SOL    HW267484   5.938   7.053   1.876 -1.9134 -0.7756  0.9335
22015SOL     OW67485   6.932   7.032   6.642  0.4487 -0.6810 -0.3237
22015SOL    HW167486   6.985   7.080   6.706 -0.7343  0.9073 -0.4772
22015SOL    HW267487   6.927   7.091   6.567  0.6094 -1.9159 -1.3231
22016SOL     OW67488   3.917   2.313   6.831  0.5475 -0.0397 -0.1581
22016SOL    HW167489   3.858   2.356   6.893  0.3917  0.3381 -0.5654
22016SOL    HW267490   3.939   2.229   6.873  1.8247  0.9290  1.2281
22017SOL     OW67491   7.004   2.132   4.586  0.1358  0.2996  0.0005
22017SOL    HW167492   6.996   2.157   4.678 -0.0353 -0.4182  0.1872
22017SOL    HW267493   7.038   2.043   4.589  1.3091  0.7021 -0.6544
22018SOL     OW67494   2.036   5.030   2.285 -0.6552 -0.1785 -0.0501
22018SOL    HW167495   1.963   5.066   2.337 -2.0462 -0.5673 -1.6479
22018SOL    HW267496   2.020   4.936   2.285  0.9331 -0.4965  1.0948
22019SOL     OW67497   0.116   5.402   2.729  0.4533  0.2852  0.0600
22019SOL    HW167498   0.045   5.465   2.715 -1.3916 -1.4519  1.1488
22019SOL    HW267499   0.077   5.317   2.711  1.8787 -0.8476  1.9766
22020SOL     OW67500   2.316   5.800   3.599 -0.4285 -0.2146 -0.6389
22020SOL    HW167501   2.347   5.889   3.584 -1.9465  0.3637 -0.4973
22020SOL    HW267502   2.223   5.802   3.575 -0.5900 -1.6532 -0.2381
22021SOL     OW67503   5.229   2.384   0.692  0.0992 -0.8285 -0.3024
22021SOL    HW167504   5.140   2.417   0.679 -0.3112 -0.3627  3.0222
22021SOL    HW267505   5.285   2.458   0.669 -0.5382 -0.0558  0.5266
22022SOL     OW67506   0.121   7.508  11.374  0.0903  0.8421 -0.0737
22022SOL    HW167507   0.034   7.477  11.399  1.1076 -1.7523  0.5193
22022SOL    HW267508   0.112   7.604  11.370 -2.4560  0.7324  1.1317
22023SOL     OW67509   4.525   1.678   6.857 -0.2695  0.2554 -0.9198
22023SOL    HW167510   4.447   1.695   6.910  1.0211  1.7521  0.6424
22023SOL    HW267511   4.495   1.620   6.787 -2.5218 -0.0991  0.2495
22024SOL     OW67512   0.480   7.350   0.652 -0.0862  0.2785 -0.0381
22024SOL    HW167513   0.562   7.373   0.696 -0.5750 -0.1188  1.1158
22024SOL    HW267514   0.412   7.374   0.716 -0.9222  1.3259 -1.2769
22025SOL     OW67515   5.847   4.725   2.626  0.6661 -0.2589 -0.1352
22025SOL    HW167516   5.838   4.647   2.572 -0.0820 -1.1240  1.1678
22025SOL    HW267517   5.786   4.788   2.588 -0.6195 -1.2078  0.2767
22026SOL     OW67518   5.063   4.187   7.069 -0.2037  0.5810 -0.2415
22026SOL    HW167519   5.061   4.206   7.163  2.2417 -1.2003  0.2766
22026SOL    HW267520   5.099   4.266   7.029 -1.6416  1.5012  0.2322
22027SOL     OW67521   6.462   2.537   1.757 -0.7391 -0.2989 -0.0809
22027SOL    HW167522   6.390   2.561   1.700 -0.8920 -1.2118 -0.2853
22027SOL    HW267523   6.454   2.443   1.769 -0.0224 -0.3039  0.5051
22028SOL     OW67524   7.224   7.467   4.660 -0.2273  0.5128  0.0453
22028SOL    HW167525   7.294   7.516   4.703 -0.9089 -0.0980  1.9703
22028SOL    HW267526   7.186   7.413   4.730  0.1723 -2.4530 -1.8439
22029SOL     OW67527   3.200   3.955   1.147  0.4275  0.3702 -0.1267
22029SOL    HW167528   3.175   3.863   1.160  0.3691  0.3326 -0.4808
22029SOL    HW267529   3.273   3.951   1.085 -1.0850  0.6756 -2.0268
22030SOL     OW67530   4.214   6.253   3.294  0.3751 -0.3933  0.2037
22030SOL    HW167531   4.207   6.264   3.389  1.0808  0.5483  0.1556
22030SOL    HW267532   4.295   6.204   3.281 -0.5937 -2.1016  0.1552
22031SOL     OW67533   2.001   4.415   3.621  0.0203 -0.4261  0.5000
22031SOL    HW167534   2.035   4.502   3.600  0.5014 -0.5163  0.9090
22031SOL    HW267535   1.949   4.391   3.544  1.7842 -0.7667 -0.6347
22032SOL     OW67536   7.382   7.893  10.535  0.1970 -0.5851  0.2073
22032SOL    HW167537   7.473   7.921  10.531 -0.2798  1.1389  0.6107
22032SOL    HW267538   7.381   7.819  10.596  1.1562  0.0762  1.0364
22033SOL     OW67539   2.136   6.495   2.629  0.6395  0.6308  0.0937
22033SOL    HW167540   2.179   6.421   2.671  1.5071  0.3884 -1.1676
22033SOL    HW267541   2.045   6.489   2.656  0.6393 -1.0781 -0.2313
22034SOL     OW67542   7.230   3.478   8.315 -0.0750 -0.1571 -0.0495
22034SOL    HW167543   7.255   3.569   8.300  3.1065 -1.0412 -0.8850
22034SOL    HW267544   7.177   3.481   8.395  0.9196  2.3067  0.6194
22035SOL     OW67545   2.870   0.330   5.956  0.5913  0.5347 -0.2690
22035SOL    HW167546   2.947   0.301   5.909  1.0170  1.9273 -0.4831
22035SOL    HW267547   2.904   0.387   6.026 -0.2765  2.5846 -1.4254
22036SOL     OW67548   7.297   1.684   7.209 -0.8972 -0.2666 -0.1460
22036SOL    HW167549   7.213   1.696   7.253  0.2308  1.5122  1.7026
22036SOL    HW267550   7.329   1.773   7.194  1.1979 -0.8781  0.3313
22037SOL     OW67551   6.442   5.218   3.945  0.7022  0.2366 -0.7821
22037SOL    HW167552   6.368   5.262   3.987  0.2369 -0.3567 -0.9515
22037SOL    HW267553   6.417   5.215   3.852  0.7484 -0.3178 -0.7811
22038SOL     OW67554   2.919   6.690   1.763 -0.0221 -0.4069 -0.2492
22038SOL    HW167555   2.994   6.714   1.817  0.7541 -1.2893 -0.9230
22038SOL    HW267556   2.900   6.768   1.712 -1.3180  0.7622  1.8615
22039SOL     OW67557   5.871   7.763   0.826  0.0389  0.4603 -0.0405
22039SOL    HW167558   5.824   7.813   0.759  1.4943  0.5066 -1.0793
22039SOL    HW267559   5.807   7.748   0.895 -2.4090 -1.9659 -2.5875
22040SOL     OW67560   6.987   3.591   0.528 -0.0311  0.3277 -0.0335
22040SOL    HW167561   6.901   3.629   0.549 -0.3814 -1.2311  1.5869
22040SOL    HW267562   6.973   3.548   0.443 -0.6670  0.6369 -0.0960
22041SOL     OW67563   1.334   0.920   3.229 -0.3381 -0.1018 -0.2058
22041SOL    HW167564   1.360   1.012   3.218  1.2602 -0.4421  0.4279
22041SOL    HW267565   1.338   0.905   3.324  2.2076 -1.5247 -0.4385
22042SOL     OW67566   7.550   6.049   5.182  0.0214  0.5096  0.1736
22042SOL    HW167567   7.550   5.977   5.246 -2.6681 -0.1082 -0.4180
22042SOL    HW267568   7.604   6.117   5.223  0.6809 -0.9219  1.8173
22043SOL     OW67569   1.673   6.532   5.538  0.2703  0.1215  0.5245
22043SOL    HW167570   1.642   6.573   5.458  0.6444 -1.3593 -0.4025
22043SOL    HW267571   1.600   6.479   5.568 -0.0989  1.1510  1.5524
22044SOL     OW67572   2.399   4.402   1.309 -0.1123  0.6270 -0.0177
22044SOL    HW167573   2.326   4.380   1.366 -1.4710  1.8699 -1.1825
22044SOL    HW267574   2.437   4.318   1.285 -1.1819 -0.0505  0.6006
22045SOL     OW67575   2.460   2.175   0.004  0.6467 -0.7552  0.1972
22045SOL    HW167576   2.508   2.222  -0.064 -0.0631 -0.4632 -0.1118
22045SOL    HW267577   2.509   2.093   0.015  1.5978 -0.1786  0.3823
22046SOL     OW67578   5.603   1.154  11.281  0.3383  0.2241 -0.5349
22046SOL    HW167579   5.687   1.192  11.307  0.5855  0.6500 -1.8894
22046SOL    HW267580   5.555   1.226  11.241 -0.8525  0.0759  0.5723
22047SOL     OW67581   2.845   7.376   9.680 -0.3327 -0.0915  0.0670
22047SOL    HW167582   2.785   7.439   9.719  1.3833  0.6754  1.5648
22047SOL    HW267583   2.834   7.388   9.585 -3.2043 -0.6876  0.2284
22048SOL     OW67584   6.094   1.713  11.428 -0.2204  0.0489 -0.2731
22048SOL    HW167585   6.070   1.677  11.514 -2.3769  0.2896 -0.7261
22048SOL    HW267586   6.177   1.758  11.444  0.1257 -1.0600  1.3722
22049SOL     OW67587   4.689   6.022   4.293 -0.5695  0.1933  0.2883
22049SOL    HW167588   4.618   6.000   4.232 -0.5210  0.0477  0.2847
22049SOL    HW267589   4.643   6.055   4.371 -0.6222  0.5902  0.0891
22050SOL     OW67590   1.573   2.674   2.657 -0.3107 -0.3700 -0.3457
22050SOL    HW167591   1.611   2.589   2.679 -1.4748 -0.7444  0.2835
22050SOL    HW267592   1.486   2.672   2.696 -0.4238  1.0440 -0.4919
22051SOL     OW67593   2.379   6.413  11.001  0.4021  0.0733  0.2385
22051SOL    HW167594   2.289   6.401  10.971 -0.0970 -0.9417  2.0083
22051SOL    HW267595   2.371   6.426  11.095  2.1308 -0.1827  0.4501
22052SOL     OW67596   3.801   5.717   1.957  0.5748  0.3434 -0.0687
22052SOL    HW167597   3.757   5.801   1.970  0.6541  0.1293  2.0374
22052SOL    HW267598   3.777   5.689   1.869 -0.6618  1.8704 -0.2378
22053SOL     OW67599   7.387   5.885   7.662 -0.1433  0.3407  0.4466
22053SOL    HW167600   7.377   5.965   7.611  0.4465  0.8188  1.0718
22053SOL    HW267601   7.323   5.825   7.624  0.8426  0.3832 -1.4350
22054SOL     OW67602   6.137   0.582  10.977  0.0845  0.2970  0.3234
22054SOL    HW167603   6.096   0.496  10.993  0.3841 -0.0378 -0.6542
22054SOL    HW267604   6.114   0.603  10.887  1.0358  0.6695  0.1554
22055SOL     OW67605   4.567   3.377   5.159  0.3707  0.0347  0.5500
22055SOL    HW167606   4.591   3.292   5.194 -2.4686 -1.9547 -1.8790
22055SOL    HW267607   4.616   3.385   5.077  1.0785  1.0897  1.0446
22056SOL     OW67608   4.847   0.176   3.154  0.2899  0.4551  0.5272
22056SOL    HW167609   4.902   0.215   3.222 -0.0847  0.8267  0.6215
22056SOL    HW267610   4.832   0.247   3.092  0.7739  0.0705 -0.0397
22057SOL     OW67611   1.936   2.589   3.225 -0.0900 -0.5456  0.2525
22057SOL    HW167612   1.900   2.655   3.284  0.8413 -0.1838  0.4274
22057SOL    HW267613   1.861   2.562   3.171 -0.5848  0.3217  0.4862
22058SOL     OW67614   7.679   2.649   1.591  0.3530 -0.1148 -0.2762
22058SOL    HW167615   7.738   2.577   1.569  0.6327  0.0464 -0.0602
22058SOL    HW267616   7.732   2.709   1.643  0.1924  0.3681 -0.6556
22059SOL     OW67617   0.838   1.659   5.199 -0.1833 -0.5669 -0.3051
22059SOL    HW167618   0.852   1.618   5.284 -0.4928  0.2008  0.1224
22059SOL    HW267619   0.746   1.643   5.179  0.1551 -1.7316 -1.0376
22060SOL     OW67620   2.622   0.374   7.816  0.4062  0.2519 -0.2100
22060SOL    HW167621   2.644   0.296   7.767 -0.9714 -0.1198 -0.2780
22060SOL    HW267622   2.680   0.373   7.892  0.1211 -1.0684  0.0075
22061SOL     OW67623   5.748   7.532   0.457  0.1034 -0.1432  0.1013
22061SOL    HW167624   5.681   7.474   0.492  0.8653  0.2063  2.3192
22061SOL    HW267625   5.700   7.598   0.406 -0.9339 -1.5256 -0.7730
22062SOL     OW67626   3.164   3.744   8.230 -0.1891  0.2288 -0.5063
22062SOL    HW167627   3.194   3.771   8.143  0.0295  2.3904  0.2026
22062SOL    HW267628   3.155   3.825   8.279  0.8544 -0.9998  1.8826
22063SOL     OW67629   2.347   3.034   2.278  0.5703  0.0209  0.1688
22063SOL    HW167630   2.355   2.997   2.190  2.6606 -0.6640  0.6154
22063SOL    HW267631   2.361   3.128   2.266 -0.5100  0.1374 -0.3732
22064SOL     OW67632   2.160   2.473   5.330  0.2977 -0.2738  0.0478
22064SOL    HW167633   2.225   2.508   5.391  0.1426  0.7035 -0.3320
22064SOL    HW267634   2.169   2.527   5.251 -3.6338  2.7665  1.2917
22065SOL     OW67635   7.447   1.805   0.288 -0.8052  0.0425 -1.4638
22065SOL    HW167636   7.494   1.819   0.205  0.1797  0.5744 -0.8271
22065SOL    HW267637   7.394   1.883   0.299  1.1934  1.3119 -0.2234
22066SOL     OW67638   4.636   7.918   5.897  0.5576 -0.4195  0.4325
22066SOL    HW167639   4.555   7.944   5.853  0.8297 -0.0233  0.1494
22066SOL    HW267640   4.623   7.942   5.988  0.0753 -1.0327  0.5306
22067SOL     OW67641   7.175   2.572   9.475 -0.2912  0.2962  0.4479
22067SOL    HW167642   7.111   2.508   9.505 -1.3121  1.3645  0.5969
22067SOL    HW267643   7.213   2.533   9.396  0.2338 -1.1703  1.3862
22068SOL     OW67644   0.349   7.428   5.406  0.2672  0.2008 -0.1309
22068SOL    HW167645   0.405   7.497   5.372  0.7105  0.1282  0.4432
22068SOL    HW267646   0.326   7.376   5.329  0.0576  0.8923 -0.5378
22069SOL     OW67647   3.467   1.157   8.237 -0.1453 -0.1624  0.1940
22069SOL    HW167648   3.396   1.201   8.191  0.8048  1.4675  0.2196
22069SOL    HW267649   3.479   1.075   8.189 -0.4145  0.6452 -1.3197
22070SOL     OW67650   6.197   3.658   2.646 -0.3474 -0.1348 -0.4110
22070SOL    HW167651   6.227   3.568   2.632 -0.8915 -0.2911 -0.6080
22070SOL    HW267652   6.177   3.691   2.558 -0.0620  0.2115 -0.3487
22071SOL     OW67653   4.841   4.588   2.740  0.7115 -0.0237  0.0947
22071SOL    HW167654   4.787   4.509   2.744 -1.1402  1.2149  2.2481
22071SOL    HW267655   4.910   4.573   2.805  0.7715 -0.1457  0.0034
22072SOL     OW67656   1.133   2.565   5.512  0.0069  0.3673  0.1056
22072SOL    HW167657   1.175   2.512   5.444 -0.0555 -0.0556  0.3938
22072SOL    HW267658   1.200   2.629   5.537  1.7192 -2.1832  2.7397
22073SOL     OW67659   5.911   4.246   4.105  0.3565  0.6621  0.1314
22073SOL    HW167660   5.900   4.260   4.200  2.1757  1.7339  0.2285
22073SOL    HW267661   5.893   4.153   4.092  2.2683 -0.0403  1.9252
22074SOL     OW67662   2.613   2.454   9.792  0.0052 -0.8313  0.0895
22074SOL    HW167663   2.638   2.510   9.718  0.5890 -1.1512  0.0341
22074SOL    HW267664   2.569   2.513   9.853  3.0933  0.3632  1.3537
22075SOL     OW67665   6.839   4.991   9.515 -0.1653  0.1655 -0.0525
22075SOL    HW167666   6.770   4.989   9.581 -0.2875  0.0434 -0.1826
22075SOL    HW267667   6.893   5.066   9.539 -1.4501  1.4684 -1.0609
22076SOL     OW67668   5.866   4.207   9.283 -0.1466  0.1017 -0.3692
22076SOL    HW167669   5.937   4.215   9.348 -0.7201 -0.2943  0.3282
22076SOL    HW267670   5.851   4.296   9.252  0.4200  0.2374 -0.2599
22077SOL     OW67671   2.830   2.572   0.032 -0.1277 -0.0876  0.2639
22077SOL    HW167672   2.736   2.576   0.051 -0.5060 -0.2353 -1.4433
22077SOL    HW267673   2.855   2.482   0.052 -0.2755  0.0073  0.9271
22078SOL     OW67674   3.339   7.041   0.519  0.0791  0.1458  0.1924
22078SOL    HW167675   3.425   7.034   0.478  0.7565 -0.4521  1.6312
22078SOL    HW267676   3.338   6.970   0.583 -2.0122 -0.6853 -0.6966
22079SOL     OW67677   7.508   1.029  10.740  0.6734 -0.4461  0.4356
22079SOL    HW167678   7.524   0.964  10.808  1.9163 -1.9139 -1.1569
22079SOL    HW267679   7.414   1.044  10.742  0.5821 -1.0465  1.9209
22080SOL     OW67680   4.495   4.508   2.727  0.1597  0.0602  0.2913
22080SOL    HW167681   4.425   4.572   2.711 -2.5000 -2.7087 -0.0063
22080SOL    HW267682   4.498   4.498   2.822 -0.8613 -0.7747  0.2540
22081SOL     OW67683   4.737   2.335   2.407  0.6527  0.0787 -0.0078
22081SOL    HW167684   4.671   2.403   2.419 -1.0049 -1.3109 -0.8148
22081SOL    HW267685   4.707   2.285   2.331  2.3971 -0.9055 -0.1111
22082SOL     OW67686   6.673   0.954   3.748  0.0494 -0.2844  0.1263
22082SOL    HW167687   6.623   0.951   3.667 -0.1061  1.2174  0.1343
22082SOL    HW267688   6.642   1.033   3.793  1.1793 -0.2706  0.9436
22083SOL     OW67689   2.371   0.246   0.675 -0.3058 -0.3877  0.3514
22083SOL    HW167690   2.351   0.331   0.635 -0.7435 -0.1127  1.1176
22083SOL    HW267691   2.358   0.182   0.605  1.6657  0.2988 -0.7307
22084SOL     OW67692   4.010   7.312   4.053  0.1739 -0.4257 -0.5514
22084SOL    HW167693   4.046   7.244   3.996  1.5893  0.1878 -0.4339
22084SOL    HW267694   3.958   7.367   3.995 -0.1350 -1.0129 -0.8411
22085SOL     OW67695   5.085   4.719   3.191  0.1492 -0.4355  0.1115
22085SOL    HW167696   5.097   4.692   3.282  0.8061 -0.7848 -0.0779
22085SOL    HW267697   5.000   4.764   3.191 -0.9314 -2.4002  0.4399
22086SOL     OW67698   1.392   2.087   2.595  0.2102 -0.2035 -0.1150
22086SOL    HW167699   1.452   2.138   2.649  0.5707  0.1518 -0.8364
22086SOL    HW267700   1.448   2.038   2.536 -0.2017  0.4949 -1.1215
22087SOL     OW67701   1.779   0.592   9.593  0.0770  0.0681  0.3008
22087SOL    HW167702   1.820   0.592   9.679  0.5698  0.3594  0.0730
22087SOL    HW267703   1.709   0.657   9.599  0.5883  0.6269  0.2618
22088SOL     OW67704   5.871   3.030  12.314  0.4184  0.0273  0.7841
22088SOL    HW167705   5.842   2.976  12.241  1.3240 -0.8192  1.0198
22088SOL    HW267706   5.827   3.114  12.302  0.7783 -0.0004 -0.8776
22089SOL     OW67707   6.060   6.845   8.919  0.6159  0.4714 -0.1468
22089SOL    HW167708   6.123   6.864   8.850  0.1775  0.9308 -0.4199
22089SOL    HW267709   6.113   6.807   8.990  0.9128 -1.0918 -1.1607
22090SOL     OW67710   5.194   7.252  10.740  0.3857 -0.3855  1.1060
22090SOL    HW167711   5.202   7.209  10.655  2.6631 -0.3322  1.2171
22090SOL    HW267712   5.105   7.232  10.769 -0.8321  0.4452 -1.6945
22091SOL     OW67713   1.493   7.096   3.114  0.0548  0.0030  0.0450
22091SOL    HW167714   1.427   7.160   3.141 -0.3861  0.5780 -2.1785
22091SOL    HW267715   1.526   7.129   3.030  3.6033  0.0239  1.2512
22092SOL     OW67716   6.829   3.372  11.165  0.3611 -0.0596 -0.1432
22092SOL    HW167717   6.811   3.395  11.074 -0.5401  0.6127  0.1927
22092SOL    HW267718   6.920   3.341  11.165  0.1171 -0.8194 -1.4054
22093SOL     OW67719   3.395   1.073   8.747 -0.2891  0.7294  0.3958
22093SOL    HW167720   3.478   1.070   8.795  0.4100 -1.0701 -0.8254
22093SOL    HW267721   3.414   1.122   8.668 -0.1194 -0.4015 -0.2904
22094SOL     OW67722   5.368   2.446   6.424 -0.3996  0.3894 -0.0886
22094SOL    HW167723   5.355   2.373   6.364 -4.1611 -0.2364  1.1967
22094SOL    HW267724   5.395   2.405   6.506  2.6956  1.0606 -0.6477
22095SOL     OW67725   5.329   4.502   1.878  0.0960 -0.0830  0.5970
22095SOL    HW167726   5.253   4.545   1.838 -0.6044 -1.0699  0.8341
22095SOL    HW267727   5.313   4.409   1.866  0.1461 -0.4049  2.6244
22096SOL     OW67728   7.635   2.414   1.108  0.5119  0.0085  0.0403
22096SOL    HW167729   7.547   2.442   1.082  1.7525  2.0652 -2.3902
22096SOL    HW267730   7.638   2.321   1.087 -1.0052 -0.0313 -0.0732
22097SOL     OW67731   4.050   0.801   7.709  0.1806  0.3808  0.7104
22097SOL    HW167732   3.998   0.879   7.728  2.6602  2.1515  0.7131
22097SOL    HW267733   4.089   0.778   7.793  0.7637  0.1385  0.3745
22098SOL     OW67734   4.177   4.999   3.143 -0.4032 -0.0896  0.0659
22098SOL    HW167735   4.271   4.989   3.160  0.0051 -0.4537 -2.0835
22098SOL    HW267736   4.137   4.924   3.186  0.1335  0.6572  1.9437
22099SOL     OW67737   3.388   2.143   9.532 -0.0058 -0.0292  0.0917
22099SOL    HW167738   3.304   2.146   9.488  0.5705  0.4902 -1.0058
22099SOL    HW267739   3.368   2.107   9.619 -1.1152 -1.4259 -0.6904
22100SOL     OW67740   1.071   6.908   8.375  0.4738 -0.1670 -0.1509
22100SOL    HW167741   1.160   6.884   8.402 -0.2753 -1.1653  1.5968
22100SOL    HW267742   1.066   7.002   8.392  0.7427 -0.3722  1.2271
22101SOL     OW67743   0.882   3.802  11.415 -0.1657 -0.4200 -0.2287
22101SOL    HW167744   0.789   3.825  11.413 -0.1406 -0.3464 -0.9153
22101SOL    HW267745   0.921   3.863  11.477 -0.5291 -0.2762 -0.1400
22102SOL     OW67746   2.338   6.891  10.492 -0.1988  0.3596  0.4132
22102SOL    HW167747   2.259   6.936  10.461 -0.4079 -0.5982 -0.5164
22102SOL    HW267748   2.307   6.807  10.524  0.1773  0.8726  2.2261
22103SOL     OW67749   0.440   0.995   8.881 -0.0664  0.1596  0.2321
22103SOL    HW167750   0.367   1.001   8.943 -0.8278 -0.4201 -0.5784
22103SOL    HW267751   0.403   0.948   8.806  1.3001 -0.6384  0.0319
22104SOL     OW67752   2.784   5.814   1.104 -0.5249  0.4444  0.6800
22104SOL    HW167753   2.758   5.884   1.044 -1.1929 -0.2966  0.0830
22104SOL    HW267754   2.879   5.811   1.098 -0.6455 -0.6285 -1.5442
22105SOL     OW67755   7.075   4.378  12.169 -0.1832  0.3429  0.2543
22105SOL    HW167756   7.133   4.454  12.169 -0.0358  0.2422  0.9752
22105SOL    HW267757   7.061   4.359  12.262 -0.3814 -0.3852  0.0827
22106SOL     OW67758   0.402   4.109   1.672 -0.0497  0.1800  0.3559
22106SOL    HW167759   0.390   4.203   1.684 -1.7058  0.0465 -0.0831
22106SOL    HW267760   0.458   4.083   1.745 -1.3734  1.1426  1.7798
22107SOL     OW67761   1.845   1.761   2.415  0.2965  0.8270 -0.0834
22107SOL    HW167762   1.937   1.748   2.395  0.1976  1.1258 -0.7474
22107SOL    HW267763   1.836   1.855   2.429 -0.2526  1.0953 -1.9368
22108SOL     OW67764   0.867   5.020  10.063  0.1185 -0.0714 -0.0664
22108SOL    HW167765   0.874   4.925  10.065 -0.7247 -0.1308  0.4251
22108SOL    HW267766   0.957   5.050  10.057  0.3515 -0.9136 -1.1969
22109SOL     OW67767   2.920   7.268  11.651 -0.3764 -0.2031  0.5191
22109SOL    HW167768   2.988   7.244  11.714 -0.9638 -1.3168  0.7586
22109SOL    HW267769   2.865   7.332  11.697 -0.0823 -0.0657  0.6811
22110SOL     OW67770   6.516   1.131  10.367  0.4395  0.0820 -0.3826
22110SOL    HW167771   6.489   1.214  10.328 -1.3528  0.6833  1.9148
22110SOL    HW267772   6.606   1.146  10.395  0.5354  0.8352 -1.0451
22111SOL     OW67773   2.668   2.368   2.267 -0.4039 -0.1952 -0.9149
22111SOL    HW167774   2.663   2.394   2.175 -1.3350  0.4040 -0.7151
22111SOL    HW267775   2.663   2.272   2.266  2.2204 -0.3795 -1.6226
22112SOL     OW67776   0.929   2.982  10.531  0.1613 -0.2888  0.2709
22112SOL    HW167777   0.858   2.950  10.587  0.7768 -0.6108  0.8740
22112SOL    HW267778   0.884   3.032  10.463 -0.5331  1.4791  1.9254
22113SOL     OW67779   0.480   0.243   5.640  0.9178  0.3270  0.0967
22113SOL    HW167780   0.443   0.173   5.586 -0.5214  0.0847  1.3175
22113SOL    HW267781   0.574   0.226   5.641  0.7494 -0.7433 -0.7943
22114SOL     OW67782   6.292   7.863   2.657  0.1013 -0.2128 -0.1489
22114SOL    HW167783   6.308   7.898   2.569  0.3780  1.4353  0.5212
22114SOL    HW267784   6.206   7.823   2.651  0.8112 -1.6337 -1.5948
22115SOL     OW67785   1.984   7.722   3.625  0.6253  0.3520  0.3212
22115SOL    HW167786   2.001   7.762   3.710  1.5564  2.9645 -0.9877
22115SOL    HW267787   1.896   7.686   3.633  0.1944  1.6393  2.0197
22116SOL     OW67788   7.714   1.999   4.398 -0.0078 -0.2397 -0.2781
22116SOL    HW167789   7.656   2.021   4.471  0.0319  0.4982 -0.4573
22116SOL    HW267790   7.779   1.941   4.435 -1.3124 -1.7496 -0.2384
22117SOL     OW67791   3.643   4.241   2.453 -0.5046  0.5286  0.7826
22117SOL    HW167792   3.651   4.227   2.548 -0.2899 -0.1902  0.6626
22117SOL    HW267793   3.665   4.156   2.414 -1.4409  0.5797  0.1199
22118SOL     OW67794   5.980   3.260   5.563  0.2586 -1.1032 -0.2557
22118SOL    HW167795   6.071   3.281   5.539  0.5621 -1.0091  0.9264
22118SOL    HW267796   5.973   3.284   5.655 -1.1690 -0.5006 -0.4978
22119SOL     OW67797   6.042   7.358   7.249 -0.1800  0.2485 -0.1391
22119SOL    HW167798   6.115   7.380   7.192 -0.0615 -0.4552 -0.2620
22119SOL    HW267799   6.010   7.274   7.216 -0.1373 -0.1436  0.8018
22120SOL     OW67800   1.676   0.115   3.123  0.6598 -0.3580 -0.0332
22120SOL    HW167801   1.746   0.071   3.172  1.5342 -0.0743 -0.9883
22120SOL    HW267802   1.717   0.196   3.091  0.6886 -1.3068 -2.6515
22121SOL     OW67803   7.007   5.854   0.128 -0.5022  0.3924  0.0523
22121SOL    HW167804   6.921   5.814   0.140 -1.5042  2.3571 -0.1712
22121SOL    HW267805   6.999   5.940   0.170  1.1532  0.8424 -0.4955
22122SOL     OW67806   4.381   3.013   3.142 -0.0407 -0.0203 -0.5900
22122SOL    HW167807   4.453   3.054   3.190 -0.3110  1.0748 -1.0955
22122SOL    HW267808   4.312   3.001   3.206 -0.7653  2.3224 -0.8655
22123SOL     OW67809   0.421   1.877   3.343 -0.1316 -0.8017 -0.3509
22123SOL    HW167810   0.423   1.781   3.353  0.4516 -0.6385  1.5099
22123SOL    HW267811   0.370   1.908   3.418  2.4897  0.5125  1.0178
22124SOL     OW67812   5.547   2.537  11.189 -0.0498 -0.0356 -0.2483
22124SOL    HW167813   5.558   2.530  11.284 -1.5981 -0.5257 -0.0782
22124SOL    HW267814   5.635   2.525  11.153  0.2951 -1.6241  1.0444
22125SOL     OW67815   6.728   3.929   0.005  0.1366  0.2692  0.0064
22125SOL    HW167816   6.795   3.932  -0.064  0.4722 -0.8681  0.2548
22125SOL    HW267817   6.724   3.837   0.030  0.2550  0.6953  1.7350
22126SOL     OW67818   4.078   5.469   2.894 -0.0108 -0.0485 -0.1864
22126SOL    HW167819   3.988   5.501   2.881 -0.3742 -0.9148  0.1224
22126SOL    HW267820   4.068   5.395   2.954  0.8185 -0.6608 -0.7915
22127SOL     OW67821   0.962   2.187   2.174  0.0992 -0.2096 -0.0314
22127SOL    HW167822   1.011   2.124   2.120 -1.2464 -2.4417  1.1842
22127SOL    HW267823   1.025   2.213   2.242  0.9731  0.5357 -1.1010
22128SOL     OW67824   7.470   0.965   8.839  0.0441  0.0688 -0.0474
22128SOL    HW167825   7.408   1.028   8.803  0.7322  1.5569  1.2384
22128SOL    HW267826   7.473   0.895   8.775 -0.5764  1.4649 -1.6826
22129SOL     OW67827   2.796   4.512  10.013 -0.0023 -0.4391 -0.4234
22129SOL    HW167828   2.862   4.470   9.957  0.1718  1.2091 -1.5281
22129SOL    HW267829   2.834   4.596  10.035 -0.4336 -0.7165  1.5671
22130SOL     OW67830   6.874   0.517  10.761 -0.2616 -0.5128 -0.3684
22130SOL    HW167831   6.868   0.504  10.666 -0.9712  1.2474 -0.6007
22130SOL    HW267832   6.968   0.527  10.777 -0.2269  0.5025 -1.1005
22131SOL     OW67833   1.822   0.035   8.526 -0.6212  0.1975  0.4320
22131SOL    HW167834   1.852  -0.019   8.599 -0.2014  1.4344  1.1955
22131SOL    HW267835   1.747   0.084   8.561  0.1137  1.4394  0.3285
22132SOL     OW67836   6.102   1.658  11.168  0.1263 -0.7983  0.0573
22132SOL    HW167837   6.097   1.709  11.248 -0.1642  0.7744 -0.9242
22132SOL    HW267838   6.012   1.631  11.151  0.0040 -0.1743 -0.3191
22133SOL     OW67839   4.058   5.919   8.889 -0.3632  0.1002 -0.0600
22133SOL    HW167840   4.103   5.967   8.819 -1.5537 -0.6150 -1.3489
22133SOL    HW267841   4.078   5.827   8.871 -1.4773 -0.1521 -0.0491
22134SOL     OW67842   2.013   7.611   0.759  0.0766 -0.0847 -0.3536
22134SOL    HW167843   1.970   7.677   0.704  0.2089 -0.0017 -0.3579
22134SOL    HW267844   1.943   7.575   0.812 -0.1747 -0.6126 -1.0237
22135SOL     OW67845   7.167   6.836   8.071  0.4640 -0.6026  0.1058
22135SOL    HW167846   7.174   6.768   8.004  0.2803 -0.4935 -0.0260
22135SOL    HW267847   7.257   6.852   8.098  0.7670  0.7377 -1.5179
22136SOL     OW67848   5.802   7.731   6.943 -0.8187  0.0048  0.0877
22136SOL    HW167849   5.827   7.660   7.001 -0.5138 -1.3007 -1.5558
22136SOL    HW267850   5.865   7.801   6.962 -1.7439  0.2808  2.4304
22137SOL     OW67851   3.724   1.308  11.679 -0.5079  0.1827 -0.5204
22137SOL    HW167852   3.765   1.223  11.695 -1.9401 -0.9506 -2.3888
22137SOL    HW267853   3.721   1.350  11.765  1.0917 -1.2506  0.2820
22138SOL     OW67854   1.546   4.825   0.189 -0.0383 -0.0132  0.5132
22138SOL    HW167855   1.519   4.912   0.219  1.1541  0.6847 -0.3744
22138SOL    HW267856   1.507   4.817   0.101 -0.2982 -0.4564  0.6660
22139SOL     OW67857   0.370   6.754   1.613  0.4039  0.3100  0.1075
22139SOL    HW167858   0.335   6.666   1.625 -2.0944  0.9942 -1.3454
22139SOL    HW267859   0.379   6.763   1.518  0.1568  1.7488  0.1939
22140SOL     OW67860   7.808   6.919   2.656  0.1265 -0.0341 -0.2511
22140SOL    HW167861   7.894   6.945   2.688  0.2779 -1.7348  0.8396
22140SOL    HW267862   7.814   6.824   2.644 -1.3525 -0.0755 -0.9277
22141SOL     OW67863   0.391   7.396  12.009 -0.2325 -0.3495 -0.0763
22141SOL    HW167864   0.485   7.401  12.024 -0.2803 -1.9688  1.0851
22141SOL    HW267865   0.380   7.319  11.953 -1.0554 -2.7434  3.0568
22142SOL     OW67866   0.307   3.085   6.235  0.7050 -0.1126 -0.1885
22142SOL    HW167867   0.340   2.997   6.215 -0.0434 -0.6792  0.9606
22142SOL    HW267868   0.213   3.079   6.220  0.8116  0.9342 -1.5203
22143SOL     OW67869   1.342   1.771   6.255  0.2079 -0.2981 -0.2930
22143SOL    HW167870   1.421   1.734   6.295 -2.5084 -4.5734  1.8274
22143SOL    HW267871   1.333   1.724   6.172 -0.7088 -0.7871  0.0698
22144SOL     OW67872   2.806   3.194  10.403  0.6529  0.2041 -0.2605
22144SOL    HW167873   2.888   3.147  10.388  0.9429  1.0916 -1.6036
22144SOL    HW267874   2.759   3.189  10.320  0.2924  1.5012 -0.1586
22145SOL     OW67875   4.639   1.029   9.147  0.2290 -0.1155 -0.1350
22145SOL    HW167876   4.547   1.051   9.163  0.4705  1.7296 -1.0738
22145SOL    HW267877   4.687   1.076   9.216  0.5813  0.4211 -0.7353
22146SOL     OW67878   2.456   4.386   7.402 -0.0092  0.4422  0.2202
22146SOL    HW167879   2.523   4.333   7.444  0.3095  0.7932  0.1607
22146SOL    HW267880   2.427   4.446   7.471 -1.2308 -0.5823  0.6527
22147SOL     OW67881   4.019   4.800   5.507  0.0403 -0.0192  0.2874
22147SOL    HW167882   4.095   4.772   5.557 -0.3916 -1.0418  0.3781
22147SOL    HW267883   4.014   4.738   5.434 -0.1418  0.6315 -0.2707
22148SOL     OW67884   3.568   3.970   1.626  0.0840 -0.6972 -0.1134
22148SOL    HW167885   3.616   3.983   1.708  0.2337  1.9285 -0.5303
22148SOL    HW267886   3.477   3.957   1.654 -0.0365  1.1184  0.5317
22149SOL     OW67887   3.973   7.664  11.817 -0.0126 -0.1613  0.5529
22149SOL    HW167888   3.892   7.620  11.845 -0.2689 -0.0720 -0.0196
22149SOL    HW267889   4.043   7.613  11.856 -0.3307 -0.6182  0.5345
22150SOL     OW67890   6.326   0.023   1.578  0.0044  0.2993 -0.5566
22150SOL    HW167891   6.351   0.115   1.588  1.3959 -0.0954 -0.1033
22150SOL    HW267892   6.253   0.011   1.638 -1.6171  1.5915 -2.1541
22151SOL     OW67893   6.640   3.272   5.036  0.2907  0.3030 -0.0721
22151SOL    HW167894   6.641   3.367   5.018 -0.5382  0.2717 -0.3247
22151SOL    HW267895   6.549   3.246   5.020  0.5633 -0.5777 -0.2074
22152SOL     OW67896   5.052   7.015   9.677  0.4450  0.5392  0.1365
22152SOL    HW167897   5.120   6.970   9.628 -0.9065 -0.4811 -0.8864
22152SOL    HW267898   5.001   7.061   9.610 -0.8960 -0.1356  0.6456
22153SOL     OW67899   3.356   6.023   0.629 -0.4725 -0.3730 -0.0513
22153SOL    HW167900   3.340   6.100   0.684 -0.8457 -0.9659  0.6940
22153SOL    HW267901   3.410   6.056   0.557  0.0973  0.4156  0.7081
22154SOL     OW67902   6.552   5.520   1.320  0.0825 -0.1319 -0.1017
22154SOL    HW167903   6.459   5.522   1.295  0.5839  0.7517 -2.1207
22154SOL    HW267904   6.599   5.532   1.237  2.0073 -0.2214  0.9231
22155SOL     OW67905   5.927   5.245   7.068  0.4285  0.1019 -0.0200
22155SOL    HW167906   5.883   5.292   7.138  0.4823  0.7383 -0.4071
22155SOL    HW267907   6.004   5.298   7.047  0.3829 -0.0484 -0.5962
22156SOL     OW67908   5.738   4.408   4.793  0.1503 -0.3750 -0.0925
22156SOL    HW167909   5.765   4.465   4.721  1.5685 -0.4929  0.3091
22156SOL    HW267910   5.681   4.463   4.847  1.5901  0.7425  0.3597
22157SOL     OW67911   1.016   6.496   2.135  0.2267  0.4415 -0.0572
22157SOL    HW167912   1.026   6.582   2.093 -1.3901  0.3677 -0.6578
22157SOL    HW267913   0.962   6.446   2.074 -0.9499 -0.1708  1.4208
22158SOL     OW67914   2.437   0.666   3.173  0.1161  0.4011  0.1136
22158SOL    HW167915   2.498   0.659   3.100 -0.1687 -1.6670  0.0076
22158SOL    HW267916   2.450   0.585   3.223 -1.0632  0.8774  1.2617
22159SOL     OW67917   0.357   0.382  10.291  0.5610  0.4249  0.6814
22159SOL    HW167918   0.373   0.296  10.251 -1.0382  0.1482  0.5644
22159SOL    HW267919   0.403   0.444  10.234  0.7430 -0.2374  0.0918
22160SOL     OW67920   3.577   0.181  11.179 -0.1706 -0.2613 -0.2648
22160SOL    HW167921   3.663   0.138  11.176 -0.6134 -1.1469 -0.8705
22160SOL    HW267922   3.558   0.188  11.272  0.7983  0.4685 -0.0984
22161SOL     OW67923   1.579   1.144   3.739 -0.1791 -0.3261 -0.3161
22161SOL    HW167924   1.664   1.167   3.777 -0.7881 -0.1837  1.0080
22161SOL    HW267925   1.601   1.102   3.656  1.1343  0.9795 -0.6724
22162SOL     OW67926   5.696   5.190   3.167  0.1812  0.2180 -0.1786
22162SOL    HW167927   5.667   5.127   3.233  0.3303 -0.4039 -0.7089
22162SOL    HW267928   5.657   5.273   3.196 -1.0207 -0.3405 -0.1382
22163SOL     OW67929   2.368   7.817  11.677  0.0699 -0.5431 -0.2723
22163SOL    HW167930   2.387   7.895  11.625  3.9317 -0.4607  0.9205
22163SOL    HW267931   2.316   7.761  11.618 -0.9286  1.9692 -1.9194
22164SOL     OW67932   1.924   3.814   2.896  0.0049 -0.2737 -0.9332
22164SOL    HW167933   1.869   3.886   2.927  0.9739 -0.1328  0.6068
22164SOL    HW267934   1.862   3.750   2.862 -1.0224  0.3975 -0.4038
22165SOL     OW67935   2.249   4.394   6.405 -0.6322  0.2567  0.3776
22165SOL    HW167936   2.212   4.313   6.368 -2.6415  0.7888  1.1028
22165SOL    HW267937   2.181   4.459   6.393 -0.4689  0.9996  2.9590
22166SOL     OW67938   1.318   0.373   1.045  0.0681  0.1817  0.1181
22166SOL    HW167939   1.254   0.303   1.041  1.6254 -1.3818  1.1631
22166SOL    HW267940   1.339   0.382   1.138  2.0201 -0.0160 -0.2514
22167SOL     OW67941   4.301   3.737   3.025 -0.7762  0.0104  0.1517
22167SOL    HW167942   4.353   3.812   3.054  0.2007 -0.0269 -1.4462
22167SOL    HW267943   4.364   3.666   3.016 -1.2518 -0.2807 -0.9467
22168SOL     OW67944   3.362   6.904   7.384  0.5327 -0.6037  1.0617
22168SOL    HW167945   3.443   6.924   7.430  0.6936  0.1749  0.4653
22168SOL    HW267946   3.373   6.944   7.298 -0.3592 -0.7588  0.8636
22169SOL     OW67947   3.939   0.357   7.053 -0.3298  0.4924  0.3414
22169SOL    HW167948   3.999   0.335   6.982 -1.3267  0.8757 -0.6426
22169SOL    HW267949   3.958   0.293   7.122 -0.2290 -0.7048 -0.7697
22170SOL     OW67950   0.210   0.163   4.689  0.5805 -0.3158  0.1298
22170SOL    HW167951   0.185   0.094   4.751  1.1335 -3.5529 -2.8855
22170SOL    HW267952   0.291   0.132   4.649  0.0832  1.3109 -2.4490
22171SOL     OW67953   0.361   2.582   7.763 -0.0475 -0.0212  0.2101
22171SOL    HW167954   0.342   2.493   7.790  0.0187 -0.5528 -1.3826
22171SOL    HW267955   0.438   2.607   7.814  0.8257 -1.4210 -0.3415
22172SOL     OW67956   7.306   0.581   5.464  0.2006 -0.0686 -0.5612
22172SOL    HW167957   7.276   0.494   5.438  0.5769 -0.1272 -0.8072
22172SOL    HW267958   7.309   0.578   5.559  1.2300 -0.6687 -0.6084
22173SOL     OW67959   6.416   7.285   9.126 -0.0810 -0.0070 -0.2447
22173SOL    HW167960   6.356   7.284   9.052 -1.8886 -0.2641  1.1616
22173SOL    HW267961   6.403   7.201   9.169 -1.0323  1.1342  1.8345
22174SOL     OW67962   7.177   2.650   5.162 -0.2508  0.6014  0.1963
22174SOL    HW167963   7.132   2.599   5.095 -0.2487  1.0202 -0.1330
22174SOL    HW267964   7.173   2.596   5.240  1.5349 -0.8089 -0.6197
22175SOL     OW67965   2.847   7.018   9.342  0.0458  0.1082  0.1108
22175SOL    HW167966   2.776   7.020   9.407 -0.7296  0.6615 -0.7320
22175SOL    HW267967   2.855   7.108   9.312  1.7017  0.2259  0.7877
22176SOL     OW67968   4.544   4.811  10.122  0.5557  0.3947  0.0773
22176SOL    HW167969   4.475   4.785  10.182  0.4153  0.8185  0.1041
22176SOL    HW267970   4.561   4.903  10.143  1.1452  0.2907  0.0920
22177SOL     OW67971   6.719   7.541   1.935 -0.0349 -0.3879 -0.4823
22177SOL    HW167972   6.722   7.532   1.840  0.6121  0.8010 -0.5897
22177SOL    HW267973   6.646   7.601   1.952  0.2225 -0.1295 -0.2701
22178SOL     OW67974   3.254   2.908   4.819  0.0283 -0.5267 -0.2418
22178SOL    HW167975   3.231   2.918   4.912  1.7868  0.2236  0.1590
22178SOL    HW267976   3.199   2.972   4.774 -0.7497 -0.8045  0.2876
22179SOL     OW67977   1.828   4.524   7.823 -0.0046 -0.3708 -0.3286
22179SOL    HW167978   1.906   4.574   7.848 -0.6606  1.4582 -1.7333
22179SOL    HW267979   1.765   4.590   7.796 -2.2790 -1.7494  1.2207
22180SOL     OW67980   6.493   5.865   4.155 -0.4386 -0.1079 -0.6018
22180SOL    HW167981   6.450   5.921   4.219 -2.8405 -2.0697 -0.3573
22180SOL    HW267982   6.567   5.917   4.124 -0.1334  1.5777  2.5073
22181SOL     OW67983   2.755   4.984   2.637 -0.3891 -0.8271  0.3796
22181SOL    HW167984   2.710   4.967   2.555 -0.6285  1.0230  0.0874
22181SOL    HW267985   2.757   5.080   2.645 -0.7793 -0.9491  2.7523
22182SOL     OW67986   6.048   2.047   8.407  0.2724  0.1464 -0.2599
22182SOL    HW167987   6.068   1.972   8.464  1.0207  0.6677  0.1763
22182SOL    HW267988   6.030   2.119   8.468 -2.1714 -0.0654 -0.6333
22183SOL     OW67989   4.097   5.821   3.029 -0.2056  0.0804 -0.2167
22183SOL    HW167990   4.162   5.844   2.963 -0.7754 -2.0691 -1.6423
22183SOL    HW267991   4.126   5.736   3.063  0.1644  1.2213  2.4957
22184SOL     OW67992   1.072   3.364   1.180  0.3551 -0.2565  0.6186
22184SOL    HW167993   1.051   3.456   1.163 -0.8194 -0.3694  1.3735
22184SOL    HW267994   1.024   3.342   1.259  0.7652 -1.4856  0.5524
22185SOL     OW67995   7.323   5.916  12.099 -0.2860  0.3491 -0.0467
22185SOL    HW167996   7.261   5.875  12.039 -0.3144 -1.0995  0.9095
22185SOL    HW267997   7.269   5.972  12.156 -0.9329 -1.6259  1.3965
22186SOL     OW67998   6.527   7.451   0.405 -0.2803 -0.4269  0.0094
22186SOL    HW167999   6.509   7.493   0.489 -0.7817 -1.9592  0.6927
22186SOL    HW268000   6.609   7.404   0.419 -0.2925 -0.5736 -0.4019
22187SOL     OW68001   7.507   7.785   1.496  0.3847 -0.4054 -0.3390
22187SOL    HW168002   7.595   7.777   1.533  0.6635 -1.5897 -1.2194
22187SOL    HW268003   7.517   7.849   1.425  1.0055 -1.9704 -1.7262
22188SOL     OW68004   6.642   7.086   5.144 -0.2655 -0.4462  0.1458
22188SOL    HW168005   6.642   7.146   5.069  2.0987  0.9038  1.1064
22188SOL    HW268006   6.607   7.005   5.109 -0.6227  0.5660 -2.0467
22189SOL     OW68007   2.781   5.821   6.396  1.0339  0.2677 -0.3125
22189SOL    HW168008   2.700   5.826   6.448  0.1657 -1.9888 -1.2953
22189SOL    HW268009   2.776   5.896   6.337 -0.5405  0.0130 -0.5649
22190SOL     OW68010   4.571   7.101   0.599 -0.2980 -0.0851  0.3045
22190SOL    HW168011   4.568   7.096   0.695 -0.7820  0.5446  0.3246
22190SOL    HW268012   4.622   7.024   0.574 -1.2651 -0.9919  0.9968
22191SOL     OW68013   6.233   3.000   3.545  0.3493  0.0827  0.4435
22191SOL    HW168014   6.144   2.974   3.565  0.6942 -0.9844  0.6434
22191SOL    HW268015   6.223   3.079   3.491 -0.7110 -0.1646  0.2522
22192SOL     OW68016   7.675   2.442   0.513 -0.2431  0.2496 -0.3724
22192SOL    HW168017   7.678   2.532   0.482 -1.4185 -0.2595 -2.1539
22192SOL    HW268018   7.581   2.422   0.519 -0.0348 -0.4146  1.4644
22193SOL     OW68019   4.319   6.538   6.464  0.6585  0.5836 -0.1974
22193SOL    HW168020   4.246   6.571   6.413  1.5118 -1.2375 -2.8340
22193SOL    HW268021   4.288   6.454   6.499  1.3827 -0.1665 -1.2730
22194SOL     OW68022   3.078   1.344   9.556  0.3723  0.0170 -0.1457
22194SOL    HW168023   3.085   1.430   9.514  2.1201  0.2068  0.4620
22194SOL    HW268024   3.103   1.282   9.487  1.0804  0.1609 -0.0258
22195SOL     OW68025   5.774   7.401   2.955  0.1736 -0.0686  0.1911
22195SOL    HW168026   5.680   7.415   2.965  0.1883 -0.1201  0.4203
22195SOL    HW268027   5.785   7.368   2.866  0.1677  1.5741 -0.4459
22196SOL     OW68028   5.493   2.854   1.560  0.7189 -0.7016 -0.6260
22196SOL    HW168029   5.449   2.811   1.487  1.1864  1.6979 -2.4161
22196SOL    HW268030   5.586   2.846   1.541  0.8349  0.2770 -0.4950
22197SOL     OW68031   1.591   0.275   8.885 -0.3154 -0.3341 -0.1444
22197SOL    HW168032   1.513   0.316   8.922 -0.0440  0.7372 -0.7047
22197SOL    HW268033   1.663   0.333   8.912  0.0405 -0.2731 -1.1918
22198SOL     OW68034   6.177   0.719   0.488 -0.0623  0.2518  0.2083
22198SOL    HW168035   6.255   0.671   0.516 -0.4949  0.0991  1.1989
22198SOL    HW268036   6.210   0.788   0.431  0.7423 -0.1509  0.1829
22199SOL     OW68037   5.894   1.910   5.389 -0.2394  0.0341  0.1999
22199SOL    HW168038   5.817   1.884   5.439  0.9854  0.2743  2.3194
22199SOL    HW268039   5.968   1.871   5.436  0.9706 -0.1744 -1.7556
22200SOL     OW68040   3.700   4.656  11.795 -0.0199  0.3930 -0.0463
22200SOL    HW168041   3.693   4.740  11.750 -0.6351  0.1846 -0.3665
22200SOL    HW268042   3.624   4.606  11.763 -0.3429  0.1571  1.0540
22201SOL     OW68043   3.344   5.065   6.874  0.1051  0.0533 -0.4699
22201SOL    HW168044   3.377   5.110   6.953  0.2852  0.0183 -0.5244
22201SOL    HW268045   3.375   5.119   6.802  3.6978 -2.1310 -0.8041
22202SOL     OW68046   0.019   6.650  10.638 -0.3929 -0.2750  0.6342
22202SOL    HW168047   0.053   6.678  10.553 -1.6334  0.3688  0.3209
22202SOL    HW268048  -0.073   6.629  10.621 -0.3218 -1.4463  1.5511
22203SOL     OW68049   4.085   6.487   5.364 -0.1143  0.3972  0.3823
22203SOL    HW168050   4.082   6.392   5.364 -1.5647  0.4247  0.0059
22203SOL    HW268051   4.077   6.512   5.456  1.0985  0.1710  0.5774
22204SOL     OW68052   6.795   1.577   1.842 -0.0236  0.3213 -0.2917
22204SOL    HW168053   6.804   1.555   1.935  0.2796  0.4069 -0.2986
22204SOL    HW268054   6.813   1.671   1.837  1.0845  0.1106 -0.5813
22205SOL     OW68055   1.774   5.116  12.271  0.5978  0.0088 -0.1113
22205SOL    HW168056   1.851   5.079  12.313  0.6595  0.1016 -0.1434
22205SOL    HW268057   1.711   5.044  12.270  1.1544 -0.4895 -1.3186
22206SOL     OW68058   2.421   7.190   1.702  0.1088 -0.0844  0.6406
22206SOL    HW168059   2.483   7.257   1.732  0.6862 -1.6426  3.2549
22206SOL    HW268060   2.471   7.138   1.639  0.5444  0.3407  0.6270
22207SOL     OW68061   4.436   5.977   7.440  0.4873  0.0002  0.1004
22207SOL    HW168062   4.388   5.902   7.403  1.5947 -0.2409 -0.8924
22207SOL    HW268063   4.501   5.937   7.498 -0.6865  0.3428  1.7186
22208SOL     OW68064   6.889   7.306   3.842 -0.6307  0.0854  0.3782
22208SOL    HW168065   6.815   7.252   3.870 -0.5712  0.3676  1.1094
22208SOL    HW268066   6.928   7.337   3.924 -0.0403  0.3914 -0.0139
22209SOL     OW68067   1.489   3.097  10.156  0.3729 -0.1478  1.0433
22209SOL    HW168068   1.565   3.038  10.154  0.7592  0.2474 -2.0066
22209SOL    HW268069   1.523   3.180  10.189  0.7994 -0.5156  1.5404
22210SOL     OW68070   7.722   3.780   3.171 -0.4408  0.2488  0.6757
22210SOL    HW168071   7.810   3.765   3.137 -0.4203  1.1375  0.3152
22210SOL    HW268072   7.690   3.692   3.196 -0.5302 -0.4808 -1.7688
22211SOL     OW68073   4.455   3.251   7.387 -0.3711  0.0788 -0.4005
22211SOL    HW168074   4.403   3.185   7.342  0.1181 -1.0554  0.6485
22211SOL    HW268075   4.395   3.324   7.399 -1.1736 -0.4915 -0.8183
22212SOL     OW68076   3.483   1.445   8.919  0.0293 -0.2609  0.0799
22212SOL    HW168077   3.444   1.425   9.004  0.8795  0.5539  0.6870
22212SOL    HW268078   3.521   1.532   8.930 -0.9910  0.4553 -1.5535
22213SOL     OW68079   6.281   3.319   0.014  0.2114 -0.1109  0.1989
22213SOL    HW168080   6.337   3.351   0.085  1.4143 -1.0459 -0.2927
22213SOL    HW268081   6.241   3.240   0.049  1.5730 -1.1292 -0.4575
22214SOL     OW68082   6.484   2.699   0.298  0.0660 -0.7734 -0.1997
22214SOL    HW168083   6.495   2.745   0.381  1.3751 -1.7786  0.1982
22214SOL    HW268084   6.407   2.741   0.258 -0.1656  0.1842  1.1870
22215SOL     OW68085   0.569   4.454   5.662 -0.0868 -0.3313 -0.0840
22215SOL    HW168086   0.561   4.548   5.679 -1.4394 -0.1309 -1.5409
22215SOL    HW268087   0.654   4.444   5.620 -0.7482  0.5875 -1.7376
22216SOL     OW68088   0.049   2.593   1.882  0.0330  0.2299 -0.2403
22216SOL    HW168089   0.040   2.599   1.787 -0.4856  1.2924 -0.1432
22216SOL    HW268090  -0.004   2.665   1.916 -1.9945 -1.7207  1.0060
22217SOL     OW68091   5.375   3.763   2.962  0.1249 -0.2390  0.1966
22217SOL    HW168092   5.441   3.804   3.018 -0.0215  0.8933 -0.4454
22217SOL    HW268093   5.425   3.728   2.889 -0.0266  1.2769 -0.6742
22218SOL     OW68094   2.976   4.467   1.658 -0.0882  0.1473 -0.1868
22218SOL    HW168095   2.901   4.414   1.684 -0.3605  1.3458  1.6107
22218SOL    HW268096   2.946   4.518   1.583 -0.1617 -1.3826 -1.2393
22219SOL     OW68097   4.826   3.148  10.053 -0.1666  0.3668  0.2519
22219SOL    HW168098   4.894   3.110   9.998 -0.2359  0.8697 -0.1884
22219SOL    HW268099   4.866   3.226  10.091 -0.1911  0.1442  0.7377
22220SOL     OW68100   1.416   3.646   4.556 -0.4452 -0.2933 -0.3527
22220SOL    HW168101   1.503   3.639   4.517 -0.2932  0.1815 -0.1053
22220SOL    HW268102   1.361   3.683   4.487 -0.8780 -2.2037 -1.1149
22221SOL     OW68103   0.264   5.201   4.498  0.2426 -0.6015  0.2626
22221SOL    HW168104   0.304   5.144   4.432 -1.6756  2.1569 -3.7071
22221SOL    HW268105   0.325   5.274   4.506 -0.9476  0.6191 -1.0974
22222SOL     OW68106   7.763   3.763   7.265  0.2244 -0.3173 -0.1345
22222SOL    HW168107   7.808   3.840   7.231 -0.1620  0.0605  0.2032
22222SOL    HW268108   7.702   3.738   7.196  0.4962 -0.4543 -0.3307
22223SOL     OW68109   6.177   6.729   6.096  0.2227  0.5115 -0.5224
22223SOL    HW168110   6.121   6.657   6.123 -0.7997  1.0817 -1.0691
22223SOL    HW268111   6.220   6.757   6.176 -0.2930  0.0786 -0.0876
22224SOL     OW68112   2.586   7.730  10.869 -0.5153 -0.4009 -0.0493
22224SOL    HW168113   2.669   7.734  10.822 -0.7863 -0.0544 -0.4917
22224SOL    HW268114   2.607   7.760  10.958 -0.6000  1.8399 -0.7315
22225SOL     OW68115   1.743   3.763   7.042  0.3345  0.1550  0.2221
22225SOL    HW168116   1.740   3.721   6.956  0.2515  0.6525 -0.0209
22225SOL    HW268117   1.836   3.765   7.065  0.6079  2.0493 -0.8758
22226SOL     OW68118   2.006   1.465   8.932 -0.4652 -0.4830 -0.3799
22226SOL    HW168119   1.947   1.403   8.890  0.9574 -1.2046 -1.4034
22226SOL    HW268120   1.948   1.529   8.974 -2.0586 -3.2115  1.9655
22227SOL     OW68121   3.384   6.640   5.030  0.0949  0.3355  0.4064
22227SOL    HW168122   3.343   6.589   4.960  0.8452  0.0404  0.1661
22227SOL    HW268123   3.326   6.714   5.043 -0.8048 -0.3682  0.4743
22228SOL     OW68124   6.948   4.026  11.382  0.2642 -0.5162  0.0196
22228SOL    HW168125   6.927   4.120  11.382 -0.0554 -0.5862  0.9986
22228SOL    HW268126   7.043   4.023  11.395  0.3189 -0.3265 -0.3137
22229SOL     OW68127   0.229   2.439   2.911 -0.3922 -0.6975 -0.0673
22229SOL    HW168128   0.243   2.508   2.846 -1.2623 -0.1409  0.3169
22229SOL    HW268129   0.284   2.464   2.985 -0.6183 -0.4580  0.0256
22230SOL     OW68130   4.165   1.075  12.296  0.2122 -0.7542 -0.6169
22230SOL    HW168131   4.178   0.988  12.260  0.4319 -1.2543  0.6229
22230SOL    HW268132   4.224   1.080  12.371 -0.4003  0.1490 -0.1636
22231SOL     OW68133   2.197   2.974   0.981 -0.5148 -0.1130 -0.6475
22231SOL    HW168134   2.201   2.898   1.039  1.4933 -0.1504 -0.7360
22231SOL    HW268135   2.168   3.046   1.038 -0.3008 -0.5153 -0.0210
22232SOL     OW68136   7.387   5.426   7.714 -0.4848  0.3267  0.2815
22232SOL    HW168137   7.438   5.446   7.793  0.3943 -0.0659 -0.1648
22232SOL    HW268138   7.445   5.451   7.642 -0.5910 -0.9063 -0.2564
22233SOL     OW68139   4.074   5.267   0.810  0.3077  0.8088 -0.0403
22233SOL    HW168140   4.140   5.198   0.801 -0.6279 -0.1880  0.4742
22233SOL    HW268141   4.115   5.332   0.868  1.7042  1.3812 -1.5713
22234SOL     OW68142   2.660   6.298   5.118  0.7133 -0.1029  0.1248
22234SOL    HW168143   2.670   6.372   5.059 -1.5460  0.7128  0.6852
22234SOL    HW268144   2.611   6.233   5.068 -0.0155  0.0449  0.6275
22235SOL     OW68145   6.681   2.405   8.663 -0.5744  0.3325  0.3953
22235SOL    HW168146   6.716   2.335   8.608 -1.3030  1.0000 -0.9622
22235SOL    HW268147   6.638   2.359   8.736  1.0101 -0.5412  0.8251
22236SOL     OW68148   0.928   4.754  10.061 -0.7977  0.2709  0.0922
22236SOL    HW168149   1.018   4.743  10.032  0.0476  2.2278  1.7564
22236SOL    HW268150   0.931   4.739  10.156 -1.8402  2.0935  0.4592
22237SOL     OW68151   3.616   2.205  10.233  0.4006  0.3547  0.6644
22237SOL    HW168152   3.648   2.141  10.170 -0.6692  0.3741  0.0797
22237SOL    HW268153   3.683   2.273  10.234 -0.9841  2.0292 -2.9778
22238SOL     OW68154   5.116   2.053   7.031 -0.0852  0.0442 -0.1585
22238SOL    HW168155   5.037   2.025   7.078 -0.4583  1.5536  0.1774
22238SOL    HW268156   5.101   2.025   6.941 -0.5637 -0.5406  0.0930
22239SOL     OW68157   3.992   6.797   0.501  0.5539  0.9815  0.5187
22239SOL    HW168158   4.029   6.835   0.581 -1.4247  0.8019  1.6135
22239SOL    HW268159   3.899   6.821   0.505  0.0231 -0.6665 -0.7280
22240SOL     OW68160   6.705   4.688  11.683  0.5967 -0.2356  0.2136
22240SOL    HW168161   6.677   4.675  11.773  1.3519  1.0540  0.6583
22240SOL    HW268162   6.801   4.692  11.688  0.6257  3.4531 -0.0202
22241SOL     OW68163   6.751   5.501   3.959 -0.4095 -0.4204 -0.3012
22241SOL    HW168164   6.744   5.419   3.911 -0.6553  0.0197 -1.0234
22241SOL    HW268165   6.758   5.568   3.892  2.4250 -0.0334  0.2333
22242SOL     OW68166   4.863   4.979   0.862  0.2670  0.1946 -0.2192
22242SOL    HW168167   4.916   5.037   0.806 -0.1706 -0.2362 -1.1037
22242SOL    HW268168   4.823   5.038   0.926  3.3666  0.2951  1.7905
22243SOL     OW68169   0.722   4.843   8.033  0.2727  0.0667  0.4807
22243SOL    HW168170   0.708   4.911   7.967 -1.4003  0.5814  1.3244
22243SOL    HW268171   0.653   4.779   8.018  1.5165 -1.2197  0.0376
22244SOL     OW68172   5.596   5.961   3.223  0.4965  0.2457  0.5377
22244SOL    HW168173   5.537   5.892   3.251  0.1114 -0.7995 -2.5832
22244SOL    HW268174   5.666   5.961   3.290 -1.6149 -0.1905  2.8989
22245SOL     OW68175   1.601   6.800   6.793  0.1689  0.6234 -0.1632
22245SOL    HW168176   1.693   6.789   6.769 -0.1038 -0.3153 -0.8511
22245SOL    HW268177   1.553   6.775   6.714 -0.6783  0.9696  0.2353
22246SOL     OW68178   2.704   1.517  10.484 -0.3368 -0.8200  0.0995
22246SOL    HW168179   2.633   1.554  10.432 -0.0807 -0.2958  0.1099
22246SOL    HW268180   2.717   1.581  10.555  1.3745  0.0788 -0.9283
22247SOL     OW68181   5.742   2.230   3.581 -0.3359 -0.1823  0.9170
22247SOL    HW168182   5.788   2.171   3.521 -0.3184 -0.0777  0.8262
22247SOL    HW268183   5.710   2.300   3.524 -1.5181 -0.7902  0.8058
22248SOL     OW68184   7.153   1.149  11.799 -0.4188  0.0318  0.0723
22248SOL    HW168185   7.111   1.071  11.762 -1.3205  0.7821 -0.5374
22248SOL    HW268186   7.200   1.188  11.725 -0.6026  0.4713  0.1821
22249SOL     OW68187   0.378   3.119   9.635 -0.2185  0.2694 -0.2825
22249SOL    HW168188   0.363   3.120   9.730  0.4641  0.3596 -0.1722
22249SOL    HW268189   0.444   3.187   9.620  0.4726 -0.4694 -0.6832
22250SOL     OW68190   3.455   1.753   9.934 -0.0273  0.8380  0.3261
22250SOL    HW168191   3.410   1.669   9.932  0.0296  0.7968  0.6647
22250SOL    HW268192   3.400   1.808   9.990  0.0142  0.9790  0.2275
22251SOL     OW68193   1.521   7.313   2.145  0.0771  0.2381  0.3716
22251SOL    HW168194   1.608   7.277   2.159  0.2202  0.4418  0.0089
22251SOL    HW268195   1.463   7.237   2.146  0.3168  0.0516  0.1291
22252SOL     OW68196   0.872   6.840   4.143 -0.2364  0.0245 -0.3479
22252SOL    HW168197   0.904   6.840   4.053  2.1027  1.5204  0.3945
22252SOL    HW268198   0.867   6.747   4.166  1.8109 -0.3690 -1.2015
22253SOL     OW68199   1.353   0.256   1.946 -0.3967  0.2608  0.4801
22253SOL    HW168200   1.312   0.288   1.865  0.5429 -1.1570 -0.6045
22253SOL    HW268201   1.447   0.258   1.927 -0.2016 -0.8107  1.2620
22254SOL     OW68202   4.137   4.939   6.154 -0.2909 -0.3225 -0.5574
22254SOL    HW168203   4.122   4.892   6.237 -0.5940 -1.1173 -1.0519
22254SOL    HW268204   4.146   4.870   6.089  1.1117  0.2615 -1.0163
22255SOL     OW68205   1.752   4.276   5.816  0.5762  0.3665  0.4145
22255SOL    HW168206   1.736   4.228   5.735  1.0272  1.3406 -0.2613
22255SOL    HW268207   1.830   4.328   5.799  0.9756  0.2103  1.6465
22256SOL     OW68208   3.163   3.197   3.454 -0.7592 -0.4622  0.6339
22256SOL    HW168209   3.097   3.247   3.406  0.5180 -0.2997 -1.0938
22256SOL    HW268210   3.238   3.257   3.459 -0.0126 -1.3742  0.6257
22257SOL     OW68211   6.279   5.494   0.905  0.0459  0.2076  0.0407
22257SOL    HW168212   6.373   5.497   0.893  0.1387 -0.3396  0.5593
22257SOL    HW268213   6.248   5.582   0.882  0.6428  0.3090 -0.3841
22258SOL     OW68214   6.306   1.333   1.654  0.4076 -0.2477  0.0316
22258SOL    HW168215   6.226   1.384   1.638  0.8951  0.7437  0.7066
22258SOL    HW268216   6.369   1.397   1.688  0.8141 -1.4318  1.5843
22259SOL     OW68217   4.837   7.317   5.064 -0.1055  0.1290 -0.3712
22259SOL    HW168218   4.841   7.314   5.160  0.2028 -0.5784 -0.4037
22259SOL    HW268219   4.907   7.377   5.039 -0.4691  0.6602 -0.1356
22260SOL     OW68220   4.118   1.564  11.721  0.3093  0.1412  0.3891
22260SOL    HW168221   4.183   1.630  11.694 -0.0743  0.3068 -0.1552
22260SOL    HW268222   4.094   1.520  11.639  1.5038 -1.5667  0.9004
22261SOL     OW68223   1.496   5.692   3.546  0.2570 -0.0833  0.1759
22261SOL    HW168224   1.406   5.675   3.519  0.4653 -0.9532  0.0253
22261SOL    HW268225   1.509   5.637   3.623  0.8648 -0.4425 -0.1786
22262SOL     OW68226   1.159   2.435   1.646  0.4818  0.0216  0.1854
22262SOL    HW168227   1.152   2.492   1.569  1.2808  0.3977  0.3806
22262SOL    HW268228   1.125   2.488   1.718 -0.8727 -0.5540  0.0114
22263SOL     OW68229   4.347   2.094   5.939 -0.1373  0.4294 -0.4180
22263SOL    HW168230   4.271   2.045   5.908 -0.3217 -0.0833  0.7926
22263SOL    HW268231   4.372   2.148   5.864  0.7771 -2.2795 -2.2188
22264SOL     OW68232   6.101   1.829  10.819  0.3171  0.1160  0.3568
22264SOL    HW168233   6.059   1.868  10.743 -1.1578 -0.2667  0.9537
22264SOL    HW268234   6.035   1.831  10.887  0.7823 -1.8199  0.9187
22265SOL     OW68235   4.905   4.658   7.918  0.1835  0.4372  0.5418
22265SOL    HW168236   4.892   4.752   7.905  1.9188  0.7894  1.1915
22265SOL    HW268237   4.920   4.624   7.830  0.2020  0.8664  0.3740
22266SOL     OW68238   0.354   0.292   9.244  0.2105  0.0572  0.0425
22266SOL    HW168239   0.287   0.299   9.176 -0.7864  0.5696  1.0430
22266SOL    HW268240   0.306   0.272   9.323  1.4069 -1.0324  0.5246
22267SOL     OW68241   5.755   2.347   7.970  0.3972  0.0590 -0.2066
22267SOL    HW168242   5.825   2.369   8.031 -0.4598  1.1555  0.4369
22267SOL    HW268243   5.676   2.344   8.024 -0.2010 -0.1266 -1.0659
22268SOL     OW68244   6.714   5.318   7.984 -0.1974  0.1284  0.3450
22268SOL    HW168245   6.679   5.386   8.042  2.7385  0.1730  2.2465
22268SOL    HW268246   6.756   5.366   7.913 -0.5860  0.1689  0.1351
22269SOL     OW68247   4.814   4.807   0.266  0.0359  0.2734  0.4586
22269SOL    HW168248   4.830   4.737   0.329  1.1796  0.1430  0.0411
22269SOL    HW268249   4.731   4.784   0.224 -0.8009  0.4114  1.9712
22270SOL     OW68250   0.395   0.352   0.891 -0.0989 -0.0039 -0.3161
22270SOL    HW168251   0.426   0.301   0.816  0.4894 -0.3781  0.1745
22270SOL    HW268252   0.473   0.398   0.924 -0.4973  0.7445 -0.3773
22271SOL     OW68253   0.851   3.179  10.861 -0.6187  0.1036 -0.5329
22271SOL    HW168254   0.781   3.165  10.925  0.1073  1.9841  0.7525
22271SOL    HW268255   0.912   3.107  10.877 -0.5596  0.4106  0.7721
22272SOL     OW68256   5.368   7.311   3.946  0.4805 -0.5189 -0.1993
22272SOL    HW168257   5.392   7.392   3.991  1.5499 -0.9863  0.0931
22272SOL    HW268258   5.281   7.290   3.979  1.6316 -1.4153  2.5047
22273SOL     OW68259   7.322   0.999   8.477 -0.1316 -0.2817 -0.6493
22273SOL    HW168260   7.331   1.062   8.548 -0.1803  1.3346 -1.9870
22273SOL    HW268261   7.367   0.921   8.508 -0.1257  0.3733  1.1190
22274SOL     OW68262   5.402   7.265   2.774 -0.3156 -0.0935 -0.1374
22274SOL    HW168263   5.481   7.222   2.809 -0.2590 -0.2532 -0.4626
22274SOL    HW268264   5.430   7.354   2.755 -0.6560  0.3803  1.3840
22275SOL     OW68265   1.882   6.652   1.661 -0.1684 -0.2223  0.6572
22275SOL    HW168266   1.827   6.664   1.583 -0.0996  0.0458  0.6490
22275SOL    HW268267   1.899   6.558   1.664  1.2249 -0.0440 -0.5962
22276SOL     OW68268   3.606   2.016   2.866 -0.3952 -0.1172 -0.2407
22276SOL    HW168269   3.615   2.011   2.771  0.5252  0.1760 -0.1824
22276SOL    HW268270   3.629   1.929   2.897 -0.5445 -0.1707 -0.2840
22277SOL     OW68271   7.446   7.037   0.336 -0.0060 -0.2062  0.0275
22277SOL    HW168272   7.409   7.063   0.421 -1.2105  1.4929 -0.9580
22277SOL    HW268273   7.374   7.049   0.274  1.2513 -0.0527 -1.4525
22278SOL     OW68274   3.955   0.863  10.172 -0.1709  0.5289  0.0542
22278SOL    HW168275   3.961   0.888  10.080  0.7893 -0.6214 -0.2272
22278SOL    HW268276   3.889   0.793  10.174  0.0293  0.3426  0.1941
22279SOL     OW68277   6.401   2.969   1.461  0.0532 -0.0626  0.1662
22279SOL    HW168278   6.448   2.915   1.524 -1.0279  0.3215  1.3496
22279SOL    HW268279   6.413   3.059   1.492  1.7217  0.4351 -1.7108
22280SOL     OW68280   6.636   1.253   1.531  0.0814  0.0846  0.9236
22280SOL    HW168281   6.683   1.189   1.477  0.5137  0.4596  0.8507
22280SOL    HW268282   6.546   1.250   1.499  0.5636  1.1687 -0.6695
22281SOL     OW68283   7.514   0.375   2.325  0.3696  0.6581  0.1293
22281SOL    HW168284   7.592   0.431   2.319  0.5691  0.4544  0.7456
22281SOL    HW268285   7.449   0.428   2.370  0.6776  0.2747  1.0402
22282SOL     OW68286   0.292   6.551   4.643 -0.2125 -0.1025  0.0613
22282SOL    HW168287   0.241   6.585   4.569  0.0687  1.8397  0.7226
22282SOL    HW268288   0.310   6.627   4.697  1.0410 -1.2161  1.2779
22283SOL     OW68289   5.918   5.248  10.574  0.3069  0.2545 -0.3590
22283SOL    HW168290   5.941   5.179  10.637  0.8269 -1.2378 -2.0885
22283SOL    HW268291   5.836   5.217  10.534 -0.5239  1.6432  0.2123
22284SOL     OW68292   0.766   5.420   4.479 -0.0299  0.1897  0.2221
22284SOL    HW168293   0.845   5.394   4.431 -0.6218 -1.3762  0.0568
22284SOL    HW268294   0.796   5.428   4.570  0.8571  2.1465 -0.1896
22285SOL     OW68295   3.173   4.495   1.038 -0.5458 -0.1663  0.2360
22285SOL    HW168296   3.249   4.524   1.088  0.7161 -0.1888 -1.5530
22285SOL    HW268297   3.183   4.400   1.032 -1.8278 -0.4343  1.6357
22286SOL     OW68298   1.965   0.834  11.132 -0.3991 -0.1195 -0.1865
22286SOL    HW168299   2.021   0.855  11.207 -0.6503 -0.6099  0.1410
22286SOL    HW268300   2.023   0.842  11.056 -0.3099  1.0498 -0.0135
22287SOL     OW68301   0.139   4.184   5.377 -0.2870 -0.3624 -0.5664
22287SOL    HW168302   0.086   4.179   5.297  0.0419  1.3814 -0.9442
22287SOL    HW268303   0.081   4.226   5.441 -0.4223 -1.4171  0.0298
22288SOL     OW68304   3.647   6.658   7.255  0.2846 -0.0847  0.1371
22288SOL    HW168305   3.678   6.736   7.301 -1.1029  0.5897 -0.0379
22288SOL    HW268306   3.671   6.585   7.313 -0.3169  0.6476  1.3512
22289SOL     OW68307   0.457   3.822   8.391 -0.4197  0.1743 -0.1905
22289SOL    HW168308   0.536   3.860   8.430 -0.0076 -1.1040  0.2652
22289SOL    HW268309   0.400   3.804   8.466 -1.6159  2.0060 -0.5807
22290SOL     OW68310   6.520   0.681   3.684 -0.1531  0.1012  0.1264
22290SOL    HW168311   6.460   0.609   3.701  0.0974  0.2783  1.9327
22290SOL    HW268312   6.494   0.713   3.597 -1.4405 -1.0022  0.0622
22291SOL     OW68313   1.739   0.523   1.490 -0.5866  0.1041  0.4889
22291SOL    HW168314   1.680   0.450   1.470  0.5470 -0.4110 -1.1928
22291SOL    HW268315   1.687   0.602   1.471 -1.1618 -0.3025  0.3360
22292SOL     OW68316   0.796   1.408  10.548 -0.6539  0.5803  0.1792
22292SOL    HW168317   0.873   1.352  10.543 -1.8030 -1.0729  0.3677
22292SOL    HW268318   0.769   1.405  10.640 -1.1275  0.8968  0.0586
22293SOL     OW68319   0.951   2.697   9.056 -0.3237 -0.1822 -0.7675
22293SOL    HW168320   0.873   2.642   9.055  0.8507 -1.9456 -0.3408
22293SOL    HW268321   1.002   2.665   9.131  0.7907  0.9748 -0.9930
22294SOL     OW68322   7.361   7.875   4.872 -0.3968 -0.3731  0.2286
22294SOL    HW168323   7.272   7.910   4.878  0.3846  1.4968  2.7047
22294SOL    HW268324   7.349   7.780   4.871 -2.4511 -0.1756 -1.5672
22295SOL     OW68325   1.073   6.820   8.075  0.0238 -0.1073 -0.2142
22295SOL    HW168326   1.060   6.904   8.031 -1.4773  0.8109  1.7845
22295SOL    HW268327   1.094   6.844   8.166  1.1140 -1.8928  0.0496
22296SOL     OW68328   1.315   5.911   6.548 -0.2003 -0.3160  0.0616
22296SOL    HW168329   1.307   5.872   6.634 -0.2931  1.3510  0.8493
22296SOL    HW268330   1.225   5.920   6.516 -0.3597  1.2119  0.8384
22297SOL     OW68331   5.923   2.954   5.600 -0.0808 -0.3050  0.1611
22297SOL    HW168332   5.873   2.891   5.653 -0.6940 -0.4267 -0.5544
22297SOL    HW268333   6.013   2.945   5.632 -0.5628  0.2405  1.7924
22298SOL     OW68334   6.023   2.931  11.264 -0.2849  0.1139 -0.0437
22298SOL    HW168335   5.946   2.964  11.310 -0.7384 -1.2260  0.2178
22298SOL    HW268336   5.988   2.892  11.184  0.2297  0.2434 -0.3366
22299SOL     OW68337   4.911   1.371   3.958 -0.2588  0.1520  0.6056
22299SOL    HW168338   4.938   1.304   4.022 -1.5490  0.7641  1.8594
22299SOL    HW268339   4.828   1.404   3.993 -0.8260  0.7610 -1.2378
22300SOL     OW68340   0.540   1.545   5.705 -0.4770  0.6765 -0.3157
22300SOL    HW168341   0.550   1.498   5.788 -0.1512 -3.0335 -2.2520
22300SOL    HW268342   0.446   1.559   5.696 -0.6838 -0.5255 -0.1115
22301SOL     OW68343   4.079   5.637   8.840 -0.5940  0.4540 -0.0870
22301SOL    HW168344   4.103   5.545   8.856  0.4368  0.4910 -1.1999
22301SOL    HW268345   4.064   5.641   8.745  0.1561  1.5923 -0.1761
22302SOL     OW68346   4.948   5.889  10.481 -0.0226 -0.7550 -0.1303
22302SOL    HW168347   4.989   5.827  10.422 -1.1416  1.6324 -3.7295
22302SOL    HW268348   4.854   5.880  10.464 -0.3854  0.0496  1.2968
22303SOL     OW68349   0.530   2.148   5.861  0.0287 -0.4023  0.1643
22303SOL    HW168350   0.537   2.055   5.839 -0.3828 -1.0847  2.5794
22303SOL    HW268351   0.620   2.180   5.855 -0.1936 -0.1505 -3.5099
22304SOL     OW68352   6.463   7.196  12.179  0.3415 -0.3357 -0.4688
22304SOL    HW168353   6.391   7.136  12.158  1.1522 -1.4204 -0.2790
22304SOL    HW268354   6.530   7.177  12.113  1.4267 -1.1303  0.8008
22305SOL     OW68355   6.984   6.487   7.257 -0.1535 -0.2606 -0.4096
22305SOL    HW168356   6.890   6.478   7.272  0.0257 -1.6955  0.0255
22305SOL    HW268357   6.998   6.581   7.244 -1.3778  0.2134  1.3751
22306SOL     OW68358   0.371   6.499   9.555  0.0506 -0.0227 -0.2043
22306SOL    HW168359   0.300   6.530   9.611  0.6250 -0.2783  0.6774
22306SOL    HW268360   0.359   6.404   9.552  0.1867 -0.0370 -0.2989
22307SOL     OW68361   3.090   5.831   1.562 -0.1307 -0.2071 -0.5003
22307SOL    HW168362   3.038   5.860   1.637  2.9194  0.4226  1.5741
22307SOL    HW268363   3.030   5.834   1.488 -2.7119  1.4518  1.4920
22308SOL     OW68364   6.115   1.642   2.325  0.6792 -0.5527  0.3459
22308SOL    HW168365   6.181   1.602   2.382  1.5242 -0.4724 -0.5484
22308SOL    HW268366   6.116   1.589   2.245  0.0347 -0.2325  0.1142
22309SOL     OW68367   5.526   2.149  10.777 -0.0126  0.2478 -0.7078
22309SOL    HW168368   5.539   2.173  10.686 -3.4044  0.8013 -1.1848
22309SOL    HW268369   5.529   2.232  10.825 -0.4849  0.2582 -0.6866
22310SOL     OW68370   4.320   1.582   8.266  0.3390  0.3827 -0.4507
22310SOL    HW168371   4.264   1.510   8.236  0.1111  0.3764 -0.0196
22310SOL    HW268372   4.359   1.617   8.186 -0.5649  0.6268 -0.7949
22311SOL     OW68373   3.357   3.319   3.928  0.5383 -0.3398  0.1524
22311SOL    HW168374   3.399   3.261   3.866  1.6158  0.3875  0.1773
22311SOL    HW268375   3.374   3.279   4.014 -0.1416 -0.8398  0.0678
22312SOL     OW68376   3.001   6.892   7.273 -0.4536 -0.5589 -0.0833
22312SOL    HW168377   2.987   6.891   7.368 -0.0810  2.5622  0.1068
22312SOL    HW268378   3.024   6.801   7.252  3.5363 -0.7126  3.4797
22313SOL     OW68379   5.321   4.857   0.037  0.0353 -0.0112  0.3712
22313SOL    HW168380   5.236   4.900   0.048  0.2456  1.0765 -1.7151
22313SOL    HW268381   5.303   4.785  -0.023  0.8286  1.4083 -1.7129
22314SOL     OW68382   6.898   0.109  10.317  0.2692  0.1306  0.1122
22314SOL    HW168383   6.899   0.144  10.406  0.2989 -2.0787  1.0482
22314SOL    HW268384   6.814   0.065  10.309  0.0905  0.6391 -1.1351
22315SOL     OW68385   2.961   2.645   5.025 -0.0481 -0.4899 -0.5463
22315SOL    HW168386   2.952   2.720   4.965 -1.3552  0.0954  0.3190
22315SOL    HW268387   2.950   2.683   5.112 -1.8758 -1.8295 -0.1411
22316SOL     OW68388   6.345   2.727  12.052 -0.2563 -0.0497  0.4038
22316SOL    HW168389   6.281   2.656  12.054  1.9296 -2.3387 -1.8483
22316SOL    HW268390   6.320   2.780  11.976 -0.2173 -0.2425  0.2530
22317SOL     OW68391   3.617   2.158   7.672 -0.6587 -0.3937 -0.5032
22317SOL    HW168392   3.696   2.119   7.635 -0.1407  0.0736  0.0875
22317SOL    HW268393   3.642   2.248   7.692 -1.5173 -0.0769 -0.8387
22318SOL     OW68394   6.901   3.174   1.104 -0.0093 -0.0439  0.3677
22318SOL    HW168395   6.903   3.184   1.199 -0.1666  0.7074  0.2907
22318SOL    HW268396   6.913   3.080   1.090  1.0841 -0.0243  1.0903
22319SOL     OW68397   0.450   4.284   3.934 -0.2182 -0.9100  0.0322
22319SOL    HW168398   0.499   4.348   3.985  1.1408 -1.5482 -0.4278
22319SOL    HW268399   0.429   4.328   3.852  1.6587 -1.3526 -0.7311
22320SOL     OW68400   3.771   4.180   3.522  0.5361  0.4792 -0.6001
22320SOL    HW168401   3.701   4.129   3.564  0.1322  0.6223 -1.0897
22320SOL    HW268402   3.851   4.133   3.543  0.3847  0.7168  0.6076
22321SOL     OW68403   0.632   6.970   5.567  0.3004  0.0441  0.1107
22321SOL    HW168404   0.579   7.049   5.573  0.8722  0.3524  1.5551
22321SOL    HW268405   0.686   6.983   5.489  0.8056  1.3782  0.6400
22322SOL     OW68406   1.470   6.160   3.252 -0.6125 -0.3118  0.0338
22322SOL    HW168407   1.469   6.155   3.347 -0.2219 -0.5421  0.0252
22322SOL    HW268408   1.523   6.086   3.224 -0.9900 -0.4279 -0.3772
22323SOL     OW68409   4.464   3.977   7.376  0.5742 -0.6546  0.0586
22323SOL    HW168410   4.512   4.039   7.321  0.7751 -2.6932 -2.2381
22323SOL    HW268411   4.413   4.032   7.435  1.0854  1.6714 -1.5258
22324SOL     OW68412   3.664   5.726   3.394  0.0897  0.1577  0.0415
22324SOL    HW168413   3.630   5.814   3.410  0.5029  0.5447 -1.0829
22324SOL    HW268414   3.757   5.740   3.374 -0.2685 -0.2832 -2.1417
22325SOL     OW68415   1.959   1.727   2.699 -0.3597  0.0810  0.2509
22325SOL    HW168416   1.934   1.635   2.691  0.9779 -0.1911 -1.1582
22325SOL    HW268417   2.035   1.726   2.756 -0.2651  0.3088  0.1299
22326SOL     OW68418   4.048   1.610   9.131 -0.2711  0.2641  0.4366
22326SOL    HW168419   4.052   1.694   9.084  1.7583 -1.3321 -2.5721
22326SOL    HW268420   4.093   1.627   9.214 -0.6971  2.3151  0.3134
22327SOL     OW68421   2.769   0.836   8.513  0.2014  0.4348 -0.1667
22327SOL    HW168422   2.851   0.817   8.468 -1.1941  2.5021 -4.0192
22327SOL    HW268423   2.770   0.931   8.526 -0.8446  0.2726  1.4817
22328SOL     OW68424   6.839   1.765  10.161 -0.7649  0.2599 -0.3358
22328SOL    HW168425   6.746   1.755  10.182 -0.4769  0.1552  0.9464
22328SOL    HW268426   6.856   1.859  10.172 -0.2360 -0.0286  1.6219
22329SOL     OW68427   0.686   2.917   3.318  0.2640  0.0383 -0.4728
22329SOL    HW168428   0.679   2.823   3.301 -0.8202  0.1064 -0.4298
22329SOL    HW268429   0.675   2.958   3.232  0.0301  0.1516 -0.3905
22330SOL     OW68430   4.902   3.401  10.592  0.0706  0.3807  0.8062
22330SOL    HW168431   4.931   3.345  10.663 -0.7330 -0.6208  0.3739
22330SOL    HW268432   4.936   3.488  10.614  0.1353  0.0193  2.2164
22331SOL     OW68433   1.865   4.230   7.910  0.5387 -0.1690  0.5986
22331SOL    HW168434   1.806   4.156   7.895 -0.1745  0.5966 -0.6050
22331SOL    HW268435   1.946   4.206   7.865  0.0777  0.0403 -0.3778
22332SOL     OW68436   2.267   3.341   4.465  0.5935  0.1945  0.1529
22332SOL    HW168437   2.358   3.355   4.492  0.2287 -1.2199  2.3300
22332SOL    HW268438   2.251   3.248   4.480 -2.0464  0.9176  2.7093
22333SOL     OW68439   7.548   6.761   3.680 -0.0007 -0.1771  0.3802
22333SOL    HW168440   7.499   6.720   3.752 -1.0868  0.4797  0.0350
22333SOL    HW268441   7.488   6.757   3.606  1.4185 -1.6463 -0.7709
22334SOL     OW68442   6.706   5.412   4.890  0.2127 -0.2817 -0.0887
22334SOL    HW168443   6.754   5.392   4.970  0.4180 -0.7623 -0.3286
22334SOL    HW268444   6.766   5.388   4.819 -0.6376 -1.6281 -0.4017
22335SOL     OW68445   3.228   2.765  11.059  0.3069  0.1122 -0.2734
22335SOL    HW168446   3.310   2.721  11.080  0.0285  0.0347  0.6791
22335SOL    HW268447   3.191   2.790  11.143 -0.6783  0.0987 -0.6830
22336SOL     OW68448   6.809   6.172   8.709 -0.2235  0.6231  0.2543
22336SOL    HW168449   6.822   6.262   8.679 -0.3526  0.2191 -1.0953
22336SOL    HW268450   6.852   6.118   8.643 -1.0507 -0.3525  0.4827
22337SOL     OW68451   5.504   4.513   5.575 -0.2151  0.0630  0.0953
22337SOL    HW168452   5.596   4.490   5.589 -0.3544 -0.6178 -0.0627
22337SOL    HW268453   5.503   4.557   5.490  0.1595  1.3187  0.7203
22338SOL     OW68454   0.964   3.555   7.763 -0.1384 -0.2745 -0.1893
22338SOL    HW168455   1.013   3.610   7.823 -0.9839 -0.8361  1.0647
22338SOL    HW268456   1.030   3.499   7.722  0.9234  2.4098 -2.4481
22339SOL     OW68457   0.803   1.874  10.265  0.3763  0.1658  0.5316
22339SOL    HW168458   0.863   1.928  10.317 -1.2906  3.5090 -0.7663
22339SOL    HW268459   0.836   1.882  10.175  0.2751 -1.3759  0.3232
22340SOL     OW68460   5.464   7.683   6.526  0.2581 -0.2743 -0.2519
22340SOL    HW168461   5.502   7.685   6.614  0.7797  1.4238 -0.4763
22340SOL    HW268462   5.539   7.679   6.467 -0.0841 -1.1710 -0.6432
22341SOL     OW68463   3.808   6.022   3.330 -0.3664  0.3146 -0.0936
22341SOL    HW168464   3.770   6.097   3.377 -0.9599  1.1662 -1.8677
22341SOL    HW268465   3.876   6.060   3.276 -0.0374 -0.5795 -0.3253
22342SOL     OW68466   4.425   0.826   6.853  0.3297  0.4588  0.2446
22342SOL    HW168467   4.402   0.754   6.794  1.9294  0.2988 -0.2395
22342SOL    HW268468   4.450   0.783   6.934  0.9878  0.4703  0.0555
22343SOL     OW68469   5.669   4.422   2.880 -0.0249 -0.2525 -0.1189
22343SOL    HW168470   5.582   4.385   2.897 -0.2936 -0.4503 -1.7518
22343SOL    HW268471   5.678   4.420   2.785  0.6532  2.3185 -0.1807
22344SOL     OW68472   4.477   6.220  11.933  0.7148  0.5641  0.3315
22344SOL    HW168473   4.381   6.213  11.935  0.8308 -1.4413  0.4740
22344SOL    HW268474   4.499   6.254  12.020  0.1879  0.2327  0.6022
22345SOL     OW68475   4.866   5.802   0.622  0.1549 -0.4052  0.2314
22345SOL    HW168476   4.842   5.865   0.690  1.2182 -0.4167  0.6354
22345SOL    HW268477   4.960   5.814   0.611  0.3840 -1.9109  0.3096
22346SOL     OW68478   1.148   3.743  10.023 -0.2111 -0.2528 -0.5120
22346SOL    HW168479   1.080   3.791   9.975 -0.5588 -1.9460 -1.8222
22346SOL    HW268480   1.099   3.680  10.076  0.2599  0.4236  0.7789
22347SOL     OW68481   4.338   2.923   4.206  0.2225 -0.7432  0.1471
22347SOL    HW168482   4.340   2.932   4.302 -0.6191 -0.8733  0.1881
22347SOL    HW268483   4.264   2.977   4.179 -1.0392 -2.5389 -0.1918
22348SOL     OW68484   6.034   6.900  10.835  0.1594  0.5186  0.4655
22348SOL    HW168485   6.108   6.945  10.876  1.3587  0.8919 -1.9037
22348SOL    HW268486   6.026   6.818  10.883 -0.2546  1.9916  3.0718
22349SOL     OW68487   4.965   3.890   2.980 -0.3510 -0.0872  0.1196
22349SOL    HW168488   4.950   3.928   3.066  0.8431  0.6597  0.0179
22349SOL    HW268489   4.888   3.916   2.928 -0.2531  0.9507  0.4689
22350SOL     OW68490   5.308   5.426   9.649  0.5954  0.2269 -0.1138
22350SOL    HW168491   5.402   5.412   9.641  0.6443  1.0129 -1.2970
22350SOL    HW268492   5.277   5.356   9.706  1.7996 -0.4220 -0.2362
22351SOL     OW68493   0.183   2.486  11.506  0.1765 -0.5358  0.1310
22351SOL    HW168494   0.116   2.421  11.530  0.8337 -2.2738 -2.3284
22351SOL    HW268495   0.135   2.551  11.455 -0.0350 -0.5037  0.3659
22352SOL     OW68496   0.461   7.828   8.658 -0.3429 -0.4435  0.1211
22352SOL    HW168497   0.399   7.817   8.731  0.1471 -0.5742  0.5222
22352SOL    HW268498   0.538   7.778   8.685  0.6769  1.2498  0.4890
22353SOL     OW68499   0.924   7.165  10.728  0.3901 -0.8132  0.4421
22353SOL    HW168500   0.988   7.118  10.674  0.0567  0.3483 -1.0352
22353SOL    HW268501   0.968   7.247  10.752 -0.7584  0.3776 -1.2830
22354SOL     OW68502   1.937   7.657   4.548 -0.3357 -0.0665 -0.1339
22354SOL    HW168503   1.931   7.749   4.573  0.8467 -0.5166  1.9893
22354SOL    HW268504   2.029   7.644   4.526 -0.2462 -1.0105  0.7573
22355SOL     OW68505   7.074   7.752   6.507 -0.2810 -0.3524 -0.0162
22355SOL    HW168506   7.077   7.833   6.455 -0.0391 -0.6958 -0.5441
22355SOL    HW268507   6.987   7.753   6.547 -0.4644 -0.0665 -0.4105
22356SOL     OW68508   7.660   5.048   5.456  0.1260  0.2420 -0.0771
22356SOL    HW168509   7.669   5.106   5.381  0.7843  0.3346  0.0647
22356SOL    HW268510   7.619   5.103   5.523  1.3753  0.7708  0.2848
22357SOL     OW68511   1.249   3.872   1.743 -0.6110  0.4068  0.7072
22357SOL    HW168512   1.288   3.805   1.686 -0.8034 -0.4490  1.5565
22357SOL    HW268513   1.202   3.930   1.684  0.1693  0.2133 -0.1201
22358SOL     OW68514   7.803   4.300  10.603  0.6308  0.4570 -0.2015
22358SOL    HW168515   7.891   4.276  10.573  0.3997  2.7713 -3.2675
22358SOL    HW268516   7.815   4.385  10.646 -0.0990  1.0176 -1.0602
22359SOL     OW68517   5.293   5.264   7.435 -0.6115 -0.5710  0.1452
22359SOL    HW168518   5.319   5.196   7.373  0.9870  1.0738 -1.0854
22359SOL    HW268519   5.297   5.221   7.520  0.6961 -1.9493 -0.5539
22360SOL     OW68520   5.944   2.628  10.691 -0.4521  0.2027 -0.9450
22360SOL    HW168521   5.915   2.550  10.738  0.6429  0.1438 -0.3350
22360SOL    HW268522   5.926   2.609  10.599 -1.2468 -0.2956 -0.6928
22361SOL     OW68523   7.300   4.940   4.459  0.1696  0.7245 -0.3438
22361SOL    HW168524   7.341   4.971   4.540  0.9459 -3.3389  1.0714
22361SOL    HW268525   7.218   4.988   4.454  0.2193  1.3290  2.7664
22362SOL     OW68526   5.975   1.211   0.947  0.4091  0.0214  0.3628
22362SOL    HW168527   5.932   1.283   0.993  1.5950  0.8871  0.1616
22362SOL    HW268528   6.026   1.167   1.015  0.2515 -0.1948  0.3423
22363SOL     OW68529   0.678   6.685   4.400  0.3501 -0.1577  0.1472
22363SOL    HW168530   0.759   6.634   4.404 -0.9711 -2.3358  1.5549
22363SOL    HW268531   0.685   6.746   4.474  0.7173 -0.2640  0.2029
22364SOL     OW68532   0.990   7.577  11.790 -0.5491  0.8641  0.0567
22364SOL    HW168533   0.909   7.565  11.839 -0.8997 -0.9946 -0.8758
22364SOL    HW268534   1.058   7.542  11.847 -0.6858  0.4988 -0.0058
22365SOL     OW68535   1.650   7.466   2.552 -0.3194 -0.3297  0.3612
22365SOL    HW168536   1.681   7.539   2.606  1.7082  0.7252 -2.0403
22365SOL    HW268537   1.571   7.436   2.596 -0.4330  2.3620  2.2441
22366SOL     OW68538   0.098   3.771  11.153 -0.1842  0.0916 -0.3621
22366SOL    HW168539   0.093   3.803  11.063 -1.0817 -0.8984 -0.6877
22366SOL    HW268540   0.106   3.676  11.144  1.3642  0.0972  0.5852
22367SOL     OW68541   6.890   1.270   9.775 -0.4361  0.4832 -0.5670
22367SOL    HW168542   6.890   1.330   9.849 -0.2395  0.2699 -0.3931
22367SOL    HW268543   6.945   1.197   9.803 -0.5322  0.3034 -0.8423
22368SOL     OW68544   4.534   4.972   6.181  0.1320  0.3196 -0.5503
22368SOL    HW168545   4.526   4.881   6.152 -1.4656  0.8555 -1.9729
22368SOL    HW268546   4.625   4.981   6.207  0.9137 -1.0990 -2.5245
22369SOL     OW68547   5.253   1.406   2.315  0.2973  0.0420  0.3108
22369SOL    HW168548   5.160   1.388   2.303  0.3425 -0.1383  0.2288
22369SOL    HW268549   5.259   1.445   2.402  0.1662 -0.1096  0.3882
22370SOL     OW68550   1.832   7.419   7.971  0.0725  0.6200 -0.3637
22370SOL    HW168551   1.808   7.342   8.023  3.7370  0.6098  1.5992
22370SOL    HW268552   1.821   7.493   8.030  1.6464  0.9424 -0.4400
22371SOL     OW68553   0.002   1.695   4.200 -0.4077  0.1776  0.2022
22371SOL    HW168554   0.052   1.614   4.209  0.3157  0.6931  0.8594
22371SOL    HW268555  -0.042   1.686   4.115  0.2745 -0.5588 -0.0846
22372SOL     OW68556   7.424   7.495   3.864  1.0523 -0.4716  0.1476
22372SOL    HW168557   7.355   7.480   3.799  2.5552 -1.3320 -1.3299
22372SOL    HW268558   7.448   7.408   3.894  0.5770 -0.0980  1.7150
22373SOL     OW68559   7.016   0.039   9.807  0.3251 -0.0757 -0.0793
22373SOL    HW168560   6.969   0.080   9.880  1.4556  4.1813 -1.4283
22373SOL    HW268561   6.951  -0.017   9.766 -2.1804  1.8869  0.8845
22374SOL     OW68562   6.308   3.247   6.212 -0.0964  0.4805 -0.0159
22374SOL    HW168563   6.265   3.317   6.162 -2.0340 -1.7086 -1.6017
22374SOL    HW268564   6.391   3.232   6.167 -0.3559  0.7313 -0.5796
22375SOL     OW68565   6.254   1.721  10.592  0.1901  0.4413 -0.6220
22375SOL    HW168566   6.183   1.714  10.656  1.4527  1.7004  0.9714
22375SOL    HW268567   6.273   1.630  10.567 -2.4032  0.0698 -1.6594
22376SOL     OW68568   0.326   7.570   8.657  0.2723  0.0492  0.2155
22376SOL    HW168569   0.273   7.491   8.664  0.3104 -0.1509 -1.4024
22376SOL    HW268570   0.369   7.563   8.572  1.6571  0.9799  0.8025
22377SOL     OW68571   0.229   7.810   6.683  0.1794  0.2623 -0.3624
22377SOL    HW168572   0.269   7.897   6.678  0.4608  0.1633  0.1116
22377SOL    HW268573   0.259   7.774   6.766 -1.4042  0.4322  0.3216
22378SOL     OW68574   0.395   1.696   1.201 -0.2158 -0.2385  0.0782
22378SOL    HW168575   0.334   1.651   1.143 -0.1946 -0.5682  0.3075
22378SOL    HW268576   0.411   1.633   1.271  0.2210 -0.0686  0.1285
22379SOL     OW68577   0.313   4.009   6.488  0.4597  0.8515  0.3218
22379SOL    HW168578   0.234   4.029   6.538 -0.2756 -2.5908  0.7817
22379SOL    HW268579   0.287   3.942   6.425  2.3628  1.9192 -1.7763
22380SOL     OW68580   6.160   6.600   0.609  0.5069 -0.7599  0.3101
22380SOL    HW168581   6.215   6.677   0.625  0.1242 -0.4548  0.1901
22380SOL    HW268582   6.105   6.594   0.687 -0.3342 -0.1565 -0.2158
22381SOL     OW68583   3.696   5.841   4.685 -0.1010 -0.1332 -0.2887
22381SOL    HW168584   3.790   5.845   4.666  0.0249 -1.6422 -0.1340
22381SOL    HW268585   3.684   5.756   4.728 -1.4893  0.1904  0.0206
22382SOL     OW68586   2.600   3.303  11.199  0.3132 -0.2984  0.3400
22382SOL    HW168587   2.584   3.395  11.179 -2.3571 -0.4481  1.4550
22382SOL    HW268588   2.642   3.304  11.285 -2.2540 -0.1114  1.6882
22383SOL     OW68589   3.885   0.253   9.518  0.4810  0.3457  0.4678
22383SOL    HW168590   3.835   0.175   9.545 -0.0680  0.7376  0.6034
22383SOL    HW268591   3.965   0.249   9.570  0.2408  0.1265  0.8279
22384SOL     OW68592   1.558   5.315   8.412  0.3724 -0.6964 -0.0752
22384SOL    HW168593   1.561   5.392   8.356 -0.1423  0.1112  0.9782
22384SOL    HW268594   1.617   5.252   8.370 -0.6222 -0.4370 -1.9619
22385SOL     OW68595   2.170   0.668   3.134 -0.3110  0.7453 -0.6282
22385SOL    HW168596   2.164   0.613   3.056 -0.2111  0.7823 -0.6615
22385SOL    HW268597   2.263   0.674   3.152 -0.3305 -3.2014  2.2586
22386SOL     OW68598   4.980   0.198   6.624  0.1297  0.0062  0.6819
22386SOL    HW168599   4.941   0.149   6.696  0.4583 -1.8890 -0.3493
22386SOL    HW268600   4.908   0.211   6.562 -0.1087  1.4657  1.2180
22387SOL     OW68601   6.569   7.175  11.283  0.8843 -0.7864 -1.0054
22387SOL    HW168602   6.559   7.270  11.274  1.6494 -0.5610  0.2334
22387SOL    HW268603   6.479   7.141  11.276  0.6823 -0.0720 -2.2186
22388SOL     OW68604   3.276   6.721  10.535 -0.1513  0.0970  0.9997
22388SOL    HW168605   3.202   6.686  10.585 -0.7669  1.9289  1.4494
22388SOL    HW268606   3.241   6.734  10.446  0.0280 -0.2624  0.8751
22389SOL     OW68607   3.728   1.012   2.998 -0.4478  0.1419 -0.0260
22389SOL    HW168608   3.687   0.996   3.083  0.2516 -0.7900  0.1625
22389SOL    HW268609   3.742   0.924   2.961 -1.4035  0.5516 -1.4383
22390SOL     OW68610   1.752   2.295   1.629  0.0963  0.0345  0.5807
22390SOL    HW168611   1.821   2.229   1.632  0.7600  0.7455  1.1747
22390SOL    HW268612   1.796   2.376   1.605 -0.4470  0.5974  1.4255
22391SOL     OW68613   4.785   6.350  11.535 -0.1870  0.1184 -0.2215
22391SOL    HW168614   4.818   6.261  11.532  1.6665  0.7422 -0.1229
22391SOL    HW268615   4.844   6.395  11.597 -1.4564  1.2591  0.2138
22392SOL     OW68616   0.830   6.699   9.414 -0.1916  0.1340 -0.1598
22392SOL    HW168617   0.910   6.713   9.363 -0.0736 -0.3002 -0.1045
22392SOL    HW268618   0.843   6.612   9.453 -0.2183  0.5190  0.7221
22393SOL     OW68619   4.055   7.846   2.634  0.3927 -0.8878 -0.3324
22393SOL    HW168620   4.093   7.933   2.641  0.8847 -1.0313 -1.1537
22393SOL    HW268621   3.979   7.848   2.692  0.4278  0.0701 -0.3140
22394SOL     OW68622   1.532   3.947   2.611 -0.2449  0.4955  0.0422
22394SOL    HW168623   1.478   3.886   2.661  0.8032 -0.0650  0.5166
22394SOL    HW268624   1.480   3.967   2.533 -0.3839 -1.4434 -0.4000
22395SOL     OW68625   3.268   5.841   6.950  0.0251  0.0491 -0.7813
22395SOL    HW168626   3.221   5.798   7.022 -0.5505  0.2818 -1.0085
22395SOL    HW268627   3.212   5.915   6.926  0.5065  0.3277 -1.0727
22396SOL     OW68628   6.100   6.034   0.079  0.1133 -0.7144 -0.1557
22396SOL    HW168629   6.084   6.120   0.040 -2.3273 -1.5312 -1.1701
22396SOL    HW268630   6.149   5.986   0.012 -0.2433 -0.7312 -0.4070
22397SOL     OW68631   4.285   2.104   4.382 -0.0661  0.3697  0.2598
22397SOL    HW168632   4.231   2.183   4.375 -1.4533 -0.4172  1.4597
22397SOL    HW268633   4.247   2.043   4.318 -0.0151  0.1357  0.4500
22398SOL     OW68634   5.590   7.315   0.471  0.3006  0.2332  0.3018
22398SOL    HW168635   5.504   7.316   0.513 -0.1151 -0.2472 -0.5259
22398SOL    HW268636   5.623   7.227   0.486  0.3033  0.1709 -0.0651
22399SOL     OW68637   1.585   6.003   0.014 -0.2184 -0.3771  0.2571
22399SOL    HW168638   1.510   6.061   0.024 -0.4247 -0.2562 -1.6857
22399SOL    HW268639   1.596   5.993  -0.080  1.2810 -1.6093  0.5151
22400SOL     OW68640   5.665   0.185   7.124  0.7340 -0.2390  0.4595
22400SOL    HW168641   5.659   0.127   7.048  0.1400 -0.1137  0.4042
22400SOL    HW268642   5.759   0.193   7.142  0.8187 -1.3901  0.5971
22401SOL     OW68643   0.621   7.011   5.219  0.0765 -0.4353 -0.6595
22401SOL    HW168644   0.698   7.045   5.265 -0.4204 -0.3347  0.1260
22401SOL    HW268645   0.603   7.075   5.150  0.8821 -0.6277 -1.0530
22402SOL     OW68646   7.641   1.246  10.606 -0.5176 -0.5165  0.1499
22402SOL    HW168647   7.620   1.254  10.699 -2.7577 -2.0680 -0.1608
22402SOL    HW268648   7.560   1.269  10.560 -0.2575 -2.2680 -1.3098
22403SOL     OW68649   6.372   5.761   7.535 -0.0310 -0.7090 -0.1021
22403SOL    HW168650   6.285   5.782   7.503  0.2119  1.2759  0.3964
22403SOL    HW268651   6.357   5.707   7.612 -0.8207 -0.5058 -0.1073
22404SOL     OW68652   7.508   1.205  11.479  0.1935  0.3026 -0.4638
22404SOL    HW168653   7.554   1.229  11.398  0.8894 -0.4590 -0.2977
22404SOL    HW268654   7.567   1.230  11.549 -0.4742  1.0991 -0.1653
22405SOL     OW68655   6.105   1.163   3.232 -0.2666 -0.5647  0.1754
22405SOL    HW168656   6.133   1.250   3.261 -0.6765 -0.1638 -0.5618
22405SOL    HW268657   6.178   1.105   3.251  0.1858  0.0347  0.2728
22406SOL     OW68658   6.777   5.090  11.257  0.0726 -0.2935 -0.3228
22406SOL    HW168659   6.723   5.014  11.279  0.1349 -1.0212 -2.4362
22406SOL    HW268660   6.758   5.106  11.164  2.8105 -0.0082 -0.8973
22407SOL     OW68661   1.575   4.130  12.126 -0.0668 -0.3259  0.4902
22407SOL    HW168662   1.538   4.055  12.172 -0.9821 -0.2608 -0.1035
22407SOL    HW268663   1.663   4.140  12.162  0.1359 -1.7933  0.4537
22408SOL     OW68664   2.676   6.676  10.245  0.5320 -0.1570  0.7846
22408SOL    HW168665   2.669   6.771  10.257  1.8887  0.3013 -1.4550
22408SOL    HW268666   2.585   6.646  10.235  0.1708  1.1100  0.1547
22409SOL     OW68667   6.942   0.638   1.628  0.5789 -0.3246 -0.1806
22409SOL    HW168668   6.854   0.660   1.660 -0.6100 -4.3548 -0.1092
22409SOL    HW268669   6.945   0.675   1.539 -1.3445 -0.3415 -0.3015
22410SOL     OW68670   2.112   3.459  10.529  0.7891  0.2119  0.2039
22410SOL    HW168671   2.169   3.515  10.582  1.1383  0.2175 -0.1780
22410SOL    HW268672   2.133   3.481  10.439  0.7238 -0.3245  0.0510
22411SOL     OW68673   1.295   3.672   5.166 -0.1775 -0.4563 -0.4110
22411SOL    HW168674   1.311   3.682   5.073 -0.4671  1.0577 -0.3191
22411SOL    HW268675   1.358   3.730   5.209  0.1018 -1.2987  0.3512
22412SOL     OW68676   5.045   6.790   7.482 -0.3458  0.1836  0.1845
22412SOL    HW168677   4.974   6.780   7.545 -1.5145  2.0391 -0.7467
22412SOL    HW268678   5.001   6.817   7.401  1.3997  1.2733 -0.4569
22413SOL     OW68679   7.332   6.480  10.678  0.1532 -0.2988 -0.0418
22413SOL    HW168680   7.425   6.499  10.688  0.0126  0.0553  0.6083
22413SOL    HW268681   7.330   6.396  10.631  0.8349 -1.6305  2.1729
22414SOL     OW68682   4.852   1.402   2.935  0.3215  0.0472  0.0195
22414SOL    HW168683   4.914   1.331   2.950  1.2465  1.0640  1.2000
22414SOL    HW268684   4.876   1.437   2.849  1.0432  0.1000  0.2390
22415SOL     OW68685   2.067   4.779   9.904 -0.2782 -0.0399 -0.1651
22415SOL    HW168686   2.026   4.755   9.987  0.6565 -1.2941 -0.0367
22415SOL    HW268687   2.155   4.806   9.927  0.0331 -0.5263 -0.7582
22416SOL     OW68688   2.369   7.136   2.765 -0.9194 -0.2748  0.4395
22416SOL    HW168689   2.390   7.226   2.789 -1.1093 -0.6140  2.0186
22416SOL    HW268690   2.376   7.133   2.670  1.2193  0.8673  0.5191
22417SOL     OW68691   4.728   6.286   8.420  0.1052  0.2738 -0.7220
22417SOL    HW168692   4.750   6.266   8.329 -1.2186 -1.4974 -0.6984
22417SOL    HW268693   4.779   6.223   8.472 -1.3385 -0.7040 -0.4316
22418SOL     OW68694   4.002   7.285  10.946  0.2801 -0.3745  0.1033
22418SOL    HW168695   3.957   7.208  10.982 -1.0834  0.3799  0.0489
22418SOL    HW268696   3.958   7.302  10.863  0.9735  0.1087 -0.1707
22419SOL     OW68697   4.662   0.839   5.155 -0.2932  0.6908 -0.4123
22419SOL    HW168698   4.695   0.820   5.243 -0.4400 -0.7020 -0.6334
22419SOL    HW268699   4.611   0.919   5.165 -1.3199 -0.0886  1.0442
22420SOL     OW68700   7.231   5.585   6.883 -0.3696 -0.0148  0.4382
22420SOL    HW168701   7.237   5.495   6.850 -2.2883 -1.0294  2.6155
22420SOL    HW268702   7.269   5.582   6.970 -1.5648  0.9542  1.0334
22421SOL     OW68703   5.067   1.247   4.538  0.8046 -0.1824 -0.9249
22421SOL    HW168704   5.045   1.324   4.590  0.9329 -0.3943 -0.5515
22421SOL    HW268705   5.037   1.268   4.450  1.0442  0.3856 -0.8743
22422SOL     OW68706   2.143   3.530   1.625  0.5300 -1.0365 -0.0087
22422SOL    HW168707   2.224   3.479   1.621  0.7328 -0.6387 -1.9576
22422SOL    HW268708   2.114   3.537   1.534 -1.2483 -0.4366  0.5593
22423SOL     OW68709   0.301   7.318   2.727  0.6342 -0.2723 -0.4616
22423SOL    HW168710   0.253   7.401   2.724  0.7685 -0.1786 -0.0174
22423SOL    HW268711   0.311   7.293   2.635 -3.2942 -2.0178 -0.6417
22424SOL     OW68712   6.482   4.308   9.064 -0.1785  0.0971 -0.2017
22424SOL    HW168713   6.530   4.232   9.098  0.8047  0.7367 -0.1288
22424SOL    HW268714   6.439   4.276   8.985  1.1024 -0.2751 -0.7659
22425SOL     OW68715   7.672   2.136   3.394 -0.5386 -0.0962 -0.0306
22425SOL    HW168716   7.613   2.132   3.319 -0.8663  0.3396  0.2004
22425SOL    HW268717   7.645   2.063   3.450 -1.1702  0.3815  0.2972
22426SOL     OW68718   1.811   1.147   7.953  0.7760 -0.3675  0.1869
22426SOL    HW168719   1.726   1.132   7.913  0.3871  2.0180 -0.0563
22426SOL    HW268720   1.808   1.239   7.980  2.7725 -0.6139  1.4278
22427SOL     OW68721   1.018   7.726   5.306 -0.8560  0.4125 -0.5489
22427SOL    HW168722   1.027   7.644   5.257  0.3319  0.5508 -0.5932
22427SOL    HW268723   1.037   7.795   5.242 -0.4776  0.6494 -0.1881
22428SOL     OW68724   5.238   1.783   6.321 -0.0069 -0.0124  0.5215
22428SOL    HW168725   5.313   1.751   6.372  1.2529  0.5853 -0.8623
22428SOL    HW268726   5.275   1.801   6.234 -1.6392  0.8803 -0.0243
22429SOL     OW68727   5.110   3.544  10.355 -0.0217  0.0545 -0.1984
22429SOL    HW168728   5.094   3.552  10.261 -1.2011 -0.6038 -0.0771
22429SOL    HW268729   5.160   3.622  10.377  0.9840 -0.1745 -1.5145
22430SOL     OW68730   6.929   3.061   2.260  0.2108  0.3101  0.0968
22430SOL    HW168731   6.845   3.031   2.227  0.0177  1.2909 -0.3506
22430SOL    HW268732   6.907   3.131   2.322  0.6738  0.1984  0.3936
22431SOL     OW68733   6.480   1.433   4.798 -0.3467 -0.7737  0.3597
22431SOL    HW168734   6.524   1.501   4.746  0.9009 -1.8453 -0.0416
22431SOL    HW268735   6.492   1.353   4.747 -0.3030 -1.6054  1.6523
22432SOL     OW68736   7.123   7.854   0.633 -0.2278 -0.4759  0.0015
22432SOL    HW168737   7.064   7.825   0.702 -1.0198  0.7752 -0.1100
22432SOL    HW268738   7.107   7.794   0.560 -1.2879 -0.2228  0.0159
22433SOL     OW68739   0.001   0.168   8.251 -0.3032 -0.3069  0.1252
22433SOL    HW168740   0.015   0.087   8.301 -1.7989 -0.1271  0.8899
22433SOL    HW268741  -0.092   0.187   8.263 -0.3993  0.4680 -1.6656
22434SOL     OW68742   7.610   2.136   2.354  0.2365 -0.4044  0.3809
22434SOL    HW168743   7.527   2.090   2.344  1.5916 -2.8585 -0.5829
22434SOL    HW268744   7.604   2.211   2.296 -1.1901 -0.6938  0.1220
22435SOL     OW68745   3.381   1.223   7.383  0.2759 -1.0996  0.5266
22435SOL    HW168746   3.372   1.137   7.424 -0.0939 -0.8398  0.9941
22435SOL    HW268747   3.296   1.265   7.395  0.3555 -0.7840  0.0263
22436SOL     OW68748   6.086   0.691   9.974  0.6846  0.1358 -0.8198
22436SOL    HW168749   6.159   0.744   9.943 -1.2095  2.3912 -1.7380
22436SOL    HW268750   6.032   0.678   9.896 -1.4796  1.3162  0.3823
22437SOL     OW68751   7.079   3.572   3.759  0.2912 -0.1404  0.9247
22437SOL    HW168752   7.138   3.647   3.762  0.6167 -0.4172  1.4463
22437SOL    HW268753   6.993   3.611   3.743  0.4808  0.3304  1.0302
22438SOL     OW68754   1.737   2.049   2.406 -0.4667 -0.5095 -0.5896
22438SOL    HW168755   1.795   2.074   2.478 -1.3124 -1.3682  0.4272
22438SOL    HW268756   1.756   2.112   2.337  1.3710 -0.5087 -0.1426
22439SOL     OW68757   3.652   5.910   6.241  0.4460  0.8564  0.5705
22439SOL    HW168758   3.596   5.834   6.220  2.8709 -0.7674 -0.4620
22439SOL    HW268759   3.660   5.957   6.158  2.2825 -0.1632  0.1153
22440SOL     OW68760   1.636   6.835   5.944 -0.6423  0.4952 -0.4247
22440SOL    HW168761   1.691   6.879   6.009 -1.3775 -0.7673  1.1250
22440SOL    HW268762   1.557   6.888   5.940 -1.8476 -0.9455  2.0068
22441SOL     OW68763   0.544   4.456   4.118 -0.6871 -0.2967 -0.1364
22441SOL    HW168764   0.545   4.551   4.115  1.7723 -0.2579 -0.2328
22441SOL    HW268765   0.545   4.434   4.211  0.8716 -0.1469 -0.0888
22442SOL     OW68766   5.772   2.488   3.465 -0.1152  0.2730 -0.3052
22442SOL    HW168767   5.866   2.482   3.484 -0.1341 -1.5154 -0.6792
22442SOL    HW268768   5.756   2.583   3.457  2.1446  0.5771 -2.5812
22443SOL     OW68769   5.618   4.440   4.328 -0.1674 -0.1026 -0.2255
22443SOL    HW168770   5.672   4.507   4.286 -0.3324 -0.0941 -0.4262
22443SOL    HW268771   5.578   4.486   4.403  0.3174 -0.1852  0.0895
22444SOL     OW68772   2.880   6.480   0.284 -0.4728 -0.4900  0.4980
22444SOL    HW168773   2.865   6.539   0.359 -0.2533  0.8324 -0.4617
22444SOL    HW268774   2.812   6.503   0.221  0.8768  0.2529 -0.7631
22445SOL     OW68775   3.370   1.686   8.233  0.2763 -0.7335 -0.9204
22445SOL    HW168776   3.347   1.634   8.309 -1.2939 -0.0000 -0.8660
22445SOL    HW268777   3.305   1.756   8.230 -0.1128 -1.1155 -3.3074
22446SOL     OW68778   6.085   7.484   4.182  0.8612  0.1886  0.3145
22446SOL    HW168779   6.078   7.569   4.138 -0.6322  0.1344  0.4002
22446SOL    HW268780   6.178   7.475   4.201  1.4887  0.5484 -2.1781
22447SOL     OW68781   2.355   7.265  10.411 -0.9679 -0.3281 -0.0140
22447SOL    HW168782   2.445   7.284  10.385 -1.0500  2.0991  1.1435
22447SOL    HW268783   2.302   7.325  10.359 -1.7970 -0.8485  0.2117
22448SOL     OW68784   0.766   2.005   8.149  1.1291 -0.1360  0.1349
22448SOL    HW168785   0.692   2.039   8.098  1.0050 -0.8104 -0.1421
22448SOL    HW268786   0.832   2.074   8.142  2.1039 -1.1927 -3.1283
22449SOL     OW68787   5.160   4.929   9.680 -0.3255  0.0465 -0.7037
22449SOL    HW168788   5.157   4.904   9.772  1.1474  0.4634 -0.5103
22449SOL    HW268789   5.254   4.936   9.660 -0.6181  0.2731 -2.1504
22450SOL     OW68790   2.804   1.201   3.316  0.2287  0.4729  0.7116
22450SOL    HW168791   2.760   1.286   3.324  0.3994  0.4842  1.6581
22450SOL    HW268792   2.742   1.138   3.351  0.5314  0.3463  1.0257
22451SOL     OW68793   7.491   4.456  10.878  0.1415 -0.2283 -0.7538
22451SOL    HW168794   7.543   4.525  10.836 -0.3009  0.5041 -0.1214
22451SOL    HW268795   7.411   4.451  10.827  0.5344 -0.8943 -1.3246
22452SOL     OW68796   1.785   7.245  11.347 -1.1105  0.1026  0.4481
22452SOL    HW168797   1.758   7.326  11.304 -3.4211 -1.6869 -1.8391
22452SOL    HW268798   1.764   7.176  11.283  3.9211 -2.1568  0.7455
22453SOL     OW68799   6.364   6.936   3.139 -0.7256  0.7297  0.0923
22453SOL    HW168800   6.414   6.931   3.220 -0.7318 -0.5866  0.0343
22453SOL    HW268801   6.430   6.931   3.070 -0.7236  1.7986 -0.0022
22454SOL     OW68802   3.722   6.576   1.699  0.8365 -0.1857 -0.2252
22454SOL    HW168803   3.760   6.583   1.787  0.1405 -0.2692  0.0856
22454SOL    HW268804   3.739   6.661   1.659  0.9293 -0.0572  0.0845
22455SOL     OW68805   4.653   7.420  11.120  0.3200 -0.3178  0.4347
22455SOL    HW168806   4.646   7.409  11.215 -0.4259  2.3970  0.7671
22455SOL    HW268807   4.587   7.486  11.099  1.4611  0.1933 -1.7592
22456SOL     OW68808   1.647   6.962   0.008 -0.7999 -0.4520  0.0716
22456SOL    HW168809   1.559   6.928   0.022 -0.2434 -1.7293  0.7177
22456SOL    HW268810   1.639   7.023  -0.065 -2.5790  1.0847  1.4757
22457SOL     OW68811   0.181   4.470   9.791  0.2761  0.2792 -0.5883
22457SOL    HW168812   0.210   4.397   9.737  1.7646  0.6030 -0.2715
22457SOL    HW268813   0.089   4.451   9.810  0.5920 -1.4443 -0.6185
22458SOL     OW68814   4.088   7.622   2.087 -0.0079  0.1077  0.3776
22458SOL    HW168815   4.153   7.666   2.032  1.3750 -1.4686  0.6706
22458SOL    HW268816   4.120   7.635   2.176 -1.4367  1.3671  0.7636
22459SOL     OW68817   5.686   6.764   1.888 -0.1980  0.5412  0.2372
22459SOL    HW168818   5.771   6.719   1.883  0.6549  2.1661 -0.5726
22459SOL    HW268819   5.691   6.814   1.969 -1.0627 -0.5961  1.0250
22460SOL     OW68820   1.991   6.642   4.927  0.1512 -0.1545 -0.3299
22460SOL    HW168821   1.993   6.616   5.019  0.3634  0.2123 -0.2301
22460SOL    HW268822   1.899   6.631   4.901  0.0760 -0.1859 -0.0519
22461SOL     OW68823   4.786   2.629   6.441 -0.0362 -0.0213  0.3882
22461SOL    HW168824   4.794   2.544   6.485 -1.5621  1.0369  2.9652
22461SOL    HW268825   4.782   2.692   6.513 -0.3951  2.1075 -1.4122
22462SOL     OW68826   2.822   1.415   7.123  0.3245  0.2296  0.1822
22462SOL    HW168827   2.891   1.403   7.188 -0.4963  1.2396  1.2847
22462SOL    HW268828   2.741   1.392   7.169 -0.1447 -0.4264 -0.9248
22463SOL     OW68829   5.183   0.955   5.061 -0.0302  0.4163 -0.2195
22463SOL    HW168830   5.145   0.871   5.087  1.3551  0.2406  1.4622
22463SOL    HW268831   5.146   1.018   5.122  1.6261  0.3806  0.8837
22464SOL     OW68832   4.738   3.497   5.384  0.3437 -0.2473 -0.5262
22464SOL    HW168833   4.663   3.500   5.325 -1.2788 -1.2429  1.3578
22464SOL    HW268834   4.789   3.422   5.354 -0.3559 -0.6258 -0.7952
22465SOL     OW68835   5.521   6.379   6.169 -0.2524  0.1468  0.4741
22465SOL    HW168836   5.586   6.410   6.106 -0.5870  0.2427  0.1725
22465SOL    HW268837   5.463   6.322   6.117 -1.1621  1.0682  0.4500
22466SOL     OW68838   3.268   1.343   8.144  0.0159 -0.3332  0.0212
22466SOL    HW168839   3.292   1.430   8.110 -1.4444 -0.4610 -1.4243
22466SOL    HW268840   3.193   1.360   8.201  1.3203 -0.3667  1.8563
22467SOL     OW68841   3.851   6.561  11.812 -0.2961 -0.1910  0.1447
22467SOL    HW168842   3.865   6.569  11.718 -2.2246 -0.3456 -0.1800
22467SOL    HW268843   3.876   6.470  11.832  0.7717  0.0423 -0.0689
22468SOL     OW68844   2.143   6.198   4.580 -0.2070  0.3651  0.2381
22468SOL    HW168845   2.116   6.145   4.505  1.8962 -1.6254  0.7707
22468SOL    HW268846   2.202   6.264   4.543  1.2286 -0.9288  0.1530
22469SOL     OW68847   7.657   1.451   5.396 -0.0088  0.7790  0.1035
22469SOL    HW168848   7.667   1.542   5.367  1.4633  1.0203  1.2309
22469SOL    HW268849   7.747   1.423   5.415 -0.4722 -0.8469 -0.0202
22470SOL     OW68850   4.611   2.147   6.089 -0.1413  0.8122  0.1110
22470SOL    HW168851   4.658   2.192   6.159  2.2172 -0.8398 -0.2849
22470SOL    HW268852   4.544   2.095   6.134  1.8324 -0.8374  1.3351
22471SOL     OW68853   7.595   1.450  11.932  0.1317  0.1221  0.2146
22471SOL    HW168854   7.512   1.403  11.939  0.9702 -1.2012  1.7187
22471SOL    HW268855   7.570   1.542  11.926 -1.4532 -0.2853  0.2289
22472SOL     OW68856   2.899   3.523   8.530 -0.1303  0.2717 -0.4224
22472SOL    HW168857   2.895   3.494   8.439  0.6106 -2.0106  0.2062
22472SOL    HW268858   2.929   3.446   8.578 -0.4400  1.4407  1.7532
22473SOL     OW68859   0.101   6.270   0.736  0.2627 -0.1212 -0.5271
22473SOL    HW168860   0.154   6.301   0.663  3.7036  0.0700  1.7879
22473SOL    HW268861   0.103   6.343   0.799 -0.7127 -1.0560  0.6448
22474SOL     OW68862   2.883   4.218   4.845 -0.0590 -0.0214  0.0532
22474SOL    HW168863   2.965   4.237   4.891  0.1493 -0.8671  0.0462
22474SOL    HW268864   2.911   4.186   4.759 -0.4190  0.2205 -0.1603
22475SOL     OW68865   7.210   6.530   9.022 -0.8374  0.4487  0.6657
22475SOL    HW168866   7.252   6.523   9.108 -1.5688  1.7360  1.1507
22475SOL    HW268867   7.207   6.624   9.004  0.1350  0.1700 -1.2121
22476SOL     OW68868   5.126   0.132   1.169 -0.2336 -0.0355  0.2789
22476SOL    HW168869   5.206   0.094   1.131  0.1391 -0.0853  1.1023
22476SOL    HW268870   5.134   0.116   1.263 -1.5241 -0.6332  0.3151
22477SOL     OW68871   0.720   7.697   6.872 -0.2780 -0.3266 -0.1577
22477SOL    HW168872   0.803   7.658   6.843 -0.2029 -0.6708  0.4970
22477SOL    HW268873   0.745   7.762   6.937 -0.6220 -2.5045  2.3460
22478SOL     OW68874   6.257   5.929   9.893  0.0732  0.2965  0.0089
22478SOL    HW168875   6.333   5.975   9.928  1.5410 -1.3623 -0.8324
22478SOL    HW268876   6.272   5.837   9.915 -0.0971 -0.4947 -2.7724
22479SOL     OW68877   3.199   7.811   6.371 -0.4918  0.0748  0.2797
22479SOL    HW168878   3.229   7.875   6.435  1.9182 -0.9353  0.2549
22479SOL    HW268879   3.203   7.727   6.416  0.8886 -0.6086 -1.0073
22480SOL     OW68880   7.860   5.197  10.392  0.0861  0.9576 -0.1749
22480SOL    HW168881   7.947   5.224  10.421 -0.3228  0.9754  1.1156
22480SOL    HW268882   7.874   5.155  10.307  1.5896 -0.5572  0.7745
22481SOL     OW68883   5.483   1.142   7.118  0.2779  0.2453 -0.2625
22481SOL    HW168884   5.440   1.077   7.063  0.2907  0.5519 -0.6439
22481SOL    HW268885   5.510   1.211   7.056  2.3516 -0.4589 -0.2272
22482SOL     OW68886   4.123   5.228   8.689 -0.2586  0.2695 -0.1240
22482SOL    HW168887   4.040   5.220   8.736  1.0771 -1.7050  2.0722
22482SOL    HW268888   4.102   5.205   8.599 -1.9883 -0.7866  0.5134
22483SOL     OW68889   6.792   5.335   7.020  0.0537 -0.0636 -0.5536
22483SOL    HW168890   6.740   5.320   6.941  0.2645 -0.4678 -0.6145
22483SOL    HW268891   6.729   5.370   7.084 -0.3038 -0.5986 -0.6091
22484SOL     OW68892   4.986   5.208   4.830  0.0049  0.2347 -0.1042
22484SOL    HW168893   4.910   5.197   4.774  0.8629  1.7579 -1.6906
22484SOL    HW268894   4.975   5.295   4.869  1.4660  1.0195 -1.3312
22485SOL     OW68895   1.144   4.655   6.291 -0.7907  0.2291  0.2793
22485SOL    HW168896   1.213   4.703   6.336  1.1759 -1.0006 -1.2887
22485SOL    HW268897   1.096   4.722   6.242  0.3112  0.9201  0.1050
22486SOL     OW68898   2.702   0.344   5.397 -0.5873 -0.5361 -0.0898
22486SOL    HW168899   2.698   0.423   5.451 -1.8646 -0.3285 -0.4522
22486SOL    HW268900   2.707   0.272   5.460 -1.5235 -0.2689  0.3010
22487SOL     OW68901   2.009   2.838   5.376 -0.7822  0.4799  0.3114
22487SOL    HW168902   2.005   2.859   5.283 -0.4678 -0.4426  0.0768
22487SOL    HW268903   2.084   2.888   5.409 -0.2168 -0.0312 -0.1715
22488SOL     OW68904   6.905   6.901   0.306 -0.0181  0.4620  0.1506
22488SOL    HW168905   6.936   6.923   0.218 -0.0292 -0.8225 -0.1931
22488SOL    HW268906   6.975   6.847   0.343  0.9088  2.5449  1.7137
22489SOL     OW68907   3.566   0.174   6.038  0.2177  0.4081  0.0951
22489SOL    HW168908   3.535   0.256   5.998  2.6123  1.9215  1.1539
22489SOL    HW268909   3.612   0.129   5.967 -0.3880  0.3518 -0.2722
22490SOL     OW68910   6.495   3.551   5.009 -0.4337  0.2526  0.6403
22490SOL    HW168911   6.472   3.580   4.921 -0.9353  0.6345  0.8900
22490SOL    HW268912   6.501   3.632   5.060  0.1834  0.0617  0.8875
22491SOL     OW68913   6.476   6.071   0.080  0.0507 -0.1418 -0.1944
22491SOL    HW168914   6.471   6.104  -0.010  1.7457 -0.9573 -0.6268
22491SOL    HW268915   6.559   6.106   0.114 -0.9253  0.7827  1.3413
22492SOL     OW68916   2.496   4.436   5.004  0.2800  0.1186 -0.2780
22492SOL    HW168917   2.534   4.393   4.928 -0.8539  0.0591 -0.8391
22492SOL    HW268918   2.571   4.472   5.052  1.2601 -2.2749  0.1138
22493SOL     OW68919   2.429   6.469   9.302  0.1363  0.7168  0.0646
22493SOL    HW168920   2.453   6.561   9.291  0.3721  0.7311  0.6473
22493SOL    HW268921   2.403   6.462   9.394 -2.1941  0.7128 -0.5213
22494SOL     OW68922   3.137   4.119   7.709  0.5164 -0.3387 -0.2485
22494SOL    HW168923   3.123   4.024   7.710 -1.1633 -0.1409  2.0670
22494SOL    HW268924   3.124   4.144   7.618  0.1955 -2.2043 -0.7668
22495SOL     OW68925   3.424   3.945   1.029  0.5795  0.1045 -0.3742
22495SOL    HW168926   3.411   3.874   0.966 -1.5141 -1.2401  1.4372
22495SOL    HW268927   3.510   3.928   1.067  0.2258 -1.3182 -0.1701
22496SOL     OW68928   2.214   3.478   9.279 -0.0076  0.0372 -0.0851
22496SOL    HW168929   2.252   3.516   9.200  0.2489  0.7763  0.3818
22496SOL    HW268930   2.236   3.385   9.275 -0.9461 -0.1587 -1.4261
22497SOL     OW68931   2.702   6.974  11.265  0.9546 -0.1556  0.0297
22497SOL    HW168932   2.690   7.065  11.238  0.5989 -0.5366 -1.1580
22497SOL    HW268933   2.672   6.923  11.189  1.8951 -1.2472  0.3773
22498SOL     OW68934   7.818   7.849   8.781  0.0943 -0.4188 -0.3085
22498SOL    HW168935   7.899   7.832   8.733  1.8316  0.0125  2.3102
22498SOL    HW268936   7.792   7.763   8.815  0.0869 -0.3710 -0.1951
22499SOL     OW68937   5.359   1.267   4.662  0.3220  0.1189  0.2227
22499SOL    HW168938   5.271   1.303   4.675 -0.0539 -0.6875 -0.0433
22499SOL    HW268939   5.373   1.272   4.568 -0.4845 -2.0940 -0.0679
22500SOL     OW68940   0.136   3.535  11.056 -0.3511  0.4659 -0.0282
22500SOL    HW168941   0.132   3.440  11.066 -0.0707  0.5532  0.9580
22500SOL    HW268942   0.168   3.548  10.967  0.4300 -0.3727  0.1156
22501SOL     OW68943   2.144   4.137   3.667 -0.5372 -0.1651 -0.4523
22501SOL    HW168944   2.191   4.081   3.606 -0.0952  0.0392 -0.3080
22501SOL    HW268945   2.055   4.103   3.668 -1.0005  0.8202 -2.4569
22502SOL     OW68946   6.855   4.524   2.217  0.3704 -0.0012  0.3402
22502SOL    HW168947   6.789   4.534   2.148  0.2175  1.8246  0.7117
22502SOL    HW268948   6.934   4.499   2.170  0.4551  1.8928 -0.6369
22503SOL     OW68949   5.716   6.663   3.247 -0.1870 -0.2497  0.0237
22503SOL    HW168950   5.724   6.690   3.338  2.0921  0.5962 -0.3699
22503SOL    HW268951   5.715   6.567   3.249  1.0526 -0.2646  0.8918
22504SOL     OW68952   1.068   2.384   5.064  0.0417  0.0779 -0.1667
22504SOL    HW168953   1.034   2.418   4.981 -0.8634  2.2011  0.9905
22504SOL    HW268954   0.992   2.346   5.108  0.3602 -0.3671  0.0137
22505SOL     OW68955   0.482   7.334   8.176 -0.1575 -0.0296  0.3206
22505SOL    HW168956   0.528   7.332   8.093  2.2567 -4.5285  1.4452
22505SOL    HW268957   0.399   7.288   8.159  0.4979 -1.2774  0.4083
22506SOL     OW68958   3.838   6.972   5.176  0.2111  0.0546 -0.3598
22506SOL    HW168959   3.895   6.981   5.100 -1.6224  0.3679 -1.7707
22506SOL    HW268960   3.756   6.939   5.141 -0.5116 -0.3764  1.5921
22507SOL     OW68961   4.305   5.946   3.919 -0.2831  0.2642 -0.4779
22507SOL    HW168962   4.311   6.041   3.912  1.6264  0.2231 -0.0078
22507SOL    HW268963   4.352   5.913   3.842  2.6720 -0.2120  1.3583
22508SOL     OW68964   3.544   5.992   2.126  0.3365  0.5317  0.3094
22508SOL    HW168965   3.552   5.898   2.138 -0.9002  0.4223  0.4108
22508SOL    HW268966   3.608   6.030   2.186  0.8318 -0.2380  0.2739
22509SOL     OW68967   3.952   4.983   4.163  0.3419 -0.0342 -0.0011
22509SOL    HW168968   3.871   5.029   4.185  0.0838 -0.0015 -0.9378
22509SOL    HW268969   3.928   4.890   4.167  0.9917 -0.1612  2.3739
22510SOL     OW68970   4.837   3.398   3.178  0.3483  0.0507 -0.1278
22510SOL    HW168971   4.811   3.339   3.107  0.6087 -0.2451  0.0201
22510SOL    HW268972   4.793   3.481   3.158  2.2015  0.6940 -1.8522
22511SOL     OW68973   2.502   1.004  10.296  0.3168  0.3080  0.1100
22511SOL    HW168974   2.500   1.099  10.290 -0.3990  0.2391 -1.0255
22511SOL    HW268975   2.575   0.977  10.240 -0.2233  0.1389 -0.5237
22512SOL     OW68976   6.598   3.011   3.510 -0.0699  0.0979  0.0816
22512SOL    HW168977   6.691   2.989   3.510 -0.0774 -0.1114 -1.8966
22512SOL    HW268978   6.554   2.931   3.484 -0.5060  1.0172 -2.2295
22513SOL     OW68979   5.709   7.673   4.133  0.2200 -0.0964 -0.0189
22513SOL    HW168980   5.644   7.741   4.152  2.4187  2.0740  0.3112
22513SOL    HW268981   5.767   7.674   4.209  1.3408 -1.0723 -0.8194
22514SOL     OW68982   7.673   7.652   7.589 -0.0934  0.8249 -0.2386
22514SOL    HW168983   7.580   7.674   7.581 -0.4078 -0.6499 -1.0563
22514SOL    HW268984   7.702   7.639   7.498  0.9760  1.4476 -0.0060
22515SOL     OW68985   4.526   3.857   4.766 -0.4515  0.0767 -0.3250
22515SOL    HW168986   4.491   3.930   4.715  0.8082 -0.0008 -1.3812
22515SOL    HW268987   4.568   3.897   4.842  0.8382  0.5655 -1.2512
22516SOL     OW68988   4.545   5.645   3.844  0.0304 -0.0024  0.1477
22516SOL    HW168989   4.570   5.672   3.755 -1.1746 -0.0854 -0.2394
22516SOL    HW268990   4.523   5.726   3.888  0.9152  0.0669  0.4753
22517SOL     OW68991   7.567   4.021   7.959  0.1471 -0.5446 -0.2067
22517SOL    HW168992   7.484   4.069   7.952  0.0191 -0.6739  0.4132
22517SOL    HW268993   7.589   4.024   8.052  1.3097  0.2614 -0.4861
22518SOL     OW68994   5.847   2.405  10.847  0.0876  0.2505 -0.0457
22518SOL    HW168995   5.846   2.312  10.869 -1.5171 -0.0191 -1.1078
22518SOL    HW268996   5.755   2.430  10.846  0.5012  1.8971  0.3357
22519SOL     OW68997   7.016   5.369   3.947 -0.1033 -0.6508  0.4091
22519SOL    HW168998   7.074   5.294   3.955  0.0269 -0.6290 -0.2678
22519SOL    HW268999   6.980   5.362   3.858  0.3887  0.4202  0.1124
22520SOL     OW69000   1.791   1.365   7.733  0.1591  0.0587  0.2080
22520SOL    HW169001   1.733   1.429   7.773  0.5002 -0.4622  1.6085
22520SOL    HW269002   1.733   1.292   7.711 -0.0242  0.3252 -0.1984
22521SOL     OW69003   2.814   6.408   5.339 -0.1116 -0.2177  0.0427
22521SOL    HW169004   2.785   6.499   5.337 -1.0999 -0.4848  1.0284
22521SOL    HW269005   2.765   6.365   5.269  1.0576  0.1777 -1.0533
22522SOL     OW69006   7.123   1.644   9.457  0.1495  0.0424 -0.2733
22522SOL    HW169007   7.103   1.718   9.514 -0.1174 -1.9218  2.3582
22522SOL    HW269008   7.068   1.572   9.489  2.1861 -1.9968 -1.0160
22523SOL     OW69009   7.141   4.434   2.690  0.5750 -0.7025  0.4755
22523SOL    HW169010   7.079   4.385   2.635  1.0321  1.2631 -1.9778
22523SOL    HW269011   7.090   4.506   2.726  0.8427 -0.5607  0.5704
22524SOL     OW69012   5.757   4.437   3.965  0.2728  0.0097 -0.3686
22524SOL    HW169013   5.751   4.513   4.023  0.5550  0.4553 -0.9052
22524SOL    HW269014   5.810   4.374   4.012  2.1718  1.1144 -0.8981
22525SOL     OW69015   2.823   2.092   2.375 -0.3236  0.2273  0.0849
22525SOL    HW169016   2.861   2.040   2.304 -0.3181  1.8732 -1.1726
22525SOL    HW269017   2.897   2.113   2.432 -0.4800 -1.9120  1.1899
22526SOL     OW69018   3.269   4.824  10.667  0.4996 -0.0840  0.1447
22526SOL    HW169019   3.315   4.861  10.592 -2.1507 -0.2149 -1.7083
22526SOL    HW269020   3.236   4.900  10.715  0.3473  0.0141 -0.1103
22527SOL     OW69021   2.824   1.113   2.118  0.3058  0.5741 -0.1270
22527SOL    HW169022   2.865   1.027   2.124 -1.8605 -0.4385  3.2740
22527SOL    HW269023   2.778   1.112   2.034  0.4858 -1.5238 -0.2518
22528SOL     OW69024   0.524   0.227   3.559 -0.1123  0.1527  0.1247
22528SOL    HW169025   0.602   0.281   3.543 -0.4926  0.2779 -1.4961
22528SOL    HW269026   0.457   0.290   3.587  0.6126 -0.0922  2.6815
22529SOL     OW69027   4.884   5.267  12.384 -0.0508  0.1034  0.6091
22529SOL    HW169028   4.924   5.354  12.387  0.6091 -0.2217  2.1242
22529SOL    HW269029   4.806   5.278  12.330  1.8327  0.8538 -2.1382
22530SOL     OW69030   5.792   5.900   6.388  0.3783 -0.5689 -0.8522
22530SOL    HW169031   5.792   5.918   6.482  0.1310 -2.2604 -0.4895
22530SOL    HW269032   5.722   5.956   6.353  1.1912  0.8714 -0.2232
22531SOL     OW69033   7.321   7.034   6.027 -0.5035  0.3180 -0.6823
22531SOL    HW169034   7.290   7.122   6.048 -0.7461  0.0297  0.2155
22531SOL    HW269035   7.241   6.982   6.019 -0.3606  0.1791 -1.2319
22532SOL     OW69036   0.875   4.616   6.450 -0.1921  0.0678  0.4623
22532SOL    HW169037   0.936   4.560   6.498  0.0725  0.6602  0.8283
22532SOL    HW269038   0.922   4.699   6.441 -0.7818  0.3941  0.3771
22533SOL     OW69039   1.841   0.778   3.388  0.6930  0.8083  0.1399
22533SOL    HW169040   1.859   0.854   3.332  1.5458 -0.1987 -1.0145
22533SOL    HW269041   1.893   0.707   3.349 -0.5869 -0.5399  0.7845
22534SOL     OW69042   0.263   0.237   8.115 -0.2559 -0.6783 -0.1695
22534SOL    HW169043   0.279   0.173   8.184 -0.9278  0.2074  0.8376
22534SOL    HW269044   0.176   0.273   8.135 -0.4427 -0.3593 -1.4472
22535SOL     OW69045   2.136   2.933  11.273 -0.4478  0.1051 -0.0114
22535SOL    HW169046   2.208   2.988  11.243  0.3784 -1.8213 -1.7523
22535SOL    HW269047   2.168   2.894  11.355 -0.3607  0.8135  0.3044
22536SOL     OW69048   7.798   7.219   8.059 -0.6984 -0.4903  0.5575
22536SOL    HW169049   7.725   7.165   8.029  0.2025 -1.9965  1.0111
22536SOL    HW269050   7.863   7.212   7.989 -1.2356  1.5134 -0.2426
22537SOL     OW69051   6.343   4.977   2.860 -0.1825  0.2641 -0.1910
22537SOL    HW169052   6.324   4.914   2.790 -0.4597  1.0419 -0.8239
22537SOL    HW269053   6.278   5.046   2.848  0.6861  1.1132 -0.0505
22538SOL     OW69054   7.173   2.544  11.003 -0.0285  0.0467 -0.0990
22538SOL    HW169055   7.165   2.506  11.091 -0.2559 -0.9682 -0.5459
22538SOL    HW269056   7.117   2.621  11.005 -1.4115 -0.9348  0.1299
22539SOL     OW69057   4.005   0.958   5.691 -0.0083  0.1571 -0.6542
22539SOL    HW169058   4.021   1.028   5.628 -0.4665 -0.1553 -1.1212
22539SOL    HW269059   4.018   1.000   5.777 -0.9830  0.9978 -0.8977
22540SOL     OW69060   0.960   0.418  10.536 -0.3532 -0.0150  0.3828
22540SOL    HW169061   0.864   0.425  10.540 -0.4616 -0.4638 -1.0932
22540SOL    HW269062   0.990   0.467  10.613 -1.7539  0.3701  0.7175
22541SOL     OW69063   6.366   6.314   1.520  0.1635 -0.1349  0.1840
22541SOL    HW169064   6.309   6.245   1.486 -0.5616  0.7977 -0.5288
22541SOL    HW269065   6.342   6.320   1.613 -1.3299  0.6172 -0.2150
22542SOL     OW69066   0.803   7.653   2.552  0.9300 -0.0978  0.8620
22542SOL    HW169067   0.840   7.706   2.622 -1.3140  0.0516  2.0025
22542SOL    HW269068   0.713   7.636   2.579  0.0903 -0.3711 -1.7920
22543SOL     OW69069   2.469   5.494  11.590 -0.1472  0.1919  0.2871
22543SOL    HW169070   2.479   5.480  11.684  0.9749  0.5416  0.2381
22543SOL    HW269071   2.416   5.420  11.560  0.4602 -0.5640  1.0139
22544SOL     OW69072   4.292   0.125   4.841  0.0783  0.2878 -0.3689
22544SOL    HW169073   4.342   0.056   4.886 -0.8032 -0.9345 -1.2060
22544SOL    HW269074   4.332   0.206   4.871  0.5332 -0.5406  1.4033
22545SOL     OW69075   2.777   1.573   4.635  0.5558 -0.2326 -0.3727
22545SOL    HW169076   2.836   1.587   4.708 -0.5893 -0.1586  0.5679
22545SOL    HW269077   2.748   1.483   4.644 -2.8448  0.8931  1.8531
22546SOL     OW69078   3.838   2.047  12.190 -0.7182  0.6104  0.1196
22546SOL    HW169079   3.791   1.980  12.240 -0.2776  1.3223  1.5329
22546SOL    HW269080   3.782   2.064  12.114 -1.9871  0.3207  0.9609
22547SOL     OW69081   0.029   6.503  11.335  0.1341  0.0449  0.0624
22547SOL    HW169082   0.039   6.589  11.377  0.5907 -0.2029  0.4764
22547SOL    HW269083   0.027   6.522  11.241  1.1039  0.4401  0.1114
22548SOL     OW69084   3.128   3.896   0.770  0.4976 -0.6501 -0.0148
22548SOL    HW169085   3.114   3.894   0.675  1.2383 -1.0730 -0.1229
22548SOL    HW269086   3.145   3.987   0.790 -1.4613 -0.2394  0.0009
22549SOL     OW69087   0.872   4.861  11.728  0.2395  0.1296 -0.0675
22549SOL    HW169088   0.786   4.823  11.718 -0.8020  2.3941 -0.3850
22549SOL    HW269089   0.899   4.886  11.639  1.3502 -0.7557 -0.0074
22550SOL     OW69090   2.978   5.508   6.010  0.1039  0.0345  0.1953
22550SOL    HW169091   3.044   5.472   5.951 -0.8146 -0.6719 -0.4245
22550SOL    HW269092   2.983   5.603   5.997  0.2897 -0.0805 -0.6010
22551SOL     OW69093   7.088   4.704   7.491 -0.1082 -0.1046 -0.9853
22551SOL    HW169094   7.095   4.799   7.494  0.4772 -0.1658  0.2442
22551SOL    HW269095   7.170   4.673   7.528 -0.8954 -1.0637  0.0114
22552SOL     OW69096   3.131   2.707   3.599  0.1029  0.1234 -0.5615
22552SOL    HW169097   3.168   2.794   3.584  0.1371  0.3858  0.8872
22552SOL    HW269098   3.046   2.708   3.556 -0.4201  1.2996  0.4666
22553SOL     OW69099   2.748   7.501  11.701  0.7366  0.1267  0.1255
22553SOL    HW169100   2.666   7.464  11.669  1.1992  0.0334 -1.0181
22553SOL    HW269101   2.729   7.529  11.790 -0.1692 -1.0849  0.3425
22554SOL     OW69102   1.192   2.514   5.981 -0.0230 -0.3331  0.6269
22554SOL    HW169103   1.130   2.525   5.909 -1.1287 -0.7838  1.4969
22554SOL    HW269104   1.238   2.432   5.960 -0.2805 -0.4162  0.3842
22555SOL     OW69105   0.707   5.802   2.383 -0.7512 -0.2123  0.4970
22555SOL    HW169106   0.740   5.785   2.471 -0.3701 -1.1721  0.1750
22555SOL    HW269107   0.709   5.717   2.339 -0.0394  0.4241 -0.7451
22556SOL     OW69108   5.227   7.165   0.995 -0.1969  0.0390  0.2619
22556SOL    HW169109   5.135   7.185   1.013 -0.4671 -0.5515 -0.4212
22556SOL    HW269110   5.259   7.240   0.945 -0.0280  0.6940  1.3113
22557SOL     OW69111   3.141   4.292  10.116  0.0767 -0.0099 -0.3253
22557SOL    HW169112   3.153   4.312  10.023  5.6465  1.8914  0.3838
22557SOL    HW269113   3.110   4.374  10.154  0.3486  0.0635 -0.2542
22558SOL     OW69114   7.122   4.110   1.811 -0.4202  0.3619 -0.6926
22558SOL    HW169115   7.185   4.114   1.740 -0.8183 -0.5280 -1.1073
22558SOL    HW269116   7.057   4.176   1.788  0.5871  1.6352 -0.0105
22559SOL     OW69117   2.628   0.096   4.266 -0.2773 -0.3988  0.4721
22559SOL    HW169118   2.713   0.091   4.222 -0.6963 -1.6443 -0.2452
22559SOL    HW269119   2.638   0.167   4.330  1.2866 -0.5032  0.3788
22560SOL     OW69120   2.265   3.156   3.231  0.7371  0.2023 -0.3291
22560SOL    HW169121   2.299   3.066   3.235  0.3959  0.0787 -0.1641
22560SOL    HW269122   2.188   3.149   3.174  0.8659  0.4397 -0.5313
22561SOL     OW69123   6.657   1.679   8.329 -0.0808 -0.0864 -0.4132
22561SOL    HW169124   6.564   1.671   8.307 -0.3448 -1.0670  0.9681
22561SOL    HW269125   6.702   1.676   8.245 -1.2687 -0.0983 -1.0659
22562SOL     OW69126   0.242   2.554   0.917 -0.7527  0.2310  0.6606
22562SOL    HW169127   0.320   2.500   0.929 -0.5177  0.4278  0.0384
22562SOL    HW269128   0.234   2.565   0.822 -0.2395  2.1054  0.7958
22563SOL     OW69129   6.897   7.831   0.798 -0.2542  0.3496 -0.1469
22563SOL    HW169130   6.877   7.905   0.855  2.2186 -0.3102  1.7663
22563SOL    HW269131   6.894   7.755   0.856  2.7570 -0.3122 -0.7027
22564SOL     OW69132   1.141   2.329  11.038 -0.3814  0.3276 -0.1680
22564SOL    HW169133   1.148   2.269  11.112 -2.4249  0.1553 -0.0503
22564SOL    HW269134   1.098   2.278  10.969 -2.5132  1.6864  0.0554
22565SOL     OW69135   6.807   6.738   1.236 -0.4602 -0.5596 -0.6919
22565SOL    HW169136   6.842   6.650   1.248 -0.7400 -0.5732  0.0662
22565SOL    HW269137   6.870   6.781   1.178  0.2492 -0.9184 -0.2079
22566SOL     OW69138   0.227   2.000   8.508  0.3651  0.0468  0.2148
22566SOL    HW169139   0.224   1.930   8.573  2.0078 -0.6239 -0.3769
22566SOL    HW269140   0.217   2.080   8.559  0.3901 -0.5321  1.1499
22567SOL     OW69141   2.103   3.814   4.786 -0.2397 -0.5622  0.5977
22567SOL    HW169142   2.176   3.825   4.847 -0.3142  2.5358  0.2704
22567SOL    HW269143   2.026   3.806   4.842 -0.0923  0.3080  0.9388
22568SOL     OW69144   0.585   1.239   1.317  0.0024 -0.1951 -0.9328
22568SOL    HW169145   0.584   1.300   1.243  1.5380  0.9753 -0.0505
22568SOL    HW269146   0.664   1.263   1.367 -1.2146 -0.6410  1.3334
22569SOL     OW69147   3.382   1.127   9.164 -0.0680  0.1618 -0.0113
22569SOL    HW169148   3.347   1.056   9.218  1.0715  0.9666  1.9009
22569SOL    HW269149   3.370   1.206   9.218  2.1974  0.8280 -0.3727
22570SOL     OW69150   1.788   1.251   6.478  0.1037 -0.2719  0.2907
22570SOL    HW169151   1.883   1.256   6.480  0.1315 -0.9115  0.6443
22570SOL    HW269152   1.759   1.302   6.554  0.1778 -0.4657  0.4477
22571SOL     OW69153   6.109   6.220   4.709 -0.3362 -0.2470 -0.1102
22571SOL    HW169154   6.051   6.210   4.634 -0.7982 -2.0853  0.4419
22571SOL    HW269155   6.068   6.290   4.761  0.0019  1.0520 -1.5226
22572SOL     OW69156   2.979   4.836   1.131  0.4609 -0.7297 -0.2127
22572SOL    HW169157   3.005   4.899   1.198  0.9542  0.0597 -1.1202
22572SOL    HW269158   2.889   4.861   1.109  1.0598  0.4885 -1.4453
22573SOL     OW69159   4.904   5.692   6.135 -0.3949  0.8107 -0.3062
22573SOL    HW169160   4.940   5.644   6.061  2.7191  1.7874  0.4098
22573SOL    HW269161   4.914   5.784   6.112 -2.3687  1.1759  0.0737
22574SOL     OW69162   7.914   3.093   1.127 -0.2934 -0.8072  0.2534
22574SOL    HW169163   7.912   3.166   1.189  0.5181 -2.2625  2.0825
22574SOL    HW269164   7.838   3.108   1.070 -0.1291  1.4469  0.5449
22575SOL     OW69165   2.188   1.892   3.552 -0.3644  0.2261  0.3922
22575SOL    HW169166   2.202   1.955   3.622 -0.7617 -1.2211  1.8384
22575SOL    HW269167   2.160   1.812   3.597  0.9118 -1.2439 -1.2874
22576SOL     OW69168   1.989   6.502   1.951  0.1904  0.1890 -0.6080
22576SOL    HW169169   2.053   6.501   1.880  0.5604  1.5418 -0.3311
22576SOL    HW269170   1.915   6.451   1.919  0.6921  0.0958 -1.6332
22577SOL     OW69171   6.806   7.061   2.070  0.6932  0.0928 -0.0829
22577SOL    HW169172   6.806   7.009   2.150  0.9108 -0.4046 -0.4054
22577SOL    HW269173   6.861   7.012   2.009 -2.5888 -1.6335 -1.9105
22578SOL     OW69174   3.751   2.627  12.168  0.2117  0.1031  0.2676
22578SOL    HW169175   3.692   2.583  12.106  0.4594 -0.1996  0.2442
22578SOL    HW269176   3.812   2.558  12.196 -0.1610  0.1322  1.1859
22579SOL     OW69177   7.017   3.606   7.188  0.0475  0.2311 -0.0922
22579SOL    HW169178   7.035   3.560   7.106 -0.0013 -0.5455  0.3178
22579SOL    HW269179   6.938   3.563   7.222 -0.1554  0.8062  0.1674
22580SOL     OW69180   4.678   6.320   1.718 -0.2975 -0.1511  0.5734
22580SOL    HW169181   4.757   6.350   1.763 -0.3512 -0.1571  0.6717
22580SOL    HW269182   4.649   6.244   1.768 -0.3922 -0.1206  0.5643
22581SOL     OW69183   3.729   7.443   6.058  0.1050  0.0790  0.2135
22581SOL    HW169184   3.640   7.448   6.094 -0.0798 -0.9672 -0.0671
22581SOL    HW269185   3.716   7.409   5.969  0.8542 -0.9334  0.4852
22582SOL     OW69186   6.772   3.291   5.420 -0.5076 -0.2649 -0.8479
22582SOL    HW169187   6.774   3.337   5.504 -2.7673  0.8569 -1.3275
22582SOL    HW269188   6.706   3.223   5.431 -0.7671 -0.1628 -1.6641
22583SOL     OW69189   7.726   5.167   6.703 -0.1321  0.2953  0.3657
22583SOL    HW169190   7.631   5.155   6.706  0.0509 -1.1948  1.0847
22583SOL    HW269191   7.761   5.081   6.722  1.4206 -0.3384 -4.0872
22584SOL     OW69192   1.037   5.080   0.490 -0.5651  0.4886  0.1541
22584SOL    HW169193   1.043   5.077   0.586  2.1749 -1.4104  0.0436
22584SOL    HW269194   0.949   5.048   0.471 -1.1979  0.9443  2.0221
22585SOL     OW69195   3.153   6.717   9.168 -0.7701  0.3876  0.3956
22585SOL    HW169196   3.073   6.707   9.117 -0.8874  0.1711  0.6161
22585SOL    HW269197   3.125   6.758   9.250 -0.5939  0.6759  0.3142
22586SOL     OW69198   4.813   0.153   0.402 -0.3731  0.7259  0.3162
22586SOL    HW169199   4.813   0.143   0.307 -3.2965 -0.2189  0.3052
22586SOL    HW269200   4.884   0.097   0.432 -0.7569 -0.6836 -1.2515
22587SOL     OW69201   5.342   1.134   2.956 -0.4715 -0.2526  0.1144
22587SOL    HW169202   5.370   1.143   3.047 -0.4134  0.7458  0.0171
22587SOL    HW269203   5.327   1.040   2.944  0.9801 -0.5835  0.7186
22588SOL     OW69204   4.985   2.706  11.656 -0.2576 -0.5979  0.2153
22588SOL    HW169205   5.005   2.642  11.588 -0.2675  0.5855 -0.9414
22588SOL    HW269206   4.903   2.676  11.695 -0.7581 -0.7959 -0.9458
22589SOL     OW69207   2.727   0.527   2.036  0.2045  0.2388  0.0922
22589SOL    HW169208   2.760   0.594   2.096  0.2141 -0.6280  1.0830
22589SOL    HW269209   2.794   0.459   2.035  0.2020  0.2418 -0.9098
22590SOL     OW69210   0.795   6.813   2.862 -0.2093  0.3286 -0.2862
22590SOL    HW169211   0.849   6.760   2.920 -0.1115  1.3324  0.5735
22590SOL    HW269212   0.828   6.902   2.872 -2.7645  1.2311  1.2788
22591SOL     OW69213   1.153   0.585  10.403 -0.0464 -0.2318 -0.3696
22591SOL    HW169214   1.094   0.536  10.461 -0.2971  0.7992  0.2693
22591SOL    HW269215   1.164   0.670  10.446  1.7807 -0.3326 -0.5621
22592SOL     OW69216   0.347   7.856   9.570  0.2451 -0.1008  0.3410
22592SOL    HW169217   0.429   7.839   9.524 -1.1869 -2.2697 -1.5600
22592SOL    HW269218   0.338   7.783   9.632 -0.5493 -0.2153  0.0996
22593SOL     OW69219   7.491   6.145   1.666 -0.3119  0.3031 -0.4460
22593SOL    HW169220   7.408   6.180   1.698 -0.7423 -0.5172 -0.6489
22593SOL    HW269221   7.528   6.216   1.614  1.2470  2.3666  3.1506
22594SOL     OW69222   5.946   4.657   1.278  0.1152 -0.0060  0.3367
22594SOL    HW169223   5.866   4.638   1.326 -0.4674 -2.4910 -1.3756
22594SOL    HW269224   5.924   4.730   1.221 -0.2275  0.7177  1.3661
22595SOL     OW69225   7.120   3.496   6.946  0.0343 -0.4962 -0.5284
22595SOL    HW169226   7.205   3.470   6.981 -0.4315 -1.2670  0.0441
22595SOL    HW269227   7.083   3.416   6.908 -1.2002 -0.6088  0.8156
22596SOL     OW69228   2.617   1.150   7.195 -0.4711  0.0378 -0.0773
22596SOL    HW169229   2.688   1.155   7.259 -1.3689 -1.1386  1.0431
22596SOL    HW269230   2.552   1.212   7.228 -0.4515  0.2849 -0.4974
22597SOL     OW69231   4.284   0.201   8.257 -0.1199 -0.1384  0.2506
22597SOL    HW169232   4.201   0.247   8.264  0.8694  1.5474  3.9328
22597SOL    HW269233   4.345   0.267   8.224  0.8948  0.8794  3.6778
22598SOL     OW69234   3.648   6.891   3.269  0.2997  0.2210 -0.6189
22598SOL    HW169235   3.567   6.872   3.316  0.2686  1.9384  0.0854
22598SOL    HW269236   3.619   6.928   3.186  0.3695  0.6841 -0.4353
22599SOL     OW69237   4.309   0.125   7.409 -0.1347  0.5654  0.0763
22599SOL    HW169238   4.383   0.182   7.389  2.1715 -2.5910 -1.3737
22599SOL    HW269239   4.269   0.163   7.487  1.2089  3.9929 -0.7134
22600SOL     OW69240   1.148   0.989   1.250 -0.0470  0.4151 -0.2347
22600SOL    HW169241   1.108   1.060   1.301  1.4378 -1.1521  3.4838
22600SOL    HW269242   1.088   0.915   1.260  0.6952 -0.1666  0.0022
22601SOL     OW69243   5.465   1.017   9.211  0.1416  0.0435  0.0902
22601SOL    HW169244   5.386   1.058   9.246  0.3309  0.0637  0.5041
22601SOL    HW269245   5.444   0.924   9.203  0.1174  0.0284  0.3246
22602SOL     OW69246   1.135   0.477   4.019 -0.5891 -0.1228 -0.5979
22602SOL    HW169247   1.096   0.544   3.963 -0.2844 -0.4398 -1.1964
22602SOL    HW269248   1.092   0.488   4.104  1.3985  2.6598  0.1794
22603SOL     OW69249   2.048   5.171   6.939 -0.1538  0.5869  0.1784
22603SOL    HW169250   1.973   5.162   6.879  0.9477  0.1736 -1.2081
22603SOL    HW269251   2.055   5.085   6.980  0.1113  0.3281 -0.3940
22604SOL     OW69252   3.823   6.118   6.739  0.2651 -0.0654 -0.4665
22604SOL    HW169253   3.774   6.036   6.742  0.1121 -0.0039 -1.1266
22604SOL    HW269254   3.756   6.187   6.742  0.4033  0.0442  0.2891
22605SOL     OW69255   4.120   4.823  10.240  0.1972  0.2683 -1.0080
22605SOL    HW169256   4.163   4.900  10.205 -0.4320  0.5611 -1.1566
22605SOL    HW269257   4.044   4.809  10.183 -0.6011  0.5047 -0.0343
22606SOL     OW69258   5.607   1.614   1.411  0.3927 -0.3505  0.3973
22606SOL    HW169259   5.519   1.650   1.422  0.3709  0.2941 -1.5878
22606SOL    HW269260   5.662   1.668   1.468 -0.3625 -0.2396  1.0375
22607SOL     OW69261   5.251   0.033   2.635  0.3275  0.5753 -0.2510
22607SOL    HW169262   5.269   0.082   2.556 -2.4490 -0.0251 -1.3781
22607SOL    HW269263   5.237   0.099   2.703  2.0312  1.1044 -0.3783
22608SOL     OW69264   4.539   4.598   1.792 -0.9411  0.1482 -0.3237
22608SOL    HW169265   4.461   4.582   1.845 -0.2532 -3.5512 -0.1675
22608SOL    HW269266   4.530   4.541   1.716  1.8194 -0.8901  0.0011
22609SOL     OW69267   0.821   6.850   9.651  0.4818  0.2260  0.1717
22609SOL    HW169268   0.806   6.925   9.594 -1.5083 -0.2560 -0.0074
22609SOL    HW269269   0.804   6.774   9.595 -1.7041 -0.2625  1.3761
22610SOL     OW69270   3.161   1.615   5.608 -0.0465 -0.2831  0.3336
22610SOL    HW169271   3.135   1.554   5.676  0.4407 -0.2552  0.5479
22610SOL    HW269272   3.204   1.687   5.654 -1.9452  0.9781  0.2294
22611SOL     OW69273   1.838   5.640   1.491  0.0919 -0.0122 -0.2711
22611SOL    HW169274   1.810   5.714   1.547  1.5885 -0.1390  0.6964
22611SOL    HW269275   1.828   5.673   1.402  0.4064  1.2591  0.1358
22612SOL     OW69276   0.335   1.503   7.235  0.3424  0.5663 -0.1499
22612SOL    HW169277   0.392   1.574   7.205  1.3887  0.8960  2.4013
22612SOL    HW269278   0.253   1.515   7.185 -0.3820  4.9575  1.6566
22613SOL     OW69279   2.805   0.006  10.111  0.3666 -0.1434  0.0157
22613SOL    HW169280   2.778  -0.077  10.149 -0.8794 -0.2099 -0.9786
22613SOL    HW269281   2.793   0.070  10.182 -2.3585 -0.1916 -0.2887
22614SOL     OW69282   5.554   2.096   4.011  0.1095 -0.3274  0.1096
22614SOL    HW169283   5.617   2.133   3.949  1.2063 -0.7828  0.9112
22614SOL    HW269284   5.563   2.152   4.089 -2.9606  1.7440 -0.8634
22615SOL     OW69285   3.769   4.606   5.281 -0.0809 -0.1628  0.2575
22615SOL    HW169286   3.816   4.673   5.231 -0.4258  0.9284  1.3354
22615SOL    HW269287   3.834   4.573   5.344 -0.5891  1.0955  1.5110
22616SOL     OW69288   6.570   6.492   1.473  0.3581 -0.0732  0.8541
22616SOL    HW169289   6.493   6.437   1.483 -0.4407  1.1263  1.6385
22616SOL    HW269290   6.555   6.538   1.390  1.4503 -1.6333 -0.2543
22617SOL     OW69291   6.603   0.477  10.039  0.0177  0.2383 -0.1675
22617SOL    HW169292   6.629   0.387  10.020 -1.0621 -0.3012  0.8182
22617SOL    HW269293   6.661   0.504  10.110  0.1313  0.2126 -0.2498
22618SOL     OW69294   5.929   0.386   1.595 -0.0298  0.1588 -0.1843
22618SOL    HW169295   6.006   0.441   1.610  0.5936 -0.9203  0.7707
22618SOL    HW269296   5.946   0.344   1.511 -0.9936  2.1282 -1.4498
22619SOL     OW69297   1.130   4.204   9.200  0.2282  0.3197 -0.7122
22619SOL    HW169298   1.162   4.188   9.289  0.1786  0.5824 -0.6477
22619SOL    HW269299   1.068   4.132   9.185  1.5237 -0.7365 -1.1935
22620SOL     OW69300   4.959   4.385   4.501  0.2128 -0.3002  0.6372
22620SOL    HW169301   5.043   4.349   4.528  0.2297  0.2000  1.2792
22620SOL    HW269302   4.897   4.354   4.568 -0.2996 -1.4362 -0.3306
22621SOL     OW69303   1.076   1.826   0.570  0.2131  0.2068  0.1060
22621SOL    HW169304   1.008   1.768   0.534  0.6134 -0.7547  0.8510
22621SOL    HW269305   1.118   1.865   0.493 -2.6530  2.6614 -0.4228
22622SOL     OW69306   2.367   2.308  12.104 -0.4417 -0.1193  0.1468
22622SOL    HW169307   2.447   2.311  12.155  0.5501 -1.0408 -1.2728
22622SOL    HW269308   2.322   2.228  12.134  0.5441 -1.1238 -0.9178
22623SOL     OW69309   7.600   3.017   6.949  0.2383  0.1022 -0.1758
22623SOL    HW169310   7.518   2.995   6.905 -0.0543  0.7675  0.0179
22623SOL    HW269311   7.634   3.093   6.900  1.2117 -0.7246 -0.8229
22624SOL     OW69312   5.227   4.439   1.288  0.2447 -0.0969 -0.1867
22624SOL    HW169313   5.251   4.494   1.213  2.5380 -0.5523  0.1473
22624SOL    HW269314   5.290   4.463   1.356 -1.7373  0.2544  1.6273
22625SOL     OW69315   1.499   7.545   9.610 -0.2097 -0.3667  0.4414
22625SOL    HW169316   1.425   7.484   9.610  0.1584 -0.8186  0.3348
22625SOL    HW269317   1.459   7.632   9.614 -0.7535 -0.6006  0.1541
22626SOL     OW69318   7.054   2.269   2.154  0.0464 -0.2320  0.9930
22626SOL    HW169319   7.084   2.205   2.089 -0.8282  1.0085 -0.7226
22626SOL    HW269320   7.133   2.297   2.199  0.8308 -0.4105 -0.2253
22627SOL     OW69321   0.462   0.159   7.360 -0.5500 -0.2125 -0.1266
22627SOL    HW169322   0.554   0.185   7.364 -0.4349 -0.7590  1.4062
22627SOL    HW269323   0.449   0.132   7.269  0.3010  1.5629 -0.8301
22628SOL     OW69324   5.020   2.135   8.159  0.1096 -0.3374  0.1938
22628SOL    HW169325   5.035   2.041   8.151  1.1087 -0.1439 -0.2734
22628SOL    HW269326   5.106   2.173   8.178 -0.4499  0.3835  1.4693
22629SOL     OW69327   0.504   7.339  11.605 -0.1827 -0.2059 -0.0703
22629SOL    HW169328   0.518   7.432  11.625 -0.7998  0.7654 -3.5846
22629SOL    HW269329   0.553   7.324  11.525 -0.0844 -2.9840  0.4165
22630SOL     OW69330   7.040   5.763  10.150  0.3142  0.0129 -0.2314
22630SOL    HW169331   7.105   5.696  10.172 -0.4541  0.2266  3.3145
22630SOL    HW269332   6.957   5.715  10.146  0.2350  0.2356 -1.3264
22631SOL     OW69333   5.720   6.461  10.246 -0.5349  0.2158 -0.7730
22631SOL    HW169334   5.731   6.458  10.151  0.8754  1.7503 -0.7141
22631SOL    HW269335   5.787   6.524  10.276 -1.2338  0.1051  1.1809
22632SOL     OW69336   7.357   3.532   4.945  0.4040  0.4299 -0.5224
22632SOL    HW169337   7.268   3.565   4.956 -0.1330 -1.4854  1.6202
22632SOL    HW269338   7.398   3.593   4.884 -1.5044  3.0297  0.6078
22633SOL     OW69339   6.301   1.961  10.503  0.6523 -0.2725  0.0217
22633SOL    HW169340   6.273   1.950  10.412  0.2245  1.2537 -0.0515
22633SOL    HW269341   6.291   1.874  10.542 -2.7088 -0.2290 -0.4219
22634SOL     OW69342   2.546   2.054  10.714  0.5239  0.3811  0.2973
22634SOL    HW169343   2.476   2.037  10.650  2.1631  0.0111 -1.4988
22634SOL    HW269344   2.529   1.992  10.785 -0.1054 -0.7908 -0.8327
22635SOL     OW69345   2.222   3.326   1.350  0.4232  0.5024 -0.0686
22635SOL    HW169346   2.202   3.411   1.313 -0.8942  0.5226  0.6459
22635SOL    HW269347   2.177   3.263   1.294  1.0405  0.2994 -0.3456
22636SOL     OW69348   7.178   6.474   0.499  0.2891  0.4518 -0.2359
22636SOL    HW169349   7.103   6.432   0.456  0.2984 -0.7370  0.8731
22636SOL    HW269350   7.248   6.410   0.494  0.1976  0.1450  1.8043
22637SOL     OW69351   3.293   3.337   8.802 -0.3671 -0.2576 -0.4680
22637SOL    HW169352   3.313   3.257   8.851 -0.7463 -1.7392 -2.6110
22637SOL    HW269353   3.212   3.370   8.843  1.3209  0.7702  2.3446
22638SOL     OW69354   7.260   6.541  10.270 -0.2098  0.0908 -0.0426
22638SOL    HW169355   7.247   6.518  10.178 -1.7823 -1.2620  0.4478
22638SOL    HW269356   7.353   6.527  10.286 -0.2877 -1.7638 -0.9344
22639SOL     OW69357   5.426   0.053   6.767  0.5121  0.0766  0.7788
22639SOL    HW169358   5.359   0.111   6.802  0.3672  1.9014 -2.2408
22639SOL    HW269359   5.458   0.096   6.688  2.0362 -2.8903 -0.4109
22640SOL     OW69360   0.901   0.951   0.631  0.0247 -0.6796 -0.4468
22640SOL    HW169361   0.922   1.026   0.687  1.6689 -1.3913 -0.0435
22640SOL    HW269362   0.944   0.877   0.674  0.7166 -1.3688 -2.2488
22641SOL     OW69363   2.853   4.879   3.020 -0.2572 -0.3550  0.3004
22641SOL    HW169364   2.905   4.882   3.100 -0.0165  0.2369  0.1302
22641SOL    HW269365   2.875   4.960   2.974  1.0381 -1.4990 -1.2527
22642SOL     OW69366   7.757   1.095   2.065 -0.1094  0.4383 -0.1202
22642SOL    HW169367   7.737   1.002   2.057  0.0983  0.3098  0.7422
22642SOL    HW269368   7.769   1.124   1.975  0.3206 -0.4832 -0.3784
22643SOL     OW69369   2.142   3.850   3.255  0.0410 -0.4149 -0.4075
22643SOL    HW169370   2.117   3.904   3.181 -0.5195  0.7564  0.5882
22643SOL    HW269371   2.084   3.774   3.251  0.6893 -0.8676 -1.7024
22644SOL     OW69372   4.102   3.054   0.581 -0.2351 -0.2255  0.1838
22644SOL    HW169373   4.116   2.987   0.647 -0.9502 -0.4913  0.0765
22644SOL    HW269374   4.168   3.121   0.600  0.7521 -1.1319  0.0399
22645SOL     OW69375   7.006   4.046  10.386  0.0133 -0.1935  0.1470
22645SOL    HW169376   6.952   3.976  10.351  2.3505 -1.3996 -1.3194
22645SOL    HW269377   6.998   4.117  10.323  1.7246 -1.1888 -1.2985
22646SOL     OW69378   1.460   1.678   7.075  0.3165  0.5663 -0.3316
22646SOL    HW169379   1.399   1.725   7.017 -0.5041 -0.5705 -0.4185
22646SOL    HW269380   1.540   1.669   7.024 -1.0532 -2.2924 -2.2381
22647SOL     OW69381   5.674   0.342   2.613 -0.4283 -0.0492 -0.4688
22647SOL    HW169382   5.707   0.376   2.697  0.9222  0.0192 -1.0004
22647SOL    HW269383   5.579   0.338   2.625 -0.2603 -0.1213  1.0971
22648SOL     OW69384   3.114   1.590   0.631 -0.5006 -0.1320  0.0481
22648SOL    HW169385   3.077   1.644   0.700  1.4476  1.6306 -0.1964
22648SOL    HW269386   3.144   1.511   0.675 -2.6688 -0.7509  0.5358
22649SOL     OW69387   1.712   1.546   6.073  0.3971  0.1799  0.5951
22649SOL    HW169388   1.758   1.626   6.099 -1.0254  0.8427  1.2345
22649SOL    HW269389   1.764   1.510   6.001  2.9371 -0.1792  2.4809
22650SOL     OW69390   0.355   6.519   3.732 -0.0110 -0.2193  0.4445
22650SOL    HW169391   0.271   6.560   3.713  0.3497  0.0760 -0.5930
22650SOL    HW269392   0.337   6.459   3.805 -1.2498 -0.6269 -0.1731
22651SOL     OW69393   4.697   1.478   3.735 -0.2120 -0.2510 -0.0068
22651SOL    HW169394   4.622   1.464   3.794  0.4125 -0.0759  0.8445
22651SOL    HW269395   4.690   1.569   3.708  0.2084  0.0356  0.8189
22652SOL     OW69396   3.950   2.726   1.529  0.1612 -0.1066  0.1010
22652SOL    HW169397   3.897   2.650   1.508  1.1569 -0.7826 -0.0672
22652SOL    HW269398   3.946   2.781   1.451 -0.4192 -0.0710  0.1551
22653SOL     OW69399   7.227   2.741   5.893 -0.0656 -0.0883 -0.1884
22653SOL    HW169400   7.303   2.777   5.845 -0.7392  2.6561  0.6391
22653SOL    HW269401   7.152   2.761   5.837 -0.5120  0.2489  0.5137
22654SOL     OW69402   2.741   6.596   7.117 -0.2640 -0.3502 -0.3068
22654SOL    HW169403   2.695   6.577   7.035 -0.9818 -0.3392  0.0856
22654SOL    HW269404   2.676   6.641   7.171 -0.1541 -1.3612  0.7032
22655SOL     OW69405   2.513   3.198   0.739  0.5982 -0.1084 -0.1128
22655SOL    HW169406   2.522   3.203   0.835 -1.6912 -2.4216  0.3304
22655SOL    HW269407   2.560   3.118   0.716 -0.9386 -0.9243 -0.5285
22656SOL     OW69408   1.774   3.463   9.508 -0.1472 -0.4592  0.3778
22656SOL    HW169409   1.684   3.455   9.476 -0.4623  3.1187 -0.0326
22656SOL    HW269410   1.767   3.455   9.603 -0.7933 -0.7096  0.3136
22657SOL     OW69411   5.861   2.832  11.640 -0.3404 -0.2313 -0.1850
22657SOL    HW169412   5.888   2.754  11.690  0.6213  1.2909  1.8034
22657SOL    HW269413   5.929   2.842  11.574  1.4602  0.7514  1.6841
22658SOL     OW69414   2.945   6.990   1.916  0.1058  0.3135 -0.4380
22658SOL    HW169415   2.955   6.977   1.822  0.9798  1.5576 -0.5465
22658SOL    HW269416   2.878   7.058   1.925 -0.0630  0.1148 -0.1546
22659SOL     OW69417   0.864   2.856   5.005  1.0071 -0.1309 -0.0786
22659SOL    HW169418   0.836   2.809   5.084  1.5727  1.0057  0.8190
22659SOL    HW269419   0.832   2.802   4.933  0.1868 -1.0224  0.9205
22660SOL     OW69420   3.019   4.169   1.078 -0.2229  0.0387 -0.0506
22660SOL    HW169421   3.088   4.104   1.087  2.5291  2.4978 -1.4843
22660SOL    HW269422   3.041   4.237   1.142 -0.8632  1.2069 -1.0166
22661SOL     OW69423   6.332   4.870   0.060 -0.0750 -1.0284  0.1672
22661SOL    HW169424   6.415   4.843   0.020  0.2120  0.1991 -0.0858
22661SOL    HW269425   6.266   4.821   0.012  0.3533 -0.4199 -1.0829
22662SOL     OW69426   5.694   0.678   8.261  0.6254 -0.0302 -0.2435
22662SOL    HW169427   5.699   0.583   8.269  2.8431  0.0283 -0.2799
22662SOL    HW269428   5.631   0.704   8.328  1.0153 -1.4316  0.7219
22663SOL     OW69429   4.144   6.151   5.827  1.0282  0.1746 -0.0066
22663SOL    HW169430   4.172   6.196   5.907  1.0930  0.1155  0.0046
22663SOL    HW269431   4.049   6.142   5.837  0.7890  1.7409 -0.7551
22664SOL     OW69432   2.402   6.494   2.237  1.0264 -0.2771 -0.2510
22664SOL    HW169433   2.410   6.414   2.186  0.7023 -0.9177  0.6719
22664SOL    HW269434   2.328   6.478   2.296 -0.1663  1.3610 -1.2249
22665SOL     OW69435   1.405   2.445   9.172 -0.7625  0.2244  0.0615
22665SOL    HW169436   1.355   2.414   9.097 -1.5018  0.4001  0.4678
22665SOL    HW269437   1.441   2.366   9.212  0.0331  0.1643 -0.7348
22666SOL     OW69438   5.425   5.263   2.523  0.5047 -0.4180  0.5414
22666SOL    HW169439   5.347   5.315   2.543  0.4706 -0.4005  0.3624
22666SOL    HW269440   5.391   5.176   2.504  0.5241 -0.3909  0.3879
22667SOL     OW69441   2.902   2.922   0.253 -0.2815 -0.6892 -0.0139
22667SOL    HW169442   2.853   2.948   0.175 -0.3786  0.4342  0.4084
22667SOL    HW269443   2.837   2.922   0.324  0.2323  0.4828  0.4868
22668SOL     OW69444   0.564   3.588   0.669  0.2984  0.4418 -0.6828
22668SOL    HW169445   0.502   3.555   0.603 -0.9183  2.3261 -0.5774
22668SOL    HW269446   0.596   3.670   0.632  1.9855  0.0201 -0.2509
22669SOL     OW69447   2.360   3.356   2.242  0.4404 -0.1882  0.0416
22669SOL    HW169448   2.374   3.430   2.183  0.4934  0.3615  0.7305
22669SOL    HW269449   2.266   3.338   2.236  0.3329  0.2735  0.2566
22670SOL     OW69450   4.864   6.416  12.134  0.0108 -0.0233 -0.3227
22670SOL    HW169451   4.896   6.374  12.054  2.2206  1.4926 -0.3122
22670SOL    HW269452   4.780   6.372  12.152 -0.5477 -0.4486 -3.4011
22671SOL     OW69453   3.940   5.576   1.395 -0.3653  0.4474 -0.1568
22671SOL    HW169454   4.008   5.642   1.399 -0.9812  1.1351 -0.7005
22671SOL    HW269455   3.870   5.616   1.343 -0.2950 -1.0374 -1.5068
22672SOL     OW69456   5.474   5.313  10.652 -1.1717 -0.1769 -0.0684
22672SOL    HW169457   5.426   5.232  10.635 -2.2596  0.4727 -0.1650
22672SOL    HW269458   5.408   5.375  10.682 -0.4955  0.9095 -0.7416
22673SOL     OW69459   0.390   5.664   1.841  0.5429  0.3901  0.7214
22673SOL    HW169460   0.467   5.609   1.856  0.1016 -0.8127 -1.1665
22673SOL    HW269461   0.402   5.699   1.753 -0.0047  2.0231  1.2559
22674SOL     OW69462   6.989   2.255   6.372  0.0358 -0.0074  0.0141
22674SOL    HW169463   6.906   2.303   6.369  0.0992  0.0979 -0.0698
22674SOL    HW269464   7.038   2.288   6.296  0.3870  0.3490  0.3958
22675SOL     OW69465   0.446   1.986   2.524 -0.3927 -0.3238 -0.3647
22675SOL    HW169466   0.428   1.901   2.563 -2.1047  0.6554  1.1100
22675SOL    HW269467   0.477   2.040   2.597 -1.1910  0.8453 -0.8531
22676SOL     OW69468   6.100   4.312  10.191  0.1938  0.0799  0.1296
22676SOL    HW169469   6.123   4.339  10.102  0.7039 -0.3406  0.1286
22676SOL    HW269470   6.155   4.235  10.207  1.6570  1.3628  1.5746
22677SOL     OW69471   3.620   2.489   1.597 -0.0593 -0.0182 -0.1033
22677SOL    HW169472   3.539   2.472   1.549 -0.0221  2.2969 -1.1220
22677SOL    HW269473   3.676   2.414   1.576 -2.0253 -1.9068  1.0051
22678SOL     OW69474   1.558   0.515   3.146 -0.1640 -0.5245  0.4621
22678SOL    HW169475   1.568   0.610   3.137 -0.2534 -0.6334 -1.2508
22678SOL    HW269476   1.633   0.479   3.099 -1.7181 -1.2857 -1.5921
22679SOL     OW69477   0.383   3.054   0.266  0.4077 -0.0464  0.3355
22679SOL    HW169478   0.445   2.992   0.228 -0.1497 -2.3711  2.8235
22679SOL    HW269479   0.401   3.052   0.360 -1.3743  1.6199  0.7988
22680SOL     OW69480   7.405   7.319   4.917  0.2960 -0.7336 -0.5089
22680SOL    HW169481   7.450   7.387   4.866 -1.5972  0.6177 -0.4737
22680SOL    HW269482   7.449   7.321   5.003 -1.2163  2.2477  0.3376
22681SOL     OW69483   2.479   1.619   7.921 -0.0080  0.1754  0.0198
22681SOL    HW169484   2.524   1.576   7.848  2.0394 -0.6137  1.6610
22681SOL    HW269485   2.510   1.710   7.917  1.2253 -0.1906  0.6923
22682SOL     OW69486   7.035   4.868  11.486 -0.0520  0.0466  0.1473
22682SOL    HW169487   7.004   4.883  11.575 -0.8750  1.6978 -0.3782
22682SOL    HW269488   7.091   4.790  11.493 -0.1674  0.0850  2.0707
22683SOL     OW69489   3.936   4.944   0.408  0.0671  0.0905 -0.1113
22683SOL    HW169490   4.008   4.902   0.361 -0.1163 -3.9810  2.6553
22683SOL    HW269491   3.861   4.935   0.350  0.7626 -0.4584 -0.9568
22684SOL     OW69492   1.228   2.324   9.563 -0.6593  0.0369  0.2364
22684SOL    HW169493   1.143   2.355   9.597 -0.8319 -1.0016  0.8057
22684SOL    HW269494   1.232   2.359   9.474 -1.3704  0.6844  0.4428
22685SOL     OW69495   6.134   0.803   9.016  0.0387 -0.5079  0.5310
22685SOL    HW169496   6.176   0.752   8.947 -0.6410 -1.3989  0.7517
22685SOL    HW269497   6.157   0.757   9.097 -1.0659 -0.8382  0.6835
22686SOL     OW69498   4.167   3.460   8.574  0.0725 -0.4085  0.4099
22686SOL    HW169499   4.197   3.547   8.547 -1.3025 -0.0147  0.0768
22686SOL    HW269500   4.215   3.399   8.517  0.4088  0.1732  0.0646
22687SOL     OW69501   4.009   6.764   0.230  0.3341 -0.0399  0.4663
22687SOL    HW169502   4.097   6.793   0.209  0.4113 -1.3745 -1.2041
22687SOL    HW269503   3.999   6.784   0.324  1.6693  1.8785  0.2478
22688SOL     OW69504   0.730   6.722   3.544  0.1208  0.3421 -0.5388
22688SOL    HW169505   0.777   6.733   3.627  0.3421  1.7782 -0.8192
22688SOL    HW269506   0.644   6.688   3.570  0.7753 -0.8762  0.1117
22689SOL     OW69507   3.106   3.923  12.330 -0.0227 -0.1436 -0.1412
22689SOL    HW169508   3.176   3.982  12.302 -0.5463  1.0580  1.0231
22689SOL    HW269509   3.097   3.862  12.256  0.7760  0.9829 -1.2299
22690SOL     OW69510   2.916   2.767   1.824 -0.2619 -0.3333 -0.1893
22690SOL    HW169511   2.910   2.710   1.748 -0.3971  0.8496 -1.1044
22690SOL    HW269512   2.881   2.715   1.896  1.1752 -1.9888 -0.6124
22691SOL     OW69513   4.532   6.729   0.753 -0.1088 -0.9776  0.1442
22691SOL    HW169514   4.521   6.723   0.658  1.5186  1.8220 -0.3228
22691SOL    HW269515   4.623   6.706   0.767 -0.5135 -2.0395  1.1644
22692SOL     OW69516   2.245   6.648   6.104 -0.5098 -0.3036  0.6136
22692SOL    HW169517   2.235   6.566   6.055 -2.1917 -0.4864  1.2073
22692SOL    HW269518   2.160   6.690   6.098 -1.1178 -0.7323  4.0920
22693SOL     OW69519   7.583   1.896   6.269 -0.6617  0.4571  0.5328
22693SOL    HW169520   7.673   1.929   6.267 -0.4371 -0.1399  0.6326
22693SOL    HW269521   7.587   1.814   6.221 -1.1145  0.3252  0.7207
22694SOL     OW69522   3.329   6.969   2.910 -0.4464  0.0742 -0.5637
22694SOL    HW169523   3.273   7.022   2.967 -0.9447  0.6339 -1.5357
22694SOL    HW269524   3.339   7.022   2.831  1.1350 -0.2021 -0.5811
22695SOL     OW69525   4.176   6.731  12.300  0.0792  0.1209 -0.2141
22695SOL    HW169526   4.174   6.732  12.204 -0.5764  0.2004 -0.2095
22695SOL    HW269527   4.176   6.823  12.325 -3.7592  0.2567 -0.1387
22696SOL     OW69528   0.351   3.858   1.982  1.0382 -0.1385 -0.4637
22696SOL    HW169529   0.292   3.845   2.057 -0.6933 -0.6882 -1.8677
22696SOL    HW269530   0.381   3.949   1.991  0.3186  0.0174  0.5165
22697SOL     OW69531   7.789   4.940   7.991  0.0319  0.5625 -0.0640
22697SOL    HW169532   7.879   4.973   7.995  1.2149 -2.4097  0.3727
22697SOL    HW269533   7.752   4.963   8.076  1.0265  0.1538  0.4949
22698SOL     OW69534   0.568   7.817  12.102 -0.5965 -0.1801 -0.8040
22698SOL    HW169535   0.577   7.828  12.197 -3.0727 -2.0387 -0.2494
22698SOL    HW269536   0.501   7.881  12.076 -0.0790  0.1791 -1.2741
22699SOL     OW69537   4.702   7.161  11.916 -0.3892  0.7291  0.1182
22699SOL    HW169538   4.646   7.226  11.874  1.0526  2.4644  0.7606
22699SOL    HW269539   4.663   7.146  12.002 -1.7225 -0.6662 -0.6769
22700SOL     OW69540   0.991   1.912  11.848 -0.5107 -0.1041 -0.4687
22700SOL    HW169541   0.988   1.997  11.893 -0.3362  0.2423 -1.0983
22700SOL    HW269542   1.043   1.856  11.905  0.1851  0.4945 -0.5048
22701SOL     OW69543   0.504   4.773   8.826 -0.1572 -0.0925  0.6858
22701SOL    HW169544   0.410   4.756   8.823 -0.2470  0.3715  0.8281
22701SOL    HW269545   0.538   4.738   8.743 -0.5061  0.0508  0.4810
22702SOL     OW69546   5.327   0.496  10.983 -0.3666 -0.4976  0.2899
22702SOL    HW169547   5.243   0.539  10.966 -0.5781 -1.5626 -1.6642
22702SOL    HW269548   5.387   0.535  10.919  0.2105 -0.9368  0.5568
22703SOL     OW69549   5.493   2.905   1.865  0.0159  0.1405  0.1935
22703SOL    HW169550   5.414   2.853   1.849  0.1406 -0.0597  0.2311
22703SOL    HW269551   5.521   2.880   1.953  0.2813  0.0005  0.0712
22704SOL     OW69552   7.554   0.496  11.761 -0.2189  0.6358 -0.3040
22704SOL    HW169553   7.600   0.416  11.789 -1.5207  0.7723  2.6350
22704SOL    HW269554   7.462   0.470  11.756 -0.7299  1.9959  1.1642
22705SOL     OW69555   3.978   0.647   1.694 -0.0065 -0.3410  0.0753
22705SOL    HW169556   3.884   0.654   1.708 -0.3211 -1.1286 -1.4385
22705SOL    HW269557   4.017   0.667   1.780 -1.5509 -0.4222  0.8248
22706SOL     OW69558   1.972   0.865   9.897 -0.0954  0.0880  0.5102
22706SOL    HW169559   2.030   0.862   9.821  0.2073  1.3806  0.6541
22706SOL    HW269560   2.032   0.859   9.972 -0.4912 -2.6457  0.7124
22707SOL     OW69561   7.267   4.163   5.155  0.3583 -0.5429  0.0657
22707SOL    HW169562   7.197   4.197   5.100  0.4754 -0.0761  0.1991
22707SOL    HW269563   7.265   4.068   5.141  0.7661 -0.3815 -1.1899
22708SOL     OW69564   3.376   1.715   5.369 -0.4357 -0.3143 -0.3402
22708SOL    HW169565   3.315   1.753   5.306 -1.1937  1.0205  1.1207
22708SOL    HW269566   3.463   1.744   5.340 -0.6088 -1.0227 -1.6199
22709SOL     OW69567   5.368   3.331   8.898  0.5855  0.0428  1.0874
22709SOL    HW169568   5.275   3.351   8.910  0.2631 -1.1111  0.6321
22709SOL    HW269569   5.406   3.414   8.871 -0.4939  0.3327  0.3718
22710SOL     OW69570   3.660   5.603   0.707  0.4470 -0.1654  0.2801
22710SOL    HW169571   3.648   5.667   0.777 -0.7481 -1.2472  1.1093
22710SOL    HW269572   3.574   5.594   0.667  0.4355 -1.6542  0.5631
22711SOL     OW69573   1.212   1.812   1.018  0.0855 -0.4550  0.1669
22711SOL    HW169574   1.206   1.742   0.952 -1.8754 -0.9471  0.8004
22711SOL    HW269575   1.244   1.767   1.097 -1.1956 -0.6627  0.5804
22712SOL     OW69576   5.732   2.996   0.553 -0.7965 -0.4490 -0.0121
22712SOL    HW169577   5.693   3.030   0.473  1.9105  0.8345 -0.9248
22712SOL    HW269578   5.729   2.901   0.543 -1.4247 -0.3286 -1.1431
22713SOL     OW69579   5.602   6.617   8.517  0.3650  0.5354 -0.0291
22713SOL    HW169580   5.691   6.600   8.484  0.8406  0.6188  1.1557
22713SOL    HW269581   5.605   6.590   8.608 -0.6287  1.2248  0.2230
22714SOL     OW69582   4.678   5.357   6.812 -0.3151 -0.1037  0.3431
22714SOL    HW169583   4.715   5.380   6.727 -2.3079  0.1365 -0.5188
22714SOL    HW269584   4.652   5.440   6.850 -0.5299 -0.3087  0.6508
22715SOL     OW69585   1.531   0.135   5.445 -0.4375 -0.3550 -0.0019
22715SOL    HW169586   1.550   0.181   5.526 -1.0179 -2.2141  1.2482
22715SOL    HW269587   1.450   0.087   5.463 -1.0228 -0.2064 -1.9578
22716SOL     OW69588   0.818   4.671  12.058  0.3929 -0.3579  0.2798
22716SOL    HW169589   0.775   4.685  11.974  1.7814 -1.1606 -0.6069
22716SOL    HW269590   0.895   4.728  12.057 -0.4662  0.9126  1.7539
22717SOL     OW69591   5.307   5.320   3.256  0.5658 -0.3987 -0.9466
22717SOL    HW169592   5.393   5.362   3.250 -0.0446  1.0861  0.0546
22717SOL    HW269593   5.308   5.274   3.340  0.3100 -0.2013 -0.8346
22718SOL     OW69594   2.124   0.604  11.705  0.4131  0.0000  0.1697
22718SOL    HW169595   2.056   0.671  11.703 -1.3094 -1.6297  0.8846
22718SOL    HW269596   2.163   0.612  11.792  2.0872  1.7820 -0.6973
22719SOL     OW69597   1.664   2.738   6.706  0.3685  0.9189  0.6333
22719SOL    HW169598   1.653   2.795   6.630  1.1335 -1.3966 -1.3227
22719SOL    HW269599   1.574   2.719   6.734 -0.0061  0.3778 -0.8520
22720SOL     OW69600   4.716   3.602   4.998 -0.3652  0.1145 -0.3123
22720SOL    HW169601   4.717   3.510   4.972  1.0327 -0.4118  1.4171
22720SOL    HW269602   4.624   3.627   4.997 -0.9376 -1.8026  0.8079
22721SOL     OW69603   2.877   4.312   9.003 -0.0624 -0.1189  0.5954
22721SOL    HW169604   2.796   4.349   8.966  0.7485  2.6707  1.3555
22721SOL    HW269605   2.852   4.281   9.090 -0.4927 -0.0462  0.4997
22722SOL     OW69606   4.942   4.963   6.601  0.0972 -0.2634 -0.1884
22722SOL    HW169607   4.848   4.950   6.617  0.1888  0.4797  1.1291
22722SOL    HW269608   4.947   4.991   6.510 -0.8208 -1.5529 -0.6660
22723SOL     OW69609   5.132   4.023   7.345  0.1909  1.0821  0.1216
22723SOL    HW169610   5.046   3.982   7.334  1.0901 -0.5624 -1.4515
22723SOL    HW269611   5.113   4.114   7.367 -1.9357  0.6141  0.4509
22724SOL     OW69612   3.597   4.838   4.948  0.3878 -0.2973 -0.6001
22724SOL    HW169613   3.658   4.896   4.993 -2.0579  2.5132 -0.6186
22724SOL    HW269614   3.653   4.776   4.902  3.1313  0.8427  0.9535
22725SOL     OW69615   0.680   1.510   4.310  0.4127  0.3460  0.5829
22725SOL    HW169616   0.691   1.605   4.315  1.2781  0.4589 -2.0838
22725SOL    HW269617   0.589   1.497   4.285  0.7505  0.6239 -0.9010
22726SOL     OW69618   4.515   1.201   6.947  0.0585  0.1127 -0.0885
22726SOL    HW169619   4.573   1.271   6.918  2.8945 -1.9249  0.2007
22726SOL    HW269620   4.475   1.168   6.866  0.2701  0.7738 -0.4688
22727SOL     OW69621   6.612   1.364   4.083 -0.3040 -0.1023  0.2487
22727SOL    HW169622   6.603   1.389   4.175  1.0334  1.7333 -0.0622
22727SOL    HW269623   6.524   1.371   4.048 -0.5088  1.2760  0.9429
22728SOL     OW69624   1.029   5.303   9.931 -0.0288 -0.5474 -0.3921
22728SOL    HW169625   1.120   5.297   9.960  0.4487  0.8544 -1.4910
22728SOL    HW269626   1.029   5.258   9.846 -0.5081 -1.0862 -0.1115
22729SOL     OW69627   1.640   7.229   5.813  0.0116 -0.1171 -0.1785
22729SOL    HW169628   1.648   7.294   5.883 -0.3400  0.6195 -0.8029
22729SOL    HW269629   1.636   7.281   5.733 -3.3019 -0.6819 -0.5253
22730SOL     OW69630   5.820   6.458   9.987  0.0079  0.1786  0.4166
22730SOL    HW169631   5.840   6.551   9.974 -0.9062  0.3013 -0.1801
22730SOL    HW269632   5.734   6.446   9.946 -0.4884 -0.6368  1.6393
22731SOL     OW69633   4.296   6.860   3.797  0.1690  0.3812 -0.0306
22731SOL    HW169634   4.296   6.824   3.708 -0.8610 -0.4767  0.2962
22731SOL    HW269635   4.364   6.810   3.843  0.9184  1.0379 -0.4041
22732SOL     OW69636   5.462   3.675   0.480  0.0380  0.4411  0.0533
22732SOL    HW169637   5.473   3.755   0.531  0.9332 -0.3692  1.1814
22732SOL    HW269638   5.445   3.607   0.545  1.3854 -0.6563 -0.6736
22733SOL     OW69639   3.106   1.226   2.547 -0.3414 -0.7019  0.1572
22733SOL    HW169640   3.057   1.151   2.581  0.3216 -0.8813  0.7340
22733SOL    HW269641   3.046   1.267   2.484 -1.8070 -0.1284  1.8269
22734SOL     OW69642   3.467   6.709   9.443  0.2151  0.2117  0.3256
22734SOL    HW169643   3.457   6.619   9.473  0.7804 -1.0836 -3.0327
22734SOL    HW269644   3.545   6.708   9.387  0.4299  2.9005  0.4181
22735SOL     OW69645   0.356   0.649   0.274  0.4768 -0.3234  0.3047
22735SOL    HW169646   0.440   0.629   0.234 -0.0359 -1.6811 -0.1384
22735SOL    HW269647   0.369   0.631   0.367  1.0330  0.7277  0.4460
22736SOL     OW69648   7.573   6.194   0.657 -0.1391  0.4149  0.0253
22736SOL    HW169649   7.624   6.113   0.659  0.2647  0.6661  0.0053
22736SOL    HW269650   7.488   6.171   0.696  0.5443  0.3746  1.5631
22737SOL     OW69651   3.792   1.076   8.773  0.0960 -0.2839 -0.1246
22737SOL    HW169652   3.778   1.025   8.692  0.7356  0.1589 -0.5217
22737SOL    HW269653   3.770   1.166   8.748  0.2771 -0.1499  0.2005
22738SOL     OW69654   0.026   6.411  10.754  0.8035  0.1136  0.2698
22738SOL    HW169655  -0.057   6.369  10.731 -0.2715  1.3730  1.6950
22738SOL    HW269656   0.019   6.499  10.718  1.9903 -0.0996 -0.5235
22739SOL     OW69657   2.795   3.082  10.827  0.4210 -0.3765  0.4144
22739SOL    HW169658   2.747   3.001  10.811  1.4567 -1.1552  1.1086
22739SOL    HW269659   2.887   3.058  10.813  0.5967  1.6077 -3.2308
22740SOL     OW69660   4.476   5.180   3.938 -0.0681  0.1011  0.1441
22740SOL    HW169661   4.504   5.270   3.955  0.7091 -0.1666  0.3227
22740SOL    HW269662   4.381   5.183   3.945 -0.0096  0.7790  0.8078
22741SOL     OW69663   7.679   5.618  10.371  0.0450  0.2323  0.1545
22741SOL    HW169664   7.702   5.531  10.404 -1.5011 -0.1084  0.3943
22741SOL    HW269665   7.667   5.671  10.450  0.6241  0.5722  0.0166
22742SOL     OW69666   7.482   3.089   9.242 -0.1402  0.6377  0.4823
22742SOL    HW169667   7.534   3.028   9.188 -1.6117  0.5282 -0.8856
22742SOL    HW269668   7.533   3.170   9.242 -0.2436  0.7599 -1.4379
22743SOL     OW69669   6.027   4.133   6.852  0.1201  0.0601  0.4416
22743SOL    HW169670   6.096   4.194   6.826 -1.3096  1.1717 -0.9232
22743SOL    HW269671   6.029   4.135   6.948  1.6572  0.4162  0.4265
22744SOL     OW69672   0.619   4.517  12.338  0.2015 -0.2535  0.2352
22744SOL    HW169673   0.690   4.453  12.336  0.5601  0.0511  1.9055
22744SOL    HW269674   0.539   4.464  12.340  0.4601 -0.6410  0.4983
22745SOL     OW69675   4.010   4.431   3.931  0.5621  0.7120  0.3637
22745SOL    HW169676   4.026   4.481   4.011 -0.1986  0.5123  0.6457
22745SOL    HW269677   4.000   4.340   3.961  1.0689  0.5118 -0.0509
22746SOL     OW69678   2.349   4.302   2.816  1.0880  0.6464  0.0126
22746SOL    HW169679   2.278   4.238   2.809  1.1426  0.5489  0.3224
22746SOL    HW269680   2.428   4.253   2.792  1.0396  0.7743 -0.4060
22747SOL     OW69681   5.332   1.437  10.173 -0.3618 -0.2309  0.4315
22747SOL    HW169682   5.333   1.488  10.254  0.0502  1.1078 -0.4007
22747SOL    HW269683   5.423   1.435  10.143 -0.8872  1.9056 -1.5666
22748SOL     OW69684   3.470   4.872   5.996  0.4472  0.0403  0.1212
22748SOL    HW169685   3.391   4.917   5.967  0.2923  0.2395  0.8246
22748SOL    HW269686   3.539   4.903   5.938 -0.0475 -0.3921 -0.7234
22749SOL     OW69687   5.662   1.752   4.749 -0.2102  0.1675 -0.4111
22749SOL    HW169688   5.569   1.740   4.768  0.2773  0.7836  3.0478
22749SOL    HW269689   5.689   1.823   4.807  2.7476 -1.0541 -0.1286
22750SOL     OW69690   0.087   0.047   0.324 -0.2941  0.0410  0.9453
22750SOL    HW169691   0.035   0.126   0.310 -0.3538  0.0713  1.3348
22750SOL    HW269692   0.022  -0.024   0.323 -0.0987 -0.1611 -0.7617
22751SOL     OW69693   0.777   3.425   7.372 -0.1874  0.2736 -0.3643
22751SOL    HW169694   0.730   3.508   7.363  2.1801  1.7399 -0.0422
22751SOL    HW269695   0.737   3.382   7.448 -0.9347  1.4685 -0.0631
22752SOL     OW69696   6.324   7.345   2.546  0.2499 -0.0726 -0.7100
22752SOL    HW169697   6.367   7.263   2.572  0.2939  0.8507  2.5802
22752SOL    HW269698   6.396   7.403   2.522  0.4665 -0.0790 -0.0904
22753SOL     OW69699   2.956   5.470   5.444  0.2347 -0.2638 -0.1662
22753SOL    HW169700   2.880   5.510   5.487  1.1159  1.8352 -0.4891
22753SOL    HW269701   2.990   5.409   5.509  0.6168  1.6980  1.5701
22754SOL     OW69702   2.054   5.739   9.604  0.3507  0.1458 -0.4548
22754SOL    HW169703   2.101   5.658   9.588 -0.1346 -0.1049 -0.6201
22754SOL    HW269704   2.073   5.761   9.695 -0.7558 -0.9673  0.0602
22755SOL     OW69705   5.472   1.472   0.607  0.0133  0.3236 -0.3829
22755SOL    HW169706   5.478   1.566   0.595 -1.5989  0.7379  1.6535
22755SOL    HW269707   5.507   1.456   0.694  2.8175 -1.3853 -1.6730
22756SOL     OW69708   4.200   4.633   6.897  0.0226 -0.2718  0.0174
22756SOL    HW169709   4.202   4.609   6.989  1.4757 -0.7411 -0.1011
22756SOL    HW269710   4.171   4.553   6.852 -2.1389  0.3750  0.1315
22757SOL     OW69711   4.107   4.193   7.620  0.1127  0.1738 -0.5803
22757SOL    HW169712   4.015   4.188   7.594  0.1490  0.7371 -0.8487
22757SOL    HW269713   4.104   4.217   7.713 -0.0229 -2.1489  0.0832
22758SOL     OW69714   4.597   6.464   6.500 -0.4466  0.0820  0.4260
22758SOL    HW169715   4.514   6.500   6.471 -0.8986 -0.7499  0.6767
22758SOL    HW269716   4.622   6.519   6.575  0.7922  2.3288 -1.4782
22759SOL     OW69717   4.647   5.572   4.345  0.2043  0.6018 -0.1138
22759SOL    HW169718   4.668   5.510   4.415 -1.4669  0.0737 -0.0333
22759SOL    HW269719   4.582   5.631   4.383  0.4819  1.3257 -0.7316
22760SOL     OW69720   5.952   0.113   5.037 -1.0069 -0.3931  0.3153
22760SOL    HW169721   6.013   0.170   4.990 -1.4418 -0.2224 -0.0585
22760SOL    HW269722   6.006   0.042   5.071 -0.2355  0.8627  1.8585
22761SOL     OW69723   1.161   6.086   7.321 -0.0913 -0.0430 -0.4542
22761SOL    HW169724   1.147   6.177   7.295  2.0005 -0.0104 -1.7720
22761SOL    HW269725   1.217   6.050   7.251  1.0040 -1.6779  1.1702
22762SOL     OW69726   5.557   6.384   6.829 -0.2263  0.3060  0.7067
22762SOL    HW169727   5.551   6.479   6.835  1.0666  0.4573 -0.1788
22762SOL    HW269728   5.597   6.367   6.744  0.8579 -0.9807  1.4376
22763SOL     OW69729   2.825   4.519   6.505  0.1256  0.0127 -0.6739
22763SOL    HW169730   2.874   4.440   6.483  0.3178  0.3655 -1.5661
22763SOL    HW269731   2.817   4.566   6.422  1.6534  1.8554  0.1439
22764SOL     OW69732   2.112   5.802   2.115  0.1540  0.3239  0.1600
22764SOL    HW169733   2.031   5.852   2.108  1.0426  1.7206 -0.8016
22764SOL    HW269734   2.174   5.863   2.156  1.0456 -0.2544 -0.2840
22765SOL     OW69735   0.163   7.286   4.238 -0.0941 -0.2023  0.0853
22765SOL    HW169736   0.199   7.304   4.325 -1.1616  3.5116 -0.0623
22765SOL    HW269737   0.081   7.240   4.254  0.2899 -0.6055  0.9347
22766SOL     OW69738   5.455   1.421  10.856 -0.4357 -0.4098  0.0654
22766SOL    HW169739   5.434   1.514  10.858  2.3315  0.3263 -0.9662
22766SOL    HW269740   5.526   1.411  10.920 -0.0706 -1.6371 -0.5045
22767SOL     OW69741   3.781   6.480   4.392  0.3876 -0.3071  0.1313
22767SOL    HW169742   3.747   6.391   4.378  2.1262 -0.9623 -0.2260
22767SOL    HW269743   3.796   6.514   4.304 -0.9553  0.6449  0.2510
22768SOL     OW69744   7.316   3.513   2.753 -0.0651  0.0325 -0.0908
22768SOL    HW169745   7.314   3.599   2.796  1.0048  0.3477 -0.6387
22768SOL    HW269746   7.340   3.452   2.824  0.1533  0.3296  0.0964
22769SOL     OW69747   2.277   7.523  12.269 -1.0007  0.3550 -0.2354
22769SOL    HW169748   2.217   7.595  12.250 -1.0504  0.2083 -0.6426
22769SOL    HW269749   2.234   7.446  12.233 -1.0128  0.0986  0.3266
22770SOL     OW69750   3.734   1.273   0.609 -0.4456  0.0165  0.3570
22770SOL    HW169751   3.809   1.312   0.653  0.2166 -0.2143 -0.5467
22770SOL    HW269752   3.760   1.182   0.594  0.1059  0.5086 -2.1049
22771SOL     OW69753   3.874   3.858   2.084  0.3773  0.0845  0.0667
22771SOL    HW169754   3.841   3.922   2.021 -0.3629  2.3113  2.5091
22771SOL    HW269755   3.812   3.785   2.078  0.2584  0.2797 -1.6337
22772SOL     OW69756   0.428   4.713   7.355  0.1439 -0.5617  0.5914
22772SOL    HW169757   0.425   4.704   7.450  0.2637 -1.0899  0.5506
22772SOL    HW269758   0.348   4.670   7.325 -0.0482 -0.1240  0.4701
22773SOL     OW69759   7.247   5.777   0.010 -0.4488 -0.3803 -0.0970
22773SOL    HW169760   7.163   5.823   0.006  0.1349  0.6400 -1.1549
22773SOL    HW269761   7.303   5.834   0.063  0.0147 -0.3034 -0.6593
22774SOL     OW69762   7.473   2.875   0.545  0.1807 -0.4644  0.0390
22774SOL    HW169763   7.496   2.877   0.638 -0.1886 -1.4096  0.1607
22774SOL    HW269764   7.479   2.966   0.517 -2.2613  0.2927  1.6339
22775SOL     OW69765   1.331   2.074   3.330  0.0833  0.1077 -0.2892
22775SOL    HW169766   1.380   2.057   3.410  1.1230  0.3309 -0.8572
22775SOL    HW269767   1.256   2.015   3.334  1.1522 -1.2682 -0.0484
22776SOL     OW69768   2.492   4.498   8.515  0.5322  1.1971 -0.3517
22776SOL    HW169769   2.541   4.416   8.517 -0.7502  0.4077  1.8281
22776SOL    HW269770   2.462   4.506   8.424  3.0931  0.7977 -1.3095
22777SOL     OW69771   1.592   1.387   2.359  0.1158  0.6301 -0.6003
22777SOL    HW169772   1.521   1.394   2.422 -0.0775  0.3483 -0.7832
22777SOL    HW269773   1.643   1.311   2.389 -0.5490 -0.1345 -1.3375
22778SOL     OW69774   6.550   6.832   1.073 -0.4120 -0.2794  0.1844
22778SOL    HW169775   6.630   6.870   1.110 -0.2738  0.1984 -0.5663
22778SOL    HW269776   6.488   6.905   1.068 -0.7828 -0.5737  0.4498
22779SOL     OW69777   3.381   0.332   9.626  0.5937  0.1415 -0.2132
22779SOL    HW169778   3.430   0.289   9.555 -0.2683  1.6120 -1.7921
22779SOL    HW269779   3.351   0.414   9.587 -1.5674  0.1335  1.2730
22780SOL     OW69780   1.813   6.163   7.050 -0.2655  0.1998  0.0199
22780SOL    HW169781   1.850   6.250   7.062 -1.1735  0.4586  1.1434
22780SOL    HW269782   1.783   6.137   7.138  1.5443 -1.9811  0.0722
22781SOL     OW69783   0.893   0.394   9.920 -0.1676  0.2422 -0.8342
22781SOL    HW169784   0.883   0.299   9.914 -0.2225 -0.0579  2.5621
22781SOL    HW269785   0.865   0.416  10.008  2.5030  3.0496 -0.5206
22782SOL     OW69786   3.903   0.427   1.143  0.1562  0.5657  0.4453
22782SOL    HW169787   3.828   0.477   1.111  1.0553  1.6304 -0.0618
22782SOL    HW269788   3.903   0.347   1.091 -0.1067  0.9744 -0.1987
22783SOL     OW69789   3.152   0.536  12.287  0.2018  0.0368 -0.1807
22783SOL    HW169790   3.214   0.494  12.228  1.5530  2.1241 -0.3356
22783SOL    HW269791   3.123   0.615  12.240 -3.8919 -1.5682 -0.8262
22784SOL     OW69792   5.518   3.222   5.118  0.3793  0.4043  0.0677
22784SOL    HW169793   5.521   3.254   5.208 -0.0462  0.7069 -0.0256
22784SOL    HW269794   5.444   3.267   5.078  0.0677 -0.3268 -0.2079
22785SOL     OW69795   7.074   4.996   5.964  0.0120 -0.2811  0.0817
22785SOL    HW169796   7.008   4.992   6.034  0.8280  1.5585  1.0182
22785SOL    HW269797   7.045   5.068   5.908  0.1762 -0.7696 -0.6539
22786SOL     OW69798   6.842   7.647  12.004 -0.3325  0.5964  0.3176
22786SOL    HW169799   6.816   7.573  12.058  2.7091 -1.3002 -0.6134
22786SOL    HW269800   6.805   7.628  11.918  3.5192 -2.1197 -1.0165
22787SOL     OW69801   2.412   4.948   4.731 -0.3487 -0.0676 -0.8796
22787SOL    HW169802   2.399   4.913   4.819 -0.2207 -1.0240 -1.2320
22787SOL    HW269803   2.450   5.035   4.745  1.7246 -1.0605  0.0003
22788SOL     OW69804   5.003   1.026  10.683 -0.0115 -0.2943 -0.0314
22788SOL    HW169805   4.916   0.986  10.685  0.2020 -0.7781 -0.3460
22788SOL    HW269806   5.020   1.041  10.590 -0.2170  0.8210  0.0910
22789SOL     OW69807   3.447   6.325   2.680 -0.0789  0.4510  0.3051
22789SOL    HW169808   3.430   6.411   2.641  1.8186 -0.2480 -2.3389
22789SOL    HW269809   3.437   6.263   2.608 -0.7536 -1.5333  1.9863
22790SOL     OW69810   6.979   2.376   0.608  0.4785  0.0958 -0.3490
22790SOL    HW169811   6.952   2.402   0.520  0.4059 -1.6767 -0.8857
22790SOL    HW269812   6.983   2.280   0.605  2.0912  0.0726  1.1122
22791SOL     OW69813   6.925   4.992   2.828  0.3848 -0.1168 -0.1381
22791SOL    HW169814   6.953   4.958   2.743 -2.8856  0.4622 -1.5809
22791SOL    HW269815   6.869   4.923   2.864 -1.0019  1.0060 -0.0614
22792SOL     OW69816   2.025   0.556   4.628 -0.4519  0.1143 -0.2483
22792SOL    HW169817   2.085   0.520   4.562 -0.6367  1.7909 -1.3793
22792SOL    HW269818   2.075   0.553   4.710 -0.5446 -2.8914 -0.1940
22793SOL     OW69819   5.320   5.760  11.547 -0.1486 -0.2153 -0.3536
22793SOL    HW169820   5.313   5.731  11.638 -1.8704  0.2443 -0.3160
22793SOL    HW269821   5.235   5.799  11.527 -0.3040 -1.4979 -2.5755
22794SOL     OW69822   7.084   3.804   4.718 -0.7281 -0.0982 -0.2314
22794SOL    HW169823   7.111   3.781   4.807 -1.1506  0.7552  0.1249
22794SOL    HW269824   7.160   3.847   4.680 -0.2642 -1.1775 -0.5774
22795SOL     OW69825   5.704   3.160   6.023  0.3006 -0.0583  0.3358
22795SOL    HW169826   5.670   3.101   6.091 -0.6958  0.4340  0.2924
22795SOL    HW269827   5.796   3.174   6.046  0.0230 -0.0292  1.4961
22796SOL     OW69828   0.011   2.843  11.053  0.6818  0.1206  0.2037
22796SOL    HW169829  -0.000   2.797  11.137 -1.9735  1.1210  0.4860
22796SOL    HW269830   0.089   2.896  11.065 -0.1551  0.9620  2.4332
22797SOL     OW69831   2.977   1.882  12.118 -0.0688  0.3029  0.2157
22797SOL    HW169832   2.979   1.890  12.023  0.4737 -3.0125 -0.1535
22797SOL    HW269833   3.068   1.895  12.145  0.1348 -0.6701  0.0348
22798SOL     OW69834   7.537   6.779   5.052 -0.1411 -0.0652  0.1315
22798SOL    HW169835   7.613   6.759   4.998 -0.9748  0.1117 -1.1606
22798SOL    HW269836   7.572   6.791   5.140  1.3817  0.5321 -0.5292
22799SOL     OW69837   2.787   5.115   1.728 -0.0630  0.2695  0.0782
22799SOL    HW169838   2.784   5.196   1.780  0.9636  0.9942 -0.9570
22799SOL    HW269839   2.878   5.086   1.733  0.0653  0.3756 -1.3257
22800SOL     OW69840   6.752   3.766   6.622  0.0491  0.4851 -0.8471
22800SOL    HW169841   6.713   3.800   6.702  0.0576 -0.2142 -0.5349
22800SOL    HW269842   6.731   3.672   6.623  2.7596 -0.2134 -0.0173
22801SOL     OW69843   7.101   5.407   5.204 -0.2441  0.6588  0.2946
22801SOL    HW169844   7.113   5.502   5.209  0.9795  0.5866 -0.8026
22801SOL    HW269845   7.148   5.373   5.280  0.7138  0.8382 -0.2078
22802SOL     OW69846   7.858   4.382  11.061  0.4908  0.2969 -0.1773
22802SOL    HW169847   7.795   4.450  11.034 -0.1751 -0.3225 -0.2132
22802SOL    HW269848   7.927   4.430  11.106  0.1170  1.0234 -0.3587
22803SOL     OW69849   2.737   6.069   2.577 -0.2685 -0.0140  0.1629
22803SOL    HW169850   2.776   6.000   2.524 -0.7320  1.1381 -1.7437
22803SOL    HW269851   2.794   6.144   2.566  0.0565  0.0531  1.9670
22804SOL     OW69852   7.486   3.568   8.867 -0.0353  0.4652 -0.0652
22804SOL    HW169853   7.503   3.500   8.932  0.8775  1.5947  0.9217
22804SOL    HW269854   7.519   3.532   8.785 -0.5693 -0.7011  0.2116
22805SOL     OW69855   1.630   4.834   3.471 -0.7466  0.3394 -0.3297
22805SOL    HW169856   1.695   4.822   3.402  0.0260  0.7934  0.2946
22805SOL    HW269857   1.654   4.770   3.538 -0.2848  1.2042  0.3599
22806SOL     OW69858   1.120   6.018   5.100 -0.1909 -0.5748 -0.0661
22806SOL    HW169859   1.122   6.051   5.190 -1.1286  0.4112 -0.3896
22806SOL    HW269860   1.105   5.924   5.110 -0.9627 -0.3813  0.8132
22807SOL     OW69861   2.223   6.817   0.292  0.0556 -0.4578 -0.2288
22807SOL    HW169862   2.236   6.869   0.213  1.2935 -0.9006 -0.3497
22807SOL    HW269863   2.155   6.754   0.270  0.5102 -0.6854 -1.0028
22808SOL     OW69864   0.127   3.819   0.863 -0.1455 -0.0851  0.1123
22808SOL    HW169865   0.172   3.796   0.782  1.3850  0.0258  0.8816
22808SOL    HW269866   0.073   3.743   0.883 -0.2416 -0.2651 -0.8195
22809SOL     OW69867   1.839   1.764   6.192  0.0146  0.1844 -0.0582
22809SOL    HW169868   1.884   1.832   6.242  1.4311 -0.5124 -0.3370
22809SOL    HW269869   1.875   1.771   6.104 -1.4781  0.5240 -0.6766
22810SOL     OW69870   5.786   4.341   9.871 -0.2073  0.9788 -0.4310
22810SOL    HW169871   5.855   4.319   9.933  0.2020 -1.3199 -1.6063
22810SOL    HW269872   5.705   4.338   9.923  0.1982 -0.2225  0.1616
22811SOL     OW69873   2.457   2.469   7.525  0.1302 -0.0544  0.5618
22811SOL    HW169874   2.508   2.492   7.447 -0.3864  1.5444  0.6644
22811SOL    HW269875   2.463   2.545   7.582 -2.5477  0.3175  0.4915
22812SOL     OW69876   0.706   0.040   0.837  0.4291 -0.2416 -0.0762
22812SOL    HW169877   0.759  -0.039   0.845 -1.0170 -1.0759  2.3234
22812SOL    HW269878   0.749   0.104   0.893 -0.4662 -0.5979  1.0574
22813SOL     OW69879   2.956   3.795  11.393  0.0074  0.4688 -0.1706
22813SOL    HW169880   2.971   3.708  11.356  1.1837  0.4063  0.3797
22813SOL    HW269881   2.980   3.786  11.485  0.1658  1.3741 -0.1090
22814SOL     OW69882   5.147   6.511  12.314 -0.3848 -0.4446  0.0914
22814SOL    HW169883   5.242   6.497  12.316 -0.5911 -2.0753 -0.4311
22814SOL    HW269884   5.115   6.470  12.394 -0.7542 -0.9216 -0.2915
22815SOL     OW69885   7.312   6.217   4.074  0.0205 -0.0387 -0.0045
22815SOL    HW169886   7.235   6.253   4.117 -0.8031 -1.4761 -0.1926
22815SOL    HW269887   7.387   6.253   4.122 -0.8182 -0.0744  1.3766
22816SOL     OW69888   3.935   1.443   8.849 -0.1967 -0.0940 -0.1050
22816SOL    HW169889   3.982   1.381   8.792 -0.1169 -0.7657  0.6770
22816SOL    HW269890   3.843   1.426   8.832 -0.1743 -0.3986  0.0779
22817SOL     OW69891   3.004   1.438   8.786  0.1912 -0.3571  0.2329
22817SOL    HW169892   2.989   1.510   8.847  1.7710  0.0656  0.1625
22817SOL    HW269893   3.098   1.442   8.766 -0.5778  1.2224 -4.3379
22818SOL     OW69894   0.657   3.571   8.151 -0.1322 -0.0508  0.3222
22818SOL    HW169895   0.616   3.581   8.237  0.0283 -0.3245  0.4303
22818SOL    HW269896   0.638   3.653   8.105 -3.6155 -1.3187 -0.8446
22819SOL     OW69897   1.859   5.647   3.316  0.2471 -0.1564  0.9350
22819SOL    HW169898   1.915   5.590   3.369  1.2750  1.5352  1.7452
22819SOL    HW269899   1.811   5.700   3.380 -1.4418 -0.7523  0.2174
22820SOL     OW69900   1.758   4.478   0.302  0.1261  0.0585  0.8751
22820SOL    HW169901   1.839   4.459   0.255 -0.0974  0.3463  0.3710
22820SOL    HW269902   1.761   4.572   0.319 -0.9053  0.4100 -0.6951
22821SOL     OW69903   2.323   3.971   7.244  0.0805  0.5554  0.3631
22821SOL    HW169904   2.415   3.982   7.222 -0.1388  1.3837 -0.1854
22821SOL    HW269905   2.302   4.048   7.296  0.2975 -0.8065  2.5924
22822SOL     OW69906   2.276   2.731   0.258 -0.2193 -0.3581 -0.6129
22822SOL    HW169907   2.346   2.736   0.194 -1.3349 -3.2636 -2.2986
22822SOL    HW269908   2.295   2.652   0.309 -0.5578  0.6459  1.1479
22823SOL     OW69909   5.125   4.251   3.474 -0.2070  0.3840 -0.1669
22823SOL    HW169910   5.124   4.202   3.392 -1.0131 -0.7567  0.4918
22823SOL    HW269911   5.208   4.227   3.515 -1.3453 -1.9663  0.9795
22824SOL     OW69912   0.833   2.740   7.837 -0.0144 -0.5812  0.1004
22824SOL    HW169913   0.916   2.693   7.848  1.3922  1.3938 -1.4422
22824SOL    HW269914   0.809   2.767   7.925  1.1500 -0.8962  0.5274
22825SOL     OW69915   3.601   1.911   5.393 -0.2294 -0.0331  0.0407
22825SOL    HW169916   3.679   1.858   5.374 -0.2662 -0.0494 -0.0631
22825SOL    HW269917   3.623   1.998   5.359 -0.0454  0.0989  0.4894
22826SOL     OW69918   7.125   2.852   2.031  0.1667  0.6871 -0.5560
22826SOL    HW169919   7.112   2.933   2.079  0.6345  0.4852 -0.0812
22826SOL    HW269920   7.056   2.794   2.063  1.8158 -0.2241  1.6121
22827SOL     OW69921   6.834   5.533   1.770  0.5451 -1.1078 -0.5776
22827SOL    HW169922   6.799   5.512   1.683 -1.4325  1.2583 -0.4339
22827SOL    HW269923   6.845   5.628   1.770  0.9018 -1.0903  1.6390
22828SOL     OW69924   2.764   5.715   8.171  0.0370 -0.0518  0.1469
22828SOL    HW169925   2.731   5.704   8.261 -1.7262  2.8794  0.0007
22828SOL    HW269926   2.838   5.774   8.181  0.3231 -0.3371 -0.2769
22829SOL     OW69927   3.118   4.942   1.709 -0.2252  0.3063 -0.0959
22829SOL    HW169928   3.177   4.984   1.772  0.6671 -1.3118  0.2020
22829SOL    HW269929   3.120   4.849   1.732 -0.5743 -0.2089 -1.9530
22830SOL     OW69930   3.310   1.027   6.148  0.2348  0.5487  0.1453
22830SOL    HW169931   3.284   0.963   6.081 -1.2141  0.7541  0.4861
22830SOL    HW269932   3.318   0.975   6.228 -0.9067  0.7577  0.4142
22831SOL     OW69933   5.715   5.656   2.099  0.4615  0.2400  0.0318
22831SOL    HW169934   5.650   5.658   2.169  1.2364  0.2135  0.7633
22831SOL    HW269935   5.749   5.566   2.101  1.0350  0.4552  0.1356
22832SOL     OW69936   4.561   2.227   3.489  0.3372  0.1692  0.4153
22832SOL    HW169937   4.472   2.239   3.455  0.3790  0.7912  0.5023
22832SOL    HW269938   4.551   2.233   3.584  0.6286  1.4756  0.3814
22833SOL     OW69939   6.465   5.220   0.805  0.4555 -0.5813 -0.2926
22833SOL    HW169940   6.559   5.229   0.788  0.6092  1.2690  1.2432
22833SOL    HW269941   6.424   5.284   0.746  0.5376  1.5435  1.8215
22834SOL     OW69942   5.300   0.626   7.718  0.5003 -0.1816  0.3394
22834SOL    HW169943   5.333   0.598   7.633 -3.0524 -0.5252 -1.1157
22834SOL    HW269944   5.290   0.721   7.709 -2.4010 -0.4844 -0.8059
22835SOL     OW69945   3.832   3.508   3.333 -0.1470  0.5498 -0.0422
22835SOL    HW169946   3.889   3.487   3.259 -1.0616 -0.2737 -0.5219
22835SOL    HW269947   3.879   3.474   3.410 -0.0251 -0.1777 -0.4373
22836SOL     OW69948   1.639   7.540  11.333 -0.3709 -0.3354 -0.0953
22836SOL    HW169949   1.635   7.520  11.426 -1.2171  0.0918 -0.0305
22836SOL    HW269950   1.549   7.531  11.303 -0.1058 -0.4521 -0.8741
22837SOL     OW69951   2.276   1.138   6.756 -0.0344  0.2318  0.1032
22837SOL    HW169952   2.243   1.171   6.673  1.4475  0.2294 -0.5190
22837SOL    HW269953   2.339   1.070   6.732  0.4390  0.2417  1.2154
22838SOL     OW69954   1.699   4.207   5.503  0.4415  0.2541  0.7179
22838SOL    HW169955   1.632   4.166   5.557 -2.0582  1.5674 -1.1807
22838SOL    HW269956   1.705   4.153   5.425  2.2732 -0.2965  1.1800
22839SOL     OW69957   6.675   1.105   0.463 -0.0768  0.3253 -0.0250
22839SOL    HW169958   6.736   1.032   0.449 -0.4640 -0.5382  2.3303
22839SOL    HW269959   6.599   1.084   0.409  0.2458 -0.4860 -0.1752
22840SOL     OW69960   0.629   1.497   1.123 -0.5820 -0.5467 -0.3071
22840SOL    HW169961   0.630   1.522   1.215 -1.3122 -0.6378 -0.2720
22840SOL    HW269962   0.706   1.440   1.113  0.1698  0.3880 -0.0247
22841SOL     OW69963   1.998   1.494   1.967 -0.3348  0.1968 -0.1899
22841SOL    HW169964   1.934   1.464   2.031 -0.2213 -0.6356 -0.4615
22841SOL    HW269965   1.965   1.463   1.882  0.1949  0.1418 -0.3827
22842SOL     OW69966   4.981   3.535  10.965 -0.0597 -0.2711 -0.0322
22842SOL    HW169967   5.004   3.622  10.934 -0.1165 -0.3204 -0.2190
22842SOL    HW269968   4.885   3.531  10.956 -0.1407 -0.0646  0.7415
22843SOL     OW69969   0.886   3.749   4.610 -0.2942 -0.2950 -0.1081
22843SOL    HW169970   0.823   3.685   4.644  1.5498 -0.7482  2.8607
22843SOL    HW269971   0.956   3.696   4.571  0.7902 -0.1449  1.5299
22844SOL     OW69972   6.978   3.280   1.642  0.5585 -0.1758  0.2285
22844SOL    HW169973   6.957   3.353   1.700  0.9774 -0.9262  1.3510
22844SOL    HW269974   7.038   3.225   1.693  1.6589 -0.3950 -1.2426
22845SOL     OW69975   6.011   7.358   5.665 -0.3301  0.1855 -0.1408
22845SOL    HW169976   5.942   7.349   5.600 -2.3432 -0.8716  1.9715
22845SOL    HW269977   6.010   7.452   5.687  0.0616  0.4664 -1.2738
22846SOL     OW69978   6.380   6.595   7.626  0.1605  0.1404 -0.1623
22846SOL    HW169979   6.374   6.550   7.710 -1.2484  0.0410 -0.2872
22846SOL    HW269980   6.472   6.620   7.618  0.1980  0.7619  1.7345
22847SOL     OW69981   4.997   2.442   2.284  0.0630  0.0258  0.7194
22847SOL    HW169982   4.919   2.429   2.338 -0.9376 -0.4245 -0.7542
22847SOL    HW269983   5.033   2.354   2.272 -0.7552 -0.1427 -0.7608
22848SOL     OW69984   7.686   5.052   9.336  0.3669  0.5034  0.1366
22848SOL    HW169985   7.597   5.018   9.350  0.7543 -1.0427 -0.9949
22848SOL    HW269986   7.731   5.036   9.419  0.2428 -0.8272 -0.0362
22849SOL     OW69987   4.977   0.486   7.648  0.0877 -0.4623  0.0598
22849SOL    HW169988   4.978   0.391   7.638  0.6797 -0.3991 -0.5339
22849SOL    HW269989   4.889   0.512   7.621 -0.7671 -1.0190  2.1205
22850SOL     OW69990   5.555   7.875   4.482 -0.2950  0.5344  0.2999
22850SOL    HW169991   5.497   7.916   4.547  0.3927 -0.1440  1.3815
22850SOL    HW269992   5.641   7.911   4.501 -0.4043  1.9404 -1.6428
22851SOL     OW69993   2.739   3.344   1.597 -0.0812 -0.6055  0.5634
22851SOL    HW169994   2.812   3.397   1.629 -1.1704  1.7542 -0.6624
22851SOL    HW269995   2.662   3.401   1.603 -1.3231 -2.0153 -0.8450
22852SOL     OW69996   7.044   6.886   8.554  0.7876  0.3951 -0.4696
22852SOL    HW169997   7.124   6.887   8.606  0.2632 -1.5700  0.4558
22852SOL    HW269998   7.056   6.814   8.492 -0.6095 -0.5889  0.3331
22853SOL     OW69999   6.169   5.071   0.675  0.2907  0.2083  0.1719
22853SOL    HW170000   6.129   5.106   0.596 -0.7320  1.7766  1.3142
22853SOL    HW270001   6.152   5.137   0.742  3.1027  0.0438  1.2112
22854SOL     OW70002   0.889   5.054   9.473 -0.0633  0.4714  0.1065
22854SOL    HW170003   0.958   5.029   9.536 -0.3972  1.0655  0.7128
22854SOL    HW270004   0.937   5.071   9.392  0.6220  1.6542  0.7226
22855SOL     OW70005   0.669   0.004   3.971 -0.4347 -0.2188 -0.4897
22855SOL    HW170006   0.714  -0.003   4.056  1.5389  1.2145 -1.3318
22855SOL    HW270007   0.693   0.091   3.939 -1.7425 -0.4549 -2.1948
22856SOL     OW70008   4.565   0.437   0.784 -0.0478 -0.1566  0.4117
22856SOL    HW170009   4.603   0.403   0.865 -1.2809 -1.1320  0.5960
22856SOL    HW270010   4.604   0.384   0.715 -0.0753 -0.2664  0.4813
22857SOL     OW70011   6.991   7.432  10.422 -0.2166 -0.0485 -0.1335
22857SOL    HW170012   6.912   7.486  10.421  0.7896  1.4783  0.0343
22857SOL    HW270013   7.034   7.454  10.505  0.7147 -0.3770 -0.5127
22858SOL     OW70014   1.668   4.479   1.544  0.2648 -0.0451  0.4323
22858SOL    HW170015   1.760   4.466   1.522  0.7650  0.9797  1.8119
22858SOL    HW270016   1.624   4.400   1.510  1.4627 -0.0802 -1.1477
22859SOL     OW70017   5.002   5.963   5.045 -0.3306 -0.8466  0.5055
22859SOL    HW170018   4.977   5.958   4.952 -2.1763  0.0610  0.9015
22859SOL    HW270019   4.925   5.929   5.092 -0.5075  1.1384  1.7797
22860SOL     OW70020   3.712   5.000   6.655 -0.2221 -0.2691 -0.3139
22860SOL    HW170021   3.715   4.936   6.726 -1.0453  0.0138 -0.0077
22860SOL    HW270022   3.782   4.974   6.596  2.0290  0.8159  1.7337
22861SOL     OW70023   4.512   3.428   2.707 -0.4559 -0.5489  0.4067
22861SOL    HW170024   4.520   3.473   2.791  1.3211 -0.1730  0.0931
22861SOL    HW270025   4.518   3.499   2.642 -1.4839 -0.8679 -0.0483
22862SOL     OW70026   3.659   6.686   5.217  0.4877  0.1700 -0.7199
22862SOL    HW170027   3.629   6.601   5.186 -1.4123  0.7735 -0.6703
22862SOL    HW270028   3.626   6.749   5.153 -0.9902  1.1525  0.9184
22863SOL     OW70029   1.602   7.425  11.569  0.4095  0.4410  0.4117
22863SOL    HW170030   1.682   7.394  11.613  0.2527 -2.1335 -0.8883
22863SOL    HW270031   1.536   7.428  11.638  0.4461 -2.4054  0.7254
22864SOL     OW70032   5.701   6.342   3.590 -0.5376  1.2309  0.1137
22864SOL    HW170033   5.725   6.252   3.610  0.6741  1.6156  0.4774
22864SOL    HW270034   5.615   6.354   3.631 -1.4984 -0.2237 -1.3207
22865SOL     OW70035   5.344   1.750   1.331  1.0438  0.3040  0.4939
22865SOL    HW170036   5.372   1.704   1.252  1.7115  2.2446 -0.4796
22865SOL    HW270037   5.293   1.824   1.298  2.1776  1.7323  1.8050
22866SOL     OW70038   6.354   4.137  11.551 -0.2830  0.4652 -0.4046
22866SOL    HW170039   6.446   4.132  11.528 -0.0972  0.6956  0.2565
22866SOL    HW270040   6.317   4.053  11.526  0.8177 -0.9385  2.2955
22867SOL     OW70041   4.203   0.870   5.438 -0.4779  0.5294 -0.0506
22867SOL    HW170042   4.158   0.810   5.377  0.3019  0.4609 -0.5703
22867SOL    HW270043   4.190   0.830   5.524 -2.0814  0.9195 -0.0716
22868SOL     OW70044   1.365   7.213   7.921  0.0785 -0.1575  0.3316
22868SOL    HW170045   1.328   7.170   7.843  0.1277 -0.8307  0.6684
22868SOL    HW270046   1.304   7.190   7.991  0.3765 -0.0808  0.6140
22869SOL     OW70047   2.706   5.557  12.200  0.0683 -0.5124 -0.3280
22869SOL    HW170048   2.684   5.465  12.212 -2.1030 -0.0839 -0.6657
22869SOL    HW270049   2.702   5.595  12.288 -0.5363 -0.4485 -0.3801
22870SOL     OW70050   7.819   5.534   7.035 -0.2605  0.7654  0.5116
22870SOL    HW170051   7.753   5.567   7.095 -0.3406 -1.0124  1.4732
22870SOL    HW270052   7.852   5.455   7.077  1.7328  1.0176 -0.4496
22871SOL     OW70053   7.717   4.453   6.030 -0.2434 -0.4917 -0.0709
22871SOL    HW170054   7.635   4.404   6.029 -0.8858  0.5466 -0.8077
22871SOL    HW270055   7.729   4.480   6.121 -0.8409 -0.4756  0.0041
22872SOL     OW70056   5.640   5.014   4.807  0.1426  0.0835 -0.4288
22872SOL    HW170057   5.630   5.108   4.794 -0.8591 -0.1572 -1.5956
22872SOL    HW270058   5.551   4.979   4.803  0.2356 -0.6944  2.2228
22873SOL     OW70059   5.533   4.562  10.288  0.5737  0.0402  0.1121
22873SOL    HW170060   5.455   4.509  10.307  0.4794  0.9832  2.9365
22873SOL    HW270061   5.598   4.499  10.257 -0.7047 -1.0807 -0.3792
22874SOL     OW70062   4.805   7.761   5.160 -0.3071  0.2394 -0.2280
22874SOL    HW170063   4.830   7.671   5.180 -0.5829  0.2918  0.3640
22874SOL    HW270064   4.842   7.777   5.073  1.1921  0.0980  0.3421
22875SOL     OW70065   1.439   2.533   5.631 -0.3404  0.2620  0.5977
22875SOL    HW170066   1.509   2.478   5.596  1.7649  2.4677  1.0766
22875SOL    HW270067   1.435   2.511   5.724 -0.8929 -0.4143  0.4304
22876SOL     OW70068   5.222   5.773  10.047 -0.7908  0.2768  0.3124
22876SOL    HW170069   5.201   5.736  10.132 -1.8584  1.2927  0.5215
22876SOL    HW270070   5.195   5.707   9.984  0.0143 -0.4828  0.7478
22877SOL     OW70071   1.072   5.758   1.947 -0.1551 -0.3238 -0.2189
22877SOL    HW170072   1.034   5.671   1.948 -0.0045 -0.3876  0.3455
22877SOL    HW270073   1.101   5.773   2.037  0.3722  0.0610 -0.4432
22878SOL     OW70074   0.781   2.194   5.608 -0.6489 -0.3572  0.4373
22878SOL    HW170075   0.811   2.226   5.693 -2.2837  1.1240  0.5051
22878SOL    HW270076   0.859   2.152   5.570  0.0115 -1.5174  2.8297
22879SOL     OW70077   7.202   1.124  10.553 -0.1335 -0.2282  0.8633
22879SOL    HW170078   7.147   1.046  10.557 -1.5363  0.7042  0.4857
22879SOL    HW270079   7.155   1.190  10.604  0.7016  0.5613  0.6529
22880SOL     OW70080   3.709   1.686  10.119 -0.4666 -0.8977  0.0296
22880SOL    HW170081   3.782   1.730  10.073  0.3030 -0.5697  1.5064
22880SOL    HW270082   3.637   1.688  10.056  0.0070  1.1417 -0.5286
22881SOL     OW70083   2.551   4.577   2.109 -0.2923  0.0184  0.0243
22881SOL    HW170084   2.591   4.622   2.183 -1.1736 -0.2231  0.6493
22881SOL    HW270085   2.626   4.551   2.055  0.4208 -0.4238  1.1783
22882SOL     OW70086   2.798   5.637   6.610  0.0537 -0.0062  0.0914
22882SOL    HW170087   2.833   5.700   6.549  1.8993 -1.5140 -0.5101
22882SOL    HW270088   2.705   5.659   6.618 -0.0441  0.8033 -2.5290
22883SOL     OW70089   1.210   5.477   3.064  0.2475  0.7945  0.5450
22883SOL    HW170090   1.182   5.435   2.983 -1.2906  1.3803  0.7404
22883SOL    HW270091   1.129   5.486   3.115  0.8423  2.3286  1.2630
22884SOL     OW70092   2.553   7.867   4.014  0.1104 -0.5681  0.7629
22884SOL    HW170093   2.635   7.818   4.010  0.5578  0.2029 -0.2187
22884SOL    HW270094   2.550   7.904   4.102  0.1528 -1.6847  1.2423
22885SOL     OW70095   2.749   3.201   2.426 -0.0420 -0.5543 -0.0343
22885SOL    HW170096   2.683   3.142   2.463 -1.3554 -0.2578 -1.8114
22885SOL    HW270097   2.829   3.148   2.423 -0.9384 -1.9310 -0.6133
22886SOL     OW70098   7.130   3.412   8.927 -0.4580  0.1559  0.0973
22886SOL    HW170099   7.175   3.478   8.875 -1.6564 -0.7515 -2.2504
22886SOL    HW270100   7.047   3.452   8.951 -0.9615 -0.2959 -0.8706
22887SOL     OW70101   6.074   5.616   3.933 -0.5720  0.1859  0.1790
22887SOL    HW170102   6.098   5.672   4.006  0.0376 -0.7839  0.7441
22887SOL    HW270103   6.120   5.653   3.858  0.0898  0.2511  0.6103
22888SOL     OW70104   3.765   3.149   3.920 -0.5570  0.4871 -0.4235
22888SOL    HW170105   3.860   3.144   3.910 -0.7590  0.9063 -3.1251
22888SOL    HW270106   3.745   3.080   3.984  1.6540  1.4544  1.5057
22889SOL     OW70107   1.318   2.127   0.340 -0.7170  0.0543  0.1080
22889SOL    HW170108   1.262   2.168   0.406 -1.0830  0.8507 -0.6836
22889SOL    HW270109   1.337   2.197   0.277  2.4688  0.2882  1.1246
22890SOL     OW70110   7.374   1.553   2.677  0.1800 -0.1337 -0.0353
22890SOL    HW170111   7.428   1.474   2.681  0.0696 -0.2148 -0.1209
22890SOL    HW270112   7.307   1.540   2.744  0.9425  0.4790  0.8577
22891SOL     OW70113   0.262   0.591   7.515 -0.8086  0.4633  0.7481
22891SOL    HW170114   0.262   0.643   7.435  0.7133  1.1304  1.1544
22891SOL    HW270115   0.353   0.590   7.544 -0.7659 -2.3154  0.8596
22892SOL     OW70116   7.302   0.914  11.677 -0.0104 -0.0560  0.1862
22892SOL    HW170117   7.381   0.919  11.730  0.1264 -1.4115  0.1473
22892SOL    HW270118   7.234   0.887  11.738  0.0808 -1.3034 -0.2408
22893SOL     OW70119   3.536   0.982  11.653 -0.4226  0.0812 -0.1173
22893SOL    HW170120   3.565   0.930  11.728  0.2526 -1.0227 -1.1128
22893SOL    HW270121   3.442   0.964  11.646 -0.5203  0.3110  0.5478
22894SOL     OW70122   5.425   0.666   5.536  0.1043 -0.0135 -0.0656
22894SOL    HW170123   5.435   0.577   5.571  0.4097  0.3150  0.6978
22894SOL    HW270124   5.401   0.719   5.612 -0.1958  0.5431 -0.5380
22895SOL     OW70125   4.382   2.519   4.528  0.1262  0.4386  0.3472
22895SOL    HW170126   4.367   2.479   4.614  0.4832  1.8061  1.0710
22895SOL    HW270127   4.335   2.602   4.532  0.3139  0.6026 -0.7144
22896SOL     OW70128   6.707   4.330   9.987  0.2206  0.7317  0.2301
22896SOL    HW170129   6.637   4.311   9.924  1.4124  1.7568 -1.4963
22896SOL    HW270130   6.699   4.424  10.003  0.6020  0.6700  0.7923
22897SOL     OW70131   7.693   4.379  11.739 -0.0769 -0.0528 -0.5597
22897SOL    HW170132   7.690   4.463  11.785  0.2672  0.0600 -0.7381
22897SOL    HW270133   7.602   4.350  11.736  0.0166 -0.6416  1.2349
22898SOL     OW70134   3.967   7.765   1.695 -0.1023  0.0146  0.4495
22898SOL    HW170135   3.977   7.846   1.745 -1.8274  0.9347 -0.6293
22898SOL    HW270136   3.912   7.788   1.621 -0.4494 -2.0972 -0.0276
22899SOL     OW70137   4.149   7.686   0.300 -0.1818  0.5426  0.2842
22899SOL    HW170138   4.181   7.605   0.261  2.5675  1.9634 -0.6858
22899SOL    HW270139   4.184   7.755   0.244 -2.2784  2.4432  1.1688
22900SOL     OW70140   1.450   5.646   7.649  0.1107 -0.1097  0.1495
22900SOL    HW170141   1.539   5.627   7.681  0.0284  1.2286  1.2464
22900SOL    HW270142   1.458   5.730   7.606 -0.4353 -0.4756 -0.6824
22901SOL     OW70143   4.480   7.865   0.450 -0.0378  0.3910 -0.3112
22901SOL    HW170144   4.463   7.801   0.518  3.0155 -0.0718  0.1887
22901SOL    HW270145   4.476   7.950   0.496 -0.6061  0.2911 -0.1717
22902SOL     OW70146   1.377   2.103   9.644 -0.4324  0.9207  0.4086
22902SOL    HW170147   1.364   2.187   9.600  0.7306  0.2272 -1.3755
22902SOL    HW270148   1.293   2.058   9.633 -0.6053  1.2995  0.1408
22903SOL     OW70149   4.167   2.449   5.901 -0.1283  0.3970  0.0135
22903SOL    HW170150   4.213   2.386   5.957  1.0221  0.3593 -0.9457
22903SOL    HW270151   4.137   2.398   5.827  1.1413  1.0069 -0.9620
22904SOL     OW70152   5.444   0.364   2.139  0.4049  0.6718 -0.2992
22904SOL    HW170153   5.505   0.436   2.153  0.5657  0.2751  1.2036
22904SOL    HW270154   5.499   0.286   2.138 -0.1295  0.0649  3.2325
22905SOL     OW70155   7.503   5.441   9.913  0.3593 -0.1444  0.1061
22905SOL    HW170156   7.517   5.348   9.900  0.2162 -0.4293  1.8016
22905SOL    HW270157   7.407   5.450   9.918  0.4077 -0.2797  2.1365
22906SOL     OW70158   1.161   4.501   4.073 -0.0154  0.5686 -0.5289
22906SOL    HW170159   1.253   4.484   4.053  0.8265  3.4385  0.4283
22906SOL    HW270160   1.133   4.561   4.005 -0.1045  2.4003  1.0462
22907SOL     OW70161   2.378   2.945   9.083  0.1852 -0.2240 -0.3663
22907SOL    HW170162   2.352   2.875   9.023 -0.5916  0.1941 -0.5255
22907SOL    HW270163   2.302   2.959   9.139  0.1811  0.7640 -0.5968
22908SOL     OW70164   7.796   3.417   4.290 -0.2657  0.5326 -0.0124
22908SOL    HW170165   7.872   3.465   4.256 -1.0035  2.6122  1.1140
22908SOL    HW270166   7.731   3.423   4.221  0.2140 -0.3296 -0.5512
22909SOL     OW70167   3.499   1.591   8.033  0.3699 -0.2691  0.1305
22909SOL    HW170168   3.557   1.663   8.009 -0.2741  0.2101 -0.0270
22909SOL    HW270169   3.444   1.627   8.103  0.5260 -0.8463  0.5614
22910SOL     OW70170   7.429   3.665   7.938  0.1640  0.4775  0.1819
22910SOL    HW170171   7.463   3.704   7.857 -1.8935  0.2769 -0.8443
22910SOL    HW270172   7.504   3.617   7.974  1.5968  1.9125 -0.7066
22911SOL     OW70173   2.209   3.248   8.636 -0.1697  0.1732 -0.3240
22911SOL    HW170174   2.262   3.321   8.605  2.6805 -1.0256  1.3444
22911SOL    HW270175   2.239   3.172   8.585 -0.0208 -0.5716  0.8196
22912SOL     OW70176   7.576   4.214   5.592 -0.1436  0.1753 -0.0310
22912SOL    HW170177   7.513   4.160   5.546 -1.2601  1.7022 -0.3823
22912SOL    HW270178   7.527   4.252   5.665  0.9104 -0.1718  0.8848
22913SOL     OW70179   1.697   0.986   2.926 -0.2862  0.0318 -0.4548
22913SOL    HW170180   1.791   0.989   2.944 -0.5489  0.9122  1.0083
22913SOL    HW270181   1.686   1.031   2.843  0.6936 -1.1810 -1.2721
22914SOL     OW70182   1.514   1.658   6.673 -0.2526  0.0133 -0.0951
22914SOL    HW170183   1.486   1.747   6.650 -0.2538  0.1658  0.4960
22914SOL    HW270184   1.571   1.633   6.600 -1.1789  0.0393 -0.8585
22915SOL     OW70185   0.929   5.854   8.873  0.4568 -0.5409 -0.3990
22915SOL    HW170186   1.023   5.869   8.875  0.7194 -1.7563  2.9471
22915SOL    HW270187   0.914   5.786   8.939 -2.7967 -0.2234 -0.6346
22916SOL     OW70188   6.851   4.585  10.934 -0.0102  0.1332 -0.2953
22916SOL    HW170189   6.797   4.618  11.006 -1.6820 -1.6958 -0.6102
22916SOL    HW270190   6.839   4.649  10.864 -0.4671  0.5997  0.1939
22917SOL     OW70191   3.699   7.367   1.790 -0.2277 -0.5139  0.4977
22917SOL    HW170192   3.751   7.396   1.865  0.2724 -2.5612  1.0175
22917SOL    HW270193   3.610   7.359   1.825 -0.1177 -0.8183  0.7212
22918SOL     OW70194   4.000   6.126  10.313 -0.4628 -0.0871  0.3160
22918SOL    HW170195   3.912   6.090  10.307 -1.0048  0.8599  1.9016
22918SOL    HW270196   3.988   6.220  10.303  0.3666  0.0524  0.5732
22919SOL     OW70197   5.565   3.871   3.109 -0.1487 -0.4174  0.1912
22919SOL    HW170198   5.566   3.966   3.094  0.4405 -0.5303 -0.5542
22919SOL    HW270199   5.560   3.862   3.204  0.6346  0.3779  0.3244
22920SOL     OW70200   5.477   1.286   2.496 -0.2907  0.7600  0.1532
22920SOL    HW170201   5.551   1.344   2.481  0.6986 -0.4770  0.1143
22920SOL    HW270202   5.419   1.336   2.553  0.7152  1.6302  0.4475
22921SOL     OW70203   2.071   1.354   5.100 -0.4323  0.9164  0.0448
22921SOL    HW170204   2.112   1.438   5.081 -0.2964  0.9899  0.6698
22921SOL    HW270205   2.117   1.320   5.177 -0.6850  0.4082 -0.0170
22922SOL     OW70206   1.435   6.387  10.563 -0.5101 -0.1477 -0.8136
22922SOL    HW170207   1.432   6.429  10.649 -0.4628  0.5847 -1.1599
22922SOL    HW270208   1.350   6.346  10.553  0.4396 -2.7758  0.7994
22923SOL     OW70209   2.554   3.167  10.959 -0.0108  0.1582 -0.5771
22923SOL    HW170210   2.551   3.189  11.053  0.6361  0.9805 -0.7340
22923SOL    HW270211   2.646   3.177  10.936  0.3304 -2.6043 -0.7364
22924SOL     OW70212   5.247   1.372   7.911 -0.5302 -0.0501 -0.4746
22924SOL    HW170213   5.159   1.339   7.932 -0.1108 -0.1548  1.2238
22924SOL    HW270214   5.265   1.336   7.823 -1.2130 -2.0650  0.1441
22925SOL     OW70215   4.743   4.456  10.230  0.2924  0.0460 -0.2051
22925SOL    HW170216   4.809   4.518  10.199  1.4029  0.0926  2.0649
22925SOL    HW270217   4.778   4.370  10.207 -0.6158  0.1442 -2.1603
22926SOL     OW70218   7.405   5.243   8.640  0.2912 -0.4769 -0.2181
22926SOL    HW170219   7.359   5.172   8.684 -0.3974  0.1412  0.0723
22926SOL    HW270220   7.338   5.287   8.588  0.6038  0.2913  0.0205
22927SOL     OW70221   0.358   7.135   4.770  0.1005 -0.4102  0.3085
22927SOL    HW170222   0.413   7.213   4.764  3.0702 -2.3927 -0.5257
22927SOL    HW270223   0.321   7.138   4.858  0.4993  1.6662  0.4488
22928SOL     OW70224   3.105   4.004   5.674  0.2732  0.3002  0.2746
22928SOL    HW170225   3.108   3.970   5.585 -0.2807  0.0125  0.3630
22928SOL    HW270226   3.021   3.974   5.708  0.9006 -0.4288  1.2274
22929SOL     OW70227   6.399   7.779  10.621  0.7021  0.1763 -0.0269
22929SOL    HW170228   6.365   7.822  10.699  1.1978  3.4777 -1.4628
22929SOL    HW270229   6.330   7.790  10.555  0.0689 -3.0087 -0.0441
22930SOL     OW70230   0.022   5.169   1.589  0.1533 -0.0884 -0.0902
22930SOL    HW170231  -0.069   5.180   1.618 -0.1388  1.1736 -1.3596
22930SOL    HW270232   0.042   5.250   1.543  2.7878  0.7482  2.2856
22931SOL     OW70233   0.179   1.599   7.787 -0.4377  0.1230  0.2651
22931SOL    HW170234   0.134   1.527   7.831 -0.8192  0.0204 -0.2802
22931SOL    HW270235   0.161   1.586   7.694 -1.7453  1.7222  0.2338
22932SOL     OW70236   0.336   7.748   6.937 -0.1005  0.3285  0.6501
22932SOL    HW170237   0.258   7.700   6.962 -0.3184  1.3328  2.0364
22932SOL    HW270238   0.364   7.793   7.017  1.2179  0.9246 -0.0969
22933SOL     OW70239   6.362   6.467   9.100  0.0068 -0.1861  0.0396
22933SOL    HW170240   6.367   6.412   9.022 -1.0632 -1.8453  1.0802
22933SOL    HW270241   6.453   6.488   9.121  0.4100 -1.2098 -0.6292
22934SOL     OW70242   3.262   7.312   7.129  0.2844  0.4105 -0.6017
22934SOL    HW170243   3.166   7.321   7.130  0.2252  0.1391  1.1850
22934SOL    HW270244   3.287   7.319   7.222  1.7679 -1.5727 -0.7814
22935SOL     OW70245   5.879   7.226   1.444 -0.1370 -0.0816 -0.0604
22935SOL    HW170246   5.973   7.237   1.457  0.0005  0.8936 -1.6815
22935SOL    HW270247   5.871   7.173   1.365 -0.9694 -1.1278  0.6928
22936SOL     OW70248   7.176   1.799   3.695 -0.1585  0.0774  0.0515
22936SOL    HW170249   7.202   1.869   3.635 -0.7336  0.3352  0.1010
22936SOL    HW270250   7.247   1.796   3.760  0.9145 -0.7822 -1.0987
22937SOL     OW70251   4.581   4.613   2.488  0.0996  0.0121 -0.2079
22937SOL    HW170252   4.548   4.702   2.503 -1.4646 -0.5120 -0.4243
22937SOL    HW270253   4.569   4.568   2.572  0.8686 -0.0191 -0.1054
22938SOL     OW70254   0.925   7.194   1.158  0.4125 -0.2686  0.2847
22938SOL    HW170255   1.018   7.209   1.175  0.2773 -0.7543  1.5715
22938SOL    HW270256   0.880   7.249   1.222 -0.2399  1.1818 -1.3543
22939SOL     OW70257   4.064   2.112   3.745 -0.4372 -0.3268 -0.3296
22939SOL    HW170258   4.109   2.195   3.728 -0.4563 -0.0039  1.0333
22939SOL    HW270259   4.035   2.082   3.659 -1.7736  1.8743 -0.7469
22940SOL     OW70260   6.371   5.144   2.554  0.9492  0.1963  0.0909
22940SOL    HW170261   6.359   5.050   2.567  2.4020  0.2588  2.4684
22940SOL    HW270262   6.285   5.175   2.523 -0.1062 -1.6268  1.0178
22941SOL     OW70263   7.604   5.809   4.112 -0.2598 -0.4811  0.3385
22941SOL    HW170264   7.561   5.894   4.122  0.6424 -0.1207  1.3145
22941SOL    HW270265   7.698   5.829   4.118 -0.0588 -1.6176  1.3251
22942SOL     OW70266   3.684   6.685   2.164 -0.3431  0.3655 -0.5025
22942SOL    HW170267   3.657   6.745   2.234  1.9006  1.2371 -0.3028
22942SOL    HW270268   3.618   6.616   2.165 -2.6933  2.4960 -0.3432
22943SOL     OW70269   1.878   5.437   6.089  0.0040  0.0062 -0.0871
22943SOL    HW170270   1.891   5.367   6.024  1.5094 -0.0971  0.2851
22943SOL    HW270271   1.882   5.392   6.173 -0.3211  0.3726  0.1265
22944SOL     OW70272   1.249   1.467   9.445  0.1032 -0.2568  0.2278
22944SOL    HW170273   1.218   1.414   9.518  0.2735 -3.0718 -1.6145
22944SOL    HW270274   1.237   1.412   9.368  2.0828  1.6749 -1.6014
22945SOL     OW70275   7.270   3.979   6.899 -0.7280 -0.4605 -0.4160
22945SOL    HW170276   7.320   4.054   6.932 -0.9016 -0.8185  0.6890
22945SOL    HW270277   7.186   3.984   6.945 -0.3753 -1.8883  0.4445
22946SOL     OW70278   7.251   0.398   9.046  0.9634 -0.2324 -0.3946
22946SOL    HW170279   7.340   0.373   9.022  1.5136  1.0229  0.2628
22946SOL    HW270280   7.243   0.490   9.021  0.7028  0.3798  1.7370
22947SOL     OW70281   6.689   5.329   2.299  0.1532 -0.2435  0.0260
22947SOL    HW170282   6.627   5.375   2.357  0.7970  1.7739 -0.7941
22947SOL    HW270283   6.638   5.256   2.264 -1.9762  1.5798 -0.9745
22948SOL     OW70284   3.041   3.408   0.134  0.4608  0.6234  0.2952
22948SOL    HW170285   3.032   3.382   0.226 -0.4639 -1.4729 -0.3204
22948SOL    HW270286   3.033   3.503   0.134 -0.2495  0.5938  2.2973
22949SOL     OW70287   5.913   1.750   9.959 -0.4429 -0.6012  0.2804
22949SOL    HW170288   5.979   1.758  10.028 -0.2746 -1.6139  0.2445
22949SOL    HW270289   5.924   1.661   9.925 -2.1350 -0.9710  0.5945
22950SOL     OW70290   6.923   4.245   1.633 -0.2295 -0.3837 -0.1054
22950SOL    HW170291   6.878   4.249   1.717  1.4993 -0.5630  0.8867
22950SOL    HW270292   6.897   4.326   1.588 -2.0560 -0.8197  0.0970
22951SOL     OW70293   0.095   0.020   5.842 -0.0438 -0.7622 -0.0120
22951SOL    HW170294   0.017  -0.029   5.816 -0.4533 -0.4567  0.6265
22951SOL    HW270295   0.126  -0.025   5.920  0.5565 -1.0220 -0.3968
22952SOL     OW70296   1.686   6.727   5.097  0.0089 -1.0507  0.5966
22952SOL    HW170297   1.774   6.700   5.126 -0.3498 -2.3013  0.5676
22952SOL    HW270298   1.687   6.714   5.003  0.8033  1.9704  0.0783
22953SOL     OW70299   6.973   2.697   7.430 -0.4676  0.3394  0.7103
22953SOL    HW170300   6.921   2.695   7.511 -1.9935 -0.3655 -0.2351
22953SOL    HW270301   7.006   2.608   7.420  1.2848  0.8549  1.4697
22954SOL     OW70302   6.144   3.070   8.384  0.1172 -0.0658 -0.3689
22954SOL    HW170303   6.175   2.993   8.336 -0.0766 -0.2215 -0.2448
22954SOL    HW270304   6.102   3.034   8.462  1.1534  0.2204  0.3386
22955SOL     OW70305   2.928   0.298   1.991  0.2362  0.0252 -0.1610
22955SOL    HW170306   2.950   0.210   2.022 -0.6380  0.7068  2.7469
22955SOL    HW270307   3.012   0.336   1.965  0.9652 -0.9090  0.7484
22956SOL     OW70308   5.977   2.505   9.108  0.6099  0.4599 -0.0376
22956SOL    HW170309   5.933   2.507   9.193 -0.0465 -1.8432 -0.2519
22956SOL    HW270310   6.069   2.493   9.129  0.9803  3.1651  0.3522
22957SOL     OW70311   4.095   1.412  10.588  0.0110 -0.1849  0.0301
22957SOL    HW170312   4.090   1.491  10.643  1.3201 -0.0493  0.0075
22957SOL    HW270313   4.174   1.426  10.535  0.8513 -1.9409  0.7394
22958SOL     OW70314   0.090   1.194   7.011  0.5850  0.1450  0.1501
22958SOL    HW170315   0.155   1.171   6.944  0.7503 -0.0204  0.3663
22958SOL    HW270316   0.084   1.117   7.067  2.4834  1.1973  1.9485
22959SOL     OW70317   3.128   1.369  11.597 -0.2199 -0.2201 -0.3242
22959SOL    HW170318   3.036   1.378  11.620 -0.1220 -1.0387  0.4406
22959SOL    HW270319   3.160   1.297  11.652  0.5260 -0.9199 -1.6290
22960SOL     OW70320   2.086   5.365   3.807  0.3088 -0.1856  0.0414
22960SOL    HW170321   2.093   5.391   3.899 -0.1940 -2.0134  0.6417
22960SOL    HW270322   1.997   5.332   3.798  0.4188 -0.2185 -1.0461
22961SOL     OW70323   0.776   6.244   0.108 -0.2104  0.6103 -0.0361
22961SOL    HW170324   0.694   6.203   0.134  0.5298 -1.4517 -0.7294
22961SOL    HW270325   0.798   6.302   0.180 -1.0208 -0.7269  1.3556
22962SOL     OW70326   1.841   3.845   0.435 -0.3880 -0.2573  0.0497
22962SOL    HW170327   1.918   3.880   0.391 -1.9534  1.7614 -1.3251
22962SOL    HW270328   1.769   3.862   0.374 -2.4153  0.9800  2.5896
22963SOL     OW70329   5.132   7.694   4.977 -0.4941  0.3978  0.0693
22963SOL    HW170330   5.197   7.755   5.010  0.6425 -0.2814 -0.8229
22963SOL    HW270331   5.167   7.666   4.892 -1.5838 -0.5507 -0.0882
22964SOL     OW70332   2.165   5.164   1.256  0.1706 -0.0218 -0.1002
22964SOL    HW170333   2.106   5.110   1.202  0.6213  0.1146 -0.7448
22964SOL    HW270334   2.107   5.209   1.317 -0.6210  1.3047 -1.7282
22965SOL     OW70335   1.083   6.583  11.733  0.1137  0.1248  0.0520
22965SOL    HW170336   1.131   6.631  11.802 -1.9025  0.4017  1.3544
22965SOL    HW270337   1.027   6.650  11.692 -1.1793 -0.6620  0.4586
22966SOL     OW70338   1.100   3.680   4.456 -0.2745 -0.0926 -0.0177
22966SOL    HW170339   1.178   3.687   4.401  0.2137 -1.7287  0.4258
22966SOL    HW270340   1.134   3.671   4.545 -1.0507  2.1055  0.5594
22967SOL     OW70341   5.182   6.468   5.803  0.4967  0.1100 -0.4127
22967SOL    HW170342   5.274   6.491   5.809  0.5269  0.0531 -0.6571
22967SOL    HW270343   5.179   6.373   5.815  0.4249  0.1624  0.0310
22968SOL     OW70344   2.434   4.148   1.251  0.1043 -0.3539  0.0400
22968SOL    HW170345   2.483   4.098   1.316  0.1259 -0.3725  0.0099
22968SOL    HW270346   2.374   4.085   1.212 -0.1289 -0.2673  0.2629
22969SOL     OW70347   4.723   7.445   1.172 -0.1798 -0.2849 -0.5803
22969SOL    HW170348   4.798   7.406   1.128 -0.7420  2.1328 -4.1145
22969SOL    HW270349   4.661   7.373   1.182  2.0614 -2.1040  1.4880
22970SOL     OW70350   2.643   4.468   0.049  0.1999  0.3789  0.2342
22970SOL    HW170351   2.607   4.388   0.088  0.1730  1.0520  1.6491
22970SOL    HW270352   2.618   4.462  -0.044 -1.0384 -0.5682  0.5943
22971SOL     OW70353   3.791   6.658   5.488  0.4883  0.2330  0.7248
22971SOL    HW170354   3.727   6.723   5.518  0.3344 -0.2914  1.5756
22971SOL    HW270355   3.787   6.589   5.554 -0.4630 -1.3781 -0.9531
22972SOL     OW70356   0.716   1.106  11.011 -0.3037 -0.0524 -0.3429
22972SOL    HW170357   0.733   1.026  10.961 -0.7518  0.2315 -0.9653
22972SOL    HW270358   0.687   1.075  11.097  0.0174 -0.5510 -0.4121
22973SOL     OW70359   7.674   3.121   3.688  0.1176 -0.4325 -0.7166
22973SOL    HW170360   7.651   3.044   3.739  3.6361 -0.5118  1.1082
22973SOL    HW270361   7.727   3.088   3.616 -1.3249  0.0620 -2.0646
22974SOL     OW70362   0.458   0.590  11.726 -0.0263 -0.0405 -0.0870
22974SOL    HW170363   0.368   0.619  11.744  0.0426 -0.6646  1.4844
22974SOL    HW270364   0.448   0.510  11.674 -0.3573  0.3409 -0.6076
22975SOL     OW70365   0.061   1.058   8.925  0.0946 -0.8128 -0.0057
22975SOL    HW170366   0.143   1.014   8.948 -0.4040 -0.7315  2.1282
22975SOL    HW270367  -0.003   1.024   8.987 -0.9719  0.8041 -0.1520
22976SOL     OW70368   2.311   6.374   4.447  0.0643 -0.4665  0.3562
22976SOL    HW170369   2.366   6.452   4.437  0.1349 -0.5888 -0.2106
22976SOL    HW270370   2.361   6.304   4.406  0.3837 -0.9934  1.5874
22977SOL     OW70371   5.926   2.277   6.546  0.6840 -0.3673  0.1284
22977SOL    HW170372   5.950   2.203   6.489  0.2036 -0.0155 -0.5331
22977SOL    HW270373   5.848   2.315   6.506  0.8998  0.4812  0.4860
22978SOL     OW70374   5.679   1.615   1.159  0.5282 -0.3656  0.4635
22978SOL    HW170375   5.657   1.601   1.251  0.8854 -1.2960  0.4188
22978SOL    HW270376   5.713   1.705   1.155  0.7132 -0.3960  1.2738
22979SOL     OW70377   4.443   0.492  10.203 -0.2034  0.1926  0.1530
22979SOL    HW170378   4.488   0.409  10.185 -1.7164 -0.6508  0.0691
22979SOL    HW270379   4.470   0.516  10.291  2.2555  0.9909 -0.7290
22980SOL     OW70380   1.850   2.609   2.110 -0.2079  0.3197 -0.2380
22980SOL    HW170381   1.807   2.692   2.130 -1.1933 -0.3602  0.5638
22980SOL    HW270382   1.852   2.563   2.194 -1.0326 -1.0818 -0.9727
22981SOL     OW70383   4.813   0.893  11.818  0.6640 -0.2841 -0.0541
22981SOL    HW170384   4.734   0.844  11.842 -0.2636  1.3043  0.3034
22981SOL    HW270385   4.799   0.980  11.857  1.5816  0.7127 -1.8469
22982SOL     OW70386   6.027   7.717   3.626  0.3758  0.0276  0.6545
22982SOL    HW170387   6.044   7.674   3.542 -0.9949 -1.2369  0.9787
22982SOL    HW270388   6.083   7.673   3.688  1.0528  0.6545  0.5022
22983SOL     OW70389   7.259   3.361   3.267 -0.2641 -0.0535  0.0187
22983SOL    HW170390   7.341   3.359   3.316  0.4062 -1.1405 -1.0930
22983SOL    HW270391   7.199   3.411   3.323  1.2267  1.0465  0.6965
22984SOL     OW70392   5.448   3.462   9.297 -0.3265 -0.2176 -0.1334
22984SOL    HW170393   5.415   3.541   9.253  0.2220 -0.0220 -0.1975
22984SOL    HW270394   5.475   3.493   9.383  0.6569 -0.1679 -0.4474
22985SOL     OW70395   1.994   1.401   3.000  0.2184 -0.1517  0.4963
22985SOL    HW170396   2.050   1.473   2.971 -1.0474  0.4694 -0.5528
22985SOL    HW270397   2.036   1.322   2.965  0.0561  0.3698 -0.9572
22986SOL     OW70398   1.222   3.847   6.717 -0.3251  0.2666  1.2379
22986SOL    HW170399   1.211   3.901   6.639 -1.9759 -1.5972  0.0776
22986SOL    HW270400   1.314   3.860   6.743  0.7801 -0.2556 -1.9900
22987SOL     OW70401   7.651   0.747   4.262  0.1936 -0.0867 -1.2606
22987SOL    HW170402   7.650   0.841   4.241  0.6393 -0.0115 -0.9447
22987SOL    HW270403   7.727   0.736   4.318 -0.5856 -0.4202 -0.2559
22988SOL     OW70404   0.013   1.423   4.278 -0.3028  0.1029  0.4803
22988SOL    HW170405  -0.037   1.367   4.219  1.2926  1.0426 -1.9504
22988SOL    HW270406   0.094   1.375   4.294  0.1191  0.7122  0.2365
22989SOL     OW70407   0.877   6.442   3.726  0.1469 -0.2677  0.1350
22989SOL    HW170408   0.907   6.363   3.771  0.9687  0.5311  1.0255
22989SOL    HW270409   0.787   6.453   3.754  0.7428  0.4028  1.8875
22990SOL     OW70410   3.146   7.460   9.453 -0.0525  0.0554 -0.3884
22990SOL    HW170411   3.137   7.461   9.358  0.5818 -0.3611 -0.4657
22990SOL    HW270412   3.220   7.518   9.471 -0.4621  0.4947 -0.1087
22991SOL     OW70413   2.457   1.396   0.941 -0.3207  0.5800 -0.0151
22991SOL    HW170414   2.382   1.338   0.952 -0.8360  0.9936 -1.2080
22991SOL    HW270415   2.478   1.425   1.030 -1.2225  0.0280  0.3902
22992SOL     OW70416   5.659   5.299   4.816 -0.1529  0.0729  0.1260
22992SOL    HW170417   5.654   5.357   4.892 -0.9306  0.9680 -0.5865
22992SOL    HW270418   5.740   5.324   4.772 -0.0670  0.0488  0.2705
22993SOL     OW70419   2.714   7.068   2.135  0.1807 -0.3635  0.3138
22993SOL    HW170420   2.651   7.012   2.090  1.2801 -1.3317 -0.0768
22993SOL    HW270421   2.742   7.016   2.211  0.0942  0.2885  0.7969
22994SOL     OW70422   6.616   3.089   5.893  0.1682 -0.3583 -0.3390
22994SOL    HW170423   6.557   3.164   5.902  0.1406 -0.1427 -2.0011
22994SOL    HW270424   6.559   3.013   5.895  0.1030 -0.2968  0.4579
22995SOL     OW70425   4.412   4.350   6.393  0.1177  0.5945  0.6570
22995SOL    HW170426   4.439   4.260   6.413  2.1564  1.3938  1.7758
22995SOL    HW270427   4.424   4.397   6.475 -0.3608  2.0281 -0.0736
22996SOL     OW70428   6.126   4.903   2.402  0.3783 -0.7365 -1.0944
22996SOL    HW170429   6.187   4.899   2.477 -1.1173 -0.7692  0.1675
22996SOL    HW270430   6.161   4.973   2.347  0.2568  0.9562  0.8322
22997SOL     OW70431   0.165   4.740   7.886 -0.2464 -0.2758  0.5166
22997SOL    HW170432   0.165   4.832   7.910 -0.7950  0.5932 -2.4163
22997SOL    HW270433   0.251   4.707   7.913 -0.9329  0.3388  3.8734
22998SOL     OW70434   1.400   3.918   8.183 -0.4627 -0.6158 -0.3744
22998SOL    HW170435   1.458   3.843   8.171  0.7887  0.0069  1.5086
22998SOL    HW270436   1.456   3.988   8.216 -2.1509  0.2153  0.8951
22999SOL     OW70437   3.147   1.872   1.632  0.2538 -0.1974 -0.6499
22999SOL    HW170438   3.129   1.928   1.707 -0.9731 -0.5079 -0.6943
22999SOL    HW270439   3.242   1.863   1.631  0.2931 -0.1656  0.8406
23000SOL     OW70440   7.413   6.294   8.687 -0.4147  0.0281 -0.1188
23000SOL    HW170441   7.435   6.325   8.599  1.0530 -0.5084  0.0359
23000SOL    HW270442   7.491   6.247   8.717 -0.2562  1.5717  2.1196
23001SOL     OW70443   2.535   0.172   4.590 -0.2330 -0.5366  0.1019
23001SOL    HW170444   2.592   0.233   4.543 -1.4355  0.1308 -0.5590
23001SOL    HW270445   2.453   0.220   4.602 -1.0159 -1.8140  0.1020
23002SOL     OW70446   6.634   0.255   4.003 -0.2745  0.1508  0.0960
23002SOL    HW170447   6.579   0.249   4.081 -0.7359 -0.1172 -0.2467
23002SOL    HW270448   6.607   0.336   3.960 -0.4179  0.0106 -0.0814
23003SOL     OW70449   4.981   6.561   8.717  0.1235  0.3574  0.1309
23003SOL    HW170450   5.006   6.470   8.703  0.8212  0.6747 -0.7918
23003SOL    HW270451   4.918   6.580   8.648  0.7720  0.8690 -0.3325
23004SOL     OW70452   5.219   2.211   3.221 -0.3208 -0.1951  0.7764
23004SOL    HW170453   5.157   2.260   3.277 -0.9956  1.1948 -1.0845
23004SOL    HW270454   5.287   2.275   3.199 -0.8321 -0.2529 -1.1315
23005SOL     OW70455   1.633   6.876   2.183  0.2071  0.3157 -0.4286
23005SOL    HW170456   1.585   6.921   2.113  0.0738  1.9289  0.6479
23005SOL    HW270457   1.680   6.805   2.138 -1.4443  0.0508 -1.8262
23006SOL     OW70458   7.173   5.846   8.491  0.7557 -0.8550 -0.2137
23006SOL    HW170459   7.249   5.813   8.444  1.7047  0.0840  0.6083
23006SOL    HW270460   7.150   5.927   8.446 -0.7740 -1.9022 -1.4314
23007SOL     OW70461   5.908   7.614   5.432 -0.0329 -0.5892 -0.3092
23007SOL    HW170462   5.909   7.645   5.341 -0.1532 -0.0319 -0.1240
23007SOL    HW270463   5.917   7.694   5.484  0.0884 -0.9139  0.1673
23008SOL     OW70464   3.547   5.415  10.519 -0.2731  0.3603  0.5427
23008SOL    HW170465   3.508   5.498  10.491 -2.3833 -0.7627 -0.0336
23008SOL    HW270466   3.481   5.376  10.577  1.2833 -0.3160  1.9437
23009SOL     OW70467   1.921   2.619   4.066 -0.3422  0.2041 -0.9698
23009SOL    HW170468   1.924   2.549   4.001  0.6257 -0.0417 -0.6851
23009SOL    HW270469   1.856   2.590   4.130 -0.1374 -0.3092 -0.9933
23010SOL     OW70470   3.161   7.394   4.515  0.4716  0.2893 -0.2241
23010SOL    HW170471   3.069   7.410   4.534  0.5889  0.0729  0.5585
23010SOL    HW270472   3.208   7.447   4.580  0.8856 -2.8283  2.2685
23011SOL     OW70473   1.929   0.721   2.507 -0.0801  0.7735  0.1747
23011SOL    HW170474   2.020   0.719   2.476 -0.3187  4.3491 -1.2078
23011SOL    HW270475   1.878   0.688   2.433 -0.0096 -0.4972  0.6692
23012SOL     OW70476   0.137   2.420  10.900 -0.2308 -0.1246 -0.0923
23012SOL    HW170477   0.204   2.466  10.950  1.0213 -1.8078 -0.1617
23012SOL    HW270478   0.056   2.466  10.921  0.8219  1.5372  0.5150
23013SOL     OW70479   4.334   2.887  10.173 -0.3424  0.1570 -0.1101
23013SOL    HW170480   4.308   2.849  10.257 -0.3305  1.2172  0.3811
23013SOL    HW270481   4.416   2.843  10.151 -1.5162 -1.8418 -0.7426
23014SOL     OW70482   3.606   0.750   7.967  0.6079 -0.2779  0.2787
23014SOL    HW170483   3.564   0.689   7.908 -0.8486 -0.8165  1.7807
23014SOL    HW270484   3.675   0.699   8.010  2.4537  0.4245 -1.7009
23015SOL     OW70485   7.289   3.338   7.701  0.1388  0.8882 -0.2241
23015SOL    HW170486   7.381   3.357   7.719  0.0367 -0.2740  1.8292
23015SOL    HW270487   7.241   3.410   7.745  0.0118 -0.0649  1.2768
23016SOL     OW70488   3.842   1.392   7.184  0.0585 -0.6142  0.0349
23016SOL    HW170489   3.892   1.473   7.185 -0.0786 -0.5159 -0.4244
23016SOL    HW270490   3.884   1.336   7.249 -0.0372 -0.0627  0.5829
23017SOL     OW70491   2.285   5.860   3.872  0.6655  0.3245  0.0872
23017SOL    HW170492   2.304   5.828   3.783 -1.2702 -0.8234  0.0304
23017SOL    HW270493   2.240   5.943   3.858  0.3852  0.1582 -0.0058
23018SOL     OW70494   1.028   0.307   9.036 -0.4846 -0.0634  0.3386
23018SOL    HW170495   0.996   0.248   8.968 -1.1930  0.4681  0.1960
23018SOL    HW270496   0.949   0.334   9.083 -0.2203  1.0093  0.1968
23019SOL     OW70497   3.116   0.532   9.912  0.7113  0.1430 -0.0749
23019SOL    HW170498   3.100   0.621   9.881 -0.0683  0.2615  0.6260
23019SOL    HW270499   3.030   0.489   9.906  0.3110  0.4207  2.6482
23020SOL     OW70500   4.939   6.904   2.870  0.3357  0.1422 -0.7254
23020SOL    HW170501   4.902   6.917   2.782 -0.7598  0.4536 -0.2291
23020SOL    HW270502   4.867   6.870   2.922  1.0696 -0.3713 -0.0157
23021SOL     OW70503   7.919   4.981  12.068  0.3420  0.2086  0.2241
23021SOL    HW170504   7.889   5.070  12.090 -1.3178 -0.6202  1.5918
23021SOL    HW270505   7.865   4.924  12.123  1.2427 -1.6732 -0.7663
23022SOL     OW70506   6.437   4.934   3.841  0.1200 -0.3589 -0.0562
23022SOL    HW170507   6.439   5.010   3.782 -0.1389  0.1015  0.5240
23022SOL    HW270508   6.346   4.929   3.870  0.3329 -0.3403  0.6206
23023SOL     OW70509   1.181   2.378   5.319  0.3549 -0.5467  0.0713
23023SOL    HW170510   1.151   2.376   5.228  0.8617 -1.1251 -0.0945
23023SOL    HW270511   1.266   2.333   5.317  1.1577  0.8724  0.5420
23024SOL     OW70512   5.126   1.502   9.439 -0.8775 -0.5481 -0.4085
23024SOL    HW170513   5.145   1.424   9.491  1.5493 -1.0788 -1.9496
23024SOL    HW270514   5.099   1.468   9.354 -3.0346  0.3269 -0.1387
23025SOL     OW70515   7.645   4.642   7.191 -0.1155  0.4608  0.1589
23025SOL    HW170516   7.566   4.590   7.210 -0.1216  0.7984  1.1246
23025SOL    HW270517   7.717   4.579   7.197 -0.3879 -0.1571 -2.1030
23026SOL     OW70518   4.287   6.638   2.032 -0.3391 -0.9371 -0.4215
23026SOL    HW170519   4.228   6.649   1.958 -1.6517 -0.3808  0.6751
23026SOL    HW270520   4.245   6.572   2.087 -0.1762 -0.2301  0.5855
23027SOL     OW70521   5.747   0.428   4.701  0.1207 -0.2419 -0.3523
23027SOL    HW170522   5.758   0.469   4.787  1.3508 -0.4899 -0.3725
23027SOL    HW270523   5.676   0.365   4.713  0.5931 -0.6127  0.6220
23028SOL     OW70524   5.712   3.363   9.932  0.1234 -0.0566  0.4839
23028SOL    HW170525   5.720   3.270   9.913  1.3871  0.1417 -0.0702
23028SOL    HW270526   5.743   3.372  10.022 -1.4924 -0.3630  1.1022
23029SOL     OW70527   5.576   0.850   6.727 -0.0784 -0.0358  0.0194
23029SOL    HW170528   5.488   0.870   6.695  0.3522 -0.6760 -1.6277
23029SOL    HW270529   5.565   0.773   6.782 -0.7693  0.8694  1.2040
23030SOL     OW70530   7.125   3.060  12.311  0.1816  0.0415 -0.5010
23030SOL    HW170531   7.158   3.120  12.244  0.4419  1.6314  0.9780
23030SOL    HW270532   7.195   3.054  12.376 -1.3836  1.6230  1.5198
23031SOL     OW70533   6.309   7.177   8.169  0.2634 -0.1839  0.0396
23031SOL    HW170534   6.397   7.183   8.206  0.5963 -0.0578 -0.7602
23031SOL    HW270535   6.253   7.220   8.234  0.5820 -1.4493  1.1948
23032SOL     OW70536   5.126   7.454   7.021  0.3221  0.5318  0.1163
23032SOL    HW170537   5.217   7.438   7.049 -0.1806 -1.9758  0.5499
23032SOL    HW270538   5.074   7.446   7.101 -0.5608 -1.1857 -0.5786
23033SOL     OW70539   5.643   2.724   9.683  0.3073 -0.0221 -0.3560
23033SOL    HW170540   5.578   2.779   9.725  0.0657 -0.7675  0.2748
23033SOL    HW270541   5.692   2.685   9.756  1.1335  0.1411 -0.8115
23034SOL     OW70542   3.519   6.281   7.309  0.0530 -0.2156 -0.1045
23034SOL    HW170543   3.460   6.356   7.308 -0.8536 -0.9048  0.3906
23034SOL    HW270544   3.474   6.214   7.256  1.8397  0.2779 -2.4341
23035SOL     OW70545   7.488   0.592  11.484  0.0273 -0.2455  0.0187
23035SOL    HW170546   7.439   0.598  11.566 -0.3485  1.7434 -0.3126
23035SOL    HW270547   7.433   0.537  11.427 -0.8181  0.2422  0.3480
23036SOL     OW70548   5.064   1.996   0.806 -0.2678  0.0789 -0.2831
23036SOL    HW170549   4.987   2.052   0.819  0.1234  0.5722 -0.0779
23036SOL    HW270550   5.129   2.030   0.867 -0.1103 -0.7700  0.0298
23037SOL     OW70551   2.300   5.434   1.797  0.5313 -0.4330  0.5549
23037SOL    HW170552   2.310   5.344   1.766  0.9005 -0.5233  0.9392
23037SOL    HW270553   2.340   5.488   1.728 -0.0461 -0.5332  0.1341
23038SOL     OW70554   0.169   6.806  12.094 -0.2430 -0.0397  0.4229
23038SOL    HW170555   0.197   6.721  12.128 -2.6990  0.0715  3.0041
23038SOL    HW270556   0.079   6.792  12.065 -0.2554  1.4165 -0.3254
23039SOL     OW70557   5.476   4.329   5.777 -0.6436  0.2690  0.1601
23039SOL    HW170558   5.389   4.355   5.808 -0.4317 -0.0518  1.0583
23039SOL    HW270559   5.488   4.377   5.695 -0.8534  1.8853  1.0308
23040SOL     OW70560   6.752   5.097  12.149  0.0791 -0.1648  0.1399
23040SOL    HW170561   6.833   5.083  12.197 -0.0050  1.8719  0.9909
23040SOL    HW270562   6.757   5.038  12.074  1.3894 -1.5600  1.2662
23041SOL     OW70563   5.313   5.952   4.053 -0.5305  0.1700 -0.4867
23041SOL    HW170564   5.332   6.045   4.040  0.1377  0.3875  1.7458
23041SOL    HW270565   5.219   5.945   4.037 -0.3355  0.8938 -2.2370
23042SOL     OW70566   6.260   1.962   5.833 -0.5746 -0.8816 -0.4995
23042SOL    HW170567   6.339   1.946   5.884  1.2603 -2.9104 -3.6783
23042SOL    HW270568   6.277   2.044   5.788 -1.4769  0.0253  0.7322
23043SOL     OW70569   7.072   7.068   7.227 -0.0506  0.3816  0.4980
23043SOL    HW170570   7.128   7.020   7.287 -2.4563 -1.4522  1.4623
23043SOL    HW270571   6.993   7.087   7.278 -1.9103 -0.6051 -1.8163
23044SOL     OW70572   4.855   1.784   4.632 -0.2880 -0.4500  0.1416
23044SOL    HW170573   4.925   1.748   4.577  1.4722  0.1707  1.8617
23044SOL    HW270574   4.808   1.707   4.664  0.5283 -0.9848  0.0957
23045SOL     OW70575   4.179   1.924   9.328 -0.5724  0.1554 -0.0224
23045SOL    HW170576   4.228   1.953   9.404  0.2569  0.8788 -0.8047
23045SOL    HW270577   4.123   1.853   9.360 -0.6944  0.8600  1.3712
23046SOL     OW70578   0.238   2.469   8.064 -0.1289 -0.1243  0.2005
23046SOL    HW170579   0.253   2.440   7.974  1.9729  0.5549  0.2856
23046SOL    HW270580   0.219   2.562   8.057  0.3992  0.0078  0.4782
23047SOL     OW70581   7.865   6.957   4.218 -0.1772  0.0277 -0.0177
23047SOL    HW170582   7.952   6.960   4.178  0.3502  1.6615  1.1245
23047SOL    HW270583   7.831   7.045   4.207 -1.0263 -0.1677  0.9420
23048SOL     OW70584   7.237   4.323   0.834 -1.0961  0.6942  0.0712
23048SOL    HW170585   7.234   4.384   0.907  1.5558  1.4322 -0.3235
23048SOL    HW270586   7.285   4.369   0.765  0.1045 -1.4136 -0.6226
23049SOL     OW70587   4.489   6.533   6.111  0.0571  0.2314  0.6066
23049SOL    HW170588   4.476   6.444   6.144 -1.4878 -0.5780 -1.9576
23049SOL    HW270589   4.413   6.582   6.141 -0.1344  0.1415  0.2646
23050SOL     OW70590   1.044   2.735   4.231  0.4829 -0.6678 -0.4072
23050SOL    HW170591   1.073   2.821   4.261  1.3912 -1.0776 -0.0957
23050SOL    HW270592   1.036   2.683   4.311 -1.2937 -0.5419 -0.4453
23051SOL     OW70593   2.655   6.758   5.072 -0.0296 -0.5570 -0.2484
23051SOL    HW170594   2.624   6.676   5.032  0.2534  0.0709 -1.8311
23051SOL    HW270595   2.593   6.824   5.043 -0.1561 -0.1584  0.8753
23052SOL     OW70596   2.924   7.122   3.883  0.0411  0.1392  0.2217
23052SOL    HW170597   2.906   7.150   3.973 -0.1672  0.1142  0.1881
23052SOL    HW270598   2.891   7.193   3.828  1.2194  0.6849  0.2057
23053SOL     OW70599   5.935   1.868  10.600 -0.9783  0.3630 -0.4803
23053SOL    HW170600   5.936   1.815  10.521 -1.8549  0.2329 -0.4053
23053SOL    HW270601   5.873   1.938  10.582  0.4305  1.5996 -0.7218
23054SOL     OW70602   0.333   6.202   9.856 -0.2763 -0.4928  0.0827
23054SOL    HW170603   0.316   6.197   9.762  1.8487  0.1392 -0.3798
23054SOL    HW270604   0.253   6.242   9.892 -1.1107 -0.7217 -1.4290
23055SOL     OW70605   4.831   7.866   4.162  0.1414 -0.4240 -0.0264
23055SOL    HW170606   4.923   7.844   4.176 -0.1469 -0.6602  1.7880
23055SOL    HW270607   4.786   7.782   4.162 -0.3735 -0.2141  1.9890
23056SOL     OW70608   3.784   2.967   5.817  0.1664  0.3922  0.0245
23056SOL    HW170609   3.713   2.986   5.756 -0.7845 -1.0884  0.6113
23056SOL    HW270610   3.832   2.895   5.776 -0.4538 -0.5864  0.9794
23057SOL     OW70611   1.704   6.332   7.463 -0.2556 -0.3316 -0.6145
23057SOL    HW170612   1.666   6.264   7.407  1.0689 -1.0757 -0.6429
23057SOL    HW270613   1.661   6.413   7.435 -1.4250 -1.0562 -0.9936
23058SOL     OW70614   0.690   4.908  11.352 -0.1762  0.2016  0.1095
23058SOL    HW170615   0.672   4.966  11.277 -0.6628 -0.4223 -0.2606
23058SOL    HW270616   0.685   4.966  11.428 -0.9732  0.5978 -0.2295
23059SOL     OW70617   7.294   4.341   5.386  0.0034  0.5158  0.5018
23059SOL    HW170618   7.228   4.312   5.449 -0.2176  1.1131  0.5548
23059SOL    HW270619   7.287   4.278   5.314 -1.1530  0.9887  0.1687
23060SOL     OW70620   6.002   7.636   5.159  0.0586 -0.0215 -0.6593
23060SOL    HW170621   6.053   7.676   5.230  0.1000 -2.1689  0.6084
23060SOL    HW270622   6.055   7.651   5.080  1.3183  0.1739  0.1871
23061SOL     OW70623   6.826   1.797   4.365  0.6838  0.3068 -0.0671
23061SOL    HW170624   6.859   1.887   4.356  1.3073  0.0270 -0.6972
23061SOL    HW270625   6.767   1.801   4.440 -1.8446  1.9802 -1.9820
23062SOL     OW70626   6.958   7.623   2.076 -0.1689 -0.6934 -0.6874
23062SOL    HW170627   6.882   7.588   2.030 -0.4087 -0.0235 -0.8154
23062SOL    HW270628   6.922   7.661   2.156  0.4077 -3.1124  0.8099
23063SOL     OW70629   1.561   4.421   1.178  0.2817  0.1582  0.7864
23063SOL    HW170630   1.466   4.427   1.166  0.3146  0.2725  0.5905
23063SOL    HW270631   1.577   4.329   1.201  0.3424 -0.3228 -1.0529
23064SOL     OW70632   2.659   0.628   1.016 -0.3595 -0.6643 -0.1685
23064SOL    HW170633   2.577   0.646   1.063 -0.1579 -0.4925  0.1188
23064SOL    HW270634   2.720   0.601   1.084 -0.1664 -0.7604 -0.3807
23065SOL     OW70635   7.669   5.677   5.812 -0.4382  0.0989  0.2284
23065SOL    HW170636   7.700   5.587   5.810 -1.1331 -0.1501 -1.2753
23065SOL    HW270637   7.648   5.694   5.903  0.2332 -1.0696  0.6164
23066SOL     OW70638   2.477   4.411   5.668 -0.1156 -0.1023  0.1086
23066SOL    HW170639   2.453   4.503   5.655  0.1735 -0.1081 -0.4699
23066SOL    HW270640   2.393   4.366   5.676 -0.3118 -0.0872 -1.6556
23067SOL     OW70641   5.020   7.053   5.571  0.3049 -0.8729  0.6222
23067SOL    HW170642   5.093   7.062   5.632 -0.1522 -1.6009  1.2977
23067SOL    HW270643   5.002   6.959   5.569 -1.2558 -0.6214  1.2509
23068SOL     OW70644   5.764   6.241   5.649 -0.6928  0.2088 -0.2142
23068SOL    HW170645   5.743   6.169   5.590 -0.1835  0.1594 -0.3401
23068SOL    HW270646   5.779   6.316   5.591  2.8657 -0.5117 -0.4691
23069SOL     OW70647   1.087   6.971   3.476  0.0420  0.7798 -0.2100
23069SOL    HW170648   1.144   6.898   3.501  0.5483  1.2213 -0.0618
23069SOL    HW270649   1.121   7.046   3.525  0.4232  1.4423 -1.4598
23070SOL     OW70650   4.543   0.893   4.139  0.1757  0.0109  0.7063
23070SOL    HW170651   4.448   0.880   4.135  0.4067 -1.5446 -1.1644
23070SOL    HW270652   4.558   0.931   4.225 -2.3011  1.8519  0.4360
23071SOL     OW70653   3.413   2.079   7.311 -0.2640 -0.0803 -0.1392
23071SOL    HW170654   3.482   2.096   7.248  0.8980  1.1249  1.3708
23071SOL    HW270655   3.336   2.125   7.276 -0.4115 -1.5666 -1.9109
23072SOL     OW70656   3.990   3.979   3.217  0.6912 -0.6766 -0.5494
23072SOL    HW170657   4.072   4.022   3.193  0.5851 -0.2834 -0.2166
23072SOL    HW270658   4.008   3.886   3.205  1.4075 -0.6488  0.1575
23073SOL     OW70659   5.406   7.022   6.389 -0.0578  0.7360 -0.3227
23073SOL    HW170660   5.353   6.947   6.364 -1.1042  1.1914  0.4368
23073SOL    HW270661   5.495   6.997   6.367 -0.1205 -1.4873  1.5708
23074SOL     OW70662   1.980   1.561   4.818  0.0038  0.4069  0.2076
23074SOL    HW170663   1.889   1.550   4.845  0.7368 -0.7230  2.4281
23074SOL    HW270664   2.032   1.528   4.892  2.2201 -1.4978 -1.9970
23075SOL     OW70665   7.167   7.824   0.081 -0.2543  0.1453 -0.1929
23075SOL    HW170666   7.081   7.822   0.037  0.3475 -0.5865 -1.3993
23075SOL    HW270667   7.214   7.895   0.037 -0.0414  0.1758  0.0844
23076SOL     OW70668   5.102   7.797   8.870  0.5072 -0.7333 -0.0390
23076SOL    HW170669   5.109   7.760   8.781 -0.0038 -0.9252 -0.0067
23076SOL    HW270670   5.069   7.724   8.923  1.0712 -0.6980  0.3667
23077SOL     OW70671   2.599   1.947  12.350 -0.5228 -0.5268  0.1726
23077SOL    HW170672   2.607   1.892  12.429 -1.0785  0.5341  0.9873
23077SOL    HW270673   2.556   1.890  12.286 -1.2674 -0.9907  1.0578
23078SOL     OW70674   1.017   5.389   1.173 -0.0359 -0.0433 -0.6751
23078SOL    HW170675   1.014   5.426   1.261  1.0386  2.4136 -1.5777
23078SOL    HW270676   1.052   5.301   1.185  0.5250  0.4013  1.3109
23079SOL     OW70677   6.183   4.016   3.722  0.3769 -0.0517 -0.4564
23079SOL    HW170678   6.270   4.025   3.759  0.5294 -2.2228 -0.1354
23079SOL    HW270679   6.197   3.977   3.636 -0.1875  1.4215 -1.2430
23080SOL     OW70680   4.752   0.790   9.064  0.0854 -0.0526  0.0058
23080SOL    HW170681   4.716   0.877   9.084 -1.4887 -0.9772  1.4205
23080SOL    HW270682   4.829   0.782   9.120  0.1041  0.3343  0.0377
23081SOL     OW70683   3.831   1.914   4.886 -0.2922  0.3352  0.2573
23081SOL    HW170684   3.912   1.874   4.855 -0.1255 -0.8257  2.0258
23081SOL    HW270685   3.858   1.975   4.954 -0.8692 -0.0025  0.8089
23082SOL     OW70686   1.602   2.239   6.404  0.2207  0.0208  0.2825
23082SOL    HW170687   1.551   2.252   6.324 -0.5708  2.3108  1.0515
23082SOL    HW270688   1.601   2.145   6.419 -1.2362 -0.2776 -1.3605
23083SOL     OW70689   3.780   2.700   2.227 -0.4644 -0.0367  0.5818
23083SOL    HW170690   3.805   2.735   2.313  2.3008 -1.8519  0.6527
23083SOL    HW270691   3.826   2.616   2.222 -1.2999 -0.4127 -2.3324
23084SOL     OW70692   5.726   1.596   4.986 -0.0005 -0.3105  0.0371
23084SOL    HW170693   5.654   1.657   4.970  0.6957  0.3394 -0.7060
23084SOL    HW270694   5.786   1.609   4.913  1.6041  0.2097  1.3768
23085SOL     OW70695   1.057   6.906   2.777  0.1448 -0.1115  0.3785
23085SOL    HW170696   1.135   6.855   2.755 -0.3826 -1.5860  1.7422
23085SOL    HW270697   0.984   6.853   2.746 -0.3836  0.4918  0.5656
23086SOL     OW70698   1.616   6.420   3.919  0.2876  0.5408 -0.6038
23086SOL    HW170699   1.583   6.366   3.846  0.5538  1.4734 -1.4421
23086SOL    HW270700   1.623   6.359   3.992 -1.7595 -0.0367 -0.8263
23087SOL     OW70701   3.033   0.638   8.185  0.4641  0.4441 -0.1941
23087SOL    HW170702   3.032   0.668   8.276 -2.0784  0.2991 -0.1123
23087SOL    HW270703   3.056   0.545   8.190  1.3091  0.6670  0.1944
23088SOL     OW70704   4.857   1.918   6.228 -0.0680  0.5250 -0.4240
23088SOL    HW170705   4.781   1.961   6.267 -1.3848 -2.0380  0.0031
23088SOL    HW270706   4.920   1.910   6.300 -0.6327 -0.0623  0.0123
23089SOL     OW70707   5.004   1.335   4.288 -0.2916 -0.6992 -0.7298
23089SOL    HW170708   5.086   1.326   4.240  0.8626 -0.2606  1.0598
23089SOL    HW270709   4.950   1.262   4.257  1.1291 -1.5782 -1.2500
23090SOL     OW70710   5.591   3.594  10.007  0.2852 -0.3357 -0.0243
23090SOL    HW170711   5.622   3.504  10.006  0.4487 -0.2970  0.6533
23090SOL    HW270712   5.511   3.591  10.060 -0.7268 -0.3814 -1.4978
23091SOL     OW70713   6.129   4.962  10.449  0.3966 -0.1214 -0.5851
23091SOL    HW170714   6.056   4.900  10.447  0.7691 -0.7410  1.6386
23091SOL    HW270715   6.207   4.907  10.435  0.6094  0.0777 -0.2154
23092SOL     OW70716   3.160   5.164  11.218  0.4560  0.5889  0.4205
23092SOL    HW170717   3.087   5.125  11.170  1.9763 -1.4495 -0.3701
23092SOL    HW270718   3.215   5.202  11.149  1.0294  0.5433  0.8521
23093SOL     OW70719   6.606   7.004   9.813  0.3761  0.0204 -0.3058
23093SOL    HW170720   6.609   7.097   9.791 -0.0296 -0.1994 -1.3365
23093SOL    HW270721   6.552   6.964   9.745  0.5218 -0.9714  0.1327
23094SOL     OW70722   1.882   4.387   8.804  0.3438  0.3950 -0.0719
23094SOL    HW170723   1.888   4.474   8.843  1.1769  0.3180 -0.0108
23094SOL    HW270724   1.949   4.387   8.735  2.6887 -1.2477  2.0353
23095SOL     OW70725   2.763   3.576   7.531  0.2602 -0.5430 -0.6254
23095SOL    HW170726   2.847   3.595   7.489 -0.1421 -1.3690 -1.8456
23095SOL    HW270727   2.700   3.631   7.484 -0.0882 -0.9300 -0.6074
23096SOL     OW70728   5.860   7.018   7.483 -0.2491  0.0784  0.5093
23096SOL    HW170729   5.848   7.057   7.396 -1.3994 -0.4533  0.4131
23096SOL    HW270730   5.936   7.063   7.519 -0.0951  0.7034 -0.5522
23097SOL     OW70731   4.944   0.907   2.132 -0.5524 -0.2471  0.1219
23097SOL    HW170732   4.996   0.987   2.122 -0.0255 -0.3429  1.8067
23097SOL    HW270733   4.872   0.917   2.070 -0.0548  1.1714 -0.2554
23098SOL     OW70734   2.496   7.908  10.636  0.2038  0.4029  0.2842
23098SOL    HW170735   2.581   7.927  10.595  1.2712  0.9550  2.5251
23098SOL    HW270736   2.496   7.962  10.715 -2.1389  0.1666  0.5160
23099SOL     OW70737   1.704   6.213   8.098  0.0039  0.3085 -0.1216
23099SOL    HW170738   1.753   6.268   8.037 -0.7981  0.9508 -0.2031
23099SOL    HW270739   1.687   6.269   8.173  2.9642 -1.1013  1.8199
23100SOL     OW70740   2.170   4.833   3.664  0.1925  0.0851  0.5589
23100SOL    HW170741   2.111   4.812   3.737  0.2677 -0.7211  0.4033
23100SOL    HW270742   2.188   4.926   3.673 -0.6644  0.2196  0.9323
23101SOL     OW70743   2.169   6.344  11.388  0.6890  0.1474 -0.2995
23101SOL    HW170744   2.172   6.318  11.480  1.6227  0.9585 -0.0862
23101SOL    HW270745   2.182   6.439  11.390 -1.3526  0.5031 -1.1359
23102SOL     OW70746   6.232   1.194   7.193  0.7391 -0.1297  0.0805
23102SOL    HW170747   6.285   1.272   7.180  0.0240  0.2537 -0.6067
23102SOL    HW270748   6.245   1.142   7.114 -1.6267  1.0212 -1.1804
23103SOL     OW70749   6.103   5.804  10.252  0.1396  0.0451  0.5483
23103SOL    HW170750   6.119   5.711  10.267 -1.8966 -0.8380 -1.8734
23103SOL    HW270751   6.022   5.822  10.299  0.0430  0.3442  0.2697
23104SOL     OW70752   7.155   5.440   3.150 -0.0496  0.0391  0.2715
23104SOL    HW170753   7.187   5.527   3.127  1.0247 -0.4135 -0.0418
23104SOL    HW270754   7.209   5.414   3.225  0.6695 -0.9273 -0.5524
23105SOL     OW70755   1.169   1.374  10.057  0.0631 -0.1425 -0.8547
23105SOL    HW170756   1.126   1.439  10.113 -0.6520  0.5654 -2.1636
23105SOL    HW270757   1.098   1.319  10.024  0.4000 -0.2402 -1.4400
23106SOL     OW70758   3.177   2.340   2.857 -0.3710  0.1179 -0.4405
23106SOL    HW170759   3.103   2.377   2.808 -0.8532  1.0340  0.9052
23106SOL    HW270760   3.147   2.340   2.948  1.3645  0.7376  0.1739
23107SOL     OW70761   2.417   0.985   5.399  0.3436  0.5106  0.7313
23107SOL    HW170762   2.486   0.931   5.360 -1.3510 -0.4072 -1.1223
23107SOL    HW270763   2.453   1.074   5.397  1.3797  0.0952 -0.4301
23108SOL     OW70764   4.947   2.542  10.498  0.0664 -0.1994 -0.1033
23108SOL    HW170765   5.003   2.555  10.421 -0.2986  0.6411 -0.2376
23108SOL    HW270766   4.859   2.560  10.467 -0.0666  0.3251  0.5550
23109SOL     OW70767   0.798   6.538   3.075  0.0890 -0.6557  0.2209
23109SOL    HW170768   0.835   6.520   2.988 -1.3007 -1.0445 -0.3040
23109SOL    HW270769   0.714   6.579   3.057  1.3289  2.7808  1.3798
23110SOL     OW70770   0.526   2.097  10.009  0.4635 -0.1615 -0.8984
23110SOL    HW170771   0.494   2.008  10.024  1.1641 -0.3780 -0.6080
23110SOL    HW270772   0.594   2.109  10.076  0.1019  0.7368 -0.6761
23111SOL     OW70773   0.122   1.598   7.088  0.6759  0.2734  0.1890
23111SOL    HW170774   0.068   1.626   7.014  0.1127  0.6205  0.7297
23111SOL    HW270775   0.059   1.578   7.157  1.0946 -1.5084  0.1109
23112SOL     OW70776   0.692   7.010  10.693 -0.2534  0.2234  0.6730
23112SOL    HW170777   0.650   7.028  10.608  0.6041 -0.1319  0.1654
23112SOL    HW270778   0.752   7.083  10.706 -0.9573  0.6899  1.3632
23113SOL     OW70779   4.816   0.308   1.323  0.4294 -0.3929  0.2128
23113SOL    HW170780   4.874   0.304   1.399 -0.3651 -1.5825  0.7927
23113SOL    HW270781   4.805   0.216   1.296 -1.2154 -0.2140  0.1589
23114SOL     OW70782   0.476   7.202   8.432  0.2354  0.5863  0.3685
23114SOL    HW170783   0.544   7.140   8.460 -0.1256 -0.0952 -0.2377
23114SOL    HW270784   0.518   7.255   8.364 -0.6621 -1.8812 -2.3235
23115SOL     OW70785   7.631   4.078   7.356 -0.5165 -0.4080 -0.0852
23115SOL    HW170786   7.610   4.170   7.369 -0.6802 -0.2055 -1.6009
23115SOL    HW270787   7.723   4.077   7.328 -0.8635 -0.5769 -1.2735
23116SOL     OW70788   1.156   3.688   1.535 -0.3212  0.2131  0.5609
23116SOL    HW170789   1.082   3.731   1.493 -0.7638  0.3961  1.5209
23116SOL    HW270790   1.116   3.620   1.589  0.3577 -1.6074 -1.0798
23117SOL     OW70791   1.612   5.500   3.707 -0.3791  0.3167 -0.1084
23117SOL    HW170792   1.582   5.550   3.782 -0.4263  0.4646 -0.2253
23117SOL    HW270793   1.675   5.437   3.743 -0.3053  0.4729  0.0350
23118SOL     OW70794   4.310   7.541   1.456  0.6720 -0.0076 -0.7756
23118SOL    HW170795   4.223   7.519   1.489  0.9343 -0.9357 -0.6984
23118SOL    HW270796   4.368   7.528   1.531  1.1308 -1.1650 -1.3159
23119SOL     OW70797   4.091   7.671  11.395 -0.3297 -0.0296 -0.4637
23119SOL    HW170798   4.105   7.703  11.484 -0.8441 -0.0141 -0.3817
23119SOL    HW270799   4.176   7.636  11.368  0.2784  1.4436 -0.5713
23120SOL     OW70800   3.871   7.752  10.177  0.1582  0.5031 -0.1893
23120SOL    HW170801   3.964   7.773  10.170  0.4711 -0.9239 -0.6473
23120SOL    HW270802   3.867   7.680  10.241 -0.3958 -0.6945 -1.5009
23121SOL     OW70803   0.188   7.305   8.705 -0.0700  0.3281  0.1026
23121SOL    HW170804   0.169   7.239   8.772 -0.3320  0.4675  0.1626
23121SOL    HW270805   0.104   7.322   8.662 -0.0679  0.8615  0.3021
23122SOL     OW70806   5.637   1.568   9.863  0.1868 -0.3541  0.0613
23122SOL    HW170807   5.633   1.662   9.877 -0.0728 -0.4203  0.4273
23122SOL    HW270808   5.623   1.529   9.949  0.7887 -0.7242  0.0066
23123SOL     OW70809   5.863   5.516   2.670  0.3685 -0.1585  0.4180
23123SOL    HW170810   5.931   5.570   2.711 -0.2188  1.0141 -0.1138
23123SOL    HW270811   5.817   5.576   2.611 -0.3605 -1.2280 -0.1299
23124SOL     OW70812   4.316   2.563   2.545 -0.6202 -0.0985 -0.4768
23124SOL    HW170813   4.332   2.657   2.544  0.1511 -0.1876 -2.5241
23124SOL    HW270814   4.390   2.526   2.591 -1.3285  0.3214  1.0523
23125SOL     OW70815   1.948   4.165   8.987 -0.2674 -0.4967  0.1807
23125SOL    HW170816   2.011   4.230   9.019 -0.5687 -0.6543  1.1409
23125SOL    HW270817   1.895   4.212   8.923 -1.3969  0.6372  1.8641
23126SOL     OW70818   5.649   2.901   2.384  0.0039 -0.3862  0.6479
23126SOL    HW170819   5.635   2.846   2.461 -1.2027  1.0282  1.4816
23126SOL    HW270820   5.744   2.910   2.378  0.1374 -1.0656  1.5552
23127SOL     OW70821   5.941   5.627   5.958  0.1675  0.0762  0.2390
23127SOL    HW170822   5.982   5.691   6.016 -1.2904  0.6259  0.7088
23127SOL    HW270823   5.956   5.663   5.870 -1.0674  1.3869  0.5189
23128SOL     OW70824   4.204   1.099   5.310 -0.3357  0.2528 -0.5789
23128SOL    HW170825   4.124   1.146   5.335 -0.9239 -1.1742  0.3569
23128SOL    HW270826   4.221   1.040   5.383  1.7054  0.6337 -0.6842
23129SOL     OW70827   0.649   5.185   2.079 -0.0236 -0.4774 -0.4939
23129SOL    HW170828   0.710   5.118   2.050 -1.0286 -1.1928 -1.0323
23129SOL    HW270829   0.676   5.264   2.033  2.8261  0.2620  2.1277
23130SOL     OW70830   4.187   0.125   6.585 -0.1561  0.1637  0.0509
23130SOL    HW170831   4.258   0.186   6.568  2.9427 -2.4904  2.3234
23130SOL    HW270832   4.220   0.040   6.556 -2.8797 -1.0607  0.1933
23131SOL     OW70833   6.003   4.079   5.201 -0.3896  0.2372 -0.0734
23131SOL    HW170834   5.949   4.031   5.138  0.9318 -0.5417 -0.6497
23131SOL    HW270835   6.093   4.057   5.177  0.1706  0.7158  1.4848
23132SOL     OW70836   0.107   1.156   0.312  0.0927  0.1165  0.1854
23132SOL    HW170837   0.064   1.172   0.228  1.2757 -0.0814 -0.4781
23132SOL    HW270838   0.049   1.094   0.357 -0.1795 -0.3718 -0.8039
23133SOL     OW70839   1.129   0.803   4.141  0.0160 -0.1811  0.2505
23133SOL    HW170840   1.194   0.752   4.189  0.4075 -0.3058 -0.3960
23133SOL    HW270841   1.100   0.870   4.203  0.4507 -0.3862  0.6828
23134SOL     OW70842   7.442   6.453   0.671 -0.6315 -0.4347  0.1487
23134SOL    HW170843   7.473   6.537   0.638  0.4873 -0.5490  0.8645
23134SOL    HW270844   7.496   6.388   0.625 -1.5557 -0.7881 -0.4757
23135SOL     OW70845   0.476   0.525   1.628 -0.3204  0.1377 -0.0544
23135SOL    HW170846   0.533   0.534   1.705  0.7485 -0.3381 -0.7684
23135SOL    HW270847   0.406   0.467   1.658  0.3068 -0.3793  0.4454
23136SOL     OW70848   0.790   5.529   5.547 -0.0104 -0.2951  0.7676
23136SOL    HW170849   0.731   5.507   5.620  2.7370 -1.6566  2.7674
23136SOL    HW270850   0.781   5.456   5.486 -0.4095 -0.4671  1.0286
23137SOL     OW70851   7.124   5.284   1.612 -0.3764  0.5932  0.0867
23137SOL    HW170852   7.124   5.357   1.674 -1.1384 -0.3450  1.2230
23137SOL    HW270853   7.189   5.223   1.646  0.2269  0.6975 -0.8357
23138SOL     OW70854   0.778   1.508   2.278  0.2741  0.4393 -0.0357
23138SOL    HW170855   0.787   1.588   2.226  0.8253  0.2528 -0.2408
23138SOL    HW270856   0.865   1.469   2.276  0.1158  0.0554  0.4272
23139SOL     OW70857   4.988   1.043   2.868 -0.0363  0.0875  0.5181
23139SOL    HW170858   4.929   1.090   2.810  0.2031 -0.3954 -0.1278
23139SOL    HW270859   5.072   1.087   2.859  0.1018 -0.2397  0.1802
23140SOL     OW70860   5.860   1.486   4.584  0.6440 -0.2674 -0.0515
23140SOL    HW170861   5.827   1.554   4.525 -0.5771 -0.7952 -0.0227
23140SOL    HW270862   5.791   1.477   4.650  2.6180  1.3836  2.4200
23141SOL     OW70863   2.930   1.020   2.592  0.4182 -0.0751 -0.5137
23141SOL    HW170864   2.901   0.996   2.504  1.3233 -2.3196 -0.2600
23141SOL    HW270865   2.970   0.940   2.627 -0.3321  0.6091  2.1239
23142SOL     OW70866   5.564   7.395  10.285 -0.3818  0.2085  0.3684
23142SOL    HW170867   5.601   7.307  10.281  0.4679  0.5803 -0.3934
23142SOL    HW270868   5.470   7.383  10.275 -0.3209 -0.6560  0.8342
23143SOL     OW70869   6.852   1.245   5.384 -0.5386  0.3981 -0.2363
23143SOL    HW170870   6.822   1.262   5.473  0.6055  2.2986 -0.1782
23143SOL    HW270871   6.909   1.169   5.392 -0.8275  0.2527  0.5519
23144SOL     OW70872   4.878   4.118  12.383  0.2521  0.0362 -0.1144
23144SOL    HW170873   4.886   4.032  12.424 -2.1385  0.3847  1.2919
23144SOL    HW270874   4.791   4.118  12.344  0.7277  1.3708 -1.2617
23145SOL     OW70875   0.121   4.760   9.618 -0.2125  0.1087 -0.2551
23145SOL    HW170876   0.050   4.803   9.572 -0.9879 -1.2216 -0.3691
23145SOL    HW270877   0.199   4.780   9.566 -0.7604  0.2811 -1.0304
23146SOL     OW70878   4.165   4.497   4.405  0.0820  1.0173 -0.4585
23146SOL    HW170879   4.133   4.521   4.318 -1.3327  0.8558 -0.0121
23146SOL    HW270880   4.155   4.577   4.457 -0.1635  0.8053 -0.1716
23147SOL     OW70881   4.446   0.773  12.127 -0.2192  0.2609  0.3936
23147SOL    HW170882   4.452   0.745  12.218 -2.4199  0.1971  0.5750
23147SOL    HW270883   4.461   0.693  12.077 -2.0505 -0.4034  0.8165
23148SOL     OW70884   2.546   6.186   1.164 -0.2366 -0.6086  0.0203
23148SOL    HW170885   2.598   6.190   1.084  1.0592  0.1123  0.8587
23148SOL    HW270886   2.479   6.253   1.152 -2.2310 -2.7571 -1.8389
23149SOL     OW70887   4.008   0.831   3.588  0.2082 -0.1611 -0.6849
23149SOL    HW170888   3.940   0.892   3.558  0.2794  0.2864  0.0408
23149SOL    HW270889   3.960   0.752   3.613  0.1331 -0.4861 -1.8016
23150SOL     OW70890   7.846   6.284   1.278  0.2358  0.1997  0.0003
23150SOL    HW170891   7.845   6.375   1.246  2.5995  0.3925  0.2738
23150SOL    HW270892   7.753   6.261   1.288 -0.5411  1.4524 -3.1448
23151SOL     OW70893   5.681   1.775  10.734 -0.2170  0.3798 -0.2754
23151SOL    HW170894   5.699   1.858  10.779 -1.2256 -0.4042  1.6937
23151SOL    HW270895   5.765   1.752  10.693  0.6988  1.2598  1.0170
23152SOL     OW70896   0.410   4.874   0.238 -0.2657  0.4223  0.2730
23152SOL    HW170897   0.429   4.950   0.184 -0.4936  0.4504  0.2287
23152SOL    HW270898   0.341   4.828   0.190 -0.9484  0.8086  0.8670
23153SOL     OW70899   5.388   5.134  11.747 -0.5851  0.0409  0.3393
23153SOL    HW170900   5.406   5.191  11.821  0.8391 -0.1407  0.1586
23153SOL    HW270901   5.310   5.084  11.773  0.0512 -0.2142  1.8203
23154SOL     OW70902   3.318   1.709  11.472  0.7079 -0.2099  0.0583
23154SOL    HW170903   3.402   1.748  11.447  0.8090 -0.2032  0.4023
23154SOL    HW270904   3.333   1.614  11.466  0.6627 -0.2058 -0.1283
23155SOL     OW70905   1.914   0.076  10.027 -0.5165  0.1218 -0.3280
23155SOL    HW170906   1.975   0.101  10.097 -2.2375 -0.7725  1.5927
23155SOL    HW270907   1.866   0.157  10.008  1.2092  0.8698 -1.9477
23156SOL     OW70908   3.099   1.204   4.964  0.1121 -0.2580 -0.3812
23156SOL    HW170909   3.107   1.283   5.019 -1.3837 -1.2758  1.4307
23156SOL    HW270910   3.114   1.235   4.875 -0.9628  2.1884  0.2125
23157SOL     OW70911   0.729   3.593   6.348  0.1466  0.1463  0.0714
23157SOL    HW170912   0.648   3.628   6.312 -0.0544 -1.0744 -0.7368
23157SOL    HW270913   0.798   3.638   6.300 -0.0017  1.6979  1.2437
23158SOL     OW70914   7.472   7.023   7.261 -0.1423  0.0292 -0.6468
23158SOL    HW170915   7.545   6.961   7.266 -0.3712 -0.1738  0.7586
23158SOL    HW270916   7.455   7.047   7.352 -0.4936  1.6630 -1.1066
23159SOL     OW70917   0.948   4.316   7.157  0.0129  0.3735 -0.2345
23159SOL    HW170918   0.963   4.397   7.109  1.1940  0.5075  0.3412
23159SOL    HW270919   0.996   4.326   7.239  0.0843 -0.8541 -0.0968
23160SOL     OW70920   4.617   5.645   6.549  0.2868  0.3343  0.2472
23160SOL    HW170921   4.649   5.631   6.460  0.8003  0.4316  0.4121
23160SOL    HW270922   4.533   5.600   6.552 -1.9515  3.9233 -1.6654
23161SOL     OW70923   3.534   0.858  12.200  0.3464  0.2171  0.2285
23161SOL    HW170924   3.454   0.851  12.252  1.5197 -2.8702  1.9042
23161SOL    HW270925   3.591   0.916  12.250 -0.5422  1.9302 -0.6626
23162SOL     OW70926   7.128   1.001   1.528 -0.0525 -0.0333 -0.2130
23162SOL    HW170927   7.069   0.936   1.490 -0.4632  1.2222 -1.8784
23162SOL    HW270928   7.073   1.079   1.540  0.6768  0.3616  0.6650
23163SOL     OW70929   7.629   4.136   7.667 -0.0148  0.5206 -0.1155
23163SOL    HW170930   7.625   4.168   7.757  0.9781 -1.0042  0.5159
23163SOL    HW270931   7.644   4.214   7.614  1.3762  1.2255  1.2344
23164SOL     OW70932   3.561   7.332   4.436 -1.0814  0.0272  0.1603
23164SOL    HW170933   3.594   7.243   4.430 -1.5447 -0.1834  0.6153
23164SOL    HW270934   3.535   7.342   4.527  0.2207  1.0898  0.4362
23165SOL     OW70935   7.120   0.663  12.280 -0.4934 -0.0644 -0.0605
23165SOL    HW170936   7.167   0.744  12.302 -0.4467  0.3569 -1.5985
23165SOL    HW270937   7.028   0.688  12.281 -0.6216 -0.5029  1.3912
23166SOL     OW70938   3.897   5.331   9.348  0.8046 -0.3358 -0.2802
23166SOL    HW170939   3.955   5.405   9.329 -0.2552  1.1509  1.9473
23166SOL    HW270940   3.809   5.363   9.328  0.3457 -1.0873  0.4845
23167SOL     OW70941   5.723   1.868  10.173 -0.2520 -0.4673 -0.0163
23167SOL    HW170942   5.789   1.897  10.110  0.3619  1.2133  1.3037
23167SOL    HW270943   5.640   1.881  10.128  0.1749  0.6420 -0.5309
23168SOL     OW70944   5.084   0.594   6.886 -0.7423 -0.4839 -0.1003
23168SOL    HW170945   5.040   0.679   6.882  0.8358  0.3690 -0.0858
23168SOL    HW270946   5.012   0.530   6.897 -1.9465  0.8333 -0.0334
23169SOL     OW70947   6.220   5.260   4.278 -0.5384 -0.7673  0.1781
23169SOL    HW170948   6.278   5.333   4.297 -0.0300 -1.2069  0.3667
23169SOL    HW270949   6.183   5.280   4.192  1.2848 -1.3147 -0.7963
23170SOL     OW70950   0.009   5.605   7.931  0.0081  0.0124  0.1652
23170SOL    HW170951  -0.024   5.633   8.017  1.0931  0.3214  0.4935
23170SOL    HW270952   0.062   5.527   7.951 -1.2459 -1.0562 -0.4733
23171SOL     OW70953   3.698   1.519   1.714  0.3827 -0.1877  0.4878
23171SOL    HW170954   3.746   1.437   1.702  2.6652  1.2089 -0.6409
23171SOL    HW270955   3.710   1.542   1.806  1.1111 -0.3434  0.4379
23172SOL     OW70956   5.855   6.227   0.591  0.2518 -0.4296 -0.1432
23172SOL    HW170957   5.782   6.288   0.582  0.0741 -0.6142  0.0513
23172SOL    HW270958   5.814   6.141   0.597  0.4386 -0.4738  0.7024
23173SOL     OW70959   4.926   1.482  11.873  0.7333  0.3530 -0.2559
23173SOL    HW170960   4.906   1.403  11.823  0.5534  1.2204 -1.5839
23173SOL    HW270961   4.888   1.466  11.960 -0.0255 -0.6719 -0.7609
23174SOL     OW70962   4.660   6.462  10.184 -0.0802  0.6275  0.4442
23174SOL    HW170963   4.619   6.417  10.110  0.4416 -0.2688  0.6908
23174SOL    HW270964   4.656   6.555  10.160  1.0313  0.2956 -1.2194
23175SOL     OW70965   7.898   2.512   0.971 -0.1858 -0.2712 -0.2436
23175SOL    HW170966   7.864   2.563   0.898 -1.3791  1.3005  1.3363
23175SOL    HW270967   7.993   2.526   0.967 -0.1984 -0.4146 -1.5982
23176SOL     OW70968   2.596   3.558  11.452 -0.3068  0.0543 -0.2499
23176SOL    HW170969   2.557   3.523  11.532 -1.8734 -0.2367 -1.0945
23176SOL    HW270970   2.677   3.601  11.481 -0.4812 -0.6414  1.3720
23177SOL     OW70971   1.943   6.375   6.670  0.6240 -0.2088 -0.7005
23177SOL    HW170972   1.905   6.343   6.588 -0.6376 -0.8382  0.0852
23177SOL    HW270973   1.871   6.371   6.733  1.7353 -0.4462  0.6216
23178SOL     OW70974   7.378   4.765   5.248  0.2566 -0.3329 -0.3086
23178SOL    HW170975   7.319   4.795   5.317  1.3115 -0.2408  0.5872
23178SOL    HW270976   7.427   4.694   5.289  1.3451  0.1454 -0.7517
23179SOL     OW70977   1.405   7.269   8.996 -0.8857 -0.0248 -0.0867
23179SOL    HW170978   1.347   7.265   8.920 -0.0187  1.2858 -0.8604
23179SOL    HW270979   1.346   7.273   9.071 -1.7696 -0.3445 -0.7459
23180SOL     OW70980   5.395   5.281  11.971 -0.0672  0.0388 -0.0849
23180SOL    HW170981   5.354   5.312  12.051 -0.4121  0.7289 -0.5172
23180SOL    HW270982   5.469   5.341  11.957 -2.1794  2.3757 -2.2570
23181SOL     OW70983   3.084   0.356   7.186  0.1781 -0.2225 -0.2729
23181SOL    HW170984   3.024   0.319   7.250 -1.8162  0.0651 -1.8663
23181SOL    HW270985   3.141   0.283   7.161 -2.6289 -1.9682 -2.1778
23182SOL     OW70986   4.913   6.668   7.684  0.2535  0.1292 -0.3326
23182SOL    HW170987   4.845   6.648   7.748  0.5900 -2.8002 -0.7531
23182SOL    HW270988   4.983   6.605   7.702  0.9348  0.0942 -2.6953
23183SOL     OW70989   2.679   6.367   3.301 -0.5046  0.1830 -0.3454
23183SOL    HW170990   2.698   6.291   3.246  0.8499 -0.8843  1.4888
23183SOL    HW270991   2.753   6.426   3.286 -1.3262  0.9795 -1.4184
23184SOL     OW70992   3.808   7.292   4.240 -0.4727 -0.0548 -0.4835
23184SOL    HW170993   3.862   7.280   4.162 -1.5271 -0.2324 -1.1984
23184SOL    HW270994   3.854   7.242   4.308  1.7253  1.9985 -0.3471
23185SOL     OW70995   1.036   3.281   5.317 -0.5315  0.0440  0.5888
23185SOL    HW170996   1.045   3.200   5.268 -2.0911  0.7440 -0.9351
23185SOL    HW270997   1.078   3.348   5.263 -0.8035  0.5450  0.9806
23186SOL     OW70998   3.572   6.186   3.516  0.4964 -0.8772  0.7942
23186SOL    HW170999   3.547   6.199   3.608 -0.1964  0.2983  0.4587
23186SOL    HW271000   3.511   6.240   3.467  1.6246 -0.5352 -0.2856
23187SOL     OW71001   3.333   6.582   2.525 -0.4344  0.1717  0.4212
23187SOL    HW171002   3.240   6.599   2.505 -0.5381  1.1519  1.6345
23187SOL    HW271003   3.344   6.613   2.615  0.4810 -2.2671  1.2265
23188SOL     OW71004   0.716   5.616   8.960  0.0940  0.3066 -0.0170
23188SOL    HW171005   0.804   5.579   8.950 -0.0962  0.3974 -2.4529
23188SOL    HW271006   0.657   5.541   8.956 -0.0157  0.3128  1.0105
23189SOL     OW71007   4.961   0.862   0.965 -0.5350  0.1690  0.1113
23189SOL    HW171008   5.037   0.849   1.021 -0.0293  1.1062 -0.3369
23189SOL    HW271009   4.887   0.836   1.019  0.0745 -0.4172  0.6768
23190SOL     OW71010   2.756   3.159   3.681 -0.0558 -0.1258  0.4984
23190SOL    HW171011   2.817   3.086   3.688 -0.5750 -0.4096  2.9888
23190SOL    HW271012   2.718   3.150   3.593  0.0610 -2.7120  0.6289
23191SOL     OW71013   2.067   7.040  10.692  0.3740 -0.3736 -0.2021
23191SOL    HW171014   2.119   7.064  10.616 -0.5064 -0.1764 -0.7617
23191SOL    HW271015   1.988   7.095  10.686  1.2931  1.3909  2.1231
23192SOL     OW71016   4.712   6.826   7.484  0.3516  0.3740 -0.3333
23192SOL    HW171017   4.693   6.753   7.543  0.8295 -1.8452 -2.7277
23192SOL    HW271018   4.647   6.892   7.506 -0.3640 -0.9167  1.7070
23193SOL     OW71019   2.977   4.757   3.468  0.1919  0.0787  0.6168
23193SOL    HW171020   2.923   4.712   3.403  0.9493  1.5606 -1.1002
23193SOL    HW271021   3.055   4.703   3.476 -0.1103 -0.3580  0.6824
23194SOL     OW71022   2.792   2.027   9.239 -0.0998  0.7826 -0.2038
23194SOL    HW171023   2.874   1.976   9.239  0.2011  1.2338 -1.4299
23194SOL    HW271024   2.810   2.101   9.180 -0.7957  1.8822  0.9147
23195SOL     OW71025   3.070   3.419   5.110 -0.0200  0.8333  0.3342
23195SOL    HW171026   3.040   3.348   5.166  1.9722  0.9306  1.6193
23195SOL    HW271027   3.075   3.495   5.168 -0.2949  1.5805 -0.5817
23196SOL     OW71028   2.547   5.965   6.297  0.2585  0.2085  0.4063
23196SOL    HW171029   2.470   5.916   6.268  1.2516 -0.6474 -0.9250
23196SOL    HW271030   2.514   6.025   6.363 -1.7116  0.4697 -0.7372
23197SOL     OW71031   6.464   3.673  11.782  0.1763 -0.3444 -0.5750
23197SOL    HW171032   6.531   3.727  11.823 -0.3936 -1.1388  1.5387
23197SOL    HW271033   6.470   3.589  11.828 -3.2995  0.0542  0.9269
23198SOL     OW71034   3.245   6.119   9.250 -0.4824  0.4347  0.2117
23198SOL    HW171035   3.247   6.210   9.278 -0.4433  0.3710  0.4216
23198SOL    HW271036   3.296   6.117   9.170  4.8775 -0.3520  3.1376
23199SOL     OW71037   6.237   1.188   2.067 -0.3489  0.8342  0.2882
23199SOL    HW171038   6.260   1.182   1.975 -0.1910 -0.0094  0.3737
23199SOL    HW271039   6.197   1.275   2.077 -0.4382  0.8966 -0.5826
23200SOL     OW71040   5.289   5.163   8.650  0.0841  0.3878  0.3309
23200SOL    HW171041   5.326   5.251   8.647  1.6829 -0.2215  1.3698
23200SOL    HW271042   5.364   5.104   8.648 -0.9840 -1.0196 -1.3771
23201SOL     OW71043   4.166   3.557   6.204 -0.1136  0.0823  0.3130
23201SOL    HW171044   4.189   3.630   6.147 -0.2300 -0.0294  0.1189
23201SOL    HW271045   4.210   3.576   6.287 -0.7779  0.7714  0.5231
23202SOL     OW71046   5.570   7.174   3.739  0.1450  0.4578 -0.1580
23202SOL    HW171047   5.618   7.096   3.768 -0.8433  0.2339  0.9264
23202SOL    HW271048   5.605   7.245   3.792  0.0776  0.5044 -0.1754
23203SOL     OW71049   7.060   3.997   6.115 -0.4417  0.7504 -0.4412
23203SOL    HW171050   7.107   3.939   6.055 -0.4579 -0.8085  0.9686
23203SOL    HW271051   7.129   4.046   6.160 -0.2910  0.3755 -0.2525
23204SOL     OW71052   7.584   3.196   8.791 -0.1464  0.0685  0.1117
23204SOL    HW171053   7.499   3.158   8.766  0.9473 -2.9423  0.5197
23204SOL    HW271054   7.624   3.222   8.708 -0.8682  0.1691 -0.2164
23205SOL     OW71055   4.177   2.566   1.322 -0.0167 -0.1228  0.2865
23205SOL    HW171056   4.105   2.616   1.285  0.2857 -0.3417 -0.6227
23205SOL    HW271057   4.197   2.500   1.256  1.0544 -0.0335  0.5020
23206SOL     OW71058   0.795   4.238  11.373  0.5510  0.1766 -0.0542
23206SOL    HW171059   0.825   4.321  11.336 -1.0432  1.3096  1.1108
23206SOL    HW271060   0.729   4.207  11.311  1.7289 -0.7060 -0.9312
23207SOL     OW71061   4.550   7.634   9.763  0.0039  0.4742  0.1843
23207SOL    HW171062   4.481   7.572   9.785  1.3931 -0.9495  0.6632
23207SOL    HW271063   4.532   7.709   9.820 -1.2844  0.2657  0.1008
23208SOL     OW71064   3.059   5.071   2.104 -0.1643  0.4265 -0.2620
23208SOL    HW171065   3.025   5.158   2.124 -2.9647 -0.6373  0.1806
23208SOL    HW271066   3.130   5.057   2.166 -0.2066  2.0756  0.2019
23209SOL     OW71067   5.898   7.642   4.325  0.5520  0.5471 -0.3592
23209SOL    HW171068   5.872   7.635   4.417 -0.0068  0.1386 -0.5440
23209SOL    HW271069   5.973   7.583   4.317  1.5787  1.7496  0.1821
23210SOL     OW71070   4.824   0.460   6.832 -0.1319  0.6561 -0.6303
23210SOL    HW171071   4.750   0.517   6.809 -1.6367 -1.0762 -0.2735
23210SOL    HW271072   4.786   0.392   6.888  1.3932 -1.2763 -1.8206
23211SOL     OW71073   7.288   6.339   2.042 -0.2032 -0.4825  0.3383
23211SOL    HW171074   7.370   6.354   2.088  0.5544 -1.1545 -0.7701
23211SOL    HW271075   7.225   6.395   2.088  1.0131  0.6261  0.7339
23212SOL     OW71076   0.090   6.726  11.081  0.1408 -0.0517 -0.2903
23212SOL    HW171077   0.075   6.791  11.150  2.0166  1.8174 -1.5410
23212SOL    HW271078   0.028   6.749  11.012 -1.3602 -1.5988  0.4428
23213SOL     OW71079   0.259   7.393   7.911 -0.4335  0.1159  0.2202
23213SOL    HW171080   0.250   7.487   7.928  0.7171  0.2860 -0.0498
23213SOL    HW271081   0.353   7.378   7.904 -0.6422 -0.5757 -2.3889
23214SOL     OW71082   2.604   1.066   2.630 -0.1037  0.0614 -0.4405
23214SOL    HW171083   2.514   1.040   2.610  0.1792 -0.4804 -1.0639
23214SOL    HW271084   2.648   1.068   2.544  1.2847 -2.7687  0.0902
23215SOL     OW71085   7.431   7.115   4.338 -0.4453  0.2912  0.6774
23215SOL    HW171086   7.409   7.023   4.325 -0.8868  0.5445 -0.4209
23215SOL    HW271087   7.520   7.123   4.305  0.0720  0.0199  1.9137
23216SOL     OW71088   3.194   6.523  10.091  0.3511  0.2028 -0.1449
23216SOL    HW171089   3.184   6.541   9.997  2.7375  1.1585 -0.2775
23216SOL    HW271090   3.104   6.525  10.125 -0.4848  0.9250 -2.2174
23217SOL     OW71091   7.895   4.020   7.244 -0.2606 -0.2235 -0.2529
23217SOL    HW171092   7.909   4.114   7.232  0.2246  0.1647  2.5000
23217SOL    HW271093   7.959   3.979   7.186  1.1061  1.2214  0.1410
23218SOL     OW71094   6.826   7.325   2.101 -0.4559  0.1303 -0.4041
23218SOL    HW171095   6.801   7.233   2.091 -0.4227  0.1391 -0.5801
23218SOL    HW271096   6.780   7.370   2.030 -0.8671  0.3276 -0.0166
23219SOL     OW71097   6.228   3.515   2.307 -0.0551  0.6199 -0.2672
23219SOL    HW171098   6.222   3.451   2.236  0.1391  0.7720 -0.4251
23219SOL    HW271099   6.156   3.493   2.366  0.3722 -0.1166 -0.0090
23220SOL     OW71100   2.177   5.030  10.181 -0.6158 -0.2209 -0.5381
23220SOL    HW171101   2.240   5.000  10.116  0.9601 -1.3800  1.4083
23220SOL    HW271102   2.158   4.952  10.233 -1.7885  0.6737  0.4123
23221SOL     OW71103   4.671   2.542   5.088 -0.4818  0.9051  0.0524
23221SOL    HW171104   4.690   2.448   5.082 -1.1800  0.8265 -1.3668
23221SOL    HW271105   4.741   2.583   5.036 -1.4097  0.9778 -1.1799
23222SOL     OW71106   5.144   5.957  10.649  0.0648 -0.7359  0.6474
23222SOL    HW171107   5.078   5.957  10.579  0.5933  2.2208 -0.0053
23222SOL    HW271108   5.093   5.959  10.730 -0.7000  0.9696  0.1710
23223SOL     OW71109   1.455   7.450   1.893  0.3423  0.4465 -0.5971
23223SOL    HW171110   1.480   7.440   1.984  1.2750  3.5021 -0.4030
23223SOL    HW271111   1.361   7.471   1.896  0.4487  0.8877 -0.3074
23224SOL     OW71112   6.758   6.010   9.556  0.4983 -0.0715 -0.0379
23224SOL    HW171113   6.836   6.024   9.609  0.3081 -0.9321  0.4886
23224SOL    HW271114   6.685   6.028   9.615  0.2827  0.8019 -0.5502
23225SOL     OW71115   7.211   4.434   8.553  0.6479  0.0421 -0.5185
23225SOL    HW171116   7.149   4.364   8.532 -0.9920  1.4027 -0.4539
23225SOL    HW271117   7.257   4.450   8.471 -1.0749  0.8700 -1.3760
23226SOL     OW71118   7.900   2.381   2.697 -0.0390 -0.5695 -0.4406
23226SOL    HW171119   7.939   2.340   2.620  0.1323 -3.8647  1.2298
23226SOL    HW271120   7.870   2.466   2.666  1.6033 -1.0124 -3.6697
23227SOL     OW71121   6.630   1.956   0.537 -0.1413  0.5794  0.1198
23227SOL    HW171122   6.538   1.949   0.511 -0.2453  0.8950  0.3938
23227SOL    HW271123   6.630   1.928   0.629 -0.2173  2.0271  0.5886
23228SOL     OW71124   3.435   5.965  11.550  0.3054 -0.0691  0.0671
23228SOL    HW171125   3.347   5.966  11.588  1.6062 -0.6652  3.4618
23228SOL    HW271126   3.448   6.053  11.514 -2.0404 -0.3541 -1.6977
23229SOL     OW71127   1.157   7.806   2.095 -0.3202 -0.1198 -0.0863
23229SOL    HW171128   1.248   7.803   2.065 -0.1022  1.3402  0.3884
23229SOL    HW271129   1.125   7.891   2.066 -0.7928  0.4018  1.8594
23230SOL     OW71130   7.791   5.955   3.855 -0.1879 -0.3945  0.1428
23230SOL    HW171131   7.796   5.859   3.858 -1.6020 -0.6115 -2.0195
23230SOL    HW271132   7.837   5.984   3.933  2.0305 -2.7829 -0.1332
23231SOL     OW71133   3.822   4.866  10.453  0.0940 -0.4017  0.4041
23231SOL    HW171134   3.809   4.944  10.507  0.8059  1.5508 -2.0453
23231SOL    HW271135   3.879   4.810  10.506 -0.3214  0.7851  2.2068
23232SOL     OW71136   7.292   6.383   7.053  0.3619  0.6575 -0.2470
23232SOL    HW171137   7.207   6.421   7.030 -0.8569 -1.0147  1.2003
23232SOL    HW271138   7.273   6.328   7.130  2.8410  0.5608  0.3672
23233SOL     OW71139   4.854   7.779   7.619  0.3423 -0.0648  0.1859
23233SOL    HW171140   4.920   7.802   7.554  0.5181  1.0255  0.7221
23233SOL    HW271141   4.770   7.798   7.575  0.4266  4.9589  1.5590
23234SOL     OW71142   7.279   6.326   1.714 -0.4683  0.6714  0.0497
23234SOL    HW171143   7.310   6.355   1.628  0.6642  0.6623  0.4423
23234SOL    HW271144   7.306   6.396   1.774  2.1839 -1.0152  1.0009
23235SOL     OW71145   0.408   4.023   2.303  0.0852  0.2619 -0.0468
23235SOL    HW171146   0.374   3.989   2.386  1.1781 -0.5237  0.1087
23235SOL    HW271147   0.355   3.980   2.236  0.5231 -0.6841  0.1959
23236SOL     OW71148   7.333   6.495   9.254 -0.0697 -0.1672 -0.1520
23236SOL    HW171149   7.336   6.580   9.298 -0.7960 -0.1592 -0.1172
23236SOL    HW271150   7.271   6.443   9.305 -1.1986 -0.0456 -1.3438
23237SOL     OW71151   2.242   5.850   5.634  0.1665 -0.3483 -0.2838
23237SOL    HW171152   2.248   5.945   5.622  0.4509 -0.3911 -0.5056
23237SOL    HW271153   2.333   5.822   5.649 -0.0270 -0.4618  0.7760
23238SOL     OW71154   6.183   1.748   7.458 -0.6699 -0.0224  0.3088
23238SOL    HW171155   6.199   1.822   7.516 -1.0018  0.4210 -0.1610
23238SOL    HW271156   6.244   1.681   7.488 -1.4493 -0.1364  1.7745
23239SOL     OW71157   0.919   6.281   4.328  0.2684 -0.3179 -0.2339
23239SOL    HW171158   0.855   6.264   4.258  0.6117 -0.2247 -0.5725
23239SOL    HW271159   0.865   6.308   4.403  0.0142  1.8365 -1.1260
23240SOL     OW71160   1.596   6.569   8.644  0.8640 -0.1584  0.1501
23240SOL    HW171161   1.628   6.607   8.726  0.8432  0.3477 -0.0699
23240SOL    HW271162   1.664   6.506   8.618  0.6029 -0.7367  0.8415
23241SOL     OW71163   5.913   4.704   8.191 -0.4380 -0.0516  0.1324
23241SOL    HW171164   6.005   4.679   8.205 -0.4625 -0.3341 -0.2093
23241SOL    HW271165   5.882   4.645   8.122 -0.8604  0.0830  0.2041
23242SOL     OW71166   1.351   2.631   9.432 -0.0052 -0.3190  0.2759
23242SOL    HW171167   1.410   2.665   9.499  0.1764  0.9749 -0.5118
23242SOL    HW271168   1.374   2.538   9.424 -1.0226 -0.9039  3.0165
23243SOL     OW71169   1.294   1.832   8.707 -0.3253  0.5126  0.2160
23243SOL    HW171170   1.352   1.810   8.634 -4.3160 -0.0216 -3.1565
23243SOL    HW271171   1.315   1.767   8.774  2.0949 -0.3770 -1.2577
23244SOL     OW71172   2.351   6.654   2.551 -0.3504  0.7564 -0.1108
23244SOL    HW171173   2.275   6.597   2.550 -0.9061  1.4692 -1.4789
23244SOL    HW271174   2.420   6.602   2.592 -1.4397 -0.0578  0.7352
23245SOL     OW71175   3.046   0.445  11.549  0.6772 -0.0154 -0.1170
23245SOL    HW171176   3.035   0.363  11.500  1.7085  0.1583 -0.6666
23245SOL    HW271177   3.016   0.424  11.637  0.0749 -0.7280 -0.4737
23246SOL     OW71178   5.495   4.080   2.868  0.2216  0.5321 -0.7103
23246SOL    HW171179   5.501   4.169   2.831  0.7722 -0.7514 -4.0243
23246SOL    HW271180   5.410   4.047   2.837  1.0151 -0.8651 -1.4687
23247SOL     OW71181   0.619   2.084   1.228  0.0747  0.2784 -0.0071
23247SOL    HW171182   0.621   2.065   1.322  2.1713  2.4403  0.4967
23247SOL    HW271183   0.689   2.149   1.215  2.8021 -2.8658 -3.7002
23248SOL     OW71184   5.566   6.753   1.333  0.1237 -0.2509  0.0203
23248SOL    HW171185   5.626   6.690   1.294 -0.9072 -1.7772  0.7907
23248SOL    HW271186   5.602   6.770   1.420 -1.0603 -2.0026  0.9042
23249SOL     OW71187   4.683   6.850   2.211  0.3278 -0.4189  0.0476
23249SOL    HW171188   4.681   6.825   2.303  0.2278  0.5176  0.3094
23249SOL    HW271189   4.731   6.933   2.209 -0.6025  0.1315 -0.5891
23250SOL     OW71190   6.924   5.365   3.689 -0.1700 -0.1392 -0.8928
23250SOL    HW171191   6.864   5.436   3.668 -0.2134 -0.1706 -0.8762
23250SOL    HW271192   6.918   5.306   3.614  0.8805  0.5343 -1.5240
23251SOL     OW71193   6.521   3.663   4.448 -0.1745 -0.1730  0.2833
23251SOL    HW171194   6.567   3.719   4.386 -0.6138 -0.4908 -0.3490
23251SOL    HW271195   6.483   3.723   4.511  0.1666  0.1688  0.1684
23252SOL     OW71196   7.898   3.111   7.769 -0.4750 -0.0014  0.1851
23252SOL    HW171197   7.828   3.056   7.734  0.2772 -1.5855  1.0360
23252SOL    HW271198   7.973   3.052   7.777 -0.1699  0.6277  2.9436
23253SOL     OW71199   3.205   2.741   5.460 -0.2560  0.2416  0.3368
23253SOL    HW171200   3.125   2.793   5.471 -1.2268 -1.2764  0.6264
23253SOL    HW271201   3.182   2.676   5.393  1.1045  0.4681 -0.3908
23254SOL     OW71202   3.932   5.620   5.461  0.3521  0.1253  0.0206
23254SOL    HW171203   3.837   5.609   5.454  0.3523 -0.2171  0.4930
23254SOL    HW271204   3.951   5.605   5.553  0.9037 -0.0888 -0.1230
23255SOL     OW71205   7.422   2.699   4.299  0.5290 -0.2276 -0.7723
23255SOL    HW171206   7.338   2.653   4.304  1.0986 -1.3601 -1.2241
23255SOL    HW271207   7.482   2.646   4.350  0.8125  1.0146  0.2382
23256SOL     OW71208   6.175   0.542   6.153 -0.3662 -0.5165  0.1473
23256SOL    HW171209   6.106   0.578   6.097  0.4216 -0.0439 -0.5255
23256SOL    HW271210   6.128   0.512   6.231 -1.2826  0.1978 -0.1104
23257SOL     OW71211   6.342   6.462   3.414 -0.0416  0.3771  0.2026
23257SOL    HW171212   6.403   6.465   3.487  0.9038 -1.1158 -0.5006
23257SOL    HW271213   6.334   6.370   3.392 -1.6717  0.6357 -0.4806
23258SOL     OW71214   0.348   4.370   7.870  0.2903  0.1448  0.1807
23258SOL    HW171215   0.362   4.465   7.874  2.6032 -0.1855  1.6683
23258SOL    HW271216   0.254   4.360   7.885 -0.5202  2.2739 -2.5752
23259SOL     OW71217   7.728   3.459   8.359  0.6048 -0.3358 -0.1171
23259SOL    HW171218   7.639   3.454   8.323  0.2517 -0.6961  0.7497
23259SOL    HW271219   7.759   3.369   8.357  0.8200 -0.2622 -0.0944
23260SOL     OW71220   2.812   5.027   7.275  0.3791  0.2163  0.6912
23260SOL    HW171221   2.906   5.013   7.277  0.3828  0.3028  1.1232
23260SOL    HW271222   2.792   5.074   7.356 -0.1042 -0.2211  0.8345
23261SOL     OW71223   1.810   1.002   7.190  0.3490  0.0542 -0.2031
23261SOL    HW171224   1.753   0.931   7.161  0.0794 -0.1650  0.8097
23261SOL    HW271225   1.812   0.993   7.286  1.5628  0.4516 -0.1732
23262SOL     OW71226   4.031   1.863   0.019 -0.0077 -0.7908  0.1343
23262SOL    HW171227   4.043   1.833   0.109  0.9332 -3.1583 -0.6890
23262SOL    HW271228   3.969   1.801  -0.019 -0.2762  0.0818 -0.9035
23263SOL     OW71229   2.161   6.368   7.967 -0.0955 -0.2948  0.3714
23263SOL    HW171230   2.079   6.327   7.939 -0.1321 -1.1787  1.6280
23263SOL    HW271231   2.176   6.440   7.906 -0.3587 -1.8186 -1.5738
23264SOL     OW71232   3.245   2.562   4.521 -0.0847 -0.7461 -0.3069
23264SOL    HW171233   3.185   2.570   4.595  0.1783  0.8177 -0.2114
23264SOL    HW271234   3.293   2.481   4.538  0.6081  0.0176  1.7358
23265SOL     OW71235   3.186   7.647   8.439  0.1091  0.2988 -0.0398
23265SOL    HW171236   3.276   7.671   8.460  0.1516 -0.6342  0.9780
23265SOL    HW271237   3.195   7.563   8.392 -0.1756  0.8100 -1.0322
23266SOL     OW71238   6.209   7.703  11.376  0.2226  0.2589  0.0050
23266SOL    HW171239   6.278   7.749  11.329  0.5607  0.2520  0.4840
23266SOL    HW271240   6.199   7.752  11.458  1.6719 -1.3619  1.2483
23267SOL     OW71241   5.279   0.385  10.133 -0.4159  0.2023  0.2959
23267SOL    HW171242   5.338   0.416  10.202 -0.3566  1.2504 -0.1990
23267SOL    HW271243   5.192   0.393  10.171 -0.2968 -0.8080  0.8259
23268SOL     OW71244   1.729   6.693  11.483  0.1527  0.6403  0.6164
23268SOL    HW171245   1.734   6.650  11.569  2.0235  2.8415  1.7101
23268SOL    HW271246   1.668   6.765  11.496  0.2518  0.8343  0.0220
23269SOL     OW71247   6.561   3.348  11.292 -0.0676  0.2311  0.2784
23269SOL    HW171248   6.563   3.408  11.217  1.7112 -1.0422 -0.7528
23269SOL    HW271249   6.482   3.295  11.279  1.1185 -1.1634 -1.7217
23270SOL     OW71250   5.256   2.985   6.582  0.0551  0.6158 -0.0274
23270SOL    HW171251   5.235   2.915   6.521 -2.6149  0.6317  0.7281
23270SOL    HW271252   5.195   3.056   6.560  1.4358  2.0092  0.4127
23271SOL     OW71253   6.592   6.207   7.381  0.0981  0.0311 -0.6277
23271SOL    HW171254   6.557   6.135   7.330 -1.8792 -0.5032  1.3219
23271SOL    HW271255   6.602   6.171   7.469  1.0468  1.5808 -0.0608
23272SOL     OW71256   5.677   5.606  10.435 -0.0760 -0.1038 -0.2650
23272SOL    HW171257   5.692   5.700  10.433 -2.0606  0.2598 -0.8539
23272SOL    HW271258   5.669   5.585  10.529 -2.1564  0.8408 -0.1674
23273SOL     OW71259   7.876   0.121   5.087 -0.2147  0.5509  0.7559
23273SOL    HW171260   7.788   0.129   5.050 -0.5444 -1.0320  1.1377
23273SOL    HW271261   7.928   0.081   5.017  0.0176  0.7659  0.8035
23274SOL     OW71262   7.294   1.435   4.419  0.5435 -0.4043  0.2119
23274SOL    HW171263   7.327   1.438   4.509  3.7322 -0.3881 -0.8549
23274SOL    HW271264   7.312   1.523   4.384 -2.3325  0.2149 -0.0206
23275SOL     OW71265   1.893   0.775   2.769  0.1524 -0.3080 -0.2744
23275SOL    HW171266   1.808   0.751   2.806 -0.7075 -0.6012 -2.3522
23275SOL    HW271267   1.887   0.751   2.677  2.4379 -0.1494 -0.5073
23276SOL     OW71268   3.309   4.514   0.754 -0.1698 -0.0172 -0.2243
23276SOL    HW171269   3.296   4.506   0.848 -1.1752  0.6130 -0.3074
23276SOL    HW271270   3.232   4.473   0.715 -0.6419  1.3469 -0.7532
23277SOL     OW71271   5.542   2.335   2.423  0.5474 -0.1933  0.0969
23277SOL    HW171272   5.502   2.255   2.455 -0.1749 -0.2315 -0.8693
23277SOL    HW271273   5.471   2.399   2.421  0.2116 -0.5058 -2.5168
23278SOL     OW71274   4.720   4.461   7.043  0.3702  0.3439 -0.6775
23278SOL    HW171275   4.803   4.495   7.080  0.4695  0.1819 -0.7522
23278SOL    HW271276   4.730   4.366   7.046  0.1504  0.3241 -0.6059
23279SOL     OW71277   2.176   2.631   3.023 -0.0820  0.4162 -0.0798
23279SOL    HW171278   2.082   2.620   3.030 -0.2677  2.2522  0.7468
23279SOL    HW271279   2.188   2.705   2.962  0.8192  0.2672 -0.1095
23280SOL     OW71280   6.656   7.195   1.517  0.3138  0.4730 -0.2648
23280SOL    HW171281   6.730   7.255   1.512 -0.7047  1.8271  0.1183
23280SOL    HW271282   6.620   7.210   1.605 -0.3308 -0.2580 -0.3978
23281SOL     OW71283   0.076   5.562  11.805 -0.0578 -0.0748 -0.2249
23281SOL    HW171284   0.105   5.565  11.896 -2.1991 -1.4587  0.5666
23281SOL    HW271285   0.002   5.622  11.801  1.2018  1.4866 -1.5894
23282SOL     OW71286   2.475   6.285   6.401  0.3498 -0.0129  0.3366
23282SOL    HW171287   2.541   6.333   6.353  0.6309 -1.1409 -0.4503
23282SOL    HW271288   2.402   6.274   6.340 -0.5297  1.0682  1.1370
23283SOL     OW71289   1.962   4.117   1.978 -0.1227 -0.6081 -0.1463
23283SOL    HW171290   2.013   4.184   2.022 -0.7552 -0.2901  0.1073
23283SOL    HW271291   1.931   4.060   2.048 -0.5934 -0.4652 -0.2320
23284SOL     OW71292   5.609   1.225   2.885 -0.2025 -0.2618 -0.4654
23284SOL    HW171293   5.664   1.182   2.819 -0.3423 -0.2793 -0.5708
23284SOL    HW271294   5.537   1.164   2.899 -0.5481  0.0643 -0.8157
23285SOL     OW71295   6.929   4.295   6.325  0.3664  0.0844  0.5461
23285SOL    HW171296   6.948   4.360   6.393  0.3650  0.2145  0.4227
23285SOL    HW271297   6.976   4.216   6.353 -1.6100 -0.6547  2.0187
23286SOL     OW71298   6.353   1.666   7.986 -0.6193 -0.3156  0.5420
23286SOL    HW171299   6.260   1.662   7.964 -1.6922  0.7556  4.1150
23286SOL    HW271300   6.367   1.757   8.012  1.3511 -0.5706  0.4895
23287SOL     OW71301   0.648   3.483   2.041  0.5480  0.0832 -0.2490
23287SOL    HW171302   0.688   3.406   2.082  0.7923  0.9425  1.1947
23287SOL    HW271303   0.708   3.505   1.969  1.1364 -0.3442  0.0946
23288SOL     OW71304   2.699   3.825   0.140  0.4684 -0.1903  0.1152
23288SOL    HW171305   2.676   3.917   0.131  0.4976 -0.1367  0.5612
23288SOL    HW271306   2.670   3.784   0.058  0.1327  0.1455  0.0682
23289SOL     OW71307   4.711   1.232   7.974 -0.0517  0.0201 -0.4569
23289SOL    HW171308   4.696   1.179   7.897 -0.3247 -0.5460 -0.0200
23289SOL    HW271309   4.641   1.298   7.972 -0.3427 -0.2878 -0.4350
23290SOL     OW71310   1.407   7.104  10.270  0.4592  0.0569 -0.2408
23290SOL    HW171311   1.447   7.093  10.184 -0.2847  1.3237 -0.7852
23290SOL    HW271312   1.481   7.116  10.329  0.9836  2.5770 -1.2494
23291SOL     OW71313   4.164   5.996   5.520 -0.0375  0.7307 -0.5781
23291SOL    HW171314   4.078   6.037   5.526 -0.6095 -0.6350  1.8504
23291SOL    HW271315   4.153   5.928   5.452 -1.7936 -1.2446  1.5159
23292SOL     OW71316   0.552   1.074   4.195  0.3872 -0.0354 -0.4539
23292SOL    HW171317   0.626   1.017   4.219  0.7947  1.0413  0.9384
23292SOL    HW271318   0.593   1.148   4.151  0.2145  0.8190  0.7881
23293SOL     OW71319   0.915   1.035   1.960 -0.6106 -0.7170 -0.5405
23293SOL    HW171320   0.932   0.941   1.961  1.3624 -0.4119  0.5739
23293SOL    HW271321   0.842   1.047   2.021  0.4418 -1.3739  0.9153
23294SOL     OW71322   3.034   1.241  11.107  0.4533  1.0072  0.0424
23294SOL    HW171323   3.123   1.226  11.139  0.7488  1.0988 -0.7048
23294SOL    HW271324   3.045   1.254  11.012 -0.3501  1.0583 -0.0492
23295SOL     OW71325   4.435   5.228   4.651  0.1887  0.4259 -0.1984
23295SOL    HW171326   4.528   5.212   4.639  0.4061  1.3285  0.1783
23295SOL    HW271327   4.425   5.323   4.644 -0.4316  0.5224  1.4005
23296SOL     OW71328   1.748   1.716   6.535  0.8291 -0.2018 -0.0093
23296SOL    HW171329   1.795   1.776   6.593 -1.0065  0.5908  0.7529
23296SOL    HW271330   1.816   1.671   6.485  2.3361  1.1921  0.7227
23297SOL     OW71331   6.590   6.704   1.997 -0.5143 -0.7681 -0.1965
23297SOL    HW171332   6.645   6.719   2.074 -1.4385  1.6821  0.0951
23297SOL    HW271333   6.650   6.702   1.923  0.0892  1.4155  0.1576
23298SOL     OW71334   0.610   3.774   0.478  0.4438 -0.0912 -0.6816
23298SOL    HW171335   0.562   3.766   0.396  1.1561 -0.9091 -1.0323
23298SOL    HW271336   0.693   3.729   0.462  1.4289  1.4372 -0.1578
23299SOL     OW71337   1.130   2.785   7.080  0.7842 -0.1903 -0.2790
23299SOL    HW171338   1.073   2.709   7.089 -1.9312  1.6075 -0.9086
23299SOL    HW271339   1.208   2.763   7.130  0.0450 -3.2809 -0.2954
23300SOL     OW71340   5.972   3.288   6.027  0.3776  1.1213  0.3908
23300SOL    HW171341   5.923   3.323   6.102  0.5420 -0.2908  1.1942
23300SOL    HW271342   6.052   3.339   6.025 -0.6443  2.7849 -0.3242
23301SOL     OW71343   0.991   6.813   3.091  0.7396  0.3735 -0.0939
23301SOL    HW171344   1.053   6.742   3.108 -0.2040 -0.5000 -0.2189
23301SOL    HW271345   0.940   6.820   3.171  1.1254  1.2371  0.0869
23302SOL     OW71346   1.168   1.206   9.549 -0.0563  0.2093 -0.1147
23302SOL    HW171347   1.220   1.159   9.483  0.3231 -1.7514  1.4905
23302SOL    HW271348   1.080   1.170   9.539 -0.0460  0.0713  0.2831
23303SOL     OW71349   0.538   4.709   7.626  0.5927 -0.1053 -0.5352
23303SOL    HW171350   0.511   4.697   7.717  0.1459  0.3554 -0.6050
23303SOL    HW271351   0.632   4.721   7.630  0.2789  2.6696  0.1574
23304SOL     OW71352   5.960   4.632   5.653  0.4700  0.3532  0.1710
23304SOL    HW171353   6.001   4.716   5.674 -0.8505  1.1149 -0.1444
23304SOL    HW271354   6.031   4.577   5.620  1.1539  1.7673 -0.7931
23305SOL     OW71355   7.707   0.263   3.494 -0.1394 -0.5363 -0.1954
23305SOL    HW171356   7.782   0.284   3.440  0.3274 -1.5015  0.0501
23305SOL    HW271357   7.648   0.338   3.484  1.5385  1.0060  0.9033
23306SOL     OW71358   3.830   7.241   2.703  0.2552 -0.2495 -0.3709
23306SOL    HW171359   3.873   7.211   2.784 -0.0256  1.8878  0.6334
23306SOL    HW271360   3.811   7.333   2.719 -1.1674 -0.1512 -2.3293
23307SOL     OW71361   7.490   7.434  10.243  0.0543 -0.1180 -0.0819
23307SOL    HW171362   7.439   7.419  10.164 -0.4405  2.2636 -0.2800
23307SOL    HW271363   7.497   7.529  10.250  2.3047 -0.3111  1.3369
23308SOL     OW71364   3.464   5.560   0.366  0.0270  0.3006  0.2106
23308SOL    HW171365   3.420   5.572   0.450  1.8104  0.2802  1.1931
23308SOL    HW271366   3.476   5.466   0.358  0.7307  0.3693  0.4132
23309SOL     OW71367   7.580   7.066   9.970  0.3270  0.2895  0.0224
23309SOL    HW171368   7.600   6.977   9.941  0.8605  1.0295 -2.0247
23309SOL    HW271369   7.559   7.056  10.063  0.0592 -2.0065 -0.2180
23310SOL     OW71370   6.261   0.504   2.706  0.6941  0.6963  0.5739
23310SOL    HW171371   6.217   0.435   2.655 -0.1019  0.2863  1.7743
23310SOL    HW271372   6.352   0.502   2.676  0.9890 -1.7435  1.4623
23311SOL     OW71373   7.699   0.512   6.124 -0.5159 -0.5030  0.1765
23311SOL    HW171374   7.681   0.602   6.150  0.6097 -0.5227  1.0758
23311SOL    HW271375   7.738   0.518   6.037 -0.7072 -0.1488  0.1162
23312SOL     OW71376   5.154   4.538   7.975 -0.9521  0.2758 -0.2434
23312SOL    HW171377   5.064   4.562   7.951 -1.3676 -1.9762 -1.2288
23312SOL    HW271378   5.148   4.446   7.999  1.1096  0.0605 -0.4078
23313SOL     OW71379   5.775   0.231  11.958  0.2703 -0.2645  0.6939
23313SOL    HW171380   5.795   0.156  11.902 -0.7038  0.4802 -0.7243
23313SOL    HW271381   5.753   0.193  12.043 -0.9024 -1.6648 -0.1871
23314SOL     OW71382   4.248   7.476  11.244 -0.3625  0.4388 -0.0603
23314SOL    HW171383   4.327   7.528  11.260 -0.2695  0.3922 -0.3586
23314SOL    HW271384   4.248   7.461  11.149  1.1015 -2.4140  0.2564
23315SOL     OW71385   1.344   3.296   2.388 -0.3702  0.0519 -0.0686
23315SOL    HW171386   1.261   3.337   2.412 -0.0111  1.2264 -0.7375
23315SOL    HW271387   1.341   3.210   2.429 -1.5384  0.4110  0.6534
23316SOL     OW71388   6.755   7.895   9.765  0.1605  0.3457 -0.0677
23316SOL    HW171389   6.723   7.832   9.701  0.7560 -0.3364  0.2918
23316SOL    HW271390   6.681   7.910   9.824  0.2530 -0.6194  0.3057
23317SOL     OW71391   3.983   1.469   2.241 -0.7407  0.0585  0.5817
23317SOL    HW171392   3.969   1.381   2.276 -0.3607 -0.0750  0.4010
23317SOL    HW271393   3.957   1.528   2.312  0.0891 -0.2072  1.1189
23318SOL     OW71394   2.114   1.623   5.459  0.6771 -0.3132 -0.7114
23318SOL    HW171395   2.199   1.583   5.474  1.2956  1.1624 -0.1456
23318SOL    HW271396   2.099   1.679   5.535 -0.9506 -0.7656 -0.6413
23319SOL     OW71397   4.930   6.742  12.366 -0.9525 -0.1765 -0.1881
23319SOL    HW171398   4.920   6.831  12.332  0.8452  0.5995  1.1502
23319SOL    HW271399   4.887   6.744  12.451 -0.8089 -0.5591 -0.1064
23320SOL     OW71400   2.487   5.634   4.744  0.1475  1.2204 -0.0104
23320SOL    HW171401   2.573   5.666   4.772 -0.6286  2.6369  0.9075
23320SOL    HW271402   2.437   5.626   4.825 -0.2633 -0.7205 -0.4018
23321SOL     OW71403   4.064   4.560   9.738 -0.5260  0.6275 -0.7618
23321SOL    HW171404   4.123   4.578   9.811 -0.2413 -2.0769 -0.2236
23321SOL    HW271405   4.034   4.646   9.710 -0.3427  1.8151  2.2796
23322SOL     OW71406   2.372   6.352   5.710  0.1594  0.1019  0.4084
23322SOL    HW171407   2.442   6.287   5.704  0.0739  0.0789 -0.5749
23322SOL    HW271408   2.411   6.432   5.673  0.4487  0.7879  2.1284
23323SOL     OW71409   0.991   3.981   2.577  0.1744 -0.4768 -0.7340
23323SOL    HW171410   1.037   4.053   2.534  1.4722 -0.6757  0.2815
23323SOL    HW271411   1.052   3.907   2.573  0.2710 -0.5637  1.2211
23324SOL     OW71412   5.021   5.099   4.517 -0.1487  0.3668 -0.2298
23324SOL    HW171413   4.938   5.115   4.562  0.7419  1.0860  1.2184
23324SOL    HW271414   5.023   5.004   4.505 -0.0920  0.0344  1.9896
23325SOL     OW71415   2.789   6.634   9.224 -0.4949 -0.2887  0.2268
23325SOL    HW171416   2.720   6.699   9.236  0.3923  0.7581 -0.1751
23325SOL    HW271417   2.776   6.602   9.135 -1.0266 -0.8083  0.4769
23326SOL     OW71418   7.482   0.876   3.488 -0.0285 -0.1774  0.2102
23326SOL    HW171419   7.499   0.937   3.559  1.8859  1.1786 -1.3020
23326SOL    HW271420   7.569   0.858   3.450 -0.8620 -1.6552 -1.1299
23327SOL     OW71421   7.286   5.163   4.632 -0.1577 -0.0052 -0.2826
23327SOL    HW171422   7.228   5.147   4.557 -0.9573  1.1888  0.0449
23327SOL    HW271423   7.228   5.155   4.708  1.1137 -3.7454  0.5141
23328SOL     OW71424   3.466   4.684   3.074  0.2716 -0.5022 -0.2594
23328SOL    HW171425   3.473   4.745   3.001 -0.6141  1.5632  1.2950
23328SOL    HW271426   3.545   4.629   3.067  0.5900  0.1335 -2.2743
23329SOL     OW71427   3.588   5.082   0.617 -0.6068  0.9212 -0.1585
23329SOL    HW171428   3.643   5.104   0.542  0.4099 -1.1646 -0.0913
23329SOL    HW271429   3.624   5.133   0.689  0.7188  0.2664 -0.3252
23330SOL     OW71430   4.038   2.987   3.250  0.5846  0.0983  0.1684
23330SOL    HW171431   4.093   2.966   3.326  0.8188 -0.3879 -0.1376
23330SOL    HW271432   4.034   2.906   3.200 -0.3004  0.1626  0.1133
23331SOL     OW71433   1.389   2.148   1.390  0.2675  0.1696  0.5566
23331SOL    HW171434   1.434   2.204   1.327  0.4598 -0.7370 -0.1305
23331SOL    HW271435   1.455   2.086   1.420 -0.4717 -1.1386 -0.4187
23332SOL     OW71436   1.472   6.280   2.539 -0.0972  0.1965 -0.1730
23332SOL    HW171437   1.383   6.297   2.571 -1.8249 -3.8022 -2.1534
23332SOL    HW271438   1.517   6.242   2.615 -1.8404 -2.4618 -0.3290
23333SOL     OW71439   4.930   5.622  10.009 -0.2485 -0.5069  0.3358
23333SOL    HW171440   4.901   5.552   9.951 -1.0311  0.5224 -0.5342
23333SOL    HW271441   4.915   5.587  10.097 -1.0179 -1.2749 -0.0800
23334SOL     OW71442   7.360   5.906   4.542 -0.1277 -0.0175  0.2963
23334SOL    HW171443   7.346   5.866   4.456 -2.4859  0.4266  0.4091
23334SOL    HW271444   7.362   5.831   4.603  1.6157 -0.3366 -0.0869
23335SOL     OW71445   2.898   4.927   5.920  0.3468 -0.0571  1.0485
23335SOL    HW171446   2.908   4.841   5.879  3.6630  1.5216 -1.9754
23335SOL    HW271447   2.820   4.964   5.879 -0.4875 -1.1742  1.5746
23336SOL     OW71448   4.283   6.315   1.715  0.0125 -0.0593  0.5780
23336SOL    HW171449   4.350   6.297   1.782  0.1768  0.8114  0.6620
23336SOL    HW271450   4.304   6.403   1.684 -1.2022  0.2967  0.7272
23337SOL     OW71451   1.221   2.204   7.388  0.3084  0.1418  0.3744
23337SOL    HW171452   1.307   2.200   7.347  0.2674  0.2386  0.2785
23337SOL    HW271453   1.162   2.233   7.318  0.4977  1.9187  0.8820
23338SOL     OW71454   7.335   3.979   2.154  0.2483 -0.7207  0.2497
23338SOL    HW171455   7.252   3.932   2.146  0.0888 -0.3024 -0.7459
23338SOL    HW271456   7.379   3.939   2.229 -1.5289  0.1138  1.7910
23339SOL     OW71457   4.063   6.273  10.609 -0.5229  0.0052 -0.4695
23339SOL    HW171458   4.099   6.332  10.543 -1.2026  1.1002  0.1059
23339SOL    HW271459   4.135   6.258  10.671 -0.2756  0.0204 -0.7540
23340SOL     OW71460   0.716   3.128   9.938  0.2547  0.4041 -0.1664
23340SOL    HW171461   0.732   3.034   9.928 -1.3883  0.2763 -2.3656
23340SOL    HW271462   0.800   3.169   9.920  0.3628 -0.5569 -2.1204
23341SOL     OW71463   0.799   5.406   0.627  0.2377  0.2969  0.1201
23341SOL    HW171464   0.789   5.496   0.657 -0.0108  0.4545 -0.4296
23341SOL    HW271465   0.873   5.372   0.678  0.6426  0.9581 -0.0106
23342SOL     OW71466   7.209   1.239   5.022 -0.7633 -0.0905  0.6007
23342SOL    HW171467   7.119   1.228   4.991 -0.7194 -2.5248  1.0960
23342SOL    HW271468   7.203   1.226   5.117  0.0011  0.6711  0.7622
23343SOL     OW71469   3.286   5.522   6.620  0.0559 -0.1396 -0.1094
23343SOL    HW171470   3.215   5.546   6.679  1.2212  1.4895  0.7184
23343SOL    HW271471   3.345   5.598   6.622  1.8956 -1.4850 -0.6230
23344SOL     OW71472   5.237   6.393   9.911  0.7999  0.5028 -0.5041
23344SOL    HW171473   5.282   6.473   9.937 -1.5566  1.2770  1.5487
23344SOL    HW271474   5.277   6.324   9.965 -0.3692  1.1912  1.3466
23345SOL     OW71475   1.382   0.541   9.151  0.1943 -0.0286  0.2635
23345SOL    HW171476   1.471   0.539   9.187  0.7832 -0.5059 -1.1429
23345SOL    HW271477   1.342   0.618   9.192  0.8288 -0.4780  1.8271
23346SOL     OW71478   3.833   4.449   2.714  0.0348  0.0578 -0.1863
23346SOL    HW171479   3.864   4.448   2.624 -0.5642  2.4443 -0.4944
23346SOL    HW271480   3.795   4.537   2.726 -2.5399 -1.1511  1.4950
23347SOL     OW71481   5.402   1.843   9.157 -0.3655  0.5532  0.3642
23347SOL    HW171482   5.341   1.808   9.222 -2.7058  0.9909 -1.4322
23347SOL    HW271483   5.439   1.921   9.198  1.6534 -1.5189  2.7763
23348SOL     OW71484   6.685   4.621   1.674 -0.7764  0.1061 -0.6173
23348SOL    HW171485   6.760   4.621   1.615 -0.3538 -1.9995 -0.1571
23348SOL    HW271486   6.632   4.546   1.646 -2.1620  0.9052 -0.2394
23349SOL     OW71487   2.150   7.216   5.348  0.7569  0.1573  0.2799
23349SOL    HW171488   2.056   7.227   5.362  0.7715  0.5411  0.0787
23349SOL    HW271489   2.168   7.261   5.265  1.0983 -0.0076  0.2614
23350SOL     OW71490   6.236   5.665   0.261 -0.1866  0.4634  1.1995
23350SOL    HW171491   6.323   5.699   0.279 -0.3554  1.7592 -0.2739
23350SOL    HW271492   6.181   5.702   0.331 -0.0760  2.0742  0.4799
23351SOL     OW71493   2.372   7.901   4.293  0.2917  0.5500 -0.2708
23351SOL    HW171494   2.424   7.823   4.275  0.7439  0.5921  0.7496
23351SOL    HW271495   2.437   7.972   4.298 -0.1177  1.0047 -1.2248
23352SOL     OW71496   2.511   7.545   7.825 -0.4306  0.5620 -0.3528
23352SOL    HW171497   2.485   7.470   7.877 -1.4560  0.6622 -0.6941
23352SOL    HW271498   2.503   7.620   7.885 -0.7430  0.5635 -0.3919
23353SOL     OW71499   1.402   7.725  10.292 -0.3072 -0.1667  0.9058
23353SOL    HW171500   1.392   7.658  10.224 -0.4984  0.3590  0.4064
23353SOL    HW271501   1.407   7.676  10.374  1.5812 -0.9300  0.3983
23354SOL     OW71502   5.817   2.153   6.126 -0.0388  0.0675  0.0188
23354SOL    HW171503   5.867   2.217   6.176 -0.4070 -0.5668  1.2510
23354SOL    HW271504   5.861   2.148   6.041 -0.1801  2.1502 -0.2196
23355SOL     OW71505   1.038   0.362   0.936  0.3897 -0.4247 -0.0377
23355SOL    HW171506   1.071   0.443   0.975  0.1965  0.5357 -1.7665
23355SOL    HW271507   0.971   0.390   0.874  1.1812 -1.7699 -1.6063
23356SOL     OW71508   5.237   5.848   4.796 -0.1413  0.1799 -0.2625
23356SOL    HW171509   5.263   5.792   4.869 -1.9321 -1.4965 -0.8402
23356SOL    HW271510   5.319   5.888   4.767  0.7083  0.5176  2.2950
23357SOL     OW71511   5.743   4.487   8.405  0.3836  0.0279 -0.2406
23357SOL    HW171512   5.756   4.442   8.322  0.5774 -0.1079 -0.1373
23357SOL    HW271513   5.677   4.555   8.386  0.0833 -0.3049 -0.3928
23358SOL     OW71514   5.572   7.621   5.303 -0.1483  0.3867  0.3232
23358SOL    HW171515   5.658   7.647   5.270 -0.0439  2.3240  1.9495
23358SOL    HW271516   5.576   7.525   5.305  1.5243  0.3867 -0.7424
23359SOL     OW71517   0.186   6.808   7.671  0.7978 -0.0549 -0.3281
23359SOL    HW171518   0.117   6.845   7.615 -0.1478 -1.7339 -0.3305
23359SOL    HW271519   0.139   6.770   7.745  1.9493  1.0705  1.0301
23360SOL     OW71520   2.920   3.391  10.129  0.0253  0.6514 -0.1662
23360SOL    HW171521   3.013   3.405  10.110  0.0474  0.9466  0.1558
23360SOL    HW271522   2.881   3.375  10.043  0.4583  0.0196 -0.2544
23361SOL     OW71523   6.346   3.440   3.430  0.1637  0.5586  0.0653
23361SOL    HW171524   6.374   3.521   3.474 -1.0558  0.7765  0.5008
23361SOL    HW271525   6.341   3.464   3.338 -0.0395  0.9504  0.1733
23362SOL     OW71526   2.488   4.332   9.431 -0.0167  0.6706  0.1696
23362SOL    HW171527   2.542   4.257   9.454 -0.3963  0.6564  1.0315
23362SOL    HW271528   2.432   4.346   9.507 -1.5133  0.4473 -0.8587
23363SOL     OW71529   6.877   7.732   1.090  0.3314 -0.2385 -0.4267
23363SOL    HW171530   6.892   7.777   1.173  1.6152 -0.4056 -0.5594
23363SOL    HW271531   6.964   7.708   1.059  0.0708  1.3721 -2.7016
23364SOL     OW71532   7.523   5.715   2.750 -0.2712 -0.1990  0.4052
23364SOL    HW171533   7.518   5.805   2.717  1.9980 -0.8092 -1.8059
23364SOL    HW271534   7.566   5.723   2.835  1.4416  0.7005 -0.5100
23365SOL     OW71535   0.400   7.736   2.317  0.0449  0.2129 -0.0147
23365SOL    HW171536   0.476   7.694   2.278 -0.7038  0.5334 -1.9442
23365SOL    HW271537   0.415   7.830   2.306 -0.1626  0.3190  0.5434
23366SOL     OW71538   2.986   4.110  11.063 -0.5147 -0.4153  0.1854
23366SOL    HW171539   2.957   4.022  11.087 -1.7825 -0.6454 -1.8729
23366SOL    HW271540   3.040   4.098  10.985 -1.3995  0.6311 -0.6476
23367SOL     OW71541   0.584   4.228  11.180 -0.5844  0.6878 -0.2836
23367SOL    HW171542   0.583   4.315  11.141 -2.0737  2.0331  2.4812
23367SOL    HW271543   0.521   4.233  11.251  0.6773 -2.1112  1.1872
23368SOL     OW71544   3.241   7.885  10.430 -0.4719 -0.2799 -0.3666
23368SOL    HW171545   3.227   7.979  10.439  1.0733 -0.0923  0.3963
23368SOL    HW271546   3.234   7.852  10.519 -0.3885 -0.7951 -0.5497
23369SOL     OW71547   3.642   6.376   0.214  0.5531  0.5951 -0.7260
23369SOL    HW171548   3.680   6.288   0.205 -0.1086  0.0596  1.1788
23369SOL    HW271549   3.552   6.366   0.182  0.5155  0.6160 -0.6260
23370SOL     OW71550   0.420   3.467  12.245  0.0523 -0.3129  0.1198
23370SOL    HW171551   0.464   3.429  12.322  0.3981  0.6862  0.4396
23370SOL    HW271552   0.472   3.438  12.171  0.2494 -0.5486  0.3480
23371SOL     OW71553   4.194   3.290   2.255  0.0249 -0.0936  0.1639
23371SOL    HW171554   4.214   3.318   2.345 -0.4852 -0.0968  0.2840
23371SOL    HW271555   4.256   3.219   2.238 -0.4704 -0.7066  0.8524
23372SOL     OW71556   4.016   0.357   1.873  0.4633 -0.2407 -0.3655
23372SOL    HW171557   4.065   0.281   1.903 -0.8950 -0.7904  0.5568
23372SOL    HW271558   3.969   0.327   1.796  0.8164  0.0141 -0.6874
23373SOL     OW71559   0.298   5.056  10.688 -0.0136 -0.2226  0.5369
23373SOL    HW171560   0.366   5.073  10.754  0.8942  1.1424 -0.6800
23373SOL    HW271561   0.335   5.090  10.607 -1.0897 -1.8699 -0.7163
23374SOL     OW71562   2.857   6.562   5.821  0.0941 -0.6225  0.7541
23374SOL    HW171563   2.796   6.557   5.894  1.0077 -0.8240  1.5090
23374SOL    HW271564   2.944   6.550   5.860  0.7271  0.7481 -0.1321
23375SOL     OW71565   7.223   3.547   6.139 -0.1518 -0.8505 -0.0065
23375SOL    HW171566   7.262   3.583   6.059 -0.1831 -2.9858 -1.0378
23375SOL    HW271567   7.297   3.515   6.190 -0.2168 -0.5192  0.3004
23376SOL     OW71568   7.075   2.923  10.814  0.0382 -0.3553 -0.5926
23376SOL    HW171569   7.015   2.949  10.884 -0.2981  1.5057 -1.5116
23376SOL    HW271570   7.035   2.845  10.776  1.1647 -2.5599  2.3906
23377SOL     OW71571   1.867   0.161  12.245  0.3966  0.2048  0.3844
23377SOL    HW171572   1.883   0.251  12.273 -2.8191  1.2054 -0.5878
23377SOL    HW271573   1.899   0.158  12.155 -1.9470  1.2955 -0.5484
23378SOL     OW71574   5.112   0.157   7.594  0.1285 -0.3599 -0.3210
23378SOL    HW171575   5.169   0.082   7.581  0.5824 -0.4555  1.7589
23378SOL    HW271576   5.059   0.162   7.514  0.6849 -2.3480 -0.8716
23379SOL     OW71577   1.339   2.926   1.017 -0.5571  0.1912 -0.4516
23379SOL    HW171578   1.319   2.834   1.031  1.2090 -0.1861 -0.1714
23379SOL    HW271579   1.409   2.945   1.079  1.1709  0.9040 -2.4771
23380SOL     OW71580   0.489   5.301   6.772  0.7599 -1.1850  0.0916
23380SOL    HW171581   0.399   5.306   6.739  1.0845 -0.5452 -0.7098
23380SOL    HW271582   0.489   5.355   6.851  0.4538 -1.1561  0.0729
23381SOL     OW71583   1.373   4.694   8.617  0.5104  0.3321 -0.0413
23381SOL    HW171584   1.359   4.685   8.523  0.8989 -1.0996  0.0251
23381SOL    HW271585   1.323   4.622   8.656  2.4834 -0.7339  0.6478
23382SOL     OW71586   3.635   5.921   6.720  0.1336 -0.0583 -0.2204
23382SOL    HW171587   3.649   5.840   6.671 -1.3595 -0.5664  0.1321
23382SOL    HW271588   3.540   5.932   6.722  0.3060  1.7325 -0.2794
23383SOL     OW71589   4.019   0.969   4.666  0.0978  0.0195 -0.1708
23383SOL    HW171590   4.001   1.051   4.712  1.7058 -0.3116  1.1695
23383SOL    HW271591   4.069   0.996   4.589 -1.8041  0.5042 -1.2770
23384SOL     OW71592   5.513   0.619  12.144 -0.4018 -0.1895 -0.1834
23384SOL    HW171593   5.521   0.559  12.070 -0.1490 -0.5665  0.1391
23384SOL    HW271594   5.454   0.575  12.205 -0.5839  0.1012 -0.1490
23385SOL     OW71595   7.156   7.088   3.822  0.3095  0.3572 -0.7181
23385SOL    HW171596   7.167   7.130   3.737  0.6761 -1.4241 -1.5946
23385SOL    HW271597   7.070   7.046   3.818  1.1443 -1.4581 -1.0678
23386SOL     OW71598   0.203   3.952   4.446 -0.3109 -0.2946  0.4582
23386SOL    HW171599   0.144   3.880   4.470 -1.5867  0.7028  0.4201
23386SOL    HW271600   0.264   3.957   4.519 -0.9139 -0.6976  1.0086
23387SOL     OW71601   1.875   4.340  11.289 -0.6143  0.0595  0.0316
23387SOL    HW171602   1.861   4.248  11.311  0.7604  0.3235  2.3277
23387SOL    HW271603   1.930   4.338  11.210 -0.2210 -1.1101  0.3128
23388SOL     OW71604   0.780   2.701   5.209 -0.3627 -0.1044  0.2234
23388SOL    HW171605   0.848   2.673   5.270 -0.3639 -1.2598 -0.2742
23388SOL    HW271606   0.742   2.779   5.248 -1.9971 -2.0722  2.9585
23389SOL     OW71607   7.090   1.807   3.368  0.4403 -0.4876  0.5635
23389SOL    HW171608   7.120   1.879   3.423 -0.0419  0.3699 -0.2543
23389SOL    HW271609   7.006   1.837   3.332  0.7694 -0.9778 -0.6809
23390SOL     OW71610   5.493   5.355   8.931  0.5350  0.3056 -0.3440
23390SOL    HW171611   5.403   5.376   8.909  0.4695  0.7562  0.3332
23390SOL    HW271612   5.487   5.293   9.004  0.7712  0.2285 -0.3871
23391SOL     OW71613   4.420   4.657  12.344 -0.0806  0.0689  0.4332
23391SOL    HW171614   4.414   4.689  12.254 -0.3494  1.8641  1.0554
23391SOL    HW271615   4.329   4.652  12.374 -0.0295 -1.0426  0.4662
23392SOL     OW71616   2.617   1.104  10.880 -0.3165  0.3384 -0.2700
23392SOL    HW171617   2.692   1.148  10.842 -0.1054  0.5161  0.3465
23392SOL    HW271618   2.628   1.114  10.974 -0.0551 -1.3729 -0.0924
23393SOL     OW71619   5.767   4.174   8.314  0.1497 -0.1081 -0.6267
23393SOL    HW171620   5.675   4.150   8.325  0.4245 -2.0486 -2.0809
23393SOL    HW271621   5.768   4.233   8.239  0.0572  0.1072 -0.4577
23394SOL     OW71622   5.866   7.785  10.145 -0.2996 -1.0782  0.2638
23394SOL    HW171623   5.936   7.800  10.081  0.9051 -0.3607  1.6874
23394SOL    HW271624   5.792   7.836  10.111 -0.5338 -2.6688 -1.7984
23395SOL     OW71625   4.602   3.569   1.976  0.1447 -0.1993 -0.5001
23395SOL    HW171626   4.533   3.624   1.939 -0.7494 -1.3632 -0.6226
23395SOL    HW271627   4.662   3.631   2.017 -0.2372  0.9355 -1.5815
23396SOL     OW71628   3.090   4.598   0.408  0.3111  0.7931  0.0411
23396SOL    HW171629   3.030   4.542   0.359  2.0843 -1.3838  0.1718
23396SOL    HW271630   3.045   4.617   0.490 -0.3147 -0.5984  0.0531
23397SOL     OW71631   6.775   0.886   9.966 -0.6316  0.4220  0.0030
23397SOL    HW171632   6.777   0.960  10.026  0.8390  0.0282  0.4958
23397SOL    HW271633   6.723   0.820  10.012 -0.2036  0.4225  0.5125
23398SOL     OW71634   5.506   0.449   3.622  0.3938  0.0867  0.2164
23398SOL    HW171635   5.442   0.478   3.686 -1.0389  1.5901 -1.7777
23398SOL    HW271636   5.585   0.499   3.642  0.2962 -0.2091  1.3858
23399SOL     OW71637   6.033   4.423   0.385  1.2471 -0.1540 -0.3322
23399SOL    HW171638   6.083   4.391   0.461  0.2077  0.6084  0.7004
23399SOL    HW271639   6.073   4.507   0.364 -0.5981  1.3009  1.5925
23400SOL     OW71640   6.571   5.496  12.328 -0.3792 -0.1365 -0.1474
23400SOL    HW171641   6.477   5.506  12.343 -0.4838 -1.4105  0.1024
23400SOL    HW271642   6.590   5.560  12.260 -1.4480  0.0817 -0.2680
23401SOL     OW71643   7.293   2.121  10.669  0.4446  0.1308  0.2591
23401SOL    HW171644   7.366   2.075  10.710  1.1288  0.8622 -0.1155
23401SOL    HW271645   7.220   2.111  10.731  0.4716 -1.7025  0.0528
23402SOL     OW71646   2.227   0.915   2.197  0.0667  0.2631  0.1035
23402SOL    HW171647   2.249   0.829   2.160  0.1248 -0.2421  1.2496
23402SOL    HW271648   2.268   0.915   2.284 -0.6632  1.1019  0.4686
23403SOL     OW71649   5.387   5.866  10.559  0.0895 -0.1046  0.6002
23403SOL    HW171650   5.318   5.919  10.598 -0.0090 -0.4541  0.9078
23403SOL    HW271651   5.453   5.858  10.628  0.3391  0.0527  0.3800
23404SOL     OW71652   7.368   2.294   4.337 -0.2348 -0.3015 -0.7836
23404SOL    HW171653   7.402   2.296   4.247 -0.1635 -0.8012 -0.7677
23404SOL    HW271654   7.298   2.359   4.336  0.6331  0.6556 -0.8414
23405SOL     OW71655   7.852   1.279   6.772  0.0012  0.4207  0.1956
23405SOL    HW171656   7.817   1.192   6.789 -0.5277  0.5165 -0.3654
23405SOL    HW271657   7.922   1.265   6.707 -1.9353  0.6800 -2.0764
23406SOL     OW71658   3.787   2.848   0.730  0.5004 -0.2259  0.2996
23406SOL    HW171659   3.763   2.887   0.814 -0.6714 -0.5043  0.1051
23406SOL    HW271660   3.715   2.870   0.672  0.4970 -1.4669 -0.1973
23407SOL     OW71661   6.780   6.070   1.789  0.2950 -0.1594  0.0180
23407SOL    HW171662   6.832   6.151   1.795  0.4934 -0.3501  1.4512
23407SOL    HW271663   6.762   6.059   1.696  3.0698 -0.2161 -0.6028
23408SOL     OW71664   6.046   3.934   2.547  0.0478 -0.0728  0.5791
23408SOL    HW171665   5.985   3.909   2.478 -1.7097 -1.7695  2.5851
23408SOL    HW271666   5.991   3.946   2.625  2.0214  0.8462  1.9399
23409SOL     OW71667   0.087   6.868   7.248  0.1069  0.6391 -0.3757
23409SOL    HW171668   0.025   6.798   7.231 -0.7738  1.4824 -0.7661
23409SOL    HW271669   0.143   6.835   7.317 -1.1764  0.0810  0.4334
23410SOL     OW71670   0.372   0.045   2.587  0.0392 -1.0363 -0.1607
23410SOL    HW171671   0.359   0.021   2.679 -1.8283 -0.5432 -0.2434
23410SOL    HW271672   0.349  -0.035   2.539 -2.0039 -0.4470 -0.2690
23411SOL     OW71673   7.741   0.700   8.468 -0.1222 -0.4651 -0.0462
23411SOL    HW171674   7.650   0.695   8.496  0.0497  1.2679  0.9481
23411SOL    HW271675   7.741   0.660   8.381 -2.0324  0.4437 -0.5106
23412SOL     OW71676   5.564   3.013   3.422 -0.0738  0.3969  0.2153
23412SOL    HW171677   5.625   3.032   3.494  1.0622  2.4082 -1.1759
23412SOL    HW271678   5.486   3.063   3.444  0.1949  0.8441  0.1712
23413SOL     OW71679   1.554   0.042   9.201  0.6820  0.2538 -0.7678
23413SOL    HW171680   1.507   0.124   9.219  0.9212  0.3597 -0.6137
23413SOL    HW271681   1.628   0.044   9.262  1.8462  0.9053 -2.1571
23414SOL     OW71682   1.940   2.775  11.441 -0.1601 -0.0209 -0.2054
23414SOL    HW171683   2.019   2.817  11.475 -1.4957  1.6178  1.0674
23414SOL    HW271684   1.968   2.734  11.359  1.9490  0.6630  0.0993
23415SOL     OW71685   0.965   4.454   4.299  0.0257 -0.4172  0.5413
23415SOL    HW171686   0.973   4.377   4.355 -1.7960 -1.0688 -0.0362
23415SOL    HW271687   0.878   4.489   4.318  0.0868  0.4046 -0.5645
23416SOL     OW71688   3.338   7.386   2.421  0.3543 -0.0249  0.8089
23416SOL    HW171689   3.320   7.397   2.515  0.8674 -1.1911  1.0699
23416SOL    HW271690   3.385   7.466   2.397  1.5928 -0.3712  1.9338
23417SOL     OW71691   1.748   4.868   9.752 -0.3986  0.6034  0.2811
23417SOL    HW171692   1.655   4.852   9.770 -0.8043  0.5627 -1.6592
23417SOL    HW271693   1.785   4.781   9.736 -0.4260  0.7569 -0.6620
23418SOL     OW71694   7.768   5.184   5.217  0.3236  0.1293  0.0773
23418SOL    HW171695   7.834   5.252   5.233  1.0406 -0.5155 -0.0612
23418SOL    HW271696   7.819   5.106   5.196 -0.4958 -0.3545 -0.1657
23419SOL     OW71697   3.563   6.497   6.073 -0.1149  0.5379  0.3527
23419SOL    HW171698   3.577   6.591   6.060  1.0633  0.3180 -0.0995
23419SOL    HW271699   3.550   6.487   6.167 -0.3037  1.1567  0.3961
23420SOL     OW71700   3.695   1.664   6.084 -0.3889  0.0631 -0.4213
23420SOL    HW171701   3.643   1.744   6.085 -0.9242 -0.2246 -2.4674
23420SOL    HW271702   3.632   1.594   6.096 -0.5723 -0.2886 -2.9285
23421SOL     OW71703   3.936   4.384   1.523 -0.0480 -0.1196 -0.0858
23421SOL    HW171704   4.027   4.407   1.541  0.0520  0.7949 -1.5770
23421SOL    HW271705   3.886   4.460   1.552 -0.2089 -0.0910 -0.4367
23422SOL     OW71706   5.156   6.854  11.221 -0.4111  0.0972 -0.0180
23422SOL    HW171707   5.076   6.901  11.244 -0.1451 -0.4340  2.2207
23422SOL    HW271708   5.163   6.785  11.286  1.7491 -0.0203 -0.2867
23423SOL     OW71709   1.276   5.062   8.372 -0.1379 -0.5897 -0.3484
23423SOL    HW171710   1.193   5.097   8.339  0.8068  1.7167 -0.4454
23423SOL    HW271711   1.321   5.029   8.295 -0.6945 -1.3274 -0.3727
23424SOL     OW71712   7.165   6.196   7.749 -0.1964 -0.3468  0.7603
23424SOL    HW171713   7.235   6.143   7.787  1.0387  0.8976  0.2795
23424SOL    HW271714   7.110   6.220   7.824 -0.4692 -1.8245  1.0552
23425SOL     OW71715   6.707   2.475   5.864  0.6848  0.0818 -0.1982
23425SOL    HW171716   6.696   2.558   5.911 -0.6384  0.3917 -0.9756
23425SOL    HW271717   6.706   2.500   5.772  1.0607 -0.7273 -0.4289
23426SOL     OW71718   6.397   3.626   4.727 -0.3804  0.4425 -0.5035
23426SOL    HW171719   6.359   3.676   4.656 -0.5471  1.8889  0.5626
23426SOL    HW271720   6.325   3.572   4.761 -0.5625  0.5241 -0.7637
23427SOL     OW71721   2.507   7.431  12.345 -0.0280 -0.2688  0.0467
23427SOL    HW171722   2.421   7.471  12.330  1.3096  2.2708 -1.7832
23427SOL    HW271723   2.561   7.504  12.377  2.1353 -1.0200 -1.6792
23428SOL     OW71724   1.278   0.354   0.319  0.1260 -0.0046  0.2384
23428SOL    HW171725   1.263   0.334   0.411  0.7632  0.4563  0.4491
23428SOL    HW271726   1.300   0.270   0.279  2.3209  0.1317  1.0171
23429SOL     OW71727   3.459   0.612   0.908  0.0096  0.2363 -0.3019
23429SOL    HW171728   3.441   0.555   0.982  0.9097  1.0456  0.5689
23429SOL    HW271729   3.386   0.675   0.908 -1.1864 -1.0682 -1.4904
23430SOL     OW71730   1.258   7.764  10.742 -0.1867 -0.4863 -0.1382
23430SOL    HW171731   1.200   7.757  10.667  0.6303 -0.8416 -0.7589
23430SOL    HW271732   1.290   7.854  10.740 -1.1908 -0.1041  0.5778
23431SOL     OW71733   4.635   6.282   2.372  0.1710 -0.0452 -0.5335
23431SOL    HW171734   4.639   6.370   2.334  0.8526  0.7304  1.2599
23431SOL    HW271735   4.541   6.262   2.375 -0.0021  0.6968 -0.7756
23432SOL     OW71736   4.919   4.785   6.031 -0.1077 -0.1589  0.0584
23432SOL    HW171737   5.007   4.747   6.030 -0.5339 -1.2503  1.2690
23432SOL    HW271738   4.888   4.776   5.941  0.6189 -0.7196 -0.1427
23433SOL     OW71739   2.032   7.147   0.788  0.0130 -0.3203  0.1666
23433SOL    HW171740   2.086   7.142   0.867 -0.3954 -2.2092  0.3737
23433SOL    HW271741   1.945   7.121   0.817  0.3775 -3.7655 -1.3088
23434SOL     OW71742   4.859   0.402   7.235 -0.1377  0.0634  0.2267
23434SOL    HW171743   4.774   0.364   7.213  0.5757 -0.0424 -2.7793
23434SOL    HW271744   4.852   0.493   7.205  0.7573  0.0829  0.0626
23435SOL     OW71745   1.910   4.747  10.741  0.3533  0.0516  0.1125
23435SOL    HW171746   1.944   4.834  10.718 -0.7686  0.4653 -0.0079
23435SOL    HW271747   1.825   4.763  10.781  0.6710 -0.9249  1.2506
23436SOL     OW71748   2.705   7.300   4.895  0.2568  0.8993  0.3062
23436SOL    HW171749   2.703   7.213   4.855  1.0857  0.8824  0.2938
23436SOL    HW271750   2.727   7.360   4.824 -0.5038  1.1525  0.2736
23437SOL     OW71751   0.122   0.768   3.995 -0.1350  0.8805 -0.6987
23437SOL    HW171752   0.162   0.854   3.985  1.5854  0.0274 -1.6435
23437SOL    HW271753   0.091   0.745   3.908 -1.8685  1.0873 -0.1805
23438SOL     OW71754   6.236   1.872   4.857  0.5161 -0.2723 -0.3899
23438SOL    HW171755   6.329   1.884   4.838  0.0973  1.1239 -1.7046
23438SOL    HW271756   6.194   1.950   4.821 -0.8938  0.4607  2.5087
23439SOL     OW71757   2.373   2.769   8.269 -0.1434 -0.2598 -0.5267
23439SOL    HW171758   2.359   2.835   8.337 -0.2950 -1.4017  0.5838
23439SOL    HW271759   2.465   2.777   8.247  0.1820 -0.6140  0.6314
23440SOL     OW71760   3.564   4.222   2.127  0.7670  0.3281  0.0985
23440SOL    HW171761   3.595   4.172   2.203 -0.1021  0.3640  0.4905
23440SOL    HW271762   3.613   4.186   2.053  0.9790 -0.3271  0.5482
23441SOL     OW71763   2.018   0.512   6.154 -0.0940 -0.7615  0.1560
23441SOL    HW171764   1.969   0.480   6.230 -2.9459  0.2397 -1.0883
23441SOL    HW271765   1.971   0.591   6.127  2.4603  0.4582 -1.0619
23442SOL     OW71766   2.280   5.451   9.256 -0.1047  0.0393  0.0439
23442SOL    HW171767   2.280   5.545   9.278  2.3593  0.2623 -0.6554
23442SOL    HW271768   2.325   5.410   9.329  0.4125 -0.3485 -0.4854
23443SOL     OW71769   2.391   3.474   3.652 -0.3896  0.0146 -0.1414
23443SOL    HW171770   2.359   3.563   3.668 -0.3624  0.3645 -1.8258
23443SOL    HW271771   2.423   3.476   3.562  0.8483 -1.3608  0.2286
23444SOL     OW71772   6.813   3.424   6.583  0.6447 -0.6672 -0.1920
23444SOL    HW171773   6.782   3.409   6.493 -1.1006  0.1215  0.2365
23444SOL    HW271774   6.893   3.475   6.572 -1.1822  2.2013 -1.3157
23445SOL     OW71775   7.361   0.648   3.654 -0.3252 -0.3508  0.1681
23445SOL    HW171776   7.417   0.711   3.608  0.8984 -0.8140  0.9878
23445SOL    HW271777   7.303   0.703   3.707  0.9853  0.1216  1.1722
23446SOL     OW71778   5.529   2.397  11.948  0.1960 -0.2882  0.0085
23446SOL    HW171779   5.466   2.359  11.887 -1.6556  2.9796 -0.3468
23446SOL    HW271780   5.493   2.376  12.035 -1.4816  1.5331 -0.1892
23447SOL     OW71781   0.898   1.778   6.527 -0.1421  0.0169  0.1768
23447SOL    HW171782   0.877   1.848   6.464 -2.2486 -1.2925 -0.7201
23447SOL    HW271783   0.975   1.736   6.490 -1.1317 -0.5043 -1.4356
23448SOL     OW71784   5.525   1.250   0.899  0.5269 -0.2947 -0.0303
23448SOL    HW171785   5.565   1.185   0.956  2.2886 -0.3050 -1.1889
23448SOL    HW271786   5.557   1.228   0.811 -1.2802  0.3186 -0.8825
23449SOL     OW71787   5.591   6.902   1.692 -0.5844  0.4578  0.0056
23449SOL    HW171788   5.508   6.931   1.730 -0.0923  0.0022  1.4926
23449SOL    HW271789   5.640   6.865   1.766  0.9253  0.6611 -0.8488
23450SOL     OW71790   0.549   2.646   1.707  0.0949 -0.1582  0.2184
23450SOL    HW171791   0.516   2.725   1.748 -0.5124 -1.4468  2.3651
23450SOL    HW271792   0.553   2.667   1.614 -0.8238  2.0925  0.6287
23451SOL     OW71793   0.225   0.084   3.045 -0.2853  0.0606 -0.3737
23451SOL    HW171794   0.269   0.163   3.014  1.1067 -0.3475  0.4302
23451SOL    HW271795   0.266   0.013   2.996 -0.1721 -0.3172  0.2585
23452SOL     OW71796   0.172   1.507   2.101 -0.0745 -0.1974  0.4151
23452SOL    HW171797   0.185   1.478   2.011 -3.0366  2.6392 -1.1189
23452SOL    HW271798   0.116   1.440   2.140 -1.0798 -0.0914 -0.8033
23453SOL     OW71799   1.432   1.334  12.294  0.6877 -0.2243  0.1240
23453SOL    HW171800   1.474   1.420  12.291 -0.3823  0.3445  1.0680
23453SOL    HW271801   1.452   1.300  12.381  0.7285 -0.7577 -0.0856
23454SOL     OW71802   4.071   2.259   1.686  0.5636  0.5037  0.2963
23454SOL    HW171803   4.090   2.284   1.595 -2.2219  1.4334 -0.1359
23454SOL    HW271804   4.052   2.342   1.730 -3.8942 -0.1669  0.1235
23455SOL     OW71805   2.272   2.635   1.569  0.2234 -0.0685  0.1344
23455SOL    HW171806   2.342   2.677   1.620 -0.2889  0.9112  0.0574
23455SOL    HW271807   2.192   2.676   1.601 -0.2128 -0.3475 -0.5906
23456SOL     OW71808   2.696   7.065   4.716  0.4029 -0.8639 -0.5516
23456SOL    HW171809   2.771   7.087   4.661 -0.0713 -0.4108 -1.0285
23456SOL    HW271810   2.622   7.109   4.674  0.4087  1.7191  1.7876
23457SOL     OW71811   6.165   2.236   6.853 -0.5623 -0.3496 -0.7219
23457SOL    HW171812   6.186   2.144   6.843  1.9513  0.4081 -3.9433
23457SOL    HW271813   6.153   2.268   6.763 -0.7990  2.5650  0.2395
23458SOL     OW71814   2.115   0.811   8.394 -0.3468 -0.1281 -0.3283
23458SOL    HW171815   2.094   0.904   8.402 -1.4044 -0.5290  2.9978
23458SOL    HW271816   2.211   0.808   8.393 -0.2880  0.9739  0.2834
23459SOL     OW71817   1.048   6.123   2.710  0.3208 -0.2497  0.3366
23459SOL    HW171818   1.124   6.180   2.700  1.8227 -1.7110  2.6915
23459SOL    HW271819   0.983   6.176   2.755  0.7538  0.3364  0.2708
23460SOL     OW71820   2.985   6.521   4.604 -0.4176  0.2637 -0.0361
23460SOL    HW171821   2.933   6.590   4.562  0.6038  1.1617  0.1326
23460SOL    HW271822   2.923   6.450   4.621 -2.1049  2.1385  2.1717
23461SOL     OW71823   6.569   1.702  10.216 -0.3042 -0.0010 -0.1413
23461SOL    HW171824   6.584   1.608  10.207  2.0068  0.4475 -2.2311
23461SOL    HW271825   6.491   1.719  10.163 -0.6778 -0.7252  0.1656
23462SOL     OW71826   7.899   2.830   4.479  0.1878  0.0446  0.2949
23462SOL    HW171827   7.894   2.743   4.440  4.1842  0.1281 -0.8394
23462SOL    HW271828   7.936   2.885   4.410  1.3200  1.7426  2.1647
23463SOL     OW71829   1.482   1.532   7.296 -0.1567  0.2629 -0.6079
23463SOL    HW171830   1.547   1.594   7.331  0.3303 -0.1835 -0.7076
23463SOL    HW271831   1.458   1.570   7.211  0.8028 -0.1145 -1.0739
23464SOL     OW71832   3.377   3.092   8.911 -0.5503 -0.5919  0.0037
23464SOL    HW171833   3.471   3.079   8.927 -0.3032  1.4577  0.5458
23464SOL    HW271834   3.352   3.020   8.854  1.5129 -0.7977 -0.7244
23465SOL     OW71835   2.669   0.617   4.779  0.1091 -0.7545  0.6451
23465SOL    HW171836   2.637   0.529   4.800 -0.4911 -0.7538 -0.2022
23465SOL    HW271837   2.590   0.671   4.780 -0.3062 -1.0365 -3.0350
23466SOL     OW71838   1.645   4.250   4.133 -0.2449  0.3525  0.6400
23466SOL    HW171839   1.712   4.203   4.085 -1.8506 -0.3488 -1.0588
23466SOL    HW271840   1.574   4.187   4.144 -3.2789  2.5447 -3.3504
23467SOL     OW71841   0.863   1.890   6.027  0.0496  0.0411  0.0283
23467SOL    HW171842   0.914   1.859   5.953 -0.4014 -0.8397  0.0763
23467SOL    HW271843   0.792   1.827   6.035 -0.1476  0.3690  0.9456
23468SOL     OW71844   0.192   5.287   2.983  0.6934 -0.2262  0.0848
23468SOL    HW171845   0.258   5.325   2.925 -0.1418  0.6904 -0.3010
23468SOL    HW271846   0.113   5.340   2.968 -0.4335 -1.9115 -0.2052
23469SOL     OW71847   6.707   3.127   7.859 -0.2199  0.2436 -0.1030
23469SOL    HW171848   6.676   3.170   7.779  2.1360  0.4955 -0.9534
23469SOL    HW271849   6.748   3.046   7.828  0.4415  0.1918  0.8832
23470SOL     OW71850   5.915   3.701   2.932  0.2420  0.2190 -0.2835
23470SOL    HW171851   5.958   3.733   3.011  0.4461 -0.0998 -0.2651
23470SOL    HW271852   5.987   3.683   2.871  0.0335  1.8909 -1.1012
23471SOL     OW71853   0.112   0.178  10.974 -0.3043 -0.6817 -0.6147
23471SOL    HW171854   0.144   0.250  11.027  0.7719  0.4499 -2.6712
23471SOL    HW271855   0.191   0.138  10.937 -0.9442 -2.2215 -0.3827
23472SOL     OW71856   5.829   2.452   8.716 -0.2032  0.1890 -0.0246
23472SOL    HW171857   5.883   2.377   8.691  0.5587  0.5746  0.4229
23472SOL    HW271858   5.815   2.501   8.635 -1.5966 -0.9666 -0.5362
23473SOL     OW71859   2.766   0.488   5.109 -0.0802  0.5445  0.1701
23473SOL    HW171860   2.858   0.477   5.131 -0.3762 -2.1235  0.3449
23473SOL    HW271861   2.766   0.502   5.014  0.5112  0.9612  0.2246
23474SOL     OW71862   3.096   0.301   8.353 -0.5196 -0.6341  0.5760
23474SOL    HW171863   3.136   0.321   8.268  0.3027  1.5379  1.4004
23474SOL    HW271864   3.125   0.372   8.410 -0.5776 -2.3498  2.8655
23475SOL     OW71865   0.453   6.520   5.292  0.0123  0.0628  0.1121
23475SOL    HW171866   0.500   6.581   5.236 -0.8538 -1.7228 -2.8173
23475SOL    HW271867   0.362   6.548   5.288 -0.2341 -0.7721 -0.3883
23476SOL     OW71868   2.305   2.251   3.070  0.4160  0.4553  0.0827
23476SOL    HW171869   2.282   2.207   3.152  1.5035 -0.0493  0.1341
23476SOL    HW271870   2.314   2.180   3.006  0.0342  0.8064 -0.3743
23477SOL     OW71871   3.313   6.475   4.799  0.1243 -0.4700  0.5294
23477SOL    HW171872   3.265   6.557   4.795  0.8387 -0.0230  0.9224
23477SOL    HW271873   3.249   6.411   4.830 -0.7616 -0.3357 -0.9412
23478SOL     OW71874   3.659   1.039   0.001  0.5184 -0.1319  0.0629
23478SOL    HW171875   3.607   1.117   0.022 -1.4392 -1.2538 -0.2965
23478SOL    HW271876   3.746   1.073  -0.017  0.0987  1.8113  1.3011
23479SOL     OW71877   0.563   4.761   7.120 -0.7321  0.1012 -0.7178
23479SOL    HW171878   0.541   4.732   7.208 -1.2518  1.8733 -0.2246
23479SOL    HW271879   0.613   4.842   7.133 -0.4909  0.1926 -2.0385
23480SOL     OW71880   6.582   1.860   6.209 -0.1002 -0.2945 -0.0785
23480SOL    HW171881   6.636   1.833   6.283  0.7145  1.3878 -0.0100
23480SOL    HW271882   6.562   1.952   6.226 -1.2153 -0.3070 -1.1793
23481SOL     OW71883   6.801   4.940   5.774  0.3947  0.0117  0.0866
23481SOL    HW171884   6.815   4.972   5.685 -1.9397  0.9212 -0.0176
23481SOL    HW271885   6.751   5.009   5.817  0.3155 -0.9977  1.7046
23482SOL     OW71886   4.857   1.753  10.934  0.0855 -0.1815  0.1863
23482SOL    HW171887   4.809   1.693  10.877  2.0605 -0.3712 -1.3808
23482SOL    HW271888   4.873   1.830  10.879  0.5669  0.3467  1.0533
23483SOL     OW71889   3.756   6.554  10.728 -0.3543  0.2796 -0.3047
23483SOL    HW171890   3.706   6.479  10.696  1.9790 -0.8970 -1.4414
23483SOL    HW271891   3.777   6.604  10.649 -0.5875  1.3373  0.2773
23484SOL     OW71892   5.874   2.741   6.882  0.3208  0.4786  0.6300
23484SOL    HW171893   5.946   2.707   6.830  0.3007 -0.6483  1.3043
23484SOL    HW271894   5.903   2.828   6.909  0.2379  1.1687 -1.3912
23485SOL     OW71895   7.489   1.332   8.970 -0.3505 -0.1984  0.6217
23485SOL    HW171896   7.411   1.338   8.914 -0.2506 -1.9402  0.2375
23485SOL    HW271897   7.562   1.340   8.910 -0.2135  0.9240  0.9189
23486SOL     OW71898   0.268   2.828   9.179  0.4556 -0.1112  0.3908
23486SOL    HW171899   0.292   2.775   9.104  1.0795  0.2612  0.3217
23486SOL    HW271900   0.303   2.915   9.160 -0.1351  0.2100  0.7200
23487SOL     OW71901   2.206   1.784   5.680 -0.1325 -0.6827 -0.3408
23487SOL    HW171902   2.260   1.724   5.732  0.0918 -0.3122 -0.1367
23487SOL    HW271903   2.186   1.856   5.741  1.4346  0.5400 -1.2065
23488SOL     OW71904   0.619   2.797   9.086  0.3274  0.2223 -0.6585
23488SOL    HW171905   0.671   2.744   9.146 -0.5194  0.8409  0.6997
23488SOL    HW271906   0.585   2.736   9.022 -1.5547 -1.1687  1.5051
23489SOL     OW71907   3.299   1.979  10.429 -0.5276 -0.7842 -0.1883
23489SOL    HW171908   3.383   1.958  10.389 -0.3909 -0.4421 -0.0887
23489SOL    HW271909   3.238   1.915  10.393 -0.7160  0.3482 -2.0258
23490SOL     OW71910   1.659   0.233   1.432 -0.6772 -0.4121 -0.6392
23490SOL    HW171911   1.733   0.272   1.386 -0.2264 -0.7340 -0.2081
23490SOL    HW271912   1.697   0.159   1.479 -0.9477  0.3577  0.8681
23491SOL     OW71913   7.591   2.199   8.336 -0.0569  0.1075 -0.1716
23491SOL    HW171914   7.617   2.290   8.325 -1.3518  0.7131  1.3122
23491SOL    HW271915   7.670   2.155   8.368  0.2113  1.0465  0.5065
23492SOL     OW71916   6.523   0.540   1.573 -0.0353  0.2087  0.0391
23492SOL    HW171917   6.435   0.579   1.573  0.3308  1.0567  0.2619
23492SOL    HW271918   6.568   0.583   1.646  1.4231  1.8175 -1.6981
23493SOL     OW71919   7.287   6.310   3.732 -0.1566  0.0632  0.4825
23493SOL    HW171920   7.202   6.336   3.768 -1.7005 -4.5578  0.9300
23493SOL    HW271921   7.268   6.289   3.640 -0.2189 -3.0102  1.0877
23494SOL     OW71922   6.158   1.788   3.337 -0.1809 -0.7740 -0.3228
23494SOL    HW171923   6.185   1.720   3.399 -0.6561  0.0117  0.7748
23494SOL    HW271924   6.177   1.871   3.382 -0.9707 -0.1867 -1.0399
23495SOL     OW71925   5.031   2.635   8.758  0.5215 -0.0140 -0.6188
23495SOL    HW171926   5.024   2.731   8.758 -0.8458 -0.0653 -2.3356
23495SOL    HW271927   4.944   2.605   8.784  0.7649 -0.7897 -0.7004
23496SOL     OW71928   5.100   6.245   2.040 -0.2640 -0.0781  0.4966
23496SOL    HW171929   5.194   6.227   2.035 -0.1301  0.4327  1.0479
23496SOL    HW271930   5.082   6.255   2.134 -0.7586  0.3821  0.3605
23497SOL     OW71931   6.510   5.195   6.516 -0.2920 -0.7686  0.5709
23497SOL    HW171932   6.510   5.125   6.450 -1.4557 -0.2540 -0.0178
23497SOL    HW271933   6.585   5.249   6.493  0.1668 -1.3934  0.5607
23498SOL     OW71934   1.961   3.720  11.875 -0.3714  0.2470 -0.1694
23498SOL    HW171935   2.002   3.697  11.959 -0.6084 -0.8876 -0.3528
23498SOL    HW271936   1.868   3.725  11.894 -0.2337  2.4475  0.1582
23499SOL     OW71937   6.677   6.466  11.952 -0.1213  0.1021 -0.3512
23499SOL    HW171938   6.703   6.458  11.861 -0.8549 -0.1019 -0.5502
23499SOL    HW271939   6.699   6.556  11.975  0.7225 -0.0606 -0.5123
23500SOL     OW71940   4.516   5.108   9.789  0.6868 -0.0359  0.3508
23500SOL    HW171941   4.443   5.051   9.812  0.7608 -0.3974 -0.2929
23500SOL    HW271942   4.502   5.187   9.841 -0.2849 -0.0114  0.0682
23501SOL     OW71943   0.398   7.734   7.216  0.3697  0.2958  0.0631
23501SOL    HW171944   0.493   7.742   7.221  0.2857  0.5112  2.0719
23501SOL    HW271945   0.372   7.701   7.302 -1.5207  1.9693  0.2147
23502SOL     OW71946   2.470   2.651   7.795 -0.3832  0.0468 -0.4963
23502SOL    HW171947   2.496   2.639   7.886  0.5141  1.1506 -0.5784
23502SOL    HW271948   2.375   2.658   7.797 -0.3519  0.3283  0.3967
23503SOL     OW71949   0.006   3.179   2.963 -0.5979  0.0722 -0.4090
23503SOL    HW171950   0.097   3.155   2.944  0.2004  3.0715 -0.9154
23503SOL    HW271951  -0.026   3.110   3.021  2.8220  0.1439  1.8215
23504SOL     OW71952   7.069   2.509   5.738  0.4886  0.3298 -0.4472
23504SOL    HW171953   7.050   2.601   5.722 -0.8792  0.1841  0.2256
23504SOL    HW271954   7.155   2.510   5.781  0.5281  1.2852 -0.5318
23505SOL     OW71955   1.253   2.510   2.429 -0.0355 -0.0536 -0.4203
23505SOL    HW171956   1.272   2.570   2.357  0.1626  0.5559  0.1298
23505SOL    HW271957   1.192   2.558   2.485  1.9969  0.6523  1.3184
23506SOL     OW71958   1.868   3.245   4.409  0.6473 -0.0134  0.8865
23506SOL    HW171959   1.940   3.203   4.362 -0.3314 -0.6963 -0.0644
23506SOL    HW271960   1.904   3.266   4.495  2.3576  0.8333  0.0138
23507SOL     OW71961   0.733   4.262   9.308 -0.2527 -0.2560  0.2603
23507SOL    HW171962   0.676   4.192   9.341  0.5473 -0.8389  0.4111
23507SOL    HW271963   0.801   4.271   9.374  0.4962 -0.3654 -0.4828
23508SOL     OW71964   0.767   6.469   0.397 -0.0194 -0.3081 -0.4053
23508SOL    HW171965   0.678   6.471   0.361 -0.1041 -1.1153 -0.2530
23508SOL    HW271966   0.756   6.443   0.488  0.2348  1.3117  0.1240
23509SOL     OW71967   2.204   1.289   8.160  0.0046 -0.4783  0.3326
23509SOL    HW171968   2.195   1.384   8.163  0.7133 -0.3493 -0.9270
23509SOL    HW271969   2.258   1.267   8.235 -0.0784  0.1263  0.5732
23510SOL     OW71970   6.788   6.157   6.298  0.2808  0.2707 -0.0179
23510SOL    HW171971   6.701   6.118   6.295  0.3977  0.0400 -1.4774
23510SOL    HW271972   6.775   6.243   6.336 -0.4078 -0.1625  0.7580
23511SOL     OW71973   6.857   2.547  11.521  0.4892 -0.2525 -0.4475
23511SOL    HW171974   6.943   2.555  11.563  0.7965 -1.6753 -0.7694
23511SOL    HW271975   6.807   2.621  11.555  2.1399  1.1974 -1.0042
23512SOL     OW71976   4.362   7.707   5.354  0.2654 -0.0040 -0.6898
23512SOL    HW171977   4.311   7.684   5.276  0.7372  0.1167 -1.0369
23512SOL    HW271978   4.449   7.729   5.320  0.3139  0.5968 -0.1906
23513SOL     OW71979   6.433   3.459   6.842  0.1965  0.0583  0.0820
23513SOL    HW171980   6.527   3.464   6.863  0.3332  1.0198 -0.6932
23513SOL    HW271981   6.422   3.371   6.807  0.8719  0.0370 -0.1014
23514SOL     OW71982   1.193   1.083   1.682 -0.1382 -0.0919 -0.1222
23514SOL    HW171983   1.203   1.177   1.667 -0.0714 -0.2483 -1.0902
23514SOL    HW271984   1.250   1.042   1.618  0.5210 -0.7868  0.8944
23515SOL     OW71985   1.752   1.072   5.748 -0.4219  0.0011 -0.7931
23515SOL    HW171986   1.658   1.080   5.764 -0.1473 -0.8350  1.6729
23515SOL    HW271987   1.772   1.141   5.684 -1.6886  4.5343  3.1149
23516SOL     OW71988   5.837   6.723   9.015 -0.3020 -0.0371 -0.0688
23516SOL    HW171989   5.908   6.763   8.965  0.1458  0.9395  1.3097
23516SOL    HW271990   5.876   6.644   9.053 -0.2018  0.0531  0.0150
23517SOL     OW71991   3.356   3.025   1.466 -0.0827  0.7483  0.4088
23517SOL    HW171992   3.401   3.106   1.491  0.0830  0.5690  0.6875
23517SOL    HW271993   3.297   3.052   1.395  1.6966  0.6916 -1.1711
23518SOL     OW71994   0.048   7.223   7.838  0.1712 -0.2501 -0.2465
23518SOL    HW171995   0.101   7.149   7.810  0.4216  0.4396 -1.7253
23518SOL    HW271996   0.110   7.285   7.876  0.3867  0.3316 -1.4945
23519SOL     OW71997   5.543   4.813   1.007  0.1293 -0.5741 -0.1750
23519SOL    HW171998   5.500   4.734   0.973  0.2387 -0.9677  0.5765
23519SOL    HW271999   5.493   4.835   1.086  0.1967  0.0294 -0.2942
23520SOL     OW72000   0.318   4.208   4.157 -0.3387  0.0377 -0.0197
23520SOL    HW172001   0.242   4.264   4.142 -2.4278 -2.7519 -0.7587
23520SOL    HW272002   0.370   4.217   4.077 -1.2471  0.0603 -0.6230
23521SOL     OW72003   5.546   0.019   8.875 -0.4593  0.0055 -0.2237
23521SOL    HW172004   5.568   0.111   8.865 -1.4588  0.2429 -0.3167
23521SOL    HW272005   5.586  -0.007   8.958 -2.1051  1.1350  0.9849
23522SOL     OW72006   4.995   6.764  10.392  0.1283  0.4662  0.0736
23522SOL    HW172007   4.911   6.766  10.346 -0.1095 -0.2441  0.4529
23522SOL    HW272008   5.054   6.817  10.338  0.0371 -0.8521 -1.3752
23523SOL     OW72009   5.150   4.061   0.244 -0.2269  0.0217  0.0433
23523SOL    HW172010   5.169   4.006   0.321 -1.3234 -1.5518 -0.7659
23523SOL    HW272011   5.103   4.004   0.185  1.5031  0.8723 -2.3034
23524SOL     OW72012   1.964   7.349   9.926  0.6518 -0.2118  0.7490
23524SOL    HW172013   2.020   7.408   9.977 -1.0719  0.2680  2.1906
23524SOL    HW272014   2.024   7.285   9.888  2.1880  0.3759  2.0771
23525SOL     OW72015   7.012   7.863  11.984  0.4811 -0.1541  0.1855
23525SOL    HW172016   6.953   7.935  12.006  0.2455 -0.1997 -0.2720
23525SOL    HW272017   6.955   7.786  11.980  0.5663 -0.1945 -0.2889
23526SOL     OW72018   7.794   5.796   7.185  0.2023 -0.0777 -0.1586
23526SOL    HW172019   7.795   5.701   7.190  1.9100 -0.0415  1.7157
23526SOL    HW272020   7.778   5.825   7.275  0.2337  1.4099 -0.5932
23527SOL     OW72021   7.664   5.455   0.215  0.2519 -0.1584 -0.1481
23527SOL    HW172022   7.594   5.392   0.199  1.2030 -1.3279  0.1748
23527SOL    HW272023   7.665   5.467   0.310  1.8429 -1.8107  0.0981
23528SOL     OW72024   1.386   3.843   3.878 -0.1037  0.4509  0.0671
23528SOL    HW172025   1.431   3.927   3.869 -1.1032  0.8768 -1.2603
23528SOL    HW272026   1.304   3.855   3.830 -0.9953 -0.7656  1.2278
23529SOL     OW72027   2.053   7.370   0.595 -0.1158 -0.2351  0.1655
23529SOL    HW172028   2.059   7.458   0.633  3.0879 -0.1904 -0.1766
23529SOL    HW272029   2.028   7.384   0.504 -1.1456  0.1690  0.4978
23530SOL     OW72030   3.944   4.632   1.388  0.1056  0.0727 -0.2356
23530SOL    HW172031   3.868   4.628   1.446 -0.2576 -0.6870 -0.7412
23530SOL    HW272032   3.907   4.636   1.300  0.6057 -1.5572 -0.5689
23531SOL     OW72033   1.425   6.621   7.692 -0.1217 -0.1161  0.0868
23531SOL    HW172034   1.337   6.638   7.727 -0.1266  0.5062 -0.2270
23531SOL    HW272035   1.421   6.529   7.664 -1.0621  0.2329 -1.0373
23532SOL     OW72036   6.205   5.850   7.165 -0.0432 -0.2090  0.1165
23532SOL    HW172037   6.209   5.755   7.161 -0.7736 -0.2302 -0.5583
23532SOL    HW272038   6.145   5.868   7.238 -0.4932 -0.2994 -0.2200
23533SOL     OW72039   6.546   6.251  11.788  0.2354  0.2056  0.4024
23533SOL    HW172040   6.582   6.323  11.840 -1.1476  0.3557  1.1788
23533SOL    HW272041   6.478   6.291  11.734  0.4221 -0.2833 -0.2211
23534SOL     OW72042   4.791   0.370   5.440  0.2711 -0.2026 -0.5341
23534SOL    HW172043   4.700   0.343   5.432  0.3220 -0.9424  0.9850
23534SOL    HW272044   4.793   0.425   5.518  1.3477 -1.3435  0.2903
23535SOL     OW72045   1.475   0.907   0.075 -0.3615 -0.5284 -0.3064
23535SOL    HW172046   1.550   0.926   0.018 -0.1268  1.2149  0.5058
23535SOL    HW272047   1.515   0.870   0.154 -0.5361 -1.3000 -0.5699
23536SOL     OW72048   7.397   6.505   6.276 -0.2456 -0.0312  0.3347
23536SOL    HW172049   7.433   6.439   6.217 -2.2816 -2.4459  1.5953
23536SOL    HW272050   7.317   6.535   6.232  0.5226  1.4618 -0.1035
23537SOL     OW72051   6.584   3.578  11.559  0.1681 -0.1691 -0.3407
23537SOL    HW172052   6.533   3.618  11.630  0.4472 -0.3176 -0.0508
23537SOL    HW272053   6.671   3.617  11.568  1.1128 -2.4298  1.3727
23538SOL     OW72054   6.618   2.985   8.800  0.0395  0.1046  0.0735
23538SOL    HW172055   6.523   2.970   8.796  0.0741 -0.7023  1.4263
23538SOL    HW272056   6.628   3.080   8.789 -0.8148  0.0664 -1.2432
23539SOL     OW72057   7.358   0.724   9.930  0.0195 -0.0584 -0.0386
23539SOL    HW172058   7.434   0.736   9.987  2.5000 -0.5780 -2.9813
23539SOL    HW272059   7.356   0.803   9.876 -0.3999 -0.8417 -1.2032
23540SOL     OW72060   2.368   5.945   3.028 -0.1222 -0.6304  0.3481
23540SOL    HW172061   2.460   5.961   3.008 -0.5296  1.0118 -0.3621
23540SOL    HW272062   2.360   5.960   3.122 -0.1657  2.0219 -0.0239
23541SOL     OW72063   1.708   1.384  10.953 -0.1891 -0.4748  0.2997
23541SOL    HW172064   1.646   1.335  11.008  1.8113  0.2930  3.5078
23541SOL    HW272065   1.793   1.342  10.969  0.8221  1.1724 -0.4811
23542SOL     OW72066   2.864   1.033   0.642  0.0407  0.8422  0.3249
23542SOL    HW172067   2.779   1.074   0.628  0.4493  1.3501 -0.7977
23542SOL    HW272068   2.845   0.953   0.691 -0.8517  1.9922  1.9537
23543SOL     OW72069   3.448   0.427   1.467 -0.2033  0.1226 -0.4829
23543SOL    HW172070   3.540   0.453   1.471  0.2187 -1.3910  0.9365
23543SOL    HW272071   3.402   0.494   1.519  0.3318  0.0670  0.0758
23544SOL     OW72072   7.701   4.441   0.338  0.3001 -0.5831 -0.0685
23544SOL    HW172073   7.616   4.485   0.342  0.4501 -0.3615  0.8914
23544SOL    HW272074   7.728   4.432   0.430  0.3255 -2.5697 -0.2266
23545SOL     OW72075   1.287   5.291  10.952 -0.0172  0.3061  0.3764
23545SOL    HW172076   1.382   5.281  10.961  0.2055  1.6425 -0.3695
23545SOL    HW272077   1.261   5.218  10.896  0.5913  0.0130  0.4639
23546SOL     OW72078   0.262   4.089   8.395  0.1221 -0.1779  0.1803
23546SOL    HW172079   0.342   4.141   8.389 -0.2600  0.7071  2.0910
23546SOL    HW272080   0.291   4.005   8.433  0.1279  0.2725  1.2131
23547SOL     OW72081   4.860   4.941  10.282 -0.2434 -0.6352  0.1036
23547SOL    HW172082   4.771   4.958  10.252  0.0343 -0.5422 -0.7004
23547SOL    HW272083   4.915   4.995  10.225  0.2960 -0.2834  0.9330
23548SOL     OW72084   5.249   6.706   3.247  0.1449  0.1985 -0.5714
23548SOL    HW172085   5.189   6.762   3.296  0.3847  0.4148 -0.5289
23548SOL    HW272086   5.191   6.652   3.193 -0.1089  0.1112 -0.2175
23549SOL     OW72087   4.046   4.426   6.765 -0.1168  0.3568 -0.0314
23549SOL    HW172088   4.032   4.339   6.801 -3.5935 -0.0961 -2.0012
23549SOL    HW272089   3.999   4.426   6.682  1.7021  3.4372 -1.2475
23550SOL     OW72090   0.826   2.692   2.542  0.6550 -0.1347 -0.6295
23550SOL    HW172091   0.778   2.718   2.464 -0.8369  0.0952  0.3297
23550SOL    HW272092   0.781   2.613   2.572  2.7989 -1.7630 -1.3982
23551SOL     OW72093   3.481   1.614   5.619  0.1690 -0.3608  0.1656
23551SOL    HW172094   3.448   1.590   5.706 -1.2958 -0.9839 -0.5150
23551SOL    HW272095   3.485   1.709   5.620  0.9839 -0.3955  1.1891
23552SOL     OW72096   2.198   2.285  10.598 -0.3754 -0.5108  0.5014
23552SOL    HW172097   2.200   2.190  10.586 -0.8153 -0.2660 -2.1177
23552SOL    HW272098   2.263   2.318  10.536  0.1965  0.8891  1.8008
23553SOL     OW72099   0.064   4.300   3.185 -0.4823 -0.2287  0.1255
23553SOL    HW172100   0.091   4.354   3.259 -0.1187  0.2739 -0.3621
23553SOL    HW272101   0.132   4.315   3.119 -1.1976 -0.0735 -0.5880
23554SOL     OW72102   6.060   3.783   8.500  0.3234  0.0973  0.5379
23554SOL    HW172103   6.001   3.816   8.433  0.9632  0.2573  0.0412
23554SOL    HW272104   6.025   3.697   8.524  1.7874 -1.4167 -2.2759
23555SOL     OW72105   2.595   7.402  12.086 -0.4479 -0.1303  0.2197
23555SOL    HW172106   2.595   7.307  12.079 -2.0936 -0.1071 -0.8777
23555SOL    HW272107   2.557   7.420  12.172  0.1153 -0.4694  0.5385
23556SOL     OW72108   2.484   3.538   0.413  0.0164 -0.1742  0.1238
23556SOL    HW172109   2.470   3.460   0.360  0.7198 -0.4422  0.3257
23556SOL    HW272110   2.577   3.557   0.404 -0.2879  1.1212 -0.5761
23557SOL     OW72111   0.520   1.204   1.942  0.0702  0.1269  0.1757
23557SOL    HW172112   0.550   1.293   1.962 -1.3448  0.4689  0.8945
23557SOL    HW272113   0.556   1.186   1.854  0.7016  1.2407  0.1837
23558SOL     OW72114   2.314   5.422   8.038  0.4850  0.3051  0.0248
23558SOL    HW172115   2.236   5.472   8.061 -0.9860 -2.0508  0.4961
23558SOL    HW272116   2.356   5.403   8.122  1.6069  1.5610 -0.2266
23559SOL     OW72117   2.603   1.481  10.817 -0.1574 -0.6013  0.4354
23559SOL    HW172118   2.518   1.524  10.818  0.0476 -0.1858  1.1048
23559SOL    HW272119   2.660   1.544  10.772 -0.1858 -0.8450  0.0566
23560SOL     OW72120   4.649   7.832   7.481  0.1975 -0.1455 -0.6088
23560SOL    HW172121   4.579   7.835   7.416  1.0813  0.3213 -1.5792
23560SOL    HW272122   4.686   7.921   7.480  1.2673 -0.5826 -0.6499
23561SOL     OW72123   1.609   1.697   2.646 -0.2047  0.2835  0.9702
23561SOL    HW172124   1.518   1.713   2.623 -0.2979 -1.3390  0.0798
23561SOL    HW272125   1.657   1.715   2.565  0.1522  0.1805  1.1572
23562SOL     OW72126   7.156   5.751   3.671 -0.6089 -0.3830 -0.2687
23562SOL    HW172127   7.132   5.719   3.758 -0.4549 -0.6321 -0.3174
23562SOL    HW272128   7.223   5.690   3.640 -1.2914 -0.8190 -0.9227
23563SOL     OW72129   5.600   6.198   9.372 -0.1784  0.6272 -0.6316
23563SOL    HW172130   5.547   6.261   9.325 -0.2349  0.3396 -0.9545
23563SOL    HW272131   5.545   6.120   9.380  0.3761  0.1389 -1.4348
23564SOL     OW72132   1.602   6.062   8.775  0.1403  0.1413 -0.0123
23564SOL    HW172133   1.664   6.134   8.787  0.2362  0.0261  0.1681
23564SOL    HW272134   1.549   6.062   8.855  1.1836 -1.0243  0.7003
23565SOL     OW72135   6.466   0.017   2.902 -0.4734 -0.0349 -0.0016
23565SOL    HW172136   6.525   0.076   2.856 -0.6928 -0.9352 -1.5176
23565SOL    HW272137   6.405  -0.013   2.834 -2.1480  0.2227  1.3394
23566SOL     OW72138   5.529   1.956  11.000  0.0681  0.2147  0.4159
23566SOL    HW172139   5.517   1.952  11.095  0.8735  0.0667  0.5182
23566SOL    HW272140   5.559   2.045  10.983  0.7949 -0.0172  0.4198
23567SOL     OW72141   3.852   0.425   6.587  0.1654 -0.4345 -0.7393
23567SOL    HW172142   3.760   0.430   6.563  0.1893 -0.7192 -0.8944
23567SOL    HW272143   3.888   0.511   6.564 -0.4313  0.3133  0.9361
23568SOL     OW72144   2.972   4.901   3.688 -0.1125 -0.0608  0.3510
23568SOL    HW172145   3.066   4.892   3.704 -0.0970 -0.8379 -0.1054
23568SOL    HW272146   2.954   4.838   3.619 -0.7478  0.9671 -0.4455
23569SOL     OW72147   4.705   3.645   3.178  0.4300 -0.5691 -0.0242
23569SOL    HW172148   4.767   3.715   3.200  0.5934 -0.6764 -0.1457
23569SOL    HW272149   4.661   3.625   3.261  0.8522 -0.7846  0.1473
23570SOL     OW72150   5.096   5.252   2.775  0.1312 -0.1382  0.2922
23570SOL    HW172151   5.165   5.248   2.841  0.7752  0.8608 -0.2948
23570SOL    HW272152   5.016   5.271   2.824  0.9001  2.5741  0.6693
23571SOL     OW72153   2.842   1.135   1.567  0.1535 -0.1701  0.1153
23571SOL    HW172154   2.922   1.108   1.521 -0.3871  0.3239 -1.1606
23571SOL    HW272155   2.844   1.086   1.649  1.9644  0.1430  0.2986
23572SOL     OW72156   2.302   1.933   6.391 -0.6524 -0.3206 -0.2085
23572SOL    HW172157   2.211   1.957   6.370 -0.8043 -2.1931 -2.0776
23572SOL    HW272158   2.293   1.859   6.451 -0.3419 -0.0390  0.1837
23573SOL     OW72159   4.416   5.243  11.334 -0.1639  0.0727 -0.7190
23573SOL    HW172160   4.435   5.204  11.249 -0.7486 -0.1538 -0.7501
23573SOL    HW272161   4.424   5.170  11.396  1.0181  0.3867 -0.4606
23574SOL     OW72162   1.687   4.760  12.278 -0.0605  0.3437  0.0934
23574SOL    HW172163   1.781   4.744  12.280 -0.2707 -1.7288 -1.9016
23574SOL    HW272164   1.649   4.688  12.328 -0.6813 -1.1680 -2.3659
23575SOL     OW72165   0.088   3.054   0.784 -0.0079  0.2044 -0.0824
23575SOL    HW172166   0.145   3.023   0.855  0.4427 -1.3505 -1.0728
23575SOL    HW272167  -0.000   3.047   0.820  0.1596 -1.2435  0.1467
23576SOL     OW72168   4.064   7.611   1.021 -0.0823  0.2744  0.3346
23576SOL    HW172169   4.083   7.534   0.968  0.6610  0.0396  0.9426
23576SOL    HW272170   4.103   7.684   0.972 -0.0945  0.1667  0.1644
23577SOL     OW72171   0.548   6.926   4.284  0.0784  0.3293 -0.1037
23577SOL    HW172172   0.531   6.859   4.351 -0.1385  1.2539  0.8009
23577SOL    HW272173   0.501   6.895   4.207  1.3909 -1.4204 -0.2716
23578SOL     OW72174   4.233   1.183   1.789 -0.4405 -1.1453  0.3031
23578SOL    HW172175   4.191   1.142   1.713 -0.4417 -1.8671  0.6830
23578SOL    HW272176   4.311   1.130   1.804  0.3715 -0.1083 -0.0952
23579SOL     OW72177   6.230   2.956   4.599  0.2689 -0.2116  0.3189
23579SOL    HW172178   6.212   2.864   4.617  0.0881 -0.5760 -1.4771
23579SOL    HW272179   6.283   2.954   4.518  1.8874  1.1790  1.2734
23580SOL     OW72180   2.646   5.620   7.683  0.2217  0.9461  0.1592
23580SOL    HW172181   2.596   5.548   7.642  1.3265 -1.4417  2.6911
23580SOL    HW272182   2.606   5.699   7.647 -2.6299 -0.8556 -1.0897
23581SOL     OW72183   7.108   0.882  10.017  0.0004  0.0389  0.6177
23581SOL    HW172184   7.193   0.888  10.060 -0.7248  1.2102  1.9470
23581SOL    HW272185   7.110   0.797   9.972  1.4084 -0.4833  1.6077
23582SOL     OW72186   4.402   4.724   2.013 -0.2550  0.3411  0.1350
23582SOL    HW172187   4.461   4.666   2.061  0.8839  1.2782 -0.0913
23582SOL    HW272188   4.314   4.693   2.036  0.2996 -1.7782 -0.3521
23583SOL     OW72189   6.576   1.371   2.091  0.5883 -0.3285  0.3477
23583SOL    HW172190   6.498   1.366   2.146  0.5104 -0.7964  0.1928
23583SOL    HW272191   6.608   1.460   2.105 -1.1906  0.6280 -1.2540
23584SOL     OW72192   1.200   3.189   1.736 -0.4028 -0.7115 -0.2111
23584SOL    HW172193   1.156   3.113   1.697 -0.9862 -0.7940  0.5754
23584SOL    HW272194   1.148   3.208   1.815  0.1228  0.1009 -0.0572
23585SOL     OW72195   4.802   0.455  10.685 -0.3213 -0.3772 -0.6379
23585SOL    HW172196   4.750   0.440  10.606 -3.3387  1.7018  0.7591
23585SOL    HW272197   4.756   0.404  10.753 -0.6620  1.5467  0.6570
23586SOL     OW72198   4.126   2.451   6.728 -0.2939 -0.5327 -0.0390
23586SOL    HW172199   4.062   2.393   6.768  1.2243 -1.1718  1.5995
23586SOL    HW272200   4.128   2.425   6.636 -1.4130 -1.3918  0.1591
23587SOL     OW72201   4.261   1.897   7.254 -0.5856  0.3447  0.6270
23587SOL    HW172202   4.196   1.955   7.293 -0.5915  0.2441  0.7707
23587SOL    HW272203   4.322   1.955   7.209  0.7339  0.6796  2.7074
23588SOL     OW72204   6.939   0.410   8.954  0.5295  0.0842  0.2958
23588SOL    HW172205   6.985   0.437   8.875  0.5860 -0.3788  0.1663
23588SOL    HW272206   6.979   0.326   8.978 -0.1890 -0.2906  0.2172
23589SOL     OW72207   5.828   4.109   2.370  0.3538  1.0284  0.3401
23589SOL    HW172208   5.873   4.025   2.368 -0.6292  0.4248  1.7383
23589SOL    HW272209   5.742   4.089   2.407 -0.1890  2.5305 -0.0396
23590SOL     OW72210   2.402   5.980  11.658  0.3721  0.0870  0.4703
23590SOL    HW172211   2.368   5.921  11.591 -1.5626  0.2153  1.2636
23590SOL    HW272212   2.346   5.965  11.734  0.6678  1.9610  1.1269
23591SOL     OW72213   3.124   4.337   4.038 -0.1222  0.0446  0.2669
23591SOL    HW172214   3.107   4.328   4.132  0.6646  0.4356  0.4597
23591SOL    HW272215   3.064   4.275   3.997 -1.3892  0.7884  0.9261
23592SOL     OW72216   1.389   6.938   2.595  0.1383 -0.1892  0.3713
23592SOL    HW172217   1.482   6.920   2.582 -0.1335 -1.7209  0.2950
23592SOL    HW272218   1.364   6.881   2.668 -1.3128 -1.9017 -1.3573
23593SOL     OW72219   6.001   7.508   1.812  0.5381  0.1206  0.1674
23593SOL    HW172220   5.984   7.508   1.906  0.8252  0.7357  0.2261
23593SOL    HW272221   5.969   7.593   1.782  1.5393  0.4251 -0.0762
23594SOL     OW72222   5.951   6.453   6.495  0.1522  0.0081 -0.2588
23594SOL    HW172223   5.987   6.474   6.581 -0.1626 -0.1991 -0.0740
23594SOL    HW272224   5.945   6.357   6.494 -0.6436  0.0483 -0.1791
23595SOL     OW72225   6.665   4.096   1.281 -0.2268 -0.4098  0.0501
23595SOL    HW172226   6.572   4.075   1.269 -0.7310  1.6944 -0.1102
23595SOL    HW272227   6.710   4.014   1.260 -1.9318 -0.9571 -1.9233
23596SOL     OW72228   0.386   2.198   3.354  0.1550 -0.2434 -0.2724
23596SOL    HW172229   0.311   2.208   3.295 -0.4764  0.1534  0.5826
23596SOL    HW272230   0.462   2.195   3.296 -0.1737  2.7477 -1.0314
23597SOL     OW72231   0.459   3.237   3.215 -0.5377  0.0400  0.3592
23597SOL    HW172232   0.522   3.308   3.225 -0.9007  0.2341  1.4010
23597SOL    HW272233   0.511   3.162   3.185  0.1630  0.2348  1.0729
23598SOL     OW72234   3.388   0.957   7.405 -0.4029 -0.5884 -0.3679
23598SOL    HW172235   3.437   0.906   7.340  1.2878  2.0429 -1.3429
23598SOL    HW272236   3.310   0.906   7.423  1.9162 -4.3261  0.0930
23599SOL     OW72237   0.682   3.211  12.071 -0.3673  0.1313  0.5086
23599SOL    HW172238   0.693   3.173  11.984 -1.1182  1.0362 -0.0037
23599SOL    HW272239   0.705   3.141  12.132  1.1344 -0.2247 -0.4096
23600SOL     OW72240   4.306   3.797   8.781 -0.4510  0.1344 -0.2746
23600SOL    HW172241   4.391   3.757   8.765 -1.0169 -0.8817 -0.8978
23600SOL    HW272242   4.324   3.891   8.786  1.1790 -0.2134  2.9249
23601SOL     OW72243   7.605   2.850   4.655 -0.7374 -0.8214 -0.2225
23601SOL    HW172244   7.536   2.914   4.638  0.4116  0.6069  0.2968
23601SOL    HW272245   7.579   2.808   4.737 -0.7444  0.0786  0.2494
23602SOL     OW72246   1.155   4.421  11.363 -0.4801 -0.6359 -0.4073
23602SOL    HW172247   1.123   4.366  11.435 -0.0940  1.1642  1.2297
23602SOL    HW272248   1.239   4.455  11.394 -1.3499  2.0044 -0.6806
23603SOL     OW72249   5.720   3.309   8.073  0.4327 -0.6125  0.1381
23603SOL    HW172250   5.637   3.267   8.053  0.2191 -0.1739  0.1004
23603SOL    HW272251   5.699   3.375   8.139  1.0650 -1.8084  1.5980
23604SOL     OW72252   7.091   1.959   6.754  0.4216  0.2148  0.1624
23604SOL    HW172253   7.116   2.022   6.687  1.8622  2.4591  2.6102
23604SOL    HW272254   7.171   1.911   6.773 -0.2388 -1.1725 -0.4070
23605SOL     OW72255   0.169   1.589  11.106  0.4744 -0.1454 -0.3347
23605SOL    HW172256   0.111   1.567  11.179  3.9380  0.6549  3.0280
23605SOL    HW272257   0.149   1.680  11.086  0.6528  0.2082  0.9738
23606SOL     OW72258   6.937   0.658  11.699 -0.5960  0.2789  0.3579
23606SOL    HW172259   6.911   0.666  11.791 -1.7458 -0.9194  0.1632
23606SOL    HW272260   6.855   0.671  11.651 -0.0368  0.6948 -0.4904
23607SOL     OW72261   7.383   7.872   4.016 -0.4289 -0.0014 -0.3661
23607SOL    HW172262   7.408   7.889   4.107 -0.4448 -0.3611 -0.2920
23607SOL    HW272263   7.407   7.952   3.969 -0.6449  0.2765 -0.0028
23608SOL     OW72264   1.100   1.602   5.048  0.3952 -0.0909 -0.5091
23608SOL    HW172265   1.054   1.546   5.111  0.2857 -0.6345 -1.0678
23608SOL    HW272266   1.043   1.678   5.039 -0.7179 -1.0067 -1.6236
23609SOL     OW72267   7.614   0.880   3.816  0.3938  0.0927  0.2718
23609SOL    HW172268   7.665   0.882   3.734  0.8875  1.3767  0.5877
23609SOL    HW272269   7.601   0.972   3.838  0.5046 -0.2345  1.7991
23610SOL     OW72270   6.984   2.709   6.086 -0.5513 -0.1086 -0.4154
23610SOL    HW172271   6.938   2.748   6.160 -0.3642  0.9152 -0.8316
23610SOL    HW272272   6.914   2.686   6.024 -0.5056  2.4075 -1.5103
23611SOL     OW72273   5.341   7.254  11.652  0.1944 -0.1912  0.3548
23611SOL    HW172274   5.250   7.231  11.634 -0.8413  3.6833 -0.4497
23611SOL    HW272275   5.352   7.236  11.745 -1.0806 -1.6109  0.2722
23612SOL     OW72276   3.484   0.132   0.206  0.5073 -0.1655 -0.0815
23612SOL    HW172277   3.536   0.137   0.126  0.8499  1.5339  0.2014
23612SOL    HW272278   3.547   0.151   0.276  0.1184 -1.1505  0.5656
23613SOL     OW72279   4.931   0.986   1.702 -0.0910 -0.4130  0.6520
23613SOL    HW172280   4.998   1.054   1.706 -0.4998  0.0186  0.2571
23613SOL    HW272281   4.858   1.026   1.656 -0.5081 -0.9794  0.7996
23614SOL     OW72282   7.643   4.051  12.239  0.1372 -0.0081 -0.7405
23614SOL    HW172283   7.609   3.962  12.238  1.6561 -0.6507 -2.9752
23614SOL    HW272284   7.663   4.068  12.331  0.1130 -2.1069 -0.2897
23615SOL     OW72285   6.023   2.723   2.686 -0.0460  0.0955 -0.3734
23615SOL    HW172286   5.999   2.816   2.692 -1.3581 -0.3070  1.2055
23615SOL    HW272287   6.077   2.707   2.763  0.0556 -0.4904 -0.5587
23616SOL     OW72288   3.583   0.244   7.253  0.2731  0.4203  0.7131
23616SOL    HW172289   3.573   0.323   7.306  0.2369  0.5271  0.5509
23616SOL    HW272290   3.641   0.271   7.182 -0.8300  0.6916 -0.1098
23617SOL     OW72291   2.349   0.333  10.510  0.4933 -0.3150  0.0017
23617SOL    HW172292   2.438   0.345  10.542  0.8807 -2.4610 -0.1180
23617SOL    HW272293   2.294   0.346  10.587  0.7317  2.4649 -0.2195
23618SOL     OW72294   4.396   5.963   4.206  0.5864 -0.4127 -0.2599
23618SOL    HW172295   4.338   5.945   4.132 -0.1252  0.1441  0.1464
23618SOL    HW272296   4.338   5.998   4.274  0.8458 -2.9216  1.3930
23619SOL     OW72297   4.441   2.760   9.283 -0.4667 -0.5015 -0.4368
23619SOL    HW172298   4.373   2.824   9.264 -0.9620 -0.7562  0.4194
23619SOL    HW272299   4.399   2.675   9.266  0.2119 -0.6138 -1.6545
23620SOL     OW72300   2.934   2.553   5.469 -0.6049 -0.0370 -0.5705
23620SOL    HW172301   2.980   2.482   5.424 -0.0395  0.4402 -0.7669
23620SOL    HW272302   2.925   2.621   5.402 -0.4227  0.3882 -0.1662
23621SOL     OW72303   6.494   3.565   5.391  0.0635  0.3908 -0.8752
23621SOL    HW172304   6.507   3.635   5.327  0.5448 -0.4808 -1.7662
23621SOL    HW272305   6.465   3.490   5.339  0.7251 -0.4173 -0.1120
23622SOL     OW72306   3.136   1.798   8.585  0.6456 -0.3510 -0.1454
23622SOL    HW172307   3.183   1.881   8.587  0.3339 -0.1746  1.1788
23622SOL    HW272308   3.107   1.785   8.675 -0.0095 -1.5017 -0.4974
23623SOL     OW72309   2.921   3.285   9.119  0.2123  0.2986  0.6901
23623SOL    HW172310   2.828   3.291   9.140  0.4601 -1.2401  2.4402
23623SOL    HW272311   2.922   3.264   9.025 -1.0907  2.2404  0.1653
23624SOL     OW72312   6.996   1.083  11.349 -0.3109  0.2184 -0.7144
23624SOL    HW172313   7.067   1.037  11.394  0.6042  1.9934 -0.2729
23624SOL    HW272314   7.016   1.176  11.361 -1.5330  0.7487 -2.4765
23625SOL     OW72315   2.113   5.528  11.706  0.3416 -0.3581  0.7427
23625SOL    HW172316   2.129   5.483  11.623  0.4301 -0.1887  0.6657
23625SOL    HW272317   2.175   5.602  11.705  0.0196 -0.0870  0.7508
23626SOL     OW72318   3.808   1.926   6.923  0.4511 -0.6875  0.1672
23626SOL    HW172319   3.818   1.950   6.830  0.7114  1.3898  0.6692
23626SOL    HW272320   3.881   1.971   6.966 -1.1729  0.6100  1.7078
23627SOL     OW72321   1.018   2.112   8.597 -0.2257  0.3118  0.2085
23627SOL    HW172322   1.043   2.203   8.613 -0.1057  0.3505 -0.1968
23627SOL    HW272323   0.924   2.110   8.617 -0.0834  0.3576  0.9044
23628SOL     OW72324   0.323   3.467   3.863  0.2841  0.0941 -0.4142
23628SOL    HW172325   0.257   3.420   3.915  0.6017  0.9033  0.7702
23628SOL    HW272326   0.404   3.456   3.913  0.6592  0.6700 -0.8915
23629SOL     OW72327   2.536   7.417  11.365 -0.0058  0.2522 -0.2336
23629SOL    HW172328   2.600   7.425  11.294  0.3376  1.5837  0.1907
23629SOL    HW272329   2.512   7.508  11.385 -1.0302 -0.1723  0.5154
23630SOL     OW72330   1.682   5.206   1.513 -0.5490  0.6576 -0.0849
23630SOL    HW172331   1.746   5.192   1.582 -0.5573 -2.1609 -0.5469
23630SOL    HW272332   1.734   5.215   1.433 -0.6553  0.6919 -0.1508
23631SOL     OW72333   4.681   1.203   7.670 -0.5617  0.0218  0.1540
23631SOL    HW172334   4.704   1.293   7.693  1.0337 -0.2577 -0.2396
23631SOL    HW272335   4.677   1.202   7.575  0.9487 -0.6381  0.0691
23632SOL     OW72336   3.763   7.409   9.686 -0.0607  0.8357  0.1574
23632SOL    HW172337   3.722   7.486   9.725 -1.5094 -0.3935  1.1419
23632SOL    HW272338   3.698   7.339   9.696  2.4971 -1.4262  2.4703
23633SOL     OW72339   6.490   2.441   7.022 -0.1242  0.0051  0.5248
23633SOL    HW172340   6.428   2.513   7.013  0.5136  0.6105  0.8669
23633SOL    HW272341   6.558   2.475   7.079 -0.0830 -1.0593  1.1386
23634SOL     OW72342   0.044   4.231   9.977  0.0726  0.1433 -0.2650
23634SOL    HW172343   0.016   4.250   9.887 -1.1662 -0.3133  0.0028
23634SOL    HW272344  -0.008   4.156  10.003  0.9793 -0.2098  0.5858
23635SOL     OW72345   5.824   2.554   7.818 -0.8417 -0.1392  0.2691
23635SOL    HW172346   5.804   2.463   7.839 -0.7971  0.0105  0.9680
23635SOL    HW272347   5.812   2.601   7.900  2.8910 -0.0917  0.9768
23636SOL     OW72348   5.992   3.128   6.337  0.6370  0.0517  0.8937
23636SOL    HW172349   5.912   3.086   6.305  1.0568 -2.0653  2.3887
23636SOL    HW272350   5.973   3.221   6.336 -0.2710 -0.0160 -2.9154
23637SOL     OW72351   0.145   3.462   6.886 -0.3842 -0.4467  0.7111
23637SOL    HW172352   0.238   3.481   6.882 -0.3632 -0.4807  1.0021
23637SOL    HW272353   0.121   3.480   6.977 -0.8132  0.2768  0.4672
23638SOL     OW72354   6.349   0.533   8.563  0.2092 -0.1369 -0.3858
23638SOL    HW172355   6.437   0.550   8.595  0.3423  1.4170 -1.4562
23638SOL    HW272356   6.325   0.448   8.600  2.2739 -0.7342 -0.3374
23639SOL     OW72357   7.890   3.488   2.521 -0.3159 -0.1904 -0.4124
23639SOL    HW172358   7.900   3.403   2.565 -2.0827 -0.5745 -0.6634
23639SOL    HW272359   7.832   3.538   2.577 -0.5264  0.2741 -1.0265
23640SOL     OW72360   6.748   0.674   4.910 -0.1679 -0.8066 -0.8478
23640SOL    HW172361   6.771   0.666   5.003  0.5152  1.5072 -0.7411
23640SOL    HW272362   6.656   0.701   4.910 -0.3647 -1.4734 -0.8800
23641SOL     OW72363   6.394   1.368   5.057  0.0006  0.4862 -0.0856
23641SOL    HW172364   6.427   1.402   4.974  1.4983  0.2795  0.3854
23641SOL    HW272365   6.379   1.275   5.041  0.2747  0.4489 -0.1275
23642SOL     OW72366   0.566   4.672   8.572  0.4608  0.0655 -0.6057
23642SOL    HW172367   0.473   4.687   8.554  0.4827  2.9012  1.0346
23642SOL    HW272368   0.612   4.730   8.511  0.9807  0.8336  0.4840
23643SOL     OW72369   2.561   0.035   3.382  0.1295  0.0467 -0.4199
23643SOL    HW172370   2.507  -0.018   3.323 -1.5458  2.1686 -0.9165
23643SOL    HW272371   2.536   0.007   3.470 -1.1366  0.3843 -0.6631
23644SOL     OW72372   5.715   7.083   0.283 -0.0650 -0.3169  0.1595
23644SOL    HW172373   5.624   7.054   0.278  0.0124 -0.4226 -0.9115
23644SOL    HW272374   5.716   7.165   0.234 -0.4734  2.1400  3.8183
23645SOL     OW72375   7.507   6.148   0.042  0.3393  0.5713 -0.0065
23645SOL    HW172376   7.517   6.081  -0.025  0.0424  1.8536 -1.3780
23645SOL    HW272377   7.586   6.202   0.034 -1.7679  3.6038 -2.7334
23646SOL     OW72378   0.775   3.668   9.035 -0.2721 -0.0657 -0.6245
23646SOL    HW172379   0.828   3.746   9.052 -0.8786  0.3665 -0.7089
23646SOL    HW272380   0.793   3.611   9.110  0.5435 -0.0570 -0.8000
23647SOL     OW72381   3.820   6.049   4.115  0.4019 -0.5320  0.6863
23647SOL    HW172382   3.758   6.119   4.093  0.4833 -0.7078 -0.1569
23647SOL    HW272383   3.801   5.979   4.053  1.1506 -0.7616  0.6979
23648SOL     OW72384   3.264   4.077   2.953  0.3801 -0.0986 -0.5447
23648SOL    HW172385   3.294   3.993   2.988  0.0716 -0.1054 -0.3039
23648SOL    HW272386   3.326   4.141   2.988  1.0109 -0.3010 -1.2523
23649SOL     OW72387   7.125   3.119   2.063  0.6177 -0.5378 -0.4477
23649SOL    HW172388   7.183   3.180   2.109 -0.4998  1.9240 -2.1533
23649SOL    HW272389   7.058   3.096   2.128  1.0669  0.0066  0.2206
23650SOL     OW72390   3.054   5.935   6.371  0.3777  0.6718  0.1039
23650SOL    HW172391   2.988   5.885   6.324  0.6450  0.7792 -0.3911
23650SOL    HW272392   3.077   5.881   6.446 -0.4447  0.7387  0.4086
23651SOL     OW72393   6.272   7.615   4.391  0.1231 -0.1210 -0.2416
23651SOL    HW172394   6.251   7.524   4.410 -0.3966  0.1676  0.6288
23651SOL    HW272395   6.367   7.620   4.398  0.3734 -1.0147 -2.2779
23652SOL     OW72396   7.591   3.803   1.503 -0.2410 -0.3783  0.2026
23652SOL    HW172397   7.569   3.846   1.420 -1.4288  1.3154  1.3175
23652SOL    HW272398   7.677   3.838   1.526 -1.0748  1.3575  0.9581
23653SOL     OW72399   5.229   6.021   6.518 -0.4768  0.4308 -0.1616
23653SOL    HW172400   5.323   6.011   6.533 -0.7711  0.1807  1.8404
23653SOL    HW272401   5.197   6.068   6.596 -1.9781  0.7323 -0.9110
23654SOL     OW72402   0.133   0.108   0.630 -0.0086  0.5752  0.2530
23654SOL    HW172403   0.183   0.185   0.602  2.2347 -0.0845  2.0817
23654SOL    HW272404   0.152   0.042   0.564 -0.2404  0.9653 -0.2112
23655SOL     OW72405   7.703   7.514   6.275  0.0394 -0.5616  0.1785
23655SOL    HW172406   7.621   7.525   6.322 -0.4456  0.9062 -0.9312
23655SOL    HW272407   7.764   7.574   6.320 -0.0977 -0.0645 -0.2817
23656SOL     OW72408   7.885   3.999   2.174  0.0000 -0.4730 -0.4115
23656SOL    HW172409   7.818   3.996   2.243  0.6766  0.3212  0.2974
23656SOL    HW272410   7.835   3.994   2.092 -0.8563 -0.8130  0.1179
23657SOL     OW72411   1.366   6.231   9.893 -0.4106  0.0041 -0.2189
23657SOL    HW172412   1.375   6.231   9.988 -0.6133 -1.1820 -0.1929
23657SOL    HW272413   1.397   6.146   9.865 -0.4758  0.2907 -1.2112
23658SOL     OW72414   4.925   2.725   3.624 -0.0325 -0.0091 -0.2755
23658SOL    HW172415   4.872   2.675   3.562  0.8828 -2.5143  0.8441
23658SOL    HW272416   5.010   2.733   3.582  0.1274 -0.3327 -0.0185
23659SOL     OW72417   6.410   1.287   1.394 -0.2789 -0.2859  0.1033
23659SOL    HW172418   6.353   1.328   1.329 -0.6463 -0.8988  0.0288
23659SOL    HW272419   6.375   1.316   1.479  0.0921  0.3708  0.0315
23660SOL     OW72420   6.466   6.767   6.862 -0.1865  0.2805 -0.0591
23660SOL    HW172421   6.397   6.824   6.829  0.5809  0.3304 -1.7267
23660SOL    HW272422   6.444   6.680   6.826 -0.6466 -0.2167  1.3766
23661SOL     OW72423   6.136   0.270   3.623  0.2476  0.0234 -0.8280
23661SOL    HW172424   6.199   0.232   3.684  0.0888 -0.8683 -1.2013
23661SOL    HW272425   6.119   0.357   3.658  0.7930 -0.1592 -0.0676
23662SOL     OW72426   2.561   1.377   6.141 -1.0281 -0.1115 -0.2832
23662SOL    HW172427   2.488   1.428   6.175  0.4315  1.5790  0.4716
23662SOL    HW272428   2.632   1.440   6.131  0.3350 -1.6870 -1.0026
23663SOL     OW72429   1.466   7.679   7.245  0.6014 -0.5642  0.1408
23663SOL    HW172430   1.486   7.743   7.177 -2.0637 -0.3325 -0.5334
23663SOL    HW272431   1.548   7.631   7.258  1.8378  0.9976 -1.4686
23664SOL     OW72432   6.098   4.074   2.159 -0.5507  0.3237 -0.6332
23664SOL    HW172433   6.094   4.065   2.063 -1.4361 -1.6036 -0.4630
23664SOL    HW272434   6.009   4.054   2.188  0.2370 -1.4800  0.7149
23665SOL     OW72435   4.311   0.284   5.533  0.0510  0.0363  0.1419
23665SOL    HW172436   4.292   0.377   5.518  1.9691  0.3050 -0.9849
23665SOL    HW272437   4.256   0.260   5.607  0.2354  2.3380  1.1214
23666SOL     OW72438   1.642   3.233   6.841 -0.7737  0.0219  0.3546
23666SOL    HW172439   1.597   3.285   6.908 -0.1520  2.2685 -0.8359
23666SOL    HW272440   1.734   3.260   6.847 -0.4897 -0.6701 -0.5748
23667SOL     OW72441   1.487   7.435   4.867 -0.3067 -0.4709  0.9479
23667SOL    HW172442   1.516   7.520   4.898 -0.7962 -0.5592  1.6857
23667SOL    HW272443   1.422   7.407   4.932 -0.4425 -1.2237  0.5003
23668SOL     OW72444   0.118   3.911   7.046  0.5913  0.9421  0.3089
23668SOL    HW172445   0.052   3.925   6.977 -0.5618  0.8387  1.3531
23668SOL    HW272446   0.157   3.826   7.025  0.3071  0.9402 -0.2529
23669SOL     OW72447   7.179   4.684   0.837 -0.4891 -0.1467  0.4601
23669SOL    HW172448   7.206   4.776   0.849 -0.1067 -0.2195  0.1696
23669SOL    HW272449   7.231   4.653   0.763  0.9592 -1.2237  1.8535
23670SOL     OW72450   6.446   5.775   2.490  0.3841 -0.5419 -0.5708
23670SOL    HW172451   6.523   5.739   2.533  0.1612 -2.0523 -1.3840
23670SOL    HW272452   6.396   5.816   2.561  0.3766 -2.3338  0.5130
23671SOL     OW72453   7.020   3.053  10.213 -0.0824  0.7105 -0.9903
23671SOL    HW172454   7.026   3.131  10.267 -0.1460  0.8200 -1.1402
23671SOL    HW272455   6.926   3.039  10.201 -0.0921  0.1977 -0.3666
23672SOL     OW72456   0.495   1.352  10.502 -0.1160 -0.2031 -0.4572
23672SOL    HW172457   0.583   1.315  10.502  0.6673  1.4471  1.4816
23672SOL    HW272458   0.452   1.312  10.427  1.4205 -3.0162  0.0254
23673SOL     OW72459   1.387   0.865   2.317 -0.0270 -0.0221 -0.0793
23673SOL    HW172460   1.409   0.773   2.305 -1.4632 -0.4044  0.0044
23673SOL    HW272461   1.402   0.881   2.411  1.3810  0.1851 -0.3150
23674SOL     OW72462   2.187   3.741  11.410  0.1930  0.3547  0.1128
23674SOL    HW172463   2.092   3.745  11.418  0.1094 -0.3849 -0.4374
23674SOL    HW272464   2.208   3.803  11.341  0.0787  0.2914  0.0208
23675SOL     OW72465   1.074   7.884  10.194  0.4414 -0.0575  0.2476
23675SOL    HW172466   1.118   7.959  10.154  1.8042 -0.3994  1.0249
23675SOL    HW272467   0.981   7.899  10.178  0.4425  2.9389  2.2122
23676SOL     OW72468   3.163   3.416  10.600  0.8305 -0.1945  0.5049
23676SOL    HW172469   3.082   3.466  10.608 -1.0111 -2.4952 -2.0383
23676SOL    HW272470   3.158   3.352  10.671  0.9552  0.2746  0.9493
23677SOL     OW72471   4.938   2.069   2.362  0.4548 -0.7696 -0.5599
23677SOL    HW172472   5.017   2.101   2.318 -0.3661  1.5183 -0.4914
23677SOL    HW272473   4.951   2.094   2.454 -0.2449 -0.6127 -0.5055
23678SOL     OW72474   6.287   0.047   1.132  0.3961 -0.3254 -0.4516
23678SOL    HW172475   6.376   0.081   1.130  0.5577 -0.3468  2.2499
23678SOL    HW272476   6.286  -0.011   1.209 -1.9907 -0.1630 -0.3035
23679SOL     OW72477   5.738   1.730   5.555  0.1834  0.3951 -0.3974
23679SOL    HW172478   5.668   1.749   5.617 -0.0693 -0.4278 -0.4262
23679SOL    HW272479   5.815   1.714   5.609  0.5798  2.0995 -0.3852
23680SOL     OW72480   3.215   2.073   7.650  0.2003  0.3096 -0.4149
23680SOL    HW172481   3.192   1.981   7.666  0.4938  0.1439 -0.9166
23680SOL    HW272482   3.148   2.123   7.696  0.0233 -0.1567 -0.1563
23681SOL     OW72483   5.827   2.567   0.953 -0.2498 -0.1436  0.4826
23681SOL    HW172484   5.866   2.578   0.867  1.0771 -0.7208  0.9864
23681SOL    HW272485   5.746   2.619   0.950  1.0631  1.9707 -0.2435
23682SOL     OW72486   3.062   6.217   8.788 -0.3099 -0.2019  0.1409
23682SOL    HW172487   3.097   6.264   8.864 -2.8770 -0.0796  1.3241
23682SOL    HW272488   3.106   6.258   8.713  2.3166 -0.3385  1.4904
23683SOL     OW72489   1.815   6.369   2.326 -0.3566 -0.2063  0.7188
23683SOL    HW172490   1.781   6.458   2.315  1.4200  0.5241  0.7991
23683SOL    HW272491   1.910   6.379   2.322 -0.1012 -2.0439  1.2436
23684SOL     OW72492   7.429   5.308   8.922  0.0705 -0.9059 -0.6091
23684SOL    HW172493   7.415   5.373   8.853 -1.5696 -0.6564 -0.0907
23684SOL    HW272494   7.369   5.335   8.993 -0.0546 -2.5141 -0.0606
23685SOL     OW72495   4.023   2.028   2.439 -0.5914  0.0428 -0.0059
23685SOL    HW172496   3.948   1.985   2.398 -0.0340 -0.0867 -0.9279
23685SOL    HW272497   4.087   2.035   2.368  0.4136 -0.2004  0.8602
23686SOL     OW72498   6.451   6.342   8.548  0.6293 -0.0672  0.0501
23686SOL    HW172499   6.373   6.312   8.593 -0.0843  1.5625 -0.0385
23686SOL    HW272500   6.466   6.431   8.581  1.2453  0.4180 -1.4223
23687SOL     OW72501   5.949   2.369   9.777 -0.1656 -0.0806  0.1779
23687SOL    HW172502   5.890   2.307   9.733  0.7601 -1.7200  1.1320
23687SOL    HW272503   6.019   2.314   9.811 -0.3531  1.2085  2.8703
23688SOL     OW72504   4.599   1.317   6.338  0.4270 -0.1987 -0.3944
23688SOL    HW172505   4.518   1.277   6.307  0.0630  1.8595 -2.3646
23688SOL    HW272506   4.593   1.409   6.310  3.6797 -0.0952 -1.1797
23689SOL     OW72507   6.382   7.747  11.804 -1.0322  0.7013 -0.3288
23689SOL    HW172508   6.454   7.809  11.795 -0.8307  0.4586 -0.4116
23689SOL    HW272509   6.312   7.784  11.751 -0.7976  0.6929 -0.6519
23690SOL     OW72510   4.027   0.257  12.116  0.2500 -0.5366 -0.2815
23690SOL    HW172511   3.947   0.302  12.089  1.3599  0.2038 -2.5786
23690SOL    HW272512   4.035   0.276  12.209 -1.2085  0.9907 -0.4235
23691SOL     OW72513   5.556   0.542   8.933  0.2158  0.1931 -0.0214
23691SOL    HW172514   5.519   0.611   8.988 -0.8738  0.4704 -1.0383
23691SOL    HW272515   5.630   0.583   8.889 -0.2935  0.6788 -0.4545
23692SOL     OW72516   5.970   4.119  10.408  0.0599  0.4561 -0.5221
23692SOL    HW172517   6.042   4.098  10.349 -0.6902 -0.6913 -1.0584
23692SOL    HW272518   5.949   4.036  10.451 -0.8689  0.7923 -0.3004
23693SOL     OW72519   2.341   4.140   9.797 -0.0982 -0.0892  0.1732
23693SOL    HW172520   2.344   4.069   9.733  1.0986  1.0936 -1.1581
23693SOL    HW272521   2.433   4.163   9.811 -0.4166  0.4959  1.4087
23694SOL     OW72522   6.967   0.735  10.186  0.3082 -0.0572 -0.3076
23694SOL    HW172523   7.053   0.732  10.228  0.1697  1.8761  0.2279
23694SOL    HW272524   6.978   0.796  10.113 -0.2819 -0.8816 -1.1055
23695SOL     OW72525   3.846   5.755  10.317  0.4872 -0.4006 -0.2689
23695SOL    HW172526   3.786   5.687  10.345 -1.2511  0.9840 -0.4972
23695SOL    HW272527   3.818   5.777  10.228  1.3510  0.2589 -0.3971
23696SOL     OW72528   2.840   6.267   6.749  0.3356 -0.6050 -0.1467
23696SOL    HW172529   2.794   6.276   6.832  0.3926  0.7364 -0.2302
23696SOL    HW272530   2.916   6.212   6.769  0.7353  0.2725  0.8750
23697SOL     OW72531   2.306   4.903   9.978 -0.2688  0.3830 -0.0754
23697SOL    HW172532   2.397   4.882   9.997 -0.7153 -0.5154  1.1929
23697SOL    HW272533   2.309   4.944   9.892  1.1228 -1.3987 -0.9482
23698SOL     OW72534   7.653   0.829  11.410  0.2675 -0.2174  0.3089
23698SOL    HW172535   7.573   0.880  11.395 -0.0251 -1.0181 -1.0455
23698SOL    HW272536   7.632   0.774  11.486 -0.1493  0.2092  0.5060
23699SOL     OW72537   1.124   6.582   6.504  0.0955 -0.3400  0.3944
23699SOL    HW172538   1.131   6.641   6.430 -0.0520  1.8195  1.9921
23699SOL    HW272539   1.082   6.503   6.469 -1.3423  1.1774 -1.4832
23700SOL     OW72540   2.652   6.153   6.554 -0.7954  0.2992  0.2718
23700SOL    HW172541   2.727   6.212   6.560 -0.0615 -0.7048  1.6277
23700SOL    HW272542   2.584   6.204   6.511  0.8332  1.0556 -1.5233
23701SOL     OW72543   0.243   3.050   5.910  0.0833  0.1189  0.3364
23701SOL    HW172544   0.207   3.085   5.992  2.0156  1.0815  0.8197
23701SOL    HW272545   0.284   3.125   5.868 -0.3735 -0.4975 -1.2653
23702SOL     OW72546   0.611   3.780   2.616  0.2177  0.0831  0.4275
23702SOL    HW172547   0.657   3.790   2.533 -1.9904  3.2379 -0.6130
23702SOL    HW272548   0.681   3.776   2.682  2.0638  2.5936 -1.1900
23703SOL     OW72549   7.011   4.793   2.209  0.1140  0.1606  0.2402
23703SOL    HW172550   6.951   4.748   2.150  0.0267 -0.6893  0.9681
23703SOL    HW272551   7.024   4.733   2.282  1.2800  0.6326  0.4492
23704SOL     OW72552   6.052   5.019   9.276 -0.0070 -0.4221 -0.4071
23704SOL    HW172553   6.061   5.108   9.242 -0.8126 -0.8002 -1.6900
23704SOL    HW272554   6.142   4.991   9.293  0.2787  0.5108 -0.3183
23705SOL     OW72555   7.362   2.507   3.724 -0.9054 -0.1493  0.4317
23705SOL    HW172556   7.303   2.437   3.750 -1.1271 -1.1789 -2.4508
23705SOL    HW272557   7.443   2.463   3.701 -0.0038  0.9189  1.4853
23706SOL     OW72558   5.118   5.634   4.665 -0.3937  0.4042  0.5221
23706SOL    HW172559   5.097   5.722   4.696 -1.9766  0.0385  0.5748
23706SOL    HW272560   5.213   5.633   4.659 -0.3598  2.2438  0.1254
23707SOL     OW72561   3.878   7.220  10.323 -0.1559  0.6884  0.6594
23707SOL    HW172562   3.972   7.225  10.310  0.0809 -0.9257  1.4962
23707SOL    HW272563   3.868   7.195  10.415 -1.3983  0.5737  0.5090
23708SOL     OW72564   1.350   0.309  10.679 -0.1128  0.5149  0.1210
23708SOL    HW172565   1.330   0.400  10.655  0.0401  0.5406  0.0898
23708SOL    HW272566   1.429   0.288  10.630  0.4207  0.6965  0.8871
23709SOL     OW72567   6.897   3.402   3.383 -0.3124  0.8560 -0.6216
23709SOL    HW172568   6.857   3.489   3.374  0.9303  1.3465 -1.6958
23709SOL    HW272569   6.981   3.419   3.426 -0.0578  0.1761 -0.8442
23710SOL     OW72570   7.035   6.862   3.313 -0.1594 -0.4647 -0.6932
23710SOL    HW172571   7.069   6.792   3.368 -1.3097  0.0014  0.6822
23710SOL    HW272572   7.103   6.929   3.314 -0.3845 -0.2266  0.6575
23711SOL     OW72573   3.781   0.459  10.634 -0.0981  0.0086 -0.1770
23711SOL    HW172574   3.722   0.415  10.573  0.3073  1.2756 -1.5424
23711SOL    HW272575   3.844   0.505  10.578 -0.3771  2.1427  1.1658
23712SOL     OW72576   6.862   5.572   2.764 -0.1826  0.4268 -0.2264
23712SOL    HW172577   6.788   5.512   2.781 -0.3434  0.7273  0.1425
23712SOL    HW272578   6.892   5.548   2.676 -2.0351  1.6534 -1.2648
23713SOL     OW72579   7.727   7.858   5.264  0.0140  0.9285  0.2925
23713SOL    HW172580   7.797   7.904   5.218 -1.1438  1.1082 -1.3945
23713SOL    HW272581   7.646   7.895   5.228 -0.9520 -0.1002  1.3187
23714SOL     OW72582   4.856   4.037   0.596 -0.7047  0.0157 -0.1412
23714SOL    HW172583   4.847   4.124   0.557  0.6233  0.1374 -0.2268
23714SOL    HW272584   4.770   4.017   0.632 -1.2652  0.9739 -0.9342
23715SOL     OW72585   0.845   1.836   2.606 -0.0840 -0.0223  0.2631
23715SOL    HW172586   0.891   1.752   2.617 -1.1439 -0.4807  1.4623
23715SOL    HW272587   0.792   1.823   2.527  0.7483 -0.0014 -0.3072
23716SOL     OW72588   6.448   4.255   5.639 -0.1103  0.4898 -0.3010
23716SOL    HW172589   6.500   4.196   5.584 -0.3892  0.4256 -0.5007
23716SOL    HW272590   6.454   4.218   5.727  0.3690  0.6126 -0.2839
23717SOL     OW72591   1.351   6.721   5.221 -0.1977 -0.1665  0.0053
23717SOL    HW172592   1.331   6.729   5.128  0.1891  1.6556  0.0402
23717SOL    HW272593   1.390   6.805   5.245 -0.2342 -0.6123  1.8046
23718SOL     OW72594   1.333   0.375   2.999 -0.1836  0.1925 -0.2616
23718SOL    HW172595   1.246   0.409   2.980 -0.5756  0.3794  1.6983
23718SOL    HW272596   1.375   0.445   3.049  0.3843 -0.6667  0.4966
23719SOL     OW72597   6.239   0.838   8.400  0.0280  0.4172  0.1900
23719SOL    HW172598   6.182   0.881   8.464 -0.9012  0.6165 -0.7407
23719SOL    HW272599   6.311   0.900   8.387  0.5399  0.1213  1.4513
23720SOL     OW72600   0.483   4.994  10.096 -0.5141 -0.1511  0.1566
23720SOL    HW172601   0.532   4.997  10.178 -1.9306  1.0765  0.9985
23720SOL    HW272602   0.495   4.904  10.065  0.9322 -0.3309  1.1325
23721SOL     OW72603   5.752   0.729   2.539 -0.1745 -0.9102 -0.2535
23721SOL    HW172604   5.699   0.746   2.461 -0.7103  0.2438  0.3307
23721SOL    HW272605   5.834   0.694   2.505 -0.1352  0.2131 -1.3970
23722SOL     OW72606   1.690   2.825   0.977 -0.5001  0.0682  0.3051
23722SOL    HW172607   1.658   2.911   0.950 -0.5560  0.0265  0.2372
23722SOL    HW272608   1.766   2.843   1.032 -1.5871  0.2280  1.8202
23723SOL     OW72609   4.858   2.627   1.335  0.4500  0.6148 -0.2707
23723SOL    HW172610   4.809   2.546   1.349 -0.6977  1.3428  0.0740
23723SOL    HW272611   4.799   2.682   1.283  0.7539  1.6372  0.4373
23724SOL     OW72612   7.566   1.439   2.281 -0.7313 -0.4116  0.4598
23724SOL    HW172613   7.642   1.492   2.255 -0.7322 -0.3418  0.5978
23724SOL    HW272614   7.536   1.399   2.199 -0.7845 -0.1308  0.3394
23725SOL     OW72615   5.323   1.084   5.745 -0.1676 -0.4137 -0.3118
23725SOL    HW172616   5.402   1.138   5.750  0.8552 -1.9133  0.6101
23725SOL    HW272617   5.317   1.058   5.653 -1.1229  1.8274 -0.9439
23726SOL     OW72618   2.328   6.275  11.903 -0.2411 -0.1039  0.2483
23726SOL    HW172619   2.264   6.320  11.847 -0.8258 -1.0303  0.1548
23726SOL    HW272620   2.410   6.322  11.888 -0.4838 -0.0539 -1.0439
23727SOL     OW72621   1.640   0.783   5.765 -0.1885 -0.1763  0.0110
23727SOL    HW172622   1.623   0.764   5.857  2.2533 -1.4074  0.2742
23727SOL    HW272623   1.691   0.864   5.766 -0.1397 -0.2031 -0.2668
23728SOL     OW72624   6.103   4.369   5.678 -0.4788 -0.0525 -0.1004
23728SOL    HW172625   6.037   4.307   5.647 -0.2869 -0.2257 -0.1666
23728SOL    HW272626   6.157   4.318   5.738 -0.1840 -0.0094 -0.3266
23729SOL     OW72627   3.922   0.510  11.662  0.1659  0.1437 -0.2414
23729SOL    HW172628   3.917   0.497  11.567 -2.0885  1.1874 -0.3442
23729SOL    HW272629   3.847   0.567  11.682  2.2254  2.4040  1.7642
23730SOL     OW72630   0.860   5.653   7.224 -0.0835  0.2678  0.4242
23730SOL    HW172631   0.924   5.724   7.218  1.4489 -0.8865  2.0485
23730SOL    HW272632   0.909   5.579   7.262 -1.9509 -1.2331  0.0939
23731SOL     OW72633   0.877   1.222   4.901 -0.3346 -0.5848  0.0065
23731SOL    HW172634   0.804   1.225   4.839  0.0983  0.1171 -0.4832
23731SOL    HW272635   0.836   1.230   4.987 -0.6652  4.2064 -0.3372
23732SOL     OW72636   3.528   5.758   9.766  0.0609 -0.3065 -0.3015
23732SOL    HW172637   3.514   5.739   9.673  1.1327 -1.2919 -0.2817
23732SOL    HW272638   3.623   5.765   9.776 -0.0567  0.0729  0.6679
23733SOL     OW72639   1.080   6.865   9.310  0.5323  0.1856  0.3972
23733SOL    HW172640   1.120   6.808   9.376 -2.4261 -0.1261  2.0898
23733SOL    HW272641   1.024   6.924   9.360 -1.1630  0.5404 -1.7592
23734SOL     OW72642   6.729   1.550  11.396  0.2025 -0.2943  0.2431
23734SOL    HW172643   6.758   1.637  11.424  4.1560 -1.1257 -0.6955
23734SOL    HW272644   6.736   1.552  11.301  2.0462 -2.0795  0.2904
23735SOL     OW72645   1.884   1.045   2.715 -0.6594  0.5653 -0.1111
23735SOL    HW172646   1.892   0.952   2.737 -1.5349  0.1483 -1.4169
23735SOL    HW272647   1.913   1.050   2.624 -0.6154  1.5762 -0.0493
23736SOL     OW72648   4.959   5.232   7.597  0.0490  0.5956  0.3353
23736SOL    HW172649   4.897   5.199   7.532  0.8440  0.1948 -0.2268
23736SOL    HW272650   5.008   5.300   7.552  0.9766 -0.0600  0.3418
23737SOL     OW72651   2.977   1.679   2.062 -0.4475  0.0760  0.3054
23737SOL    HW172652   3.055   1.674   2.007 -0.9359  0.8933 -0.5021
23737SOL    HW272653   2.924   1.748   2.022 -1.0850  0.2961  1.4857
23738SOL     OW72654   6.759   0.963   5.319  0.1203  0.1554 -0.1193
23738SOL    HW172655   6.851   0.941   5.336  0.6365  1.3340 -1.2028
23738SOL    HW272656   6.733   1.018   5.394 -0.3996 -1.8951  1.2835
23739SOL     OW72657   2.006   5.335   1.429 -0.1458 -0.1009  0.7008
23739SOL    HW172658   1.929   5.345   1.373 -0.2543 -0.3756  0.8023
23739SOL    HW272659   2.043   5.423   1.433  1.3172 -0.4826 -1.8932
23740SOL     OW72660   3.180   1.048   6.897  0.8512 -0.1725  0.5707
23740SOL    HW172661   3.111   1.114   6.897  0.5271 -0.4974 -0.0527
23740SOL    HW272662   3.173   1.006   6.983  1.6786  1.2225  1.3435
23741SOL     OW72663   1.575   0.314  11.856  0.4486 -0.0257 -0.0792
23741SOL    HW172664   1.518   0.375  11.903  0.9188  0.2784  0.1082
23741SOL    HW272665   1.560   0.333  11.764 -0.7331 -0.8559 -0.0822
23742SOL     OW72666   1.856   1.415   2.766  0.3128 -0.6301  0.1391
23742SOL    HW172667   1.780   1.360   2.747 -0.5251  0.2007  0.9017
23742SOL    HW272668   1.882   1.390   2.854 -2.6905  2.8271  2.3457
23743SOL     OW72669   2.348   4.597   4.171 -0.1018 -0.4575 -0.7252
23743SOL    HW172670   2.417   4.646   4.216 -2.0558  1.6138  0.2106
23743SOL    HW272671   2.312   4.539   4.238 -2.0910  1.6402  0.1733
23744SOL     OW72672   3.790   4.873   3.807  0.1622  0.2185 -0.4754
23744SOL    HW172673   3.709   4.823   3.809 -0.1805  0.7794  0.0527
23744SOL    HW272674   3.859   4.807   3.808 -0.2785 -0.2640 -0.8944
23745SOL     OW72675   3.640   5.589  11.849 -0.7587 -0.3587 -0.2253
23745SOL    HW172676   3.680   5.672  11.824  1.0225 -1.3291 -0.7610
23745SOL    HW272677   3.554   5.591  11.807 -1.6845  2.1021  1.5862
23746SOL     OW72678   0.085   5.212   6.006 -0.1968  0.1167  0.0279
23746SOL    HW172679   0.029   5.283   6.035  0.8327  0.8571  0.2447
23746SOL    HW272680   0.138   5.190   6.083 -0.6578 -1.0485  0.0353
23747SOL     OW72681   2.442   5.919  12.117  0.5079  0.3642  0.1634
23747SOL    HW172682   2.503   5.907  12.190 -0.0907 -0.8740  0.4807
23747SOL    HW272683   2.405   6.006  12.131  1.2367  0.5945  0.6992
23748SOL     OW72684   7.618   3.308   6.949  0.7931 -0.1096 -0.2136
23748SOL    HW172685   7.530   3.274   6.964  1.0442 -1.1170 -0.9672
23748SOL    HW272686   7.630   3.375   7.017 -0.0699 -0.8455  0.6754
23749SOL     OW72687   5.723   4.743   0.730 -0.3541 -0.6152 -0.3675
23749SOL    HW172688   5.691   4.819   0.777 -0.0087 -1.0126  0.5480
23749SOL    HW272689   5.782   4.778   0.664  1.3484 -0.1444  1.3033
23750SOL     OW72690   0.748   4.560   4.409 -1.0878  0.3858  0.3459
23750SOL    HW172691   0.751   4.645   4.365 -0.7085  0.8533  1.2278
23750SOL    HW272692   0.655   4.541   4.420 -1.2259 -0.3870 -1.8117
23751SOL     OW72693   6.779   5.963   0.907  0.6203 -0.0629  0.0981
23751SOL    HW172694   6.857   5.924   0.946  0.6976 -0.2612 -0.2496
23751SOL    HW272695   6.810   6.004   0.826  0.2504 -0.7394 -0.3987
23752SOL     OW72696   2.099   3.998  11.883 -0.1826 -0.1776 -0.1619
23752SOL    HW172697   2.059   3.911  11.886  1.8226 -1.1721 -0.7764
23752SOL    HW272698   2.024   4.058  11.874 -1.5373 -1.9194 -1.1998
23753SOL     OW72699   7.084   1.224   8.709 -0.2427  0.0619  0.1024
23753SOL    HW172700   7.067   1.272   8.789 -2.2043 -0.5861  0.1173
23753SOL    HW272701   7.058   1.284   8.639 -0.2970 -0.0555  0.0210
23754SOL     OW72702   1.565   4.891   1.776  0.4800  0.1918 -0.3869
23754SOL    HW172703   1.597   4.861   1.691 -1.8433  0.5757 -1.4923
23754SOL    HW272704   1.634   4.948   1.809  0.5966  1.7786 -3.0538
23755SOL     OW72705   1.486   6.447  11.329  0.4723  0.3150  0.2434
23755SOL    HW172706   1.439   6.452  11.413 -1.0460 -0.7859 -0.4849
23755SOL    HW272707   1.503   6.538  11.306 -1.3418  0.7722  0.5561
23756SOL     OW72708   0.938   3.833   9.863 -0.4532 -0.1742  0.2870
23756SOL    HW172709   0.885   3.912   9.859 -0.3503  0.1571  3.1760
23756SOL    HW272710   0.877   3.765   9.890  0.1579 -0.2318  1.5772
23757SOL     OW72711   3.438   7.550   5.913  0.3638 -0.0287 -0.0780
23757SOL    HW172712   3.448   7.618   5.846  0.2479 -0.6032 -0.6945
23757SOL    HW272713   3.375   7.587   5.975  0.7195  0.6422 -0.1068
23758SOL     OW72714   7.269   4.794   5.000 -0.5433  0.3821  0.8418
23758SOL    HW172715   7.315   4.781   5.083 -0.0590  0.2505  0.5563
23758SOL    HW272716   7.186   4.746   5.011  0.0373 -0.6460  0.8110
23759SOL     OW72717   0.428   4.653   1.277 -0.2307  0.0585 -0.2016
23759SOL    HW172718   0.481   4.643   1.198  0.0872 -0.8924  0.1219
23759SOL    HW272719   0.421   4.564   1.313 -0.4112  0.4726  0.8113
23760SOL     OW72720   5.218   6.478  11.779  0.6447 -0.1336 -0.4178
23760SOL    HW172721   5.191   6.391  11.747  0.7632 -0.2606 -0.1711
23760SOL    HW272722   5.255   6.461  11.865 -0.0460  0.2667 -0.0356
23761SOL     OW72723   0.723   1.769   8.787  0.0178  0.2782 -0.7245
23761SOL    HW172724   0.810   1.807   8.773 -0.2879  1.1096 -0.4263
23761SOL    HW272725   0.739   1.675   8.790  0.9812  0.4389 -0.2304
23762SOL     OW72726   3.876   1.649   0.911  0.2911  0.1084 -0.5265
23762SOL    HW172727   3.912   1.738   0.904  0.1701  0.3209  1.0805
23762SOL    HW272728   3.784   1.658   0.884 -0.1063  0.7978  0.9229
23763SOL     OW72729   7.070   0.622   3.286 -0.5771 -0.1606  0.2558
23763SOL    HW172730   7.003   0.610   3.219 -0.9646 -1.8068  0.8926
23763SOL    HW272731   7.021   0.654   3.363 -0.5176 -0.6422  0.4945
23764SOL     OW72732   0.069   3.058   5.207  0.6590  0.2272  0.0141
23764SOL    HW172733   0.119   2.980   5.229  0.7350  0.3982  0.4563
23764SOL    HW272734   0.131   3.130   5.214  0.5807  0.3351 -0.3551
23765SOL     OW72735   7.617   0.802   6.973 -0.1333 -0.5817  0.1712
23765SOL    HW172736   7.702   0.761   6.958  0.2937  0.1907  0.4263
23765SOL    HW272737   7.626   0.846   7.058 -0.8839 -0.7298  0.3360
23766SOL     OW72738   2.281   7.803   3.636  0.2443  0.2898  0.3415
23766SOL    HW172739   2.363   7.756   3.653 -0.3632 -0.6892  0.6472
23766SOL    HW272740   2.270   7.861   3.712  0.6059  0.3535  0.3452
23767SOL     OW72741   7.921   1.831   1.601 -0.2655  0.1205  0.3758
23767SOL    HW172742   7.937   1.755   1.657  2.2494  0.3524  0.0794
23767SOL    HW272743   7.897   1.794   1.516  0.8543 -0.3458  0.2586
23768SOL     OW72744   4.138   1.567   5.358  0.4312 -0.3361 -0.6326
23768SOL    HW172745   4.077   1.592   5.289 -0.4437 -1.3077 -0.2450
23768SOL    HW272746   4.106   1.613   5.436 -2.1059 -3.4904  0.4599
23769SOL     OW72747   3.101   3.071   4.630  0.4765  0.3726  0.0480
23769SOL    HW172748   3.083   3.165   4.635 -0.5276  0.5479 -3.8927
23769SOL    HW272749   3.025   3.030   4.673 -0.4012  1.3495 -0.5241
23770SOL     OW72750   6.336   7.879   6.652 -0.7667 -0.4155 -0.2933
23770SOL    HW172751   6.341   7.929   6.570 -1.0939 -0.4596 -0.3426
23770SOL    HW272752   6.248   7.840   6.651 -0.3318 -1.4263 -0.5090
23771SOL     OW72753   7.502   5.125   3.998  0.0271 -0.0551 -0.2699
23771SOL    HW172754   7.576   5.116   4.058 -0.6564  2.0227  0.9904
23771SOL    HW272755   7.520   5.206   3.951 -1.1467  0.1468 -0.3846
23772SOL     OW72756   6.483   3.415   7.825  0.0454 -0.0343  0.2442
23772SOL    HW172757   6.574   3.425   7.853  0.4354 -1.2658 -0.4852
23772SOL    HW272758   6.447   3.349   7.885  0.2652 -1.0972 -0.7493
23773SOL     OW72759   7.888   1.529   6.048  0.0942 -0.2977 -0.0531
23773SOL    HW172760   7.913   1.619   6.030  0.1150  0.2707  2.5092
23773SOL    HW272761   7.923   1.479   5.974  1.5496  1.5614 -0.6889
23774SOL     OW72762   1.394   5.048   1.197 -0.2721  0.3524 -0.0087
23774SOL    HW172763   1.384   5.106   1.273  0.2240 -0.7084  0.8800
23774SOL    HW272764   1.307   5.049   1.155 -0.5092  1.0663  0.4747
23775SOL     OW72765   6.506   5.621   5.926 -0.1109  0.0654 -0.2231
23775SOL    HW172766   6.581   5.667   5.889 -2.1451  2.3956 -1.7963
23775SOL    HW272767   6.455   5.594   5.850 -2.8202  2.1435  0.7043
23776SOL     OW72768   1.644   4.075   1.515  0.3063  0.1805  0.1251
23776SOL    HW172769   1.557   4.110   1.534  1.3931  2.1424  1.9044
23776SOL    HW272770   1.646   3.990   1.560 -0.9061 -0.2268 -0.5542
23777SOL     OW72771   7.090   3.750  11.806 -0.1399  0.4157 -0.1527
23777SOL    HW172772   7.081   3.845  11.804  0.4064  0.4564 -1.0673
23777SOL    HW272773   7.170   3.731  11.757  0.8248 -0.4128  1.6130
23778SOL     OW72774   3.427   7.541   9.488 -0.2078 -0.4899  0.6247
23778SOL    HW172775   3.402   7.485   9.562 -1.1220  0.5937  1.1771
23778SOL    HW272776   3.370   7.617   9.496  0.9076  0.4671 -0.1747
23779SOL     OW72777   4.405   7.678   8.642  0.6911  0.6851 -0.0328
23779SOL    HW172778   4.332   7.724   8.685 -0.1947 -0.8968  0.2467
23779SOL    HW272779   4.449   7.746   8.591  1.1773  2.4591  2.5449
23780SOL     OW72780   6.496   1.307   3.261 -0.1455 -0.3826 -0.1185
23780SOL    HW172781   6.465   1.331   3.173 -0.0771  0.7493  0.1444
23780SOL    HW272782   6.468   1.217   3.273 -1.6109 -0.0333 -0.6707
23781SOL     OW72783   5.800   3.935   9.287 -0.0669 -0.4639  0.6845
23781SOL    HW172784   5.858   3.892   9.225  1.4960 -0.7996  2.2668
23781SOL    HW272785   5.811   4.028   9.269  0.3096 -0.5593  0.3980
23782SOL     OW72786   0.881   5.522   3.642 -0.9339  0.1502 -0.5940
23782SOL    HW172787   0.893   5.616   3.632  0.0039  0.3405  1.6375
23782SOL    HW272788   0.960   5.493   3.689 -1.7933 -1.5127 -0.0966
23783SOL     OW72789   7.173   6.193   0.252 -0.8090  0.0625 -0.2087
23783SOL    HW172790   7.224   6.195   0.333 -0.5638 -1.9246 -0.2679
23783SOL    HW272791   7.091   6.238   0.273  0.1313  1.5145  0.4743
23784SOL     OW72792   4.404   7.744   9.190  0.3995  0.0579  0.2447
23784SOL    HW172793   4.449   7.795   9.258  0.3628  0.5228 -0.0726
23784SOL    HW272794   4.331   7.799   9.163  0.9703  0.3287 -0.8572
23785SOL     OW72795   7.718   4.954  10.150  0.3488  0.1811 -0.0116
23785SOL    HW172796   7.813   4.957  10.154  0.4094 -0.3588 -0.7800
23785SOL    HW272797   7.693   4.894  10.221  0.7698 -1.7462 -1.4097
23786SOL     OW72798   5.758   3.985   5.461  0.1872  0.4078  0.4201
23786SOL    HW172799   5.751   4.054   5.527 -1.3329 -0.5759  1.3638
23786SOL    HW272800   5.688   3.923   5.485  0.6782 -0.7965 -1.1524
23787SOL     OW72801   5.030   3.581   0.130 -0.1478 -0.6793 -0.0347
23787SOL    HW172802   5.016   3.638   0.206 -0.4102 -1.7929  0.7784
23787SOL    HW272803   4.989   3.498   0.154 -0.1977 -1.0758 -1.3850
23788SOL     OW72804   2.293   5.667  12.056 -0.2587 -0.6311  0.6566
23788SOL    HW172805   2.324   5.755  12.038  1.7095 -1.4372 -0.2512
23788SOL    HW272806   2.199   5.675  12.065 -0.1769  1.4568  0.0268
23789SOL     OW72807   4.565   0.003   4.002 -0.1305  0.2688 -0.1668
23789SOL    HW172808   4.601  -0.034   3.921 -0.7271 -1.4506  0.3129
23789SOL    HW272809   4.526  -0.072   4.047 -0.0321  1.2291  1.6009
23790SOL     OW72810   7.250   2.167   5.163 -0.3184  0.0479 -0.3643
23790SOL    HW172811   7.290   2.080   5.169 -1.1436 -0.2491  1.4969
23790SOL    HW272812   7.241   2.196   5.254  0.5488  2.3983 -0.9692
23791SOL     OW72813   7.751   1.396   8.796  0.0156  0.6674 -0.4380
23791SOL    HW172814   7.815   1.419   8.864  1.3812 -0.8670 -1.1572
23791SOL    HW272815   7.716   1.312   8.824 -1.2464  1.1887 -0.3969
23792SOL     OW72816   1.312   4.245   4.552  0.3703  0.4068  0.1423
23792SOL    HW172817   1.392   4.289   4.523  0.6762 -0.4967 -0.4358
23792SOL    HW272818   1.323   4.236   4.647  1.4989 -0.7062 -0.0643
23793SOL     OW72819   7.802   6.114   2.059  0.4483 -0.3571  0.4904
23793SOL    HW172820   7.749   6.185   2.022  0.4424 -1.2633 -1.3577
23793SOL    HW272821   7.845   6.153   2.135  0.2957  1.5740 -0.3540
23794SOL     OW72822   0.031   6.407   8.454  0.4487  0.3034  0.4197
23794SOL    HW172823   0.007   6.394   8.546  0.3262 -0.8311  0.2396
23794SOL    HW272824   0.086   6.332   8.433 -2.9768 -1.8678 -1.6320
23795SOL     OW72825   0.645   7.278   6.507  0.2901  0.4987  0.0889
23795SOL    HW172826   0.605   7.192   6.493  0.1974  0.6938 -0.9065
23795SOL    HW272827   0.721   7.279   6.449  0.3677  1.0364  0.1944
23796SOL     OW72828   0.914   4.443  11.237 -0.4542  0.7065 -0.3162
23796SOL    HW172829   1.001   4.451  11.276 -1.0802  1.1622  1.0713
23796SOL    HW272830   0.885   4.533  11.223 -0.1853  0.5514 -2.0425
23797SOL     OW72831   1.992   0.396   3.863  0.1907  0.3596  0.4353
23797SOL    HW172832   1.996   0.304   3.888  1.2841  0.0325 -0.8393
23797SOL    HW272833   1.898   0.416   3.861 -0.0700  0.6852  5.4170
23798SOL     OW72834   2.241   0.975   9.680 -0.3912  0.5864  0.2549
23798SOL    HW172835   2.265   1.057   9.722  1.1539 -0.5281  1.6568
23798SOL    HW272836   2.321   0.922   9.682 -1.1814 -0.7627 -1.1276
23799SOL     OW72837   7.151   5.985   9.148  0.9282 -0.6429 -0.3311
23799SOL    HW172838   7.136   5.985   9.242 -0.9135 -2.1582 -0.5622
23799SOL    HW272839   7.193   5.902   9.129 -1.5327 -1.8153 -1.1340
23800SOL     OW72840   5.958   5.249  11.846 -0.0699  0.0950 -0.1034
23800SOL    HW172841   5.882   5.216  11.894  0.9642  0.7237  2.0690
23800SOL    HW272842   5.976   5.181  11.780  0.0574 -2.1765  2.1342
23801SOL     OW72843   2.239   2.026   2.934  0.0737 -0.0780  0.1146
23801SOL    HW172844   2.208   1.955   2.990  1.3656 -0.2210  0.6988
23801SOL    HW272845   2.208   2.004   2.846 -0.7508 -0.6050  0.5289
23802SOL     OW72846   3.244   7.181   3.040  0.1707 -0.4791 -0.6713
23802SOL    HW172847   3.263   7.248   2.975  0.7632 -0.4730 -0.4968
23802SOL    HW272848   3.292   7.209   3.118 -0.2322 -0.6828 -0.3458
23803SOL     OW72849   4.600   5.100   3.360  0.6170 -0.1375  0.4799
23803SOL    HW172850   4.642   5.172   3.313  0.0352 -0.0283  0.1061
23803SOL    HW272851   4.570   5.139   3.442 -1.7537  0.6990 -0.6792
23804SOL     OW72852   6.517   1.503   1.701 -0.0700 -0.6802 -0.4229
23804SOL    HW172853   6.492   1.584   1.746  1.2774 -0.5691  0.1676
23804SOL    HW272854   6.493   1.518   1.609 -1.1825 -0.2048 -0.0774
23805SOL     OW72855   5.166   2.561   5.677  0.3189 -0.3031 -0.2215
23805SOL    HW172856   5.097   2.564   5.743  0.0449  0.1985 -0.5299
23805SOL    HW272857   5.151   2.479   5.630 -0.3547  0.0214 -0.5879
23806SOL     OW72858   6.377   4.948   9.894  0.0558  0.3634 -0.2311
23806SOL    HW172859   6.383   5.042   9.876 -0.6489  0.3472 -0.5638
23806SOL    HW272860   6.407   4.939   9.984  3.0717  0.5301 -1.1031
23807SOL     OW72861   3.183   6.245  12.091  0.2129 -0.7850  0.1295
23807SOL    HW172862   3.246   6.175  12.076  1.4051  0.3494 -0.2897
23807SOL    HW272863   3.170   6.246  12.186  1.7730 -0.2658  0.3675
23808SOL     OW72864   7.774   7.531   9.774  0.1180  0.6863 -0.2003
23808SOL    HW172865   7.840   7.514   9.707 -1.2106  1.6711 -1.8574
23808SOL    HW272866   7.822   7.570   9.847  1.4400  0.8006 -1.1047
23809SOL     OW72867   3.565   1.292   1.629  0.0578  0.2003  0.1422
23809SOL    HW172868   3.571   1.387   1.638  0.1726  0.1731  0.3473
23809SOL    HW272869   3.646   1.259   1.668  0.4361  0.0689 -0.7179
23810SOL     OW72870   3.891   1.357  10.195  0.0005  0.4791 -0.1613
23810SOL    HW172871   3.891   1.274  10.242  1.1639 -0.2116 -1.3033
23810SOL    HW272872   3.850   1.419  10.255 -0.7998 -0.8918  0.7548
23811SOL     OW72873   2.745   4.663  11.293  0.4191  0.1050 -0.3082
23811SOL    HW172874   2.737   4.640  11.386 -2.5144  0.1858 -0.4307
23811SOL    HW272875   2.764   4.757  11.294  1.6415 -0.1307  0.1843
23812SOL     OW72876   0.122   3.933   9.684 -0.1889  0.0074 -0.0647
23812SOL    HW172877   0.139   3.881   9.763 -1.1184 -0.1869  0.0196
23812SOL    HW272878   0.027   3.927   9.671 -0.1648  0.7780 -0.6872
23813SOL     OW72879   4.413   2.994   6.570 -0.0969  0.1834 -0.0786
23813SOL    HW172880   4.405   2.907   6.530 -0.2245  0.9831 -1.8835
23813SOL    HW272881   4.453   3.048   6.502 -1.2631  1.8687  0.5154
23814SOL     OW72882   0.692   2.674   3.984 -0.2386 -0.3459 -0.1966
23814SOL    HW172883   0.640   2.646   4.059 -0.5146 -1.6931 -0.8687
23814SOL    HW272884   0.697   2.769   3.992 -0.0301 -0.4817  1.6703
23815SOL     OW72885   3.996   2.353   5.258 -0.2350  0.1747 -0.9241
23815SOL    HW172886   4.077   2.405   5.257  0.5695 -1.0216 -1.1888
23815SOL    HW272887   3.926   2.417   5.268  0.9045  1.1187  4.8386
23816SOL     OW72888   3.040   0.902   9.501 -0.0545  0.3119 -0.7592
23816SOL    HW172889   2.993   0.949   9.570  2.4154 -0.6825  1.7648
23816SOL    HW272890   2.971   0.852   9.456 -2.1121  2.9219 -0.7903
23817SOL     OW72891   5.581   0.116   7.374 -0.3874 -0.2737 -0.0058
23817SOL    HW172892   5.612   0.124   7.284 -0.1473 -0.0469  0.0977
23817SOL    HW272893   5.495   0.158   7.374 -0.0999  0.3121  0.0249
23818SOL     OW72894   3.728   5.499   8.150  0.3257 -0.3390  0.3658
23818SOL    HW172895   3.714   5.570   8.088  2.1547  0.2551  0.5580
23818SOL    HW272896   3.653   5.502   8.208  0.7477  2.0155  0.8811
23819SOL     OW72897   3.992   0.413   0.451  0.2474  0.2822 -0.4026
23819SOL    HW172898   3.904   0.451   0.457  0.1143  0.0942 -1.0506
23819SOL    HW272899   4.041   0.454   0.522 -0.2961  0.5775 -0.1920
23820SOL     OW72900   5.461   6.747  12.002  0.3064  0.4078  0.3029
23820SOL    HW172901   5.534   6.795  11.964  0.9614 -1.3915 -0.7961
23820SOL    HW272902   5.492   6.720  12.089  0.9906 -0.4262 -0.1949
23821SOL     OW72903   2.656   0.969   3.882 -0.4321 -0.2426  0.6700
23821SOL    HW172904   2.672   1.063   3.883  1.9106 -0.5936  0.4175
23821SOL    HW272905   2.648   0.945   3.975 -2.1732  0.3299  0.7030
23822SOL     OW72906   7.850   0.863  10.272  0.1277  0.8211  0.0511
23822SOL    HW172907   7.789   0.826  10.336  1.5156  0.1348  1.0167
23822SOL    HW272908   7.874   0.948  10.307  1.8908 -0.0846  1.1844
23823SOL     OW72909   7.137   7.226  11.647 -0.0765 -0.0649  0.2081
23823SOL    HW172910   7.096   7.312  11.657  0.0742 -0.0337  0.5701
23823SOL    HW272911   7.161   7.221  11.555  0.0011  0.3223  0.2077
23824SOL     OW72912   7.196   5.491   9.904  0.2890 -0.5838 -0.2860
23824SOL    HW172913   7.180   5.544   9.826 -2.3659  0.1141  0.6273
23824SOL    HW272914   7.177   5.401   9.877  0.5650 -0.5122 -0.7313
23825SOL     OW72915   7.439   3.279   9.715 -0.8895  0.5416  0.2741
23825SOL    HW172916   7.442   3.207   9.652  2.5475 -0.8935  1.7911
23825SOL    HW272917   7.491   3.349   9.674  1.9265 -0.6392  1.5773
23826SOL     OW72918   2.264   1.600   0.840  0.4268 -0.8597 -0.2548
23826SOL    HW172919   2.353   1.609   0.807 -0.6184  1.1462 -2.8295
23826SOL    HW272920   2.209   1.604   0.763 -1.9947 -0.3747  1.3898
23827SOL     OW72921   7.776   4.269   1.837  0.0440  0.1641 -0.0813
23827SOL    HW172922   7.841   4.324   1.881  2.2884 -0.0251 -2.8494
23827SOL    HW272923   7.734   4.328   1.774  0.5183 -0.6111 -1.1609
23828SOL     OW72924   7.550   2.960   8.469  0.4472 -0.3967  0.3645
23828SOL    HW172925   7.492   2.899   8.514 -0.3307  0.6852  0.8574
23828SOL    HW272926   7.628   2.908   8.448 -0.3964 -1.6778  0.3242
23829SOL     OW72927   5.127   5.274   3.648  0.2226 -0.1817  0.2655
23829SOL    HW172928   5.109   5.195   3.699 -1.7103  1.1253  1.7840
23829SOL    HW272929   5.184   5.326   3.705 -2.1759  1.4125  1.3562
23830SOL     OW72930   3.017   5.501   4.730  0.1583  0.2845  0.1740
23830SOL    HW172931   3.084   5.432   4.733  0.3227  0.4393  0.1211
23830SOL    HW272932   2.967   5.490   4.810 -1.3739 -1.4349 -0.9428
23831SOL     OW72933   1.147   4.076   1.586  0.4681  0.0226 -0.0102
23831SOL    HW172934   1.120   4.154   1.634 -0.6531  1.4956 -2.7573
23831SOL    HW272935   1.064   4.032   1.563  0.8348  0.1701 -1.7395
23832SOL     OW72936   0.751   3.367   3.811 -0.0745 -0.2977 -0.2938
23832SOL    HW172937   0.730   3.396   3.722  1.6012  0.7543 -0.3897
23832SOL    HW272938   0.795   3.442   3.851  1.1303 -1.4762  0.6932
23833SOL     OW72939   1.931   1.810   8.460  0.4798 -0.5558  0.5944
23833SOL    HW172940   1.939   1.823   8.554 -2.8144 -1.2032  1.0581
23833SOL    HW272941   1.936   1.715   8.448 -1.3501 -0.6537  0.4273
23834SOL     OW72942   1.359   1.029   1.878  0.2076 -0.8429 -0.4686
23834SOL    HW172943   1.288   1.044   1.815  1.5374  0.0695 -1.8350
23834SOL    HW272944   1.336   1.082   1.954 -1.5256 -2.1058 -0.0296
23835SOL     OW72945   0.957   4.535   7.817  0.5700 -0.4936 -0.1795
23835SOL    HW172946   0.910   4.462   7.858  1.7207 -2.1255 -1.5996
23835SOL    HW272947   1.045   4.530   7.854  1.3061 -1.2985 -1.9135
23836SOL     OW72948   6.757   2.196   1.708  0.1553 -0.6186 -0.7263
23836SOL    HW172949   6.731   2.105   1.696  0.6848 -0.8133 -0.4250
23836SOL    HW272950   6.792   2.199   1.797 -1.3891  0.2382 -0.1051
23837SOL     OW72951   5.218   0.916   8.921 -0.2927 -0.1703 -0.1562
23837SOL    HW172952   5.241   0.824   8.933 -1.5562 -0.3453  1.3006
23837SOL    HW272953   5.272   0.945   8.848  0.7421 -1.8382 -0.1113
23838SOL     OW72954   2.833   7.450  10.709  0.0468 -0.5120 -0.2641
23838SOL    HW172955   2.893   7.478  10.778  1.8870 -1.2460 -1.4825
23838SOL    HW272956   2.770   7.394  10.753  1.0242 -0.7460  0.8835
23839SOL     OW72957   4.607   0.114   3.035  0.0497 -0.1671 -0.1548
23839SOL    HW172958   4.586   0.207   3.043 -0.0186 -0.1865 -0.1130
23839SOL    HW272959   4.682   0.101   3.094 -0.3966 -0.2910  0.3910
23840SOL     OW72960   6.605   0.528   3.437  0.6036 -0.4065  0.1131
23840SOL    HW172961   6.548   0.605   3.439  0.7725 -0.2533 -0.6654
23840SOL    HW272962   6.661   0.538   3.514 -0.6958 -0.7823  1.1324
23841SOL     OW72963   4.755   1.512   0.192 -0.1812 -0.1247 -0.4025
23841SOL    HW172964   4.733   1.554   0.109  0.4363  0.8250 -0.0993
23841SOL    HW272965   4.829   1.455   0.172 -0.1558 -0.0450 -0.5348
23842SOL     OW72966   0.420   1.045   1.483  0.7211 -0.1326  0.8815
23842SOL    HW172967   0.448   0.980   1.548  1.7389  0.4380  1.0303
23842SOL    HW272968   0.499   1.065   1.433 -0.1951 -1.1655 -1.1136
23843SOL     OW72969   4.998   0.894   4.763  0.1834 -0.4823  0.9136
23843SOL    HW172970   4.933   0.829   4.735 -0.3886  0.7411 -0.7179
23843SOL    HW272971   4.953   0.946   4.829 -0.4851  0.2309 -0.0649
23844SOL     OW72972   1.944   1.714   0.249 -0.6913  0.1840  0.1468
23844SOL    HW172973   1.899   1.795   0.226  1.1300  1.1638 -0.1621
23844SOL    HW272974   1.896   1.645   0.203 -2.9213  0.9098  1.2462
23845SOL     OW72975   0.814   2.873   9.984  0.1456 -0.1700 -0.6536
23845SOL    HW172976   0.811   2.902  10.075  0.6484 -0.6152 -0.4878
23845SOL    HW272977   0.907   2.858   9.967  0.3864  2.1532 -1.9564
23846SOL     OW72978   5.976   3.688   6.089  0.4929  0.1746 -0.0959
23846SOL    HW172979   5.940   3.601   6.073 -0.6348  0.7109 -0.5952
23846SOL    HW272980   6.071   3.676   6.083  0.3987 -1.1788  0.7401
23847SOL     OW72981   1.850   3.758   5.192  0.3092 -0.5983 -0.4816
23847SOL    HW172982   1.781   3.699   5.225 -0.3662  0.8800  0.8925
23847SOL    HW272983   1.917   3.756   5.261  0.1469  0.4176 -0.2745
23848SOL     OW72984   6.599   7.182   8.680 -0.1425 -0.5271  0.0287
23848SOL    HW172985   6.673   7.164   8.622  0.7012  1.4022  0.4186
23848SOL    HW272986   6.538   7.111   8.664  0.9498 -1.1310 -1.7332
23849SOL     OW72987   2.286   3.674   5.355 -0.0536  0.4482  0.2950
23849SOL    HW172988   2.305   3.621   5.278  0.0842  0.4197  0.3486
23849SOL    HW272989   2.195   3.653   5.377  0.5004 -1.0434  1.3129
23850SOL     OW72990   1.873   7.203   5.451  0.2485  0.3550  0.3914
23850SOL    HW172991   1.814   7.262   5.498  0.1879  0.4174  0.2389
23850SOL    HW272992   1.844   7.208   5.359 -0.9820 -1.3179  0.6283
23851SOL     OW72993   0.449   7.104   3.865  0.2186 -0.3556  0.1361
23851SOL    HW172994   0.544   7.104   3.864  0.2207  0.2227 -0.2776
23851SOL    HW272995   0.424   7.012   3.852  0.7153 -0.4588 -0.0827
23852SOL     OW72996   5.960   6.748  10.155  0.2670  0.3478 -0.7329
23852SOL    HW172997   6.013   6.812  10.202  0.8554 -0.1141 -0.7627
23852SOL    HW272998   5.870   6.782  10.162  0.2711  0.0573  1.1195
23853SOL     OW72999   5.497   1.800   5.691 -0.1765  0.3725 -0.2270
23853SOL    HW173000   5.482   1.710   5.720 -0.0678 -0.1337 -1.6484
23853SOL    HW273001   5.411   1.831   5.662 -0.0974  0.5003 -0.3250
23854SOL     OW73002   6.402   7.096  10.243  0.5654 -0.2623  0.1496
23854SOL    HW173003   6.397   7.175  10.190 -0.2602 -0.5162 -0.1724
23854SOL    HW273004   6.390   7.126  10.333  1.3200  0.0965  0.1305
23855SOL     OW73005   6.825   7.624   9.422  0.3612 -0.7418 -0.0890
23855SOL    HW173006   6.910   7.647   9.461  0.4535  1.6663 -1.4801
23855SOL    HW273007   6.783   7.709   9.406 -1.2961 -1.7883 -1.6059
23856SOL     OW73008   4.436   3.826   6.254 -0.1850  0.0556  0.2367
23856SOL    HW173009   4.368   3.804   6.190 -0.2101 -0.7395  0.5187
23856SOL    HW273010   4.419   3.766   6.327  2.0019 -1.5685 -0.4855
23857SOL     OW73011   3.111   2.917   9.592 -0.3874  0.4916  0.1900
23857SOL    HW173012   3.187   2.967   9.624  0.2080 -1.2246  1.6302
23857SOL    HW273013   3.148   2.833   9.564 -1.5897  0.1593 -0.4454
23858SOL     OW73014   5.275   7.124   1.894  0.1354  0.0439 -0.0008
23858SOL    HW173015   5.273   7.090   1.805  0.6066 -0.0493  0.0212
23858SOL    HW273016   5.191   7.169   1.905 -0.7073 -1.5054  0.1320
23859SOL     OW73017   4.201   3.890   7.617  0.6760 -0.2911  0.2816
23859SOL    HW173018   4.186   3.976   7.578 -1.2702 -0.8384 -0.2713
23859SOL    HW273019   4.208   3.906   7.711  0.0874  0.4563  0.2049
23860SOL     OW73020   4.469   6.217   3.996  0.1481  0.1761 -0.1216
23860SOL    HW173021   4.517   6.163   3.934 -0.6173  0.3593 -0.8951
23860SOL    HW273022   4.509   6.304   3.989  0.7701 -0.0520  0.4494
23861SOL     OW73023   0.042   1.270   2.192  0.0874 -0.2157 -0.2802
23861SOL    HW173024   0.082   1.198   2.242 -1.0544 -0.4596  0.3142
23861SOL    HW273025  -0.049   1.243   2.179 -0.7095  1.6593  1.0214
23862SOL     OW73026   7.917   4.471   7.704  0.0344 -0.0078 -0.0976
23862SOL    HW173027   7.945   4.479   7.795  3.4340 -2.0087 -0.7979
23862SOL    HW273028   7.923   4.560   7.669  2.0855  0.2602  0.8121
23863SOL     OW73029   6.911   1.293   7.994  0.0203  0.1876 -0.5182
23863SOL    HW173030   6.898   1.201   7.971 -3.2772  0.2333  0.7461
23863SOL    HW273031   6.936   1.334   7.912  0.1869 -1.5891 -1.4154
23864SOL     OW73032   3.825   0.648  12.072  0.5004 -0.1356  0.7233
23864SOL    HW173033   3.843   0.735  12.109  0.5632 -0.5047  1.5779
23864SOL    HW273034   3.911   0.608  12.062  0.7414  0.8931 -2.2596
23865SOL     OW73035   5.222   6.769   2.928 -0.1913 -0.2803  0.0194
23865SOL    HW173036   5.287   6.824   2.973 -0.5596  0.0561  0.1483
23865SOL    HW273037   5.138   6.811   2.947 -0.7669 -2.1943  2.1120
23866SOL     OW73038   5.833   2.531   5.973 -0.5475 -0.3607  0.2721
23866SOL    HW173039   5.838   2.564   6.063 -0.8345 -0.6638  0.4014
23866SOL    HW273040   5.857   2.439   5.980  0.3627 -0.1621 -0.1070
23867SOL     OW73041   7.412   7.368   8.002  0.4916  0.2828  0.5073
23867SOL    HW173042   7.352   7.370   8.077 -0.2043 -1.0950  0.0193
23867SOL    HW273043   7.363   7.406   7.930  0.9077  0.9492  0.5678
23868SOL     OW73044   7.894   1.544   3.406 -0.8961 -0.6628  0.3112
23868SOL    HW173045   7.891   1.451   3.427  2.0155 -0.9518 -0.2208
23868SOL    HW273046   7.942   1.549   3.324  0.0172  1.3679  0.9078
23869SOL     OW73047   0.805   6.657   0.079 -0.3485  0.2619  0.3245
23869SOL    HW173048   0.794   6.569   0.042 -0.3685  0.8938 -1.2921
23869SOL    HW273049   0.884   6.651   0.132 -0.5200 -0.7963  0.4859
23870SOL     OW73050   0.176   0.070   5.383  0.1872  0.6325  0.2828
23870SOL    HW173051   0.096   0.029   5.418 -0.2561  1.3615  0.1433
23870SOL    HW273052   0.144   0.130   5.315  0.9621 -0.0943 -0.7616
23871SOL     OW73053   3.756   7.272   7.130 -0.1199 -0.3822 -0.3109
23871SOL    HW173054   3.705   7.227   7.197  1.0871 -1.7393 -0.2443
23871SOL    HW273055   3.752   7.364   7.154 -1.5509 -0.5847  0.3301
23872SOL     OW73056   3.243   0.175   9.290  0.0124  0.1433  0.8553
23872SOL    HW173057   3.319   0.179   9.347  0.1873  0.1821  0.6231
23872SOL    HW273058   3.274   0.211   9.207 -0.1409 -0.2374  0.6296
23873SOL     OW73059   5.980   0.791   6.435  0.4417 -0.0727 -0.0853
23873SOL    HW173060   6.040   0.844   6.486 -0.5327 -0.0482  1.0947
23873SOL    HW273061   5.974   0.708   6.483  0.5117 -0.5533 -0.8848
23874SOL     OW73062   4.983   3.821  10.937  0.1890 -0.6372 -0.1570
23874SOL    HW173063   4.962   3.897  10.883  1.5659 -1.1219 -1.4435
23874SOL    HW273064   5.074   3.835  10.963  0.5866 -2.0259 -0.7382
23875SOL     OW73065   7.502   4.013   8.236  0.5970 -0.3997 -0.6395
23875SOL    HW173066   7.414   4.005   8.198  0.5041 -0.5853 -0.3893
23875SOL    HW273067   7.486   4.033   8.329  0.8209  0.5021 -0.7861
23876SOL     OW73068   4.196   5.969   5.065 -0.1015 -0.1012  0.0675
23876SOL    HW173069   4.259   6.020   5.013  0.6872 -0.7563  0.3681
23876SOL    HW273070   4.138   5.930   5.000  0.7623 -0.7586 -0.3240
23877SOL     OW73071   4.125   0.299   9.700  0.1615  0.3942 -0.0954
23877SOL    HW173072   4.213   0.314   9.733 -0.3026  0.8204  1.0009
23877SOL    HW273073   4.074   0.274   9.777 -0.4971 -0.6919 -0.8456
23878SOL     OW73074   6.276   5.734  10.649 -0.0164 -0.1237  0.5325
23878SOL    HW173075   6.282   5.824  10.620 -0.3477 -0.4918 -0.7269
23878SOL    HW273076   6.205   5.696  10.596  0.1015 -1.1137  1.0527
23879SOL     OW73077   1.065   3.028   0.419  0.0911 -0.2975  0.3023
23879SOL    HW173078   1.054   2.953   0.360  0.0015 -1.0270  1.2191
23879SOL    HW273079   1.001   3.092   0.389  1.3908  0.1764 -1.6376
23880SOL     OW73080   3.361   7.826   4.442 -0.4763  0.1019 -0.1171
23880SOL    HW173081   3.382   7.855   4.353 -0.3623  1.3422  0.2925
23880SOL    HW273082   3.407   7.743   4.452  2.9471  1.8399  0.1281
23881SOL     OW73083   2.317   6.389   8.758 -0.0440  0.6297 -0.1613
23881SOL    HW173084   2.331   6.296   8.778  0.5349  0.7779  0.1534
23881SOL    HW273085   2.270   6.423   8.834  0.4171  0.7542  0.0775
23882SOL     OW73086   3.297   4.228  11.283 -0.1717  0.6885  0.1512
23882SOL    HW173087   3.294   4.134  11.262  0.3975  0.4215  1.1960
23882SOL    HW273088   3.207   4.258  11.272  0.0792  0.6864 -2.9676
23883SOL     OW73089   7.294   1.982   7.352 -0.4004 -0.2626  0.1019
23883SOL    HW173090   7.272   2.038   7.427 -1.8187 -1.0217  0.2867
23883SOL    HW273091   7.231   2.006   7.284 -0.6268 -1.1935 -0.0269
23884SOL     OW73092   2.697   6.537  12.088  0.0434 -0.7818 -0.2186
23884SOL    HW173093   2.725   6.447  12.105  0.1788 -0.4056  1.8252
23884SOL    HW273094   2.647   6.561  12.166 -1.5049  0.3376 -1.5014
23885SOL     OW73095   2.182   0.833   7.233 -0.2177 -0.1287  0.3831
23885SOL    HW173096   2.194   0.875   7.318 -0.9050  0.5214  0.1729
23885SOL    HW273097   2.114   0.767   7.248  0.3788 -0.7145  0.5582
23886SOL     OW73098   1.512   3.861  10.902 -1.1175 -0.0896 -0.0633
23886SOL    HW173099   1.508   3.954  10.925 -0.6682  0.4166 -1.8968
23886SOL    HW273100   1.452   3.819  10.964 -0.2849  1.2054  1.7121
23887SOL     OW73101   1.832   1.664   3.694  0.9896  0.6933 -0.1362
23887SOL    HW173102   1.792   1.751   3.702  2.8542  1.6176 -0.2264
23887SOL    HW273103   1.795   1.628   3.614  0.4908  1.5860 -0.3288
23888SOL     OW73104   4.582   0.913   2.917  0.3670  1.2513 -0.0752
23888SOL    HW173105   4.611   0.916   3.008 -0.2177 -1.4314  0.2862
23888SOL    HW273106   4.662   0.896   2.867  0.1151 -2.6553  0.5718
23889SOL     OW73107   2.513   5.547   3.069  0.2060 -0.0671 -0.0797
23889SOL    HW173108   2.476   5.460   3.059 -0.2669  0.1438 -0.2005
23889SOL    HW273109   2.439   5.607   3.053  0.9722  0.4083 -2.2822
23890SOL     OW73110   2.310   7.845   1.148  0.2707 -0.6290  0.1206
23890SOL    HW173111   2.337   7.755   1.168  1.9962 -0.4826 -1.2192
23890SOL    HW273112   2.253   7.836   1.071  0.5343 -0.5838 -0.0826
23891SOL     OW73113   6.623   7.514  10.100 -0.0001  0.7151  0.1914
23891SOL    HW173114   6.560   7.443  10.097  0.5747  0.2075  0.0328
23891SOL    HW273115   6.596   7.573  10.030  0.8917 -0.5173 -1.2464
23892SOL     OW73116   0.877   0.562   1.801 -0.2010  0.6039  0.5152
23892SOL    HW173117   0.895   0.597   1.714 -0.2980  0.7532  0.5542
23892SOL    HW273118   0.854   0.470   1.786 -2.6730  1.2110  0.1026
23893SOL     OW73119   0.060   0.299   5.581  0.3225  0.3033  0.5292
23893SOL    HW173120   0.117   0.238   5.535  0.9005  1.1776  0.0533
23893SOL    HW273121   0.017   0.246   5.648 -1.5013 -1.2845 -1.7621
23894SOL     OW73122   3.428   6.151   8.515 -0.1079  0.0626  0.4414
23894SOL    HW173123   3.336   6.135   8.496  0.2307 -0.8826 -0.4512
23894SOL    HW273124   3.468   6.169   8.430  0.4287  1.0711  0.8889
23895SOL     OW73125   4.350   6.945   2.731  0.0593 -0.2504 -0.0882
23895SOL    HW173126   4.276   6.886   2.719 -0.3535  0.4597 -1.1173
23895SOL    HW273127   4.381   6.964   2.643  2.1253 -1.3015  0.3358
23896SOL     OW73128   3.223   2.616   5.733 -0.0077 -0.2925 -0.1492
23896SOL    HW173129   3.284   2.682   5.766  0.3130 -0.6990  0.0829
23896SOL    HW273130   3.188   2.654   5.653 -0.2752  0.4122  0.2956
23897SOL     OW73131   6.150   1.649   1.277  0.8080 -0.6658  0.0792
23897SOL    HW173132   6.090   1.676   1.208  1.4102 -0.8563 -0.5205
23897SOL    HW273133   6.122   1.699   1.354 -0.4229 -1.1059 -0.0628
23898SOL     OW73134   4.179   5.515   8.221 -0.1004  0.2731 -0.1637
23898SOL    HW173135   4.185   5.608   8.200 -0.8002  0.2688 -0.4038
23898SOL    HW273136   4.090   5.503   8.253 -0.2805 -0.4594 -0.8986
23899SOL     OW73137   0.393   5.454   2.894  1.0763  0.1790 -0.0125
23899SOL    HW173138   0.322   5.506   2.856  0.4743 -0.0992  0.7019
23899SOL    HW273139   0.420   5.503   2.971  0.5965 -0.4886  0.5887
23900SOL     OW73140   4.061   3.727   1.901 -0.3274 -0.5220 -0.7929
23900SOL    HW173141   4.024   3.768   1.980 -0.2025  0.3698 -1.1827
23900SOL    HW273142   4.122   3.662   1.935  1.2966  1.2636 -0.0894
23901SOL     OW73143   3.320   4.470   2.906  0.1222  0.2014 -0.2002
23901SOL    HW173144   3.251   4.431   2.958 -0.7278  2.1184  0.2116
23901SOL    HW273145   3.381   4.507   2.970 -0.2406  1.4205 -0.5284
23902SOL     OW73146   7.015   2.736   0.174 -0.4197  0.2273 -0.9436
23902SOL    HW173147   7.017   2.810   0.113 -0.5265  0.9430 -0.0820
23902SOL    HW273148   6.929   2.740   0.215 -0.0301  0.2721 -0.1050
23903SOL     OW73149   2.564   3.005   6.234  0.1108 -0.4491 -0.2747
23903SOL    HW173150   2.651   3.043   6.247 -0.4849  1.0596 -0.4410
23903SOL    HW273151   2.546   2.959   6.316 -0.4555  2.4711  1.4072
23904SOL     OW73152   1.365   2.941   5.120  0.1499  0.2839  0.1119
23904SOL    HW173153   1.335   2.854   5.095 -0.3132 -0.3027  2.4279
23904SOL    HW273154   1.458   2.942   5.097  0.2934 -1.0493  0.5475
23905SOL     OW73155   4.248   0.901  11.528  0.0122  0.4495 -0.0835
23905SOL    HW173156   4.296   0.855  11.597  1.1222  1.4561 -0.1637
23905SOL    HW273157   4.156   0.885  11.548  0.3280 -2.4143 -0.5206
23906SOL     OW73158   1.949   4.044   7.533 -0.1150 -0.6943 -0.5385
23906SOL    HW173159   1.927   4.117   7.590 -0.2401  1.2441 -2.9347
23906SOL    HW273160   1.887   4.049   7.461 -0.0489 -3.1439 -0.8664
23907SOL     OW73161   0.922   2.334   0.769 -0.2139  0.1310  0.3260
23907SOL    HW173162   0.987   2.286   0.820  0.1694  1.0070  0.6830
23907SOL    HW273163   0.962   2.420   0.754 -0.3591 -0.0682 -1.3837
23908SOL     OW73164   5.920   7.482   0.770  0.3450  0.4914  0.0361
23908SOL    HW173165   5.941   7.468   0.863  0.6500  0.3248 -0.0583
23908SOL    HW273166   5.908   7.577   0.763  0.7348  0.5518  0.1609
23909SOL     OW73167   2.312   7.759   6.293 -0.0361  0.1455 -0.3676
23909SOL    HW173168   2.346   7.743   6.205 -1.5370  0.1253 -0.9632
23909SOL    HW273169   2.219   7.776   6.281 -0.3017  0.0225  1.2361
23910SOL     OW73170   3.907   4.264  11.985  0.0284 -0.4286 -0.2440
23910SOL    HW173171   3.964   4.290  12.058 -1.2018 -0.7358  0.8751
23910SOL    HW273172   3.838   4.331  11.984 -2.6398 -2.8284  2.0476
23911SOL     OW73173   7.478   1.930   1.267  0.0110 -0.0108 -0.4113
23911SOL    HW173174   7.436   1.861   1.216 -1.3794 -0.5800  1.4069
23911SOL    HW273175   7.411   1.959   1.328  1.2463  1.4821  0.2979
23912SOL     OW73176   2.341   7.436   0.274 -0.3094 -0.0682 -0.1308
23912SOL    HW173177   2.414   7.383   0.306  0.2385 -0.6589 -2.1960
23912SOL    HW273178   2.297   7.380   0.209 -2.6288  0.2737  1.0370
23913SOL     OW73179   4.303   1.675   8.515  0.7040  0.2730 -0.5517
23913SOL    HW173180   4.318   1.632   8.431  2.3253 -1.0547  0.3562
23913SOL    HW273181   4.237   1.621   8.559  1.2648 -0.1632 -0.2249
23914SOL     OW73182   3.017   1.577   9.027  0.0293  0.0695  0.4407
23914SOL    HW173183   3.053   1.663   9.050 -0.1206  0.0620  0.7133
23914SOL    HW273184   3.076   1.515   9.070 -0.9700  0.0838  1.8730
23915SOL     OW73185   2.540   1.442   4.028  0.1952 -0.2543 -0.1982
23915SOL    HW173186   2.590   1.504   4.081  0.6505  0.6834 -1.6623
23915SOL    HW273187   2.448   1.464   4.045  0.3438  0.4120 -0.2100
23916SOL     OW73188   5.160   6.776   5.774 -0.2134 -0.0921  0.5427
23916SOL    HW173189   5.231   6.714   5.793  1.3154  1.2282 -0.6448
23916SOL    HW273190   5.100   6.766   5.849  0.8587 -1.7180  1.2579
23917SOL     OW73191   3.281   2.103   6.332 -0.0380 -0.0266 -0.1494
23917SOL    HW173192   3.241   2.148   6.407  0.4413 -0.3353  0.2948
23917SOL    HW273193   3.374   2.126   6.337 -0.2323  1.3175 -1.6161
23918SOL     OW73194   5.598   4.597   3.822  0.5543  0.4184  0.5837
23918SOL    HW173195   5.649   4.538   3.877 -0.0042  0.0563  0.7164
23918SOL    HW273196   5.555   4.540   3.758  0.0007  0.6738  0.7219
23919SOL     OW73197   6.312   0.265   2.561 -0.0040 -0.1425  0.8409
23919SOL    HW173198   6.402   0.246   2.535 -0.0689  0.1100  0.4178
23919SOL    HW273199   6.259   0.204   2.511 -0.1562  0.6005  0.0711
23920SOL     OW73200   2.229   1.267   4.415 -0.1109 -0.1466  0.0766
23920SOL    HW173201   2.259   1.180   4.441 -1.1786 -0.8098 -0.8613
23920SOL    HW273202   2.293   1.297   4.351 -1.2707 -1.4867 -1.7899
23921SOL     OW73203   7.110   1.326   0.002  0.5309 -0.2115  0.2979
23921SOL    HW173204   7.159   1.258   0.047 -0.5961 -1.1176  0.2031
23921SOL    HW273205   7.021   1.318   0.037 -0.0066  0.1034 -0.9458
23922SOL     OW73206   3.469   2.778   7.502 -0.6305 -0.0678 -0.2093
23922SOL    HW173207   3.397   2.839   7.489 -0.0108  0.8741  0.6229
23922SOL    HW273208   3.548   2.833   7.501  0.1747 -1.1467 -1.8082
23923SOL     OW73209   1.398   1.237   9.964 -0.4232  0.5824 -0.8263
23923SOL    HW173210   1.342   1.300  10.009  0.5736  1.7446 -1.1560
23923SOL    HW273211   1.377   1.249   9.871 -0.7749 -0.1327 -0.8481
23924SOL     OW73212   0.940   6.655  11.361  0.3326 -0.2563  0.2497
23924SOL    HW173213   0.845   6.661  11.352  0.1964 -1.3590  0.7989
23924SOL    HW273214   0.957   6.680  11.453  0.6222  0.2823  0.0583
23925SOL     OW73215   6.616   6.096  10.640  0.2428 -0.0839  0.5499
23925SOL    HW173216   6.593   6.086  10.732  0.0066  1.4995  0.7002
23925SOL    HW273217   6.663   6.016  10.617 -0.1134 -0.7032  1.9097
23926SOL     OW73218   2.210   3.110   7.221 -0.5224 -0.5261 -0.2073
23926SOL    HW173219   2.234   3.048   7.153  0.6778 -1.1453  0.7501
23926SOL    HW273220   2.129   3.075   7.259  1.5118 -3.1580  2.1685
23927SOL     OW73221   1.214   4.357   0.728  0.3276  0.0195  0.6947
23927SOL    HW173222   1.152   4.284   0.740 -0.3683  0.6166  0.8133
23927SOL    HW273223   1.289   4.334   0.783  0.7004 -1.2362 -0.2706
23928SOL     OW73224   2.668   6.131   3.105  0.1148  0.1033  0.5887
23928SOL    HW173225   2.646   6.140   3.012 -0.5737 -0.6319  0.6640
23928SOL    HW273226   2.763   6.131   3.107  0.1388  0.4298 -0.0912
23929SOL     OW73227   6.702   6.282   7.683 -0.0635 -0.0156  0.0722
23929SOL    HW173228   6.671   6.303   7.771 -1.1299  0.6867 -0.4510
23929SOL    HW273229   6.679   6.190   7.671 -1.1607  0.2490  0.0379
23930SOL     OW73230   6.522   5.588   9.318  0.9134  0.3151  0.3624
23930SOL    HW173231   6.524   5.504   9.363 -0.4525  1.3658  2.5717
23930SOL    HW273232   6.430   5.601   9.296  1.4073  0.3303 -1.8700
23931SOL     OW73233   5.334   4.738   4.332  0.6520 -0.3814 -0.1462
23931SOL    HW173234   5.358   4.737   4.424  0.4492  1.3063 -0.0438
23931SOL    HW273235   5.413   4.767   4.286  0.3942 -0.0087 -0.3645
23932SOL     OW73236   7.744   7.050   5.444  0.4755 -0.3063 -0.4121
23932SOL    HW173237   7.700   7.135   5.444  1.0257 -0.0181 -1.3093
23932SOL    HW273238   7.797   7.050   5.365 -0.6061 -2.0501 -1.1835
23933SOL     OW73239   6.209   6.221   8.619  0.3044  0.6380  0.1495
23933SOL    HW173240   6.130   6.244   8.668 -0.4522  0.5962 -1.0134
23933SOL    HW273241   6.182   6.146   8.565  1.1747  0.5539 -0.1776
23934SOL     OW73242   3.082   7.555   9.211  0.1589 -0.6076  0.6086
23934SOL    HW173243   3.017   7.608   9.164 -0.2797 -0.7311  1.0601
23934SOL    HW273244   3.140   7.522   9.142  0.6389  0.7137  0.3593
23935SOL     OW73245   5.885   3.791   6.902 -0.0333  0.1734  0.8399
23935SOL    HW173246   5.926   3.706   6.886  0.4078  0.3115  1.2139
23935SOL    HW273247   5.942   3.834   6.967 -2.0677 -0.6285  3.3024
23936SOL     OW73248   7.169   3.595   9.464 -0.6555  0.3113 -0.6090
23936SOL    HW173249   7.155   3.644   9.545 -0.4759 -1.2487  0.4006
23936SOL    HW273250   7.084   3.597   9.419 -0.3007  2.6857 -1.2865
23937SOL     OW73251   5.741   7.554   5.748 -0.5404 -0.3186  0.1974
23937SOL    HW173252   5.812   7.615   5.772 -0.7564  0.4050 -0.9239
23937SOL    HW273253   5.764   7.524   5.660 -1.7623  0.1675 -0.3120
23938SOL     OW73254   0.115   2.073  11.503 -0.0453  0.0440  0.1936
23938SOL    HW173255   0.092   1.980  11.501 -1.3121  0.3120  0.8144
23938SOL    HW273256   0.141   2.090  11.593 -1.1138  0.5591  0.4225
23939SOL     OW73257   4.413   5.953   0.986 -0.3043  0.3163 -0.0653
23939SOL    HW173258   4.442   6.044   0.985  0.0841  0.1997 -1.5878
23939SOL    HW273259   4.443   5.919   1.070 -0.4210  1.5670  0.5067
23940SOL     OW73260   7.258   1.246   6.025  0.2851  0.9339  0.7443
23940SOL    HW173261   7.273   1.225   6.117  1.1167 -2.5519 -0.0662
23940SOL    HW273262   7.331   1.303   6.001  2.5829 -1.6342  1.2538
23941SOL     OW73263   4.548   4.052   9.693 -0.3740 -0.7791  0.0249
23941SOL    HW173264   4.536   3.957   9.691 -1.3572 -0.6599 -0.5067
23941SOL    HW273265   4.488   4.083   9.761 -1.3043 -0.3972 -0.9385
23942SOL     OW73266   0.643   2.123  10.288 -0.7556 -0.4217 -0.1296
23942SOL    HW173267   0.712   2.058  10.300 -0.8564 -0.5244 -0.1003
23942SOL    HW273268   0.629   2.160  10.375 -0.5154 -0.1743 -0.1955
23943SOL     OW73269   1.307   7.736  11.546  0.1338  0.4249 -0.0116
23943SOL    HW173270   1.360   7.722  11.624 -1.4561 -0.6874  0.9227
23943SOL    HW273271   1.253   7.812  11.566 -1.6565 -0.9863  0.8260
23944SOL     OW73272   5.314   7.227   0.167  0.0903  0.2734 -0.4747
23944SOL    HW173273   5.241   7.241   0.228  1.4732  1.3365  1.0317
23944SOL    HW273274   5.355   7.146   0.198 -1.1294 -1.0376 -2.1052
23945SOL     OW73275   2.431   5.203  11.174 -0.2666  0.2106 -0.6065
23945SOL    HW173276   2.430   5.229  11.082  1.2015  0.7994 -0.4913
23945SOL    HW273277   2.341   5.179  11.194 -0.6406  0.2721 -2.1420
23946SOL     OW73278   7.779   6.514   5.286 -0.0076 -0.1616 -0.4380
23946SOL    HW173279   7.823   6.562   5.355  1.7906  0.0298 -1.6517
23946SOL    HW273280   7.720   6.578   5.245  1.8958  0.9133 -1.6315
23947SOL     OW73281   5.521   7.162   5.675 -0.0421  0.6634  0.4326
23947SOL    HW173282   5.612   7.147   5.648 -0.5625 -0.4824 -0.7905
23947SOL    HW273283   5.526   7.236   5.736  1.4798  1.9080 -1.1070
23948SOL     OW73284   6.332   6.023   2.974 -0.5535  0.6315  0.0788
23948SOL    HW173285   6.373   6.099   3.015 -1.5813  1.1812  0.1172
23948SOL    HW273286   6.393   5.951   2.991 -0.2260  1.1584  1.2356
23949SOL     OW73287   4.155   0.161   2.616 -0.5193 -0.1316  0.8719
23949SOL    HW173288   4.248   0.184   2.612 -0.8827  1.5507  1.3414
23949SOL    HW273289   4.121   0.210   2.691 -1.5611 -1.6502  1.4536
23950SOL     OW73290   5.826   4.229   0.916 -0.2658 -0.1500  0.2912
23950SOL    HW173291   5.892   4.236   0.985 -0.5818  0.3174  0.5515
23950SOL    HW273292   5.872   4.187   0.843  0.0954 -0.5632  0.7479
23951SOL     OW73293   7.841   1.304   9.506 -0.4717  0.4433 -0.3096
23951SOL    HW173294   7.854   1.212   9.531 -1.0108  0.0612 -1.3900
23951SOL    HW273295   7.772   1.302   9.441  0.0292  1.5465 -0.9092
23952SOL     OW73296   2.109   5.101   4.953 -0.7210 -0.3034  0.2119
23952SOL    HW173297   2.024   5.060   4.965 -1.6868  1.3968 -0.4697
23952SOL    HW273298   2.096   5.164   4.881  1.2240 -0.3186 -0.2169
23953SOL     OW73299   0.114   7.283   0.509 -0.4329  0.3678  0.3169
23953SOL    HW173300   0.130   7.329   0.591 -1.3628  1.5823 -0.1522
23953SOL    HW273301   0.023   7.254   0.514 -0.2215 -0.3680  0.0917
23954SOL     OW73302   3.264   6.749   6.879  0.0529 -0.6115  0.1014
23954SOL    HW173303   3.223   6.829   6.912 -2.7214 -1.1455 -1.7176
23954SOL    HW273304   3.320   6.779   6.807  1.0358 -0.1106  1.0428
23955SOL     OW73305   0.301   3.506  10.495  0.6964 -0.2934 -0.8700
23955SOL    HW173306   0.356   3.570  10.540  1.9262 -0.7567 -1.6496
23955SOL    HW273307   0.301   3.534  10.404 -0.5932 -0.1736 -0.8571
23956SOL     OW73308   1.228   6.627   3.134 -0.3249 -0.2040  0.0582
23956SOL    HW173309   1.291   6.631   3.063 -1.1116  0.5562 -0.6102
23956SOL    HW273310   1.222   6.534   3.155  0.5178 -0.3496 -0.3139
23957SOL     OW73311   1.407   4.205   0.395 -0.3479 -0.1975  0.1038
23957SOL    HW173312   1.347   4.196   0.321  0.7515 -2.1108 -0.6532
23957SOL    HW273313   1.420   4.115   0.426  0.4370  0.4056  1.6357
23958SOL     OW73314   0.282   0.723   9.181  0.0635 -0.3395  0.6632
23958SOL    HW173315   0.267   0.777   9.259 -2.3181  1.2627 -0.7643
23958SOL    HW273316   0.377   0.719   9.173  0.3687  2.0141  1.9841
23959SOL     OW73317   2.309   7.573   2.233 -0.2178  0.0534  0.3082
23959SOL    HW173318   2.353   7.551   2.151  0.0830 -0.1081  0.5112
23959SOL    HW273319   2.236   7.511   2.238 -1.0679  0.9478 -0.5047
23960SOL     OW73320   5.968   4.713  10.224  0.3876 -0.0832 -0.0731
23960SOL    HW173321   5.884   4.744  10.258 -0.3078 -1.1433 -0.7720
23960SOL    HW273322   5.951   4.693  10.133  1.8118  1.1466 -0.6557
23961SOL     OW73323   3.219   4.468   6.475 -0.4238 -0.2497  0.1135
23961SOL    HW173324   3.221   4.500   6.565  0.6814  1.1904 -0.3906
23961SOL    HW273325   3.142   4.411   6.472 -1.1098  0.5300  1.6667
23962SOL     OW73326   0.741   3.560  11.939  0.4300  0.1103  0.1911
23962SOL    HW173327   0.727   3.610  11.858  0.8854  0.5646  0.3792
23962SOL    HW273328   0.813   3.501  11.917  1.4171  1.1049  0.6089
23963SOL     OW73329   0.161   0.294   6.156 -0.7461  0.8794  0.0087
23963SOL    HW173330   0.135   0.377   6.197 -2.4972  0.0610  0.6771
23963SOL    HW273331   0.103   0.286   6.080  0.0472  0.6855 -0.5930
23964SOL     OW73332   7.053   2.516   6.276 -0.2858 -0.1679  0.0649
23964SOL    HW173333   7.143   2.550   6.281 -0.5918  0.6121  0.2526
23964SOL    HW273334   7.011   2.568   6.209 -1.0259  0.4584  0.9897
23965SOL     OW73335   3.285   7.822  12.339  0.1256  0.1657  0.3685
23965SOL    HW173336   3.260   7.914  12.344 -0.9668 -0.1207  0.3572
23965SOL    HW273337   3.277   7.789  12.428  1.8086  0.3816  0.6399
23966SOL     OW73338   5.855   7.071   1.215 -0.5436  0.3338  0.1506
23966SOL    HW173339   5.844   6.979   1.238 -2.1949  0.4058 -0.1917
23966SOL    HW273340   5.945   7.078   1.184 -0.6001 -1.3290 -0.4960
23967SOL     OW73341   0.953   4.736   5.560  0.3014 -0.3028 -0.8125
23967SOL    HW173342   0.879   4.796   5.572  0.5606 -0.0451 -0.4925
23967SOL    HW273343   1.007   4.778   5.494  0.2758 -0.3827 -0.8839
23968SOL     OW73344   5.192   3.568   9.460  0.2129 -0.5080  0.4737
23968SOL    HW173345   5.185   3.653   9.417 -1.3090 -0.3599  0.9294
23968SOL    HW273346   5.254   3.581   9.532  0.2017  0.1507  0.3645
23969SOL     OW73347   6.713   4.505   1.047  0.6379  0.0064  0.6284
23969SOL    HW173348   6.801   4.486   1.015 -0.1713 -1.0291 -1.1429
23969SOL    HW273349   6.713   4.475   1.138  1.6385 -1.5742  0.1516
23970SOL     OW73350   5.364   4.173   0.520  0.0171  0.2468  0.5019
23970SOL    HW173351   5.278   4.134   0.530  0.1810  0.1574  1.7119
23970SOL    HW273352   5.425   4.101   0.533  0.2954 -0.0355 -1.9579
23971SOL     OW73353   6.169   2.125   7.205  0.0444 -0.3155 -0.6103
23971SOL    HW173354   6.098   2.161   7.258 -0.0582  1.0299 -1.6005
23971SOL    HW273355   6.244   2.181   7.225  0.5377 -1.0449 -0.3931
23972SOL     OW73356   6.504   7.706   9.908 -0.2291  0.2565 -0.2788
23972SOL    HW173357   6.519   7.800   9.915 -0.4342  0.2866 -0.2237
23972SOL    HW273358   6.410   7.696   9.927  0.1553 -0.1455  1.6867
23973SOL     OW73359   6.298   1.632   2.548  0.1342  0.0296 -0.0334
23973SOL    HW173360   6.375   1.612   2.494 -0.7791 -2.3072 -0.5950
23973SOL    HW273361   6.335   1.666   2.630  1.6095  1.8932 -1.3896
23974SOL     OW73362   3.159   0.003   6.636  0.0200 -0.3734 -0.0725
23974SOL    HW173363   3.092  -0.058   6.603 -0.1083 -1.1746  1.5851
23974SOL    HW273364   3.118   0.089   6.629 -1.1608 -0.8351  0.7797
23975SOL     OW73365   4.379   7.529   7.350  0.5316  0.2641 -1.0637
23975SOL    HW173366   4.345   7.589   7.284  0.3144  0.9688 -0.3421
23975SOL    HW273367   4.472   7.548   7.354  0.0823  2.5970  1.0792
23976SOL     OW73368   7.628   6.934   1.613 -0.2494 -0.2911 -0.2856
23976SOL    HW173369   7.707   6.975   1.578 -1.4968  0.1560 -2.8829
23976SOL    HW273370   7.656   6.848   1.644  1.6256  0.7582  1.1261
23977SOL     OW73371   5.679   0.890   1.999 -0.5413 -0.4483  0.5456
23977SOL    HW173372   5.700   0.797   2.003  1.5761 -0.0468  0.1623
23977SOL    HW273373   5.696   0.915   1.908  2.6515  1.0005  1.3818
23978SOL     OW73374   5.699   7.757   6.363 -0.3134 -0.2361 -0.7613
23978SOL    HW173375   5.664   7.708   6.289 -0.4848  0.6774 -1.3068
23978SOL    HW273376   5.671   7.847   6.347 -2.1237 -0.3151  1.4841
23979SOL     OW73377   0.810   6.783   7.099 -0.3935 -0.2032  0.4027
23979SOL    HW173378   0.793   6.815   7.010 -0.1749  0.0661  0.4547
23979SOL    HW273379   0.892   6.826   7.125 -1.0591  0.6409  1.1761
23980SOL     OW73380   2.878   0.501   2.852 -0.1784 -0.2078  0.2759
23980SOL    HW173381   2.897   0.416   2.812 -0.4483 -0.2547  0.2438
23980SOL    HW273382   2.873   0.562   2.778 -1.4103 -0.4307  0.1676
23981SOL     OW73383   1.847   6.817   6.719 -0.1100  0.4561 -0.5075
23981SOL    HW173384   1.939   6.806   6.742 -0.2987 -0.9211 -0.3230
23981SOL    HW273385   1.847   6.843   6.627  0.4597 -0.1003 -0.6720
23982SOL     OW73386   5.520   2.258  10.526 -0.2885  0.3974 -0.0414
23982SOL    HW173387   5.451   2.324  10.535  0.9436  1.7982 -0.4541
23982SOL    HW273388   5.568   2.284  10.448 -0.4897 -1.7280 -0.9414
23983SOL     OW73389   0.602   7.910   9.696 -0.0903  0.5066 -0.2097
23983SOL    HW173390   0.533   7.947   9.751  0.3330  1.2049 -0.1338
23983SOL    HW273391   0.593   7.816   9.705 -0.1402  0.6140  0.9056
23984SOL     OW73392   2.381   7.681  11.337 -0.3704 -0.0572  0.0508
23984SOL    HW173393   2.432   7.757  11.307 -0.1432  0.2249  1.1253
23984SOL    HW273394   2.290   7.710  11.334 -0.3696 -0.0885 -0.4947
23985SOL     OW73395   1.229   3.488   7.854  0.3600 -0.3764  0.4867
23985SOL    HW173396   1.219   3.496   7.949  0.8796  0.8812  0.4564
23985SOL    HW273397   1.312   3.530   7.835  1.4245 -2.6514 -0.2872
23986SOL     OW73398   0.577   1.724   0.645  0.1849  0.1298  0.0171
23986SOL    HW173399   0.526   1.801   0.670 -1.0974 -0.7760  0.3294
23986SOL    HW273400   0.596   1.736   0.552  0.1451  0.8943  0.1037
23987SOL     OW73401   3.657   7.432   1.124 -0.2206 -0.2519 -0.0500
23987SOL    HW173402   3.612   7.394   1.199  0.2497 -0.9460 -0.1073
23987SOL    HW273403   3.670   7.358   1.064  1.4831 -0.2143  0.2111
23988SOL     OW73404   4.114   1.144   1.520  0.3750  0.0406 -0.6907
23988SOL    HW173405   4.069   1.182   1.444 -0.3215 -0.0786 -0.3381
23988SOL    HW273406   4.145   1.059   1.489 -0.8387 -0.4734 -0.5332
23989SOL     OW73407   4.402   6.774   2.256 -0.2923 -0.4187 -0.7588
23989SOL    HW173408   4.347   6.728   2.320  1.1932 -2.1427 -0.6550
23989SOL    HW273409   4.357   6.758   2.172 -0.7045 -0.6201 -0.5075
23990SOL     OW73410   4.027   0.835   0.030 -0.1661  0.2435 -0.0876
23990SOL    HW173411   4.081   0.762  -0.000 -1.9525 -1.2835  0.2753
23990SOL    HW273412   4.088   0.891   0.079  1.4444 -0.4402 -1.1957
23991SOL     OW73413   1.341   6.522   8.193 -0.1297  0.3166  0.4169
23991SOL    HW173414   1.400   6.539   8.266 -0.6441  1.3152  0.6104
23991SOL    HW273415   1.344   6.427   8.182 -0.6766  0.0418  2.2734
23992SOL     OW73416   2.716   6.854  10.646 -0.0281  0.2722  0.2686
23992SOL    HW173417   2.796   6.832  10.693 -0.2695  0.9684  1.0100
23992SOL    HW273418   2.651   6.793  10.681  0.1266 -0.1678 -0.2003
23993SOL     OW73419   7.225   2.918   9.575 -0.5365 -0.2180 -0.2132
23993SOL    HW173420   7.153   2.977   9.596  0.3640  0.4840  1.1184
23993SOL    HW273421   7.292   2.974   9.536  0.3351 -0.3155  1.0746
23994SOL     OW73422   3.720   6.915   2.883 -0.1728 -0.2528 -0.7918
23994SOL    HW173423   3.792   6.852   2.896 -0.7811 -0.3343  4.6252
23994SOL    HW273424   3.764   6.999   2.874  0.5922 -0.7896 -2.4024
23995SOL     OW73425   5.513   7.861   9.583  0.0899  0.4408  0.6494
23995SOL    HW173426   5.533   7.773   9.553  1.4483 -0.0792  2.8176
23995SOL    HW273427   5.421   7.858   9.611 -0.4116  0.2580 -0.9417
23996SOL     OW73428   2.104   4.512   1.931  0.2819 -0.2038  0.3305
23996SOL    HW173429   2.103   4.608   1.924  2.0454 -0.1602  0.1189
23996SOL    HW273430   2.093   4.481   1.841  0.2021 -0.1859  0.3343
23997SOL     OW73431   5.708   0.019   8.557  0.3138  0.1268  0.0710
23997SOL    HW173432   5.698  -0.062   8.507 -1.0342  0.5875 -0.4605
23997SOL    HW273433   5.785   0.004   8.612  1.1540 -0.8213 -1.3027
23998SOL     OW73434   1.405   6.214   5.989  0.0487 -0.2571  0.5100
23998SOL    HW173435   1.354   6.138   6.016  2.5103 -2.2269 -0.0591
23998SOL    HW273436   1.468   6.227   6.060 -0.6256  1.6648  0.8461
23999SOL     OW73437   3.978   0.236  10.406  0.3315  0.4613  0.7844
23999SOL    HW173438   4.024   0.267  10.328 -1.5625  2.9628  0.5656
23999SOL    HW273439   3.919   0.168  10.374  2.4761 -1.5327  0.8010
24000SOL     OW73440   3.135   0.657   9.411  0.0346 -0.1289 -0.5954
24000SOL    HW173441   3.146   0.705   9.329 -1.2741  0.6055 -0.3628
24000SOL    HW273442   3.050   0.686   9.444  0.5041 -0.4935  0.9740
24001SOL     OW73443   4.991   1.091   9.673 -0.1669 -0.1845 -0.0204
24001SOL    HW173444   4.988   1.148   9.750  0.2536  1.3988 -1.1320
24001SOL    HW273445   5.026   1.008   9.706  0.0641  0.4678  1.4679
24002SOL     OW73446   6.441   1.265   9.018 -0.8011  0.2358  0.8822
24002SOL    HW173447   6.448   1.359   9.037 -1.2183  0.6133 -0.6284
24002SOL    HW273448   6.530   1.240   8.991 -1.0196  0.6095 -0.2676
24003SOL     OW73449   7.528   1.637   0.720 -0.3551  0.1841  0.6350
24003SOL    HW173450   7.608   1.651   0.669 -0.5910  1.3901  0.5656
24003SOL    HW273451   7.549   1.564   0.778  0.5449  0.0009  0.1025
24004SOL     OW73452   4.023   0.110   1.327  0.6490 -0.1405  0.0940
24004SOL    HW173453   4.072   0.132   1.407  1.6854 -1.2226 -0.2132
24004SOL    HW273454   4.073   0.039   1.287 -0.4421 -0.3386 -0.9753
24005SOL     OW73455   2.395   6.227   8.544 -0.4272  0.4885  0.2780
24005SOL    HW173456   2.431   6.193   8.626 -0.8141  0.5310  0.4676
24005SOL    HW273457   2.414   6.159   8.480 -0.1814  0.4241  0.4187
24006SOL     OW73458   2.271   1.537   8.231  0.6515  0.0976 -0.5535
24006SOL    HW173459   2.363   1.513   8.239  0.7323  0.2315 -1.0479
24006SOL    HW273460   2.242   1.553   8.321  0.9870 -0.3894 -0.3517
24007SOL     OW73461   2.388   6.779   5.407 -0.3113  0.8296 -0.1186
24007SOL    HW173462   2.482   6.792   5.396 -0.3364  1.4083  0.3452
24007SOL    HW273463   2.348   6.840   5.345 -0.3773 -0.1835 -1.1019
24008SOL     OW73464   1.435   6.642   3.955  0.4916 -0.2828  0.7529
24008SOL    HW173465   1.479   6.570   3.910  1.4766  0.9047 -0.2434
24008SOL    HW273466   1.486   6.720   3.933 -0.5438  0.7416  1.7981
24009SOL     OW73467   7.099   6.067   1.743 -0.3895  0.4087  0.2585
24009SOL    HW173468   7.051   5.990   1.774 -0.6994  0.3968 -0.2463
24009SOL    HW273469   7.096   6.062   1.648 -0.7675  1.2638  0.2129
24010SOL     OW73470   4.398   4.067   5.336  0.1850  0.6261 -0.0989
24010SOL    HW173471   4.397   3.989   5.281 -0.7345  0.7512 -0.2768
24010SOL    HW273472   4.480   4.111   5.315  0.6410 -0.2099 -0.1038
24011SOL     OW73473   3.706   6.419   5.251  0.6653  0.5246 -0.3584
24011SOL    HW173474   3.668   6.376   5.174 -0.5615 -0.3406  0.6741
24011SOL    HW273475   3.637   6.413   5.318  2.4399 -0.6784  1.4888
24012SOL     OW73476   4.228   5.543   6.788 -0.2244  0.5880  0.6775
24012SOL    HW173477   4.136   5.568   6.784  0.3609  2.9133  0.6028
24012SOL    HW273478   4.254   5.561   6.879  0.4523  1.1256  0.3853
24013SOL     OW73479   3.625   1.062   6.672  0.3343 -0.3031  0.0301
24013SOL    HW173480   3.703   1.017   6.704  0.1967 -0.3756  0.2693
24013SOL    HW273481   3.555   1.033   6.731  0.0864 -0.3973 -0.3067
24014SOL     OW73482   2.396   5.687   0.857  0.8654  0.5228 -0.0234
24014SOL    HW173483   2.318   5.686   0.802  0.9344  0.2199 -0.1176
24014SOL    HW273484   2.383   5.615   0.919  0.6318  1.0689  0.5795
24015SOL     OW73485   5.855   2.069   8.110 -0.6161 -0.1215  0.4397
24015SOL    HW173486   5.838   2.150   8.061  1.7435 -0.4030 -0.9928
24015SOL    HW273487   5.785   2.010   8.084 -2.0394  1.2387  1.0490
24016SOL     OW73488   3.138   0.020  11.644  0.2746  0.5659 -0.3440
24016SOL    HW173489   3.050  -0.010  11.620  0.8216 -0.1170 -1.6230
24016SOL    HW273490   3.196  -0.052  11.617  1.1474  0.5505  1.4182
24017SOL     OW73491   5.257   2.352   7.687  0.2397  0.2615 -0.0537
24017SOL    HW173492   5.226   2.439   7.712 -1.5096  0.2537 -1.9525
24017SOL    HW273493   5.342   2.367   7.646 -0.6212  1.2912 -1.5491
24018SOL     OW73494   1.428   0.888   2.581  0.0713 -0.0985 -0.1187
24018SOL    HW173495   1.511   0.919   2.544  0.1734 -0.2852 -0.0481
24018SOL    HW273496   1.454   0.830   2.652 -0.1059  1.7684  1.5643
24019SOL     OW73497   1.312   4.418   6.262  0.7986  0.3232 -0.2223
24019SOL    HW173498   1.381   4.446   6.202  2.4745  0.0166  1.4660
24019SOL    HW273499   1.248   4.490   6.262  2.3014  1.6994 -0.0486
24020SOL     OW73500   7.826   0.035   3.573 -0.1901 -0.3446  0.0026
24020SOL    HW173501   7.906   0.088   3.575  0.5323 -1.4202  0.3714
24020SOL    HW273502   7.757   0.097   3.547  0.9704  0.3355 -1.6645
24021SOL     OW73503   6.848   3.148   3.282  1.0793 -0.1348  0.2587
24021SOL    HW173504   6.776   3.141   3.219  2.0127  0.9472 -0.9907
24021SOL    HW273505   6.841   3.236   3.318  2.2775  0.3178 -0.5456
24022SOL     OW73506   3.058   3.870   1.666 -0.5712  0.0544  0.4828
24022SOL    HW173507   3.042   3.896   1.575 -1.6351 -0.8121  0.3940
24022SOL    HW273508   3.118   3.796   1.659  0.9566  1.2550  0.6220
24023SOL     OW73509   5.016   5.286   1.902  0.0956  0.3647 -0.1188
24023SOL    HW173510   4.953   5.294   1.974  1.4130  0.0438  1.1143
24023SOL    HW273511   4.982   5.345   1.834 -1.5224  0.1972  0.5005
24024SOL     OW73512   3.643   5.402   9.223 -0.0388 -0.0589  0.2235
24024SOL    HW173513   3.673   5.427   9.136  0.2362 -1.8295 -0.2246
24024SOL    HW273514   3.555   5.367   9.208 -0.0425 -0.2486  0.6883
24025SOL     OW73515   6.807   2.532   6.746 -0.0210 -0.0418  0.3414
24025SOL    HW173516   6.739   2.536   6.679 -0.2595 -0.2836  0.5686
24025SOL    HW273517   6.888   2.517   6.696 -0.0355  0.8766  0.0239
24026SOL     OW73518   7.280   0.208  11.930  0.7699 -0.8604 -0.0280
24026SOL    HW173519   7.185   0.195  11.920  0.7580 -0.0323 -1.2272
24026SOL    HW273520   7.293   0.224  12.023 -0.4949  0.6483 -0.0801
24027SOL     OW73521   0.576   1.740   8.515  0.2796 -0.3335 -0.3311
24027SOL    HW173522   0.599   1.769   8.603  0.5762  0.1566 -0.5693
24027SOL    HW273523   0.480   1.731   8.517  0.2258  0.2846 -0.1481
24028SOL     OW73524   1.990   7.567   9.106 -0.1420  0.0921  0.3750
24028SOL    HW173525   2.017   7.574   9.197  0.5527  1.5425  0.0839
24028SOL    HW273526   1.904   7.608   9.103  0.1380  0.6790  0.2599
24029SOL     OW73527   0.879   2.496   3.986  0.6548  0.0903  0.1051
24029SOL    HW173528   0.806   2.548   3.955  1.2621  0.2226 -1.1900
24029SOL    HW273529   0.861   2.481   4.078 -2.2500 -1.9283 -0.6428
24030SOL     OW73530   4.164   4.752  11.884 -0.2434 -0.3733 -0.1721
24030SOL    HW173531   4.209   4.668  11.876  2.6700  0.9793  0.5274
24030SOL    HW273532   4.115   4.746  11.965 -2.1410 -2.1976 -1.3632
24031SOL     OW73533   0.631   1.412   6.935  0.1067 -0.2725 -0.3794
24031SOL    HW173534   0.620   1.365   6.853  1.4755 -1.8111  0.2379
24031SOL    HW273535   0.576   1.364   6.998  1.6068 -1.2375  0.2819
24032SOL     OW73536   3.937   7.924   0.021 -0.1765  0.1837  0.1875
24032SOL    HW173537   3.884   7.970   0.087  0.0946 -0.2185  0.6849
24032SOL    HW273538   4.013   7.980   0.008 -0.5066  0.5497 -0.2126
24033SOL     OW73539   4.486   0.616   8.810  0.3098 -0.3256 -0.2657
24033SOL    HW173540   4.577   0.637   8.832  0.6863 -1.5372 -0.5847
24033SOL    HW273541   4.492   0.575   8.723 -0.5037 -0.7154 -0.1418
24034SOL     OW73542   4.964   3.361   0.866 -0.3289 -0.3954 -0.3361
24034SOL    HW173543   5.013   3.420   0.810  0.0516 -0.7867 -0.4173
24034SOL    HW273544   5.004   3.275   0.853 -0.5425 -0.5796  0.1705
24035SOL     OW73545   3.084   1.436   3.261  0.2236  0.4693 -0.2046
24035SOL    HW173546   2.997   1.421   3.223 -0.6900  1.3964  1.4010
24035SOL    HW273547   3.092   1.531   3.266  0.5898  0.3874  1.2081
24036SOL     OW73548   6.619   3.959   4.478  0.0313  0.3765  0.2544
24036SOL    HW173549   6.605   4.052   4.499 -0.7780  0.8241 -1.9889
24036SOL    HW273550   6.713   3.951   4.465 -0.0917  1.4675 -1.7318
24037SOL     OW73551   7.660   5.474  11.785 -0.2037  0.8476  0.2911
24037SOL    HW173552   7.565   5.463  11.794 -0.3219  1.7816  0.3040
24037SOL    HW273553   7.679   5.443  11.697 -0.2262 -1.0437  0.9055
24038SOL     OW73554   4.082   4.597   4.158  0.2321 -0.1587  0.0310
24038SOL    HW173555   4.139   4.669   4.133  0.7622 -0.8992 -0.9464
24038SOL    HW273556   3.995   4.636   4.163  0.4057  0.4228 -1.1676
24039SOL     OW73557   0.656   2.235   0.821 -0.3077 -0.3382 -0.0933
24039SOL    HW173558   0.714   2.161   0.841  0.4970  0.4309  0.4529
24039SOL    HW273559   0.661   2.291   0.898 -3.2553 -1.1362  0.8235
24040SOL     OW73560   5.608   6.266   2.312 -0.0861 -0.5881  0.1720
24040SOL    HW173561   5.580   6.340   2.259 -0.9902 -0.1243  1.2629
24040SOL    HW273562   5.629   6.198   2.248 -2.0139 -0.3619 -0.7809
24041SOL     OW73563   7.919   5.682   3.920 -0.1881  0.0635 -0.5052
24041SOL    HW173564   7.998   5.724   3.955  0.4693 -0.6294 -1.1424
24041SOL    HW273565   7.951   5.604   3.876 -1.3120 -0.6376 -0.1121
24042SOL     OW73566   7.820   6.629   7.744 -0.2039  0.0975  0.3875
24042SOL    HW173567   7.755   6.561   7.731 -0.5922  0.8995 -2.7639
24042SOL    HW273568   7.831   6.669   7.657  0.6811  3.4296  1.8639
24043SOL     OW73569   1.185   1.220   8.266  0.0569 -0.0911 -0.4359
24043SOL    HW173570   1.113   1.162   8.243 -0.5220  0.6507 -0.5062
24043SOL    HW273571   1.199   1.274   8.189 -1.2136  1.7108  0.5285
24044SOL     OW73572   2.219   0.468  11.008  0.2946 -0.7285  0.2669
24044SOL    HW173573   2.238   0.447  10.916  1.8339 -1.1334  0.6610
24044SOL    HW273574   2.158   0.399  11.035 -0.9677 -0.0449 -0.7047
24045SOL     OW73575   4.550   6.967   5.223 -0.0460 -0.0567  0.4609
24045SOL    HW173576   4.473   7.020   5.244  0.0864  0.3435 -0.0434
24045SOL    HW273577   4.527   6.925   5.140  0.7657  1.0605 -0.3535
24046SOL     OW73578   1.534   4.183  11.350  0.5517 -0.0620 -0.2156
24046SOL    HW173579   1.509   4.175  11.442 -1.2959  3.0261 -0.3078
24046SOL    HW273580   1.605   4.247  11.349  0.1154  0.4323 -0.9625
24047SOL     OW73581   2.680   3.238   3.978 -1.0733 -0.3340 -0.1007
24047SOL    HW173582   2.634   3.247   3.894 -0.1090 -2.1456 -0.8755
24047SOL    HW273583   2.615   3.262   4.044 -1.7247  1.5901 -1.3516
24048SOL     OW73584   4.973   1.312   5.936 -0.1141  0.2681 -0.3820
24048SOL    HW173585   4.911   1.323   5.864 -1.5182  0.6458  0.8394
24048SOL    HW273586   5.020   1.395   5.941  0.1735  0.1504 -1.0086
24049SOL     OW73587   6.439   7.832   5.814 -0.2303 -0.1121 -0.0492
24049SOL    HW173588   6.462   7.740   5.800 -2.4787 -0.6613 -0.5401
24049SOL    HW273589   6.479   7.878   5.740  3.2544 -0.1688  1.6180
24050SOL     OW73590   1.322   5.427   8.830 -0.3437  0.1672 -0.3721
24050SOL    HW173591   1.268   5.506   8.836 -2.0262 -0.9886  0.8626
24050SOL    HW273592   1.259   5.357   8.813  0.9929 -1.0379 -0.5061
24051SOL     OW73593   1.319   7.117   2.123 -0.1529 -0.2313  0.0771
24051SOL    HW173594   1.342   7.026   2.106  1.8337  0.0839  0.8694
24051SOL    HW273595   1.282   7.148   2.040  0.1013 -1.4692 -0.5212
24052SOL     OW73596   7.823   1.034   5.401 -0.0676  0.4816 -0.3705
24052SOL    HW173597   7.802   0.944   5.375 -0.8137  0.5235  0.0819
24052SOL    HW273598   7.749   1.086   5.370 -1.2454  0.4743  2.2100
24053SOL     OW73599   2.161   0.788  10.079  0.4436  0.5319  0.6213
24053SOL    HW173600   2.175   0.745  10.164 -1.5578 -2.4720 -0.4018
24053SOL    HW273601   2.222   0.745  10.019  1.3517  2.1474  0.3177
24054SOL     OW73602   2.706   7.518   4.737  0.2794  0.1828  0.4831
24054SOL    HW173603   2.728   7.546   4.648 -0.9865 -3.1310 -1.0372
24054SOL    HW273604   2.689   7.599   4.785 -1.0578  2.0378 -2.8514
24055SOL     OW73605   0.934   1.071   9.565 -0.4726  0.2609 -0.5187
24055SOL    HW173606   0.853   1.119   9.579 -0.7534 -0.4409  0.3567
24055SOL    HW273607   0.906   0.981   9.546  0.1113 -0.1773  0.6297
24056SOL     OW73608   2.088   6.446   4.200 -0.1056  0.2612 -0.2102
24056SOL    HW173609   2.062   6.482   4.115  0.7460 -0.0427 -0.6052
24056SOL    HW273610   2.092   6.522   4.257  0.0040  0.5659 -0.6153
24057SOL     OW73611   5.522   0.807  11.589 -0.1116 -0.5859 -0.0800
24057SOL    HW173612   5.527   0.801  11.684 -0.5794 -1.4401 -0.1018
24057SOL    HW273613   5.589   0.871  11.565  1.5815 -2.0088  0.6442
24058SOL     OW73614   6.432   3.072   6.960  0.2379 -0.2602  0.4779
24058SOL    HW173615   6.381   3.118   6.892  1.2288  0.3999  0.1617
24058SOL    HW273616   6.449   2.986   6.923 -0.9569 -0.6374  0.7445
24059SOL     OW73617   6.094   7.490   8.377 -0.4808  0.7094 -0.6812
24059SOL    HW173618   6.094   7.507   8.282  1.0995 -0.9986 -1.0593
24059SOL    HW273619   6.152   7.557   8.413 -0.2521  0.7382 -1.0932
24060SOL     OW73620   1.040   3.282   3.349 -0.0552  0.2153 -0.0344
24060SOL    HW173621   1.036   3.192   3.381 -1.0304  0.2873  0.0602
24060SOL    HW273622   0.979   3.285   3.275 -0.5199  0.9490  0.3619
24061SOL     OW73623   6.298   6.252   7.451 -0.2959  0.2971 -0.2449
24061SOL    HW173624   6.382   6.289   7.424  0.1770 -0.6266 -0.0863
24061SOL    HW273625   6.314   6.214   7.537 -1.0304  0.6226  0.0407
24062SOL     OW73626   2.036   0.651   9.187 -0.1144 -0.1951  0.5305
24062SOL    HW173627   1.950   0.670   9.149  0.0559  0.9309  0.6840
24062SOL    HW273628   2.090   0.628   9.111 -1.0930 -3.2315  0.6359
24063SOL     OW73629   2.295   2.191   3.619  0.0242 -0.3930  0.2196
24063SOL    HW173630   2.368   2.245   3.650 -1.9299  1.4574  1.9193
24063SOL    HW273631   2.262   2.148   3.698 -1.4215 -0.2905 -0.3017
24064SOL     OW73632   0.460   6.951   9.577 -0.1497  0.4307 -0.2920
24064SOL    HW173633   0.379   6.908   9.602 -0.6761  1.9138  0.6715
24064SOL    HW273634   0.522   6.929   9.647 -0.1088  0.3686 -0.3483
24065SOL     OW73635   6.960   1.368   2.898  0.0612  0.6165 -0.6875
24065SOL    HW173636   6.903   1.299   2.865  0.2308  0.3313 -0.3841
24065SOL    HW273637   6.939   1.375   2.991  1.2019 -0.1648 -0.3507
24066SOL     OW73638   3.610   2.876  12.270 -0.4138  0.2674  0.1662
24066SOL    HW173639   3.680   2.816  12.295 -0.4952  0.8100  1.7890
24066SOL    HW273640   3.560   2.828  12.203 -0.2887 -1.3391  1.1759
24067SOL     OW73641   7.191   7.522   5.236  0.0292 -0.1466  0.3799
24067SOL    HW173642   7.111   7.566   5.265  0.2622  3.2516 -3.1953
24067SOL    HW273643   7.161   7.455   5.175 -0.1407 -0.5500  0.9022
24068SOL     OW73644   2.695   0.971   9.767 -0.4537  0.4524 -0.3050
24068SOL    HW173645   2.759   0.986   9.837 -0.5539  0.5934 -0.2433
24068SOL    HW273646   2.731   1.020   9.692 -0.2738  0.1841 -0.3940
24069SOL     OW73647   4.740   0.769   7.824 -0.0784 -0.9172  0.1295
24069SOL    HW173648   4.692   0.808   7.897 -0.0679 -1.5703  0.4928
24069SOL    HW273649   4.672   0.741   7.763 -0.0789 -0.1899 -0.2084
24070SOL     OW73650   3.835   5.615   2.876 -0.5727  0.2955  0.4096
24070SOL    HW173651   3.872   5.682   2.933  0.6029 -1.4086  1.7677
24070SOL    HW273652   3.763   5.576   2.926  1.4719 -2.3031  1.6013
24071SOL     OW73653   2.963   7.323   5.028 -0.3656  0.3150  0.5392
24071SOL    HW173654   2.890   7.273   4.993 -0.6233  0.2665  1.1378
24071SOL    HW273655   2.995   7.270   5.101  0.2895  0.3205  0.2619
24072SOL     OW73656   4.853   5.466   1.029 -0.2635  0.3123  0.9732
24072SOL    HW173657   4.925   5.403   1.030 -0.3021  0.2562  0.3854
24072SOL    HW273658   4.786   5.427   1.086 -0.6094 -0.5703 -0.0063
24073SOL     OW73659   6.179   6.466  12.142 -0.1216  0.4185 -0.5989
24073SOL    HW173660   6.149   6.428  12.059 -1.1097  0.3896 -0.2515
24073SOL    HW273661   6.269   6.493  12.125 -0.1836  0.0775 -1.5682
24074SOL     OW73662   5.757   1.690   8.213  0.3548 -0.2433 -0.0674
24074SOL    HW173663   5.718   1.631   8.277  0.1307  0.3121  0.3190
24074SOL    HW273664   5.726   1.777   8.239 -1.2304 -0.1627 -1.9692
24075SOL     OW73665   3.833   0.300   5.890  0.1511  0.2520 -0.0455
24075SOL    HW173666   3.895   0.236   5.926  2.7011  1.7771 -1.4248
24075SOL    HW273667   3.761   0.247   5.857  2.0227 -1.9484 -0.9059
24076SOL     OW73668   6.925   3.406   0.359 -0.0530  0.2326 -0.1147
24076SOL    HW173669   6.866   3.343   0.401  0.0849  0.4748  0.4545
24076SOL    HW273670   6.973   3.355   0.294  0.4273 -0.3665  0.6962
24077SOL     OW73671   4.652   4.067   8.184  0.0266 -0.3810  0.3728
24077SOL    HW173672   4.708   4.047   8.109 -0.7311 -2.5765  0.3307
24077SOL    HW273673   4.713   4.091   8.253  0.8279  0.2064 -0.5148
24078SOL     OW73674   4.423   7.280   4.888 -0.0869 -0.1139 -0.0686
24078SOL    HW173675   4.386   7.192   4.880 -0.2250 -0.1326  0.6870
24078SOL    HW273676   4.517   7.266   4.886 -0.0196 -0.5832  2.4384
24079SOL     OW73677   7.683   0.441   2.851  0.0228 -0.4656 -0.1485
24079SOL    HW173678   7.622   0.368   2.839 -0.5412  0.1347 -1.0732
24079SOL    HW273679   7.705   0.469   2.762  0.1830  0.5300  0.1922
24080SOL     OW73680   1.053   2.888   9.857 -0.0197 -0.4102 -0.3487
24080SOL    HW173681   1.080   2.796   9.856  1.3300 -0.0555  0.3760
24080SOL    HW273682   1.106   2.930   9.789 -0.8319 -0.2109 -0.8707
24081SOL     OW73683   1.115   0.453   2.825  0.0898 -0.3427  0.0061
24081SOL    HW173684   1.093   0.538   2.861 -0.7595 -1.4675  2.3813
24081SOL    HW273685   1.042   0.396   2.849  2.4670 -2.7177  2.4988
24082SOL     OW73686   4.843   4.504   7.374 -0.2919  0.6057 -0.1488
24082SOL    HW173687   4.771   4.446   7.399 -0.1931  0.7793  0.5490
24082SOL    HW273688   4.884   4.529   7.457 -0.1629  1.4573 -0.4623
24083SOL     OW73689   7.832   2.598   0.685 -0.1538  0.6459 -0.2508
24083SOL    HW173690   7.800   2.536   0.619  0.0562 -0.1464  0.3764
24083SOL    HW273691   7.925   2.610   0.663  0.0922 -0.1668  0.3097
24084SOL     OW73692   6.164   2.010   1.584 -0.4626 -0.1850  0.0739
24084SOL    HW173693   6.133   2.079   1.643  2.2696  1.0489  0.1928
24084SOL    HW273694   6.149   1.929   1.632 -2.5703  0.3580  0.4533
24085SOL     OW73695   0.864   3.898   3.851  0.2991 -0.1868 -0.4844
24085SOL    HW173696   0.811   3.820   3.870  0.4431 -0.1741 -0.0096
24085SOL    HW273697   0.803   3.971   3.862  0.2553 -0.2095 -0.5733
24086SOL     OW73698   1.736   3.506   3.796 -0.6464  0.6689 -0.5736
24086SOL    HW173699   1.767   3.416   3.799  1.3934  1.2817 -1.4679
24086SOL    HW273700   1.642   3.500   3.811 -0.3695 -1.4729  0.6895
24087SOL     OW73701   6.118   1.153  10.635 -0.2067 -0.0608  0.5352
24087SOL    HW173702   6.070   1.090  10.689  1.1449 -0.8316  0.9085
24087SOL    HW273703   6.185   1.188  10.694 -0.2217  0.8746  0.0077
24088SOL     OW73704   7.357   7.024   4.037 -0.3509 -0.1298 -0.0172
24088SOL    HW173705   7.279   7.023   3.982  0.6333  2.2527 -1.6312
24088SOL    HW273706   7.426   7.060   3.981  1.8319 -1.7151  1.4780
24089SOL     OW73707   3.186   1.112   3.594 -0.2189 -0.4235  0.2738
24089SOL    HW173708   3.257   1.115   3.659 -0.0317 -0.5401  0.0741
24089SOL    HW273709   3.179   1.201   3.562 -1.3361 -0.0186  1.5555
24090SOL     OW73710   4.657   2.038   0.734  0.2162 -0.1074 -0.0951
24090SOL    HW173711   4.591   2.107   0.745  2.3635  2.3423 -1.5195
24090SOL    HW273712   4.648   2.012   0.642  1.1728  0.2555 -0.3037
24091SOL     OW73713   4.609   2.419   9.993 -0.0051  0.7623  0.1762
24091SOL    HW173714   4.632   2.333  10.029 -1.4075  0.3490  0.1385
24091SOL    HW273715   4.559   2.399   9.914 -0.3382  1.6145  0.1640
24092SOL     OW73716   7.462   2.780  11.603  0.1209 -0.2175 -0.5677
24092SOL    HW173717   7.398   2.774  11.674  1.1265 -0.6686  0.3545
24092SOL    HW273718   7.541   2.813  11.646  0.6749 -0.2216 -1.5509
24093SOL     OW73719   2.742   3.546  12.247  0.1415 -0.3467  0.0786
24093SOL    HW173720   2.672   3.611  12.258  0.8140  0.2755  0.8155
24093SOL    HW273721   2.820   3.599  12.229  0.9334 -0.8547  1.8030
24094SOL     OW73722   3.031   1.836   0.785  0.1607 -0.7350  0.2464
24094SOL    HW173723   3.007   1.924   0.813  1.4680  0.2650 -1.5617
24094SOL    HW273724   3.072   1.796   0.862  2.1503  1.2844  0.3340
24095SOL     OW73725   5.196   2.154  11.173 -0.0674 -0.7065 -0.1884
24095SOL    HW173726   5.256   2.228  11.176  2.0345 -2.2928 -0.2242
24095SOL    HW273727   5.171   2.147  11.081 -0.0832 -0.1826 -0.2254
24096SOL     OW73728   7.687   4.608  10.177 -0.0402 -0.2458 -0.3419
24096SOL    HW173729   7.719   4.519  10.187  1.6631  0.3415 -0.2910
24096SOL    HW273730   7.646   4.609  10.090  0.6365 -0.8829 -0.6805
24097SOL     OW73731   6.471   5.000   4.982  0.5631 -0.3889 -0.4733
24097SOL    HW173732   6.385   4.964   4.957 -1.2349  3.1271  0.0462
24097SOL    HW273733   6.469   5.002   5.078  1.5654 -0.9078 -0.4278
24098SOL     OW73734   6.914   2.947   9.682 -0.1734  0.1404 -0.1517
24098SOL    HW173735   6.979   2.886   9.716  0.2602  0.6603 -0.0528
24098SOL    HW273736   6.861   2.971   9.758  1.1535  1.7508  0.2991
24099SOL     OW73737   4.189   2.515   1.638 -0.3217  0.6472  0.5129
24099SOL    HW173738   4.186   2.540   1.546  2.2027  1.2241  0.5066
24099SOL    HW273739   4.123   2.569   1.680 -0.0748  1.8994 -0.6586
24100SOL     OW73740   7.836   4.403   6.409 -0.3569 -0.0841 -0.2737
24100SOL    HW173741   7.781   4.455   6.468  0.0697  0.1903 -0.1048
24100SOL    HW273742   7.898   4.467   6.373 -0.2669 -0.3532 -0.5984
24101SOL     OW73743   7.782   1.824   3.310 -0.0235  0.1596 -0.1742
24101SOL    HW173744   7.853   1.875   3.349 -2.8640  1.5927  3.8047
24101SOL    HW273745   7.735   1.887   3.255 -0.4213  0.3386  0.3629
24102SOL     OW73746   7.325   0.983   2.323  0.1864  0.4170  0.0569
24102SOL    HW173747   7.316   0.908   2.382  0.4357  0.0486 -0.3690
24102SOL    HW273748   7.235   1.014   2.310  0.0860  0.2121  0.2555
24103SOL     OW73749   4.680   0.295   4.696  0.3084 -0.9001 -0.0851
24103SOL    HW173750   4.704   0.387   4.686  2.2625 -1.4378 -0.8709
24103SOL    HW273751   4.602   0.284   4.643 -0.1328  0.3666  0.2746
24104SOL     OW73752   2.122   6.402  11.755 -0.5539  0.1775 -0.0349
24104SOL    HW173753   2.138   6.495  11.738  0.1367 -0.0391 -0.5876
24104SOL    HW273754   2.047   6.381  11.699 -0.7526  0.4173  0.1394
24105SOL     OW73755   2.061   4.836   3.022  1.2502  0.4186  0.1304
24105SOL    HW173756   2.115   4.843   3.100  1.4652 -0.5363  0.0824
24105SOL    HW273757   1.995   4.904   3.032  0.8868 -0.0937  1.4542
24106SOL     OW73758   3.284   1.283   4.115  0.3869 -0.7613 -0.6471
24106SOL    HW173759   3.379   1.274   4.101  0.3584 -3.8371  0.2146
24106SOL    HW273760   3.268   1.236   4.197 -1.6853  1.2866  0.2103
24107SOL     OW73761   3.236   7.818  10.680  0.0266  0.3938 -0.4851
24107SOL    HW173762   3.280   7.863  10.751  1.2800 -0.7081 -0.5271
24107SOL    HW273763   3.273   7.730  10.680 -0.7324  0.0353 -1.8124
24108SOL     OW73764   5.751   4.154   0.030  0.0138  0.3800 -0.0357
24108SOL    HW173765   5.802   4.223   0.073  0.7113  0.8190 -1.4944
24108SOL    HW273766   5.793   4.073   0.057  0.0387  0.6093  0.6204
24109SOL     OW73767   0.024   6.693   9.456 -0.3342  0.2466 -0.3825
24109SOL    HW173768  -0.045   6.698   9.523 -1.5537 -1.8738 -1.3950
24109SOL    HW273769  -0.006   6.752   9.387 -0.2642  0.5962 -0.1234
24110SOL     OW73770   6.327   2.432   2.039  0.3945  0.1636  0.2638
24110SOL    HW173771   6.276   2.354   2.060  0.0542  0.2655 -0.1772
24110SOL    HW273772   6.265   2.491   1.995  0.6591  0.6622  0.5498
24111SOL     OW73773   1.906   1.784  12.294  0.2353 -0.1470  0.5201
24111SOL    HW173774   1.889   1.848  12.363  0.7502  0.8281 -0.2230
24111SOL    HW273775   1.998   1.796  12.272 -0.1775  0.4089 -1.1288
24112SOL     OW73776   2.773   2.146   8.949  0.2559  0.8982  0.2509
24112SOL    HW173777   2.829   2.090   8.894  0.1895  0.4592  0.6248
24112SOL    HW273778   2.824   2.225   8.964  0.6999  0.5756  0.4362
24113SOL     OW73779   3.038   3.309   2.376 -0.3381 -0.1640 -0.5373
24113SOL    HW173780   2.969   3.356   2.422 -1.2631 -2.1663  0.2349
24113SOL    HW273781   3.027   3.218   2.402  3.4367 -0.4421  0.6817
24114SOL     OW73782   3.651   3.553   9.222  0.4414 -0.5618 -0.4478
24114SOL    HW173783   3.565   3.553   9.262  1.4615 -0.3348  1.8832
24114SOL    HW273784   3.645   3.619   9.152 -0.7308  0.8868  0.9593
24115SOL     OW73785   7.680   4.837   2.527 -0.4205  0.6254  0.3683
24115SOL    HW173786   7.758   4.791   2.498  1.1520  2.2873  1.7145
24115SOL    HW273787   7.640   4.871   2.447  0.0575 -0.5118 -0.3681
24116SOL     OW73788   2.305   7.072   1.345 -0.3309 -0.7917  0.0183
24116SOL    HW173789   2.382   7.025   1.313 -1.2378 -2.4504  0.1108
24116SOL    HW273790   2.277   7.125   1.271  0.2642 -1.0223 -0.3824
24117SOL     OW73791   3.162   5.393   9.842  0.4649 -0.0967  0.2594
24117SOL    HW173792   3.144   5.395   9.748  2.9782 -0.8089 -0.3135
24117SOL    HW273793   3.251   5.427   9.850 -0.6818  2.7761  2.7541
24118SOL     OW73794   3.912   7.655   5.087  0.0485 -0.1739  0.2507
24118SOL    HW173795   3.890   7.716   5.017  1.3399 -2.1545 -2.0284
24118SOL    HW273796   3.874   7.572   5.059 -1.2449 -0.6249  3.0229
24119SOL     OW73797   4.093   6.058  11.426 -0.5869 -0.8553  0.1214
24119SOL    HW173798   4.027   6.121  11.457 -0.7014 -0.1133 -1.5062
24119SOL    HW273799   4.042   5.992  11.379 -0.1904  0.1409 -1.8376
24120SOL     OW73800   1.323   0.407   2.162  0.0155  0.1282 -0.1171
24120SOL    HW173801   1.362   0.334   2.114 -0.3961 -1.7752  2.2185
24120SOL    HW273802   1.242   0.425   2.115  0.0952 -0.9768 -0.7270
24121SOL     OW73803   3.129   6.229   8.519  0.0111 -0.0643  0.0229
24121SOL    HW173804   3.097   6.288   8.450  1.0456  0.9139  0.3478
24121SOL    HW273805   3.091   6.144   8.497 -1.4970  0.7095 -0.4736
24122SOL     OW73806   5.928   6.656   1.698  0.3773 -0.4215 -0.5278
24122SOL    HW173807   6.008   6.708   1.694  0.9285 -1.2694 -0.8673
24122SOL    HW273808   5.956   6.570   1.729 -0.7005 -0.1930  1.2196
24123SOL     OW73809   1.154   6.198   3.951  0.2479 -0.5288  0.3188
24123SOL    HW173810   1.199   6.267   3.901 -0.2069 -0.2325  0.3135
24123SOL    HW273811   1.212   6.182   4.026 -0.3644  0.9596  1.1467
24124SOL     OW73812   1.759   5.593   0.790  0.0274  0.1719  0.4956
24124SOL    HW173813   1.678   5.565   0.832  0.2113 -0.9249  0.1477
24124SOL    HW273814   1.752   5.561   0.700  0.7458  0.2829  0.3918
24125SOL     OW73815   4.129   2.794   5.039  0.3514 -0.0577  0.4329
24125SOL    HW173816   4.213   2.752   5.018 -1.5533 -3.3601 -1.4813
24125SOL    HW273817   4.088   2.735   5.103 -0.8290  1.0611  0.7502
24126SOL     OW73818   3.946   4.255  11.393 -0.5185 -0.3398 -0.2452
24126SOL    HW173819   4.014   4.301  11.344  0.3866 -0.2610  1.0489
24126SOL    HW273820   3.993   4.192  11.447 -1.4803 -0.4021  0.5558
24127SOL     OW73821   1.897   0.365   9.947  0.3362  0.5343  0.1077
24127SOL    HW173822   1.814   0.412   9.948  0.5849  1.0936  2.6736
24127SOL    HW273823   1.942   0.394  10.026  2.4465 -0.7088 -0.5408
24128SOL     OW73824   0.505   0.370   5.127  0.1920 -0.0714  0.2659
24128SOL    HW173825   0.483   0.427   5.202 -0.4144  1.1062 -0.7691
24128SOL    HW273826   0.572   0.311   5.161  0.1811  0.6559  1.6460
24129SOL     OW73827   2.937   5.561   4.245  0.2493 -0.7582 -0.5533
24129SOL    HW173828   2.948   5.566   4.150 -0.5414 -0.4528 -0.6337
24129SOL    HW273829   2.903   5.646   4.270 -0.3038 -1.1090 -0.1012
24130SOL     OW73830   1.638   1.001   1.218  0.2379  0.3280 -0.0156
24130SOL    HW173831   1.696   0.958   1.155 -0.7202  0.2213 -0.8594
24130SOL    HW273832   1.627   0.937   1.288  0.5251  0.0440 -0.2252
24131SOL     OW73833   3.838   7.597   9.015  0.7414 -0.2075 -0.7230
24131SOL    HW173834   3.788   7.523   9.049  0.7830  0.7433  1.6133
24131SOL    HW273835   3.815   7.601   8.923 -1.0861 -1.6801 -0.3916
24132SOL     OW73836   2.956   3.628   7.901  0.7187 -0.0783  0.2967
24132SOL    HW173837   2.956   3.664   7.990  0.6537  1.9597 -0.4660
24132SOL    HW273838   2.870   3.587   7.892  0.5430  0.1169  1.0173
24133SOL     OW73839   6.726   3.561  10.458  0.3069  0.3554 -0.1781
24133SOL    HW173840   6.673   3.483  10.476  0.2977  0.0641 -1.3575
24133SOL    HW273841   6.708   3.581  10.366  0.5655  1.5638  0.0213
24134SOL     OW73842   5.146   4.203   9.688 -0.1651 -0.2032  0.4833
24134SOL    HW173843   5.127   4.138   9.619  0.4183  0.5205 -0.3842
24134SOL    HW273844   5.063   4.212   9.735 -0.3557 -1.3049  0.3922
24135SOL     OW73845   1.778   3.930   4.732  0.7210  0.1179  0.6607
24135SOL    HW173846   1.811   4.019   4.739  1.3206 -0.0083 -0.3448
24135SOL    HW273847   1.810   3.899   4.647 -1.0840 -0.3854  0.1181
24136SOL     OW73848   3.721   4.615   9.969 -0.1244 -0.1450 -0.1081
24136SOL    HW173849   3.647   4.610   9.910 -1.4715 -0.9777  1.5716
24136SOL    HW273850   3.768   4.532   9.957  0.9690  0.6219 -1.6046
24137SOL     OW73851   5.616   2.176   8.319 -0.5425  0.3163 -0.3771
24137SOL    HW173852   5.667   2.209   8.245  2.0023 -0.7464  0.7520
24137SOL    HW273853   5.623   2.246   8.385  0.4162 -0.2563  0.1540
24138SOL     OW73854   2.194   6.707   3.216 -0.4213  0.3626  0.4486
24138SOL    HW173855   2.202   6.752   3.132 -0.4413  0.5937  0.5706
24138SOL    HW273856   2.184   6.777   3.281  0.0528  0.2067  0.6964
24139SOL     OW73857   0.263   4.804   1.420  0.1708 -0.4017  0.4187
24139SOL    HW173858   0.308   4.783   1.502  1.3094  1.2300  0.2496
24139SOL    HW273859   0.309   4.752   1.354  0.2547 -0.5491  0.5918
24140SOL     OW73860   0.381   7.792   4.933  0.0912 -0.7176 -0.1274
24140SOL    HW173861   0.366   7.782   5.026 -1.3353  1.9756  0.0342
24140SOL    HW273862   0.301   7.761   4.891  0.2467 -0.7718 -0.3944
24141SOL     OW73863   0.201   6.576   1.151  0.0263 -0.5684  0.3565
24141SOL    HW173864   0.162   6.655   1.112 -0.5261 -0.6069  0.8094
24141SOL    HW273865   0.179   6.583   1.244  2.6844  0.3212  0.9851
24142SOL     OW73866   0.882   3.914   9.449  0.0782  0.1858  0.3694
24142SOL    HW173867   0.894   3.947   9.360  2.5026  3.3132  1.6850
24142SOL    HW273868   0.807   3.964   9.483 -2.5039 -2.7512 -0.4839
24143SOL     OW73869   4.359   6.564   6.876 -0.0520 -0.0681 -0.4819
24143SOL    HW173870   4.267   6.545   6.892 -0.0847 -1.0103 -1.5975
24143SOL    HW273871   4.360   6.645   6.826 -0.1375  0.9809  1.1397
24144SOL     OW73872   1.288   0.902   3.502 -0.1223  0.3181  0.0184
24144SOL    HW173873   1.200   0.884   3.535  0.6304 -2.8124  0.6849
24144SOL    HW273874   1.343   0.902   3.580  0.4873  2.9680 -0.2987
24145SOL     OW73875   0.118   2.809   1.361  0.3603  0.1968  0.1465
24145SOL    HW173876   0.209   2.797   1.335  0.5377  0.3876  0.6669
24145SOL    HW273877   0.068   2.800   1.280  1.0021  1.9482 -0.5058
24146SOL     OW73878   1.261   2.292   7.800 -0.5517  0.1242  0.1657
24146SOL    HW173879   1.309   2.374   7.792 -0.7869  0.3773  1.3011
24146SOL    HW273880   1.204   2.291   7.722 -0.8056  1.2084  0.3197
24147SOL     OW73881   0.597   1.052  11.271 -0.0632 -0.0086  0.2307
24147SOL    HW173882   0.633   0.971  11.308 -0.5506 -0.6835 -0.7119
24147SOL    HW273883   0.503   1.046  11.286 -0.1032  0.3721  0.1407
24148SOL     OW73884   7.693   3.407   3.687 -0.1746  0.1855 -0.5432
24148SOL    HW173885   7.682   3.312   3.690 -0.9896  0.2308  3.2725
24148SOL    HW273886   7.767   3.424   3.746 -0.0741  1.9305 -1.1227
24149SOL     OW73887   4.981   4.542  11.256  0.1649  0.6356 -0.1043
24149SOL    HW173888   4.964   4.596  11.179 -1.1018  0.5622  0.0893
24149SOL    HW273889   5.056   4.488  11.233 -0.9365 -0.2770 -1.7765
24150SOL     OW73890   7.723   5.291   2.808 -0.0182 -0.0241 -0.3455
24150SOL    HW173891   7.679   5.209   2.833  2.0820 -1.8336 -2.1264
24150SOL    HW273892   7.658   5.339   2.757 -1.0140 -1.0210 -0.0596
24151SOL     OW73893   0.749   6.581  10.270 -0.7221 -0.7299 -0.0324
24151SOL    HW173894   0.809   6.515  10.305  1.3164 -0.7360 -3.1220
24151SOL    HW273895   0.796   6.664  10.282 -0.7910 -0.5362 -1.0285
24152SOL     OW73896   2.473   0.648   2.056  0.5009 -0.2692 -0.0149
24152SOL    HW173897   2.538   0.580   2.047  0.3398 -0.2303 -1.6712
24152SOL    HW273898   2.522   0.730   2.047  0.4158 -0.2109  0.0500
24153SOL     OW73899   1.346   6.186   2.810  0.1077 -0.7533 -0.2573
24153SOL    HW173900   1.441   6.178   2.807  0.2147  0.2218  0.2255
24153SOL    HW273901   1.319   6.130   2.883  0.3514 -0.7121 -0.1352
24154SOL     OW73902   7.744   4.496   8.967  0.4939 -0.6590  0.4706
24154SOL    HW173903   7.764   4.487   9.060  0.2875 -2.4360  0.3661
24154SOL    HW273904   7.672   4.434   8.951  0.7947 -0.6779 -0.9493
24155SOL     OW73905   7.856   5.375   8.158 -0.1483  0.1632 -0.6037
24155SOL    HW173906   7.850   5.463   8.196  2.2126  0.0837  0.0780
24155SOL    HW273907   7.947   5.366   8.131 -0.9382 -1.0990 -3.2091
24156SOL     OW73908   1.543   2.748   3.980  0.4481  0.4526 -0.3919
24156SOL    HW173909   1.575   2.826   4.026  0.8773  0.7087 -1.1145
24156SOL    HW273910   1.489   2.703   4.045 -0.2808  1.6490 -0.1435
24157SOL     OW73911   7.201   5.508   8.569 -0.8591 -0.6886  0.2805
24157SOL    HW173912   7.242   5.592   8.587  1.4043 -1.9792  1.5969
24157SOL    HW273913   7.258   5.466   8.505 -1.2833 -1.6846  0.5322
24158SOL     OW73914   2.559   2.995   2.484  0.5724  0.0136 -0.2608
24158SOL    HW173915   2.468   3.000   2.455 -0.1266  1.1861  1.9365
24158SOL    HW273916   2.574   2.902   2.501 -0.7494 -0.0224  0.8653
24159SOL     OW73917   4.884   4.506   0.215  0.3394 -0.0390 -0.5255
24159SOL    HW173918   4.792   4.490   0.236 -0.3584  2.7808 -1.0486
24159SOL    HW273919   4.929   4.429   0.249 -1.9365 -0.5404  1.7466
24160SOL     OW73920   3.124   7.189   9.533  0.4177 -0.1182 -0.1870
24160SOL    HW173921   3.095   7.200   9.442  2.0352  0.7074 -0.6463
24160SOL    HW273922   3.141   7.278   9.563  0.7003 -0.4459  0.6450
24161SOL     OW73923   5.030   0.883   0.696  0.0816  0.3241 -0.2925
24161SOL    HW173924   5.026   0.878   0.791  2.5985 -2.6275 -0.1858
24161SOL    HW273925   4.999   0.798   0.666  3.1460 -0.3821 -1.8115
24162SOL     OW73926   1.914   5.838   7.152 -0.1430 -0.6071  0.3345
24162SOL    HW173927   1.937   5.745   7.157 -1.9694 -1.2808 -1.8209
24162SOL    HW273928   1.921   5.860   7.059  1.0103  1.6767  0.8882
24163SOL     OW73929   3.546   2.091   1.364 -0.0069  0.1332  0.2113
24163SOL    HW173930   3.635   2.057   1.358 -0.0272  0.2762 -1.2497
24163SOL    HW273931   3.511   2.085   1.275 -2.0422 -1.4614  1.0240
24164SOL     OW73932   1.596   1.769   0.417  0.0010  0.3274 -0.2562
24164SOL    HW173933   1.621   1.691   0.368  0.8005  0.4163 -0.0016
24164SOL    HW273934   1.525   1.741   0.474  0.4953 -0.2901  0.0590
24165SOL     OW73935   5.112   4.535   3.378 -0.2222  0.3489 -0.8374
24165SOL    HW173936   5.207   4.547   3.371 -0.1740 -0.5063 -1.8808
24165SOL    HW273937   5.100   4.441   3.385 -1.0097  0.4352 -0.9035
24166SOL     OW73938   2.771   0.167   2.507 -0.4169 -0.8839 -0.1155
24166SOL    HW173939   2.682   0.167   2.542 -0.5593  4.0492  0.2212
24166SOL    HW273940   2.759   0.172   2.412 -0.5225 -0.4014 -0.0795
24167SOL     OW73941   1.741   5.368   6.688 -0.2976 -0.2012  0.2557
24167SOL    HW173942   1.683   5.431   6.731 -0.7160  0.5917 -1.4255
24167SOL    HW273943   1.740   5.392   6.596 -0.2373 -2.4901 -0.4152
24168SOL     OW73944   5.121   2.039   3.028  0.0202 -0.0380 -0.0563
24168SOL    HW173945   5.033   2.044   2.990 -1.3228 -2.1259  2.4056
24168SOL    HW273946   5.129   2.119   3.080 -0.0024  0.5961 -0.9942
24169SOL     OW73947   0.197   2.920   1.834  0.2146  0.1807  0.0809
24169SOL    HW173948   0.127   2.971   1.875  0.7561  1.6025 -0.7005
24169SOL    HW273949   0.151   2.861   1.774 -0.4039 -0.0516  0.7651
24170SOL     OW73950   3.952   1.108   5.451  0.2464 -0.1338 -0.0640
24170SOL    HW173951   3.865   1.147   5.460  0.7579  1.4127 -1.3055
24170SOL    HW273952   3.941   1.043   5.382 -0.0241 -0.2578  0.0933
24171SOL     OW73953   3.176   2.051  11.643  0.5075  0.0943 -0.0762
24171SOL    HW173954   3.246   2.116  11.653  1.7105 -1.3315  1.7055
24171SOL    HW273955   3.221   1.967  11.652 -1.3057 -0.9143  0.0402
24172SOL     OW73956   5.540   6.017   7.474 -0.2522 -0.2499  0.4177
24172SOL    HW173957   5.607   6.025   7.406  0.1831  0.1363  0.8833
24172SOL    HW273958   5.470   5.967   7.432 -1.6295  3.0373 -1.5571
24173SOL     OW73959   7.586   4.895   2.289 -0.0066 -0.2650  0.0127
24173SOL    HW173960   7.568   4.911   2.197 -0.6674 -1.5949 -0.1122
24173SOL    HW273961   7.600   4.982   2.327 -1.0467  0.3917 -1.0586
24174SOL     OW73962   2.530   1.617   9.353  0.0106 -0.3299 -0.8416
24174SOL    HW173963   2.579   1.699   9.358 -1.1116  0.3075  2.7175
24174SOL    HW273964   2.594   1.549   9.374  0.7346 -0.3270 -2.8562
24175SOL     OW73965   4.156   0.551   8.803 -0.6478  0.0624  1.0008
24175SOL    HW173966   4.121   0.604   8.732  0.6006 -1.2086 -0.6342
24175SOL    HW273967   4.251   0.563   8.798 -0.5457  0.2612  2.7371
24176SOL     OW73968   5.642   6.928  11.929  0.1432  0.0456 -0.3951
24176SOL    HW173969   5.724   6.935  11.977  2.2188  0.6111 -3.6864
24176SOL    HW273970   5.591   7.005  11.955 -1.1443 -2.0270  4.3464
24177SOL     OW73971   6.397   2.182  12.357  0.7127  0.0930 -0.1965
24177SOL    HW173972   6.415   2.166  12.264  2.7502  0.9810 -0.0121
24177SOL    HW273973   6.448   2.260  12.379 -0.6150  0.5744  1.4285
24178SOL     OW73974   3.610   3.696   1.785 -0.1344  0.2688 -0.3561
24178SOL    HW173975   3.612   3.787   1.816 -1.2678  0.0215  0.5245
24178SOL    HW273976   3.532   3.659   1.826 -1.0700 -0.4308 -2.6114
24179SOL     OW73977   5.006   5.008   3.035  0.4697  0.1467 -0.5345
24179SOL    HW173978   4.973   5.042   3.119 -0.2773 -0.5550 -0.5310
24179SOL    HW273979   5.099   5.032   3.035  0.8165 -1.0046  1.0996
24180SOL     OW73980   4.074   4.850   1.813 -0.3147 -0.4371  0.4699
24180SOL    HW173981   4.073   4.767   1.764 -1.2051  0.2508 -0.7355
24180SOL    HW273982   4.062   4.917   1.746  0.5012  0.6957  1.4177
24181SOL     OW73983   5.547   2.428   3.304  0.5009  0.1293 -0.6821
24181SOL    HW173984   5.499   2.443   3.386 -0.0648  0.7619 -1.1224
24181SOL    HW273985   5.639   2.436   3.330  0.3704 -0.7805  0.1039
24182SOL     OW73986   7.159   0.550  10.485  0.5727  0.2280  0.9542
24182SOL    HW173987   7.192   0.472  10.440  1.2010  0.2143  1.4285
24182SOL    HW273988   7.168   0.529  10.579  1.1851  1.0399  1.0900
24183SOL     OW73989   0.566   2.243   9.186 -0.4460 -0.3317  0.0997
24183SOL    HW173990   0.527   2.329   9.204 -0.1221 -0.4360  1.3858
24183SOL    HW273991   0.636   2.262   9.124  1.4591  0.8180  2.4353
24184SOL     OW73992   6.848   2.899   8.036 -0.2302  0.2881 -0.5526
24184SOL    HW173993   6.801   2.821   8.065 -0.4504  0.8899  0.7862
24184SOL    HW273994   6.794   2.972   8.066  1.0951  0.9908  0.2041
24185SOL     OW73995   5.538   6.296   6.443 -0.2832 -0.4376 -0.1023
24185SOL    HW173996   5.461   6.329   6.490  0.0519  1.5997 -0.8896
24185SOL    HW273997   5.528   6.331   6.354  2.0081  0.7006  0.0313
24186SOL     OW73998   1.564   7.272   7.201  0.2374  0.5474  0.2609
24186SOL    HW173999   1.583   7.260   7.108 -0.1450  0.0434  0.2478
24186SOL    HW274000   1.478   7.234   7.214 -0.2650  1.7424  0.5789
24187SOL     OW74001   1.053   7.775   0.463  0.1766  0.2633  0.5234
24187SOL    HW174002   1.121   7.795   0.400 -1.1425  1.0189 -0.7158
24187SOL    HW274003   1.098   7.728   0.533  2.0014  0.9928 -0.1055
24188SOL     OW74004   7.297   5.431  11.324  0.1911  0.1650  0.3360
24188SOL    HW174005   7.393   5.432  11.322  0.1791  1.0461 -0.6937
24188SOL    HW274006   7.271   5.487  11.250 -1.1154  0.2362  0.8282
24189SOL     OW74007   3.800   6.214   5.565  0.3889 -0.3000 -0.4290
24189SOL    HW174008   3.845   6.267   5.631 -0.3779 -1.7870  1.4027
24189SOL    HW274009   3.823   6.124   5.588  0.4912 -0.8568 -2.5386
24190SOL     OW74010   2.142   2.810  10.188  0.1746  0.1433 -0.3760
24190SOL    HW174011   2.078   2.801  10.259 -0.2429 -1.3912 -0.9072
24190SOL    HW274012   2.225   2.829  10.232  0.4535 -3.2121  0.7761
24191SOL     OW74013   3.440   6.516  10.876 -0.2462 -0.2722  0.2573
24191SOL    HW174014   3.362   6.509  10.932  0.4806  0.3199  1.3880
24191SOL    HW274015   3.509   6.474  10.927  0.3986  0.1271 -0.2754
24192SOL     OW74016   6.804   4.407   4.483  0.4545  0.6099  0.3638
24192SOL    HW174017   6.809   4.463   4.561  4.8548  3.5147 -1.6217
24192SOL    HW274018   6.882   4.352   4.488 -0.8305 -1.3996 -0.5764
24193SOL     OW74019   7.411   5.471   2.006 -0.1399 -0.8832  0.4719
24193SOL    HW174020   7.373   5.482   2.093  0.1530 -2.0107  0.7570
24193SOL    HW274021   7.504   5.456   2.023  0.5824  2.1396 -0.2200
24194SOL     OW74022   1.292   5.654   2.406  1.1616  0.4172 -0.0974
24194SOL    HW174023   1.375   5.616   2.377  1.3679 -0.8086  1.9194
24194SOL    HW274024   1.310   5.687   2.494 -0.6296 -0.5545  0.6965
24195SOL     OW74025   1.964   1.214  11.566 -0.1681 -0.2045 -0.2499
24195SOL    HW174026   1.934   1.126  11.542 -1.0040  0.3588 -1.3777
24195SOL    HW274027   1.903   1.273  11.521 -0.9902  0.9657  2.2354
24196SOL     OW74028   0.605   5.101   9.451  0.0478 -0.5227 -0.2548
24196SOL    HW174029   0.689   5.062   9.475  0.4004  0.5125  0.2583
24196SOL    HW274030   0.618   5.136   9.364  0.6159  0.9077  0.3853
24197SOL     OW74031   7.853   5.070   2.129  0.9979 -0.0218 -0.1534
24197SOL    HW174032   7.905   5.126   2.071  0.2640  1.1531  0.2803
24197SOL    HW274033   7.780   5.040   2.075  0.5892  0.6686 -0.0142
24198SOL     OW74034   0.036   6.914   4.475 -0.2647  0.3141  0.3842
24198SOL    HW174035  -0.004   6.924   4.389  2.6197  0.7802 -1.0419
24198SOL    HW274036  -0.035   6.932   4.537 -2.2303  0.8926 -1.8765
24199SOL     OW74037   0.979   1.441   8.665 -0.2122  0.2051  0.0973
24199SOL    HW174038   1.038   1.512   8.640  0.1107  0.2155  0.8503
24199SOL    HW274039   0.894   1.466   8.629  0.3501 -0.1200 -1.5652
24200SOL     OW74040   2.236   5.305   5.895  0.3318  0.1442  0.6262
24200SOL    HW174041   2.279   5.361   5.830 -0.2731  0.6819  0.6716
24200SOL    HW274042   2.222   5.222   5.850  0.6548  0.2482  0.3362
24201SOL     OW74043   1.268   2.083   6.023 -0.3419 -0.2333  0.1732
24201SOL    HW174044   1.250   1.991   6.001 -0.1262 -0.1565 -0.3451
24201SOL    HW274045   1.346   2.079   6.078 -1.1531 -0.4635  1.3289
24202SOL     OW74046   3.640   3.644   8.768 -0.1160 -0.1871 -0.8698
24202SOL    HW174047   3.583   3.701   8.819 -0.4514  0.4883 -1.9735
24202SOL    HW274048   3.621   3.556   8.800 -0.4053  0.2100  0.0712
24203SOL     OW74049   1.706   2.557   0.226  0.2322 -0.1774 -0.3561
24203SOL    HW174050   1.780   2.530   0.172  0.3327  1.2993 -0.9849
24203SOL    HW274051   1.634   2.569   0.164 -0.2141 -0.4608  0.1032
24204SOL     OW74052   1.826   2.081   9.930  0.3181  0.1512  0.8067
24204SOL    HW174053   1.881   2.019   9.883 -0.0034  0.7806 -0.4506
24204SOL    HW274054   1.886   2.131   9.985  0.6584 -0.8089  1.3292
24205SOL     OW74055   5.464   4.665   6.816  0.8107  0.1758  0.7833
24205SOL    HW174056   5.505   4.721   6.750  1.8145  0.2890  1.4809
24205SOL    HW274057   5.517   4.585   6.816  1.0141  0.3026  1.6675
24206SOL     OW74058   0.288   4.460   7.061 -0.6568  0.7462  0.0983
24206SOL    HW174059   0.269   4.508   7.141  0.6238  0.7552  0.4219
24206SOL    HW274060   0.285   4.526   6.992  3.4930  1.9884  0.8098
24207SOL     OW74061   5.771   7.296   0.108  0.0367  0.2690  0.1019
24207SOL    HW174062   5.680   7.321   0.092 -0.9206 -2.9234 -0.1585
24207SOL    HW274063   5.822   7.365   0.066 -2.2345  1.9523 -0.1093
24208SOL     OW74064   6.072   5.084   4.722 -0.4733 -0.5931 -0.2337
24208SOL    HW174065   6.107   5.148   4.661 -2.1959 -1.1254 -1.8560
24208SOL    HW274066   6.086   5.123   4.808  1.9135  0.2171 -0.9092
24209SOL     OW74067   1.755   3.427   1.536 -0.2278  0.1723 -0.3025
24209SOL    HW174068   1.809   3.447   1.459  0.8582 -0.7066  0.2020
24209SOL    HW274069   1.817   3.398   1.602 -0.9175  2.5715  1.5456
24210SOL     OW74070   0.131   5.392   9.553  0.5722  0.3806 -0.1253
24210SOL    HW174071   0.135   5.357   9.642 -1.6485  2.7173  1.0596
24210SOL    HW274072   0.192   5.466   9.553 -0.2362  1.0703 -0.1368
24211SOL     OW74073   4.009   3.731  11.562 -0.3809 -0.3983 -0.6344
24211SOL    HW174074   3.969   3.726  11.649 -1.3198 -2.0231 -1.1286
24211SOL    HW274075   3.956   3.795  11.515 -2.3376 -2.3209 -1.1961
24212SOL     OW74076   6.272   7.442  11.700  0.0767 -0.4609 -0.6540
24212SOL    HW174077   6.192   7.477  11.739 -0.2973 -1.5253 -0.4465
24212SOL    HW274078   6.242   7.395  11.623  0.3987 -1.6466 -0.0710
24213SOL     OW74079   7.142   2.389  12.100  0.7366  0.3564  0.3741
24213SOL    HW174080   7.119   2.448  12.172  0.6992 -0.9234  1.4607
24213SOL    HW274081   7.168   2.447  12.029  0.2277  1.6867  1.2298
24214SOL     OW74082   2.620   2.422   1.547 -0.1141  0.0721  0.0373
24214SOL    HW174083   2.700   2.430   1.494  0.9113 -0.6764  1.3873
24214SOL    HW274084   2.632   2.340   1.595 -1.4841  0.1957  0.6406
24215SOL     OW74085   7.874   3.625   9.837 -0.0921 -0.1383 -0.6425
24215SOL    HW174086   7.835   3.539   9.854 -1.7500  0.8745  1.0839
24215SOL    HW274087   7.968   3.610   9.844 -0.3635 -1.7296  0.1418
24216SOL     OW74088   7.695   1.468   1.629  0.1162  0.5464  0.0461
24216SOL    HW174089   7.787   1.452   1.648 -0.1126 -1.1268 -0.0947
24216SOL    HW274090   7.678   1.418   1.549 -0.8350  1.0814 -0.0993
24217SOL     OW74091   1.934   6.628   6.434 -0.3097 -0.2570  0.1735
24217SOL    HW174092   1.956   6.540   6.405 -2.3682 -0.8324  0.2290
24217SOL    HW274093   1.857   6.652   6.384 -1.1458  0.5942  1.7731
24218SOL     OW74094   1.093   2.318   1.350 -0.1013  0.1022  0.4885
24218SOL    HW174095   1.169   2.325   1.408  0.3084 -2.1918  0.3261
24218SOL    HW274096   1.131   2.315   1.262 -0.4737  0.3448  0.3204
24219SOL     OW74097   3.182   4.683  11.670 -0.1847 -0.4151 -0.8105
24219SOL    HW174098   3.241   4.705  11.742 -2.6533  2.2070  0.6527
24219SOL    HW274099   3.167   4.589  11.679  1.5426 -0.6098  0.5100
24220SOL     OW74100   0.814   4.523   0.840 -0.1103  0.0619 -0.0257
24220SOL    HW174101   0.851   4.468   0.909  1.5466  0.1330 -0.8099
24220SOL    HW274102   0.738   4.475   0.809  0.8784 -1.4620 -0.1961
24221SOL     OW74103   4.464   7.737   9.497 -0.0891 -0.7260  0.1297
24221SOL    HW174104   4.467   7.832   9.500  0.5111 -0.7417  0.0522
24221SOL    HW274105   4.513   7.708   9.574  0.5828 -0.9743 -0.3830
24222SOL     OW74106   0.431   1.379   4.550 -0.0590  0.6642  0.1466
24222SOL    HW174107   0.430   1.412   4.460  0.2126 -0.7714 -0.4194
24222SOL    HW274108   0.477   1.446   4.600  0.3950  1.1714 -0.9198
24223SOL     OW74109   2.793   0.728   1.388  0.3339  0.0387 -0.2449
24223SOL    HW174110   2.820   0.717   1.480 -2.8103 -1.0665  0.6514
24223SOL    HW274111   2.773   0.640   1.358  2.1411  0.2704 -2.3766
24224SOL     OW74112   0.216   1.787   5.281 -0.1641 -0.0310 -0.3167
24224SOL    HW174113   0.233   1.800   5.188 -0.6055 -1.6398 -0.6651
24224SOL    HW274114   0.198   1.693   5.289  0.9651 -0.1472  1.5697
24225SOL     OW74115   0.873   3.593   4.325 -0.3285 -0.1304 -0.3535
24225SOL    HW174116   0.948   3.628   4.373 -1.2295 -0.4155  1.3465
24225SOL    HW274117   0.862   3.653   4.252 -0.0829  1.4976  0.8791
24226SOL     OW74118   1.198   6.487   0.739  0.1122 -0.2503 -0.0165
24226SOL    HW174119   1.250   6.437   0.676 -0.1115  1.6646 -1.8687
24226SOL    HW274120   1.108   6.479   0.707  0.1973  2.1297 -1.0532
24227SOL     OW74121   1.671   4.535   7.401  0.4766  0.3058 -0.8020
24227SOL    HW174122   1.746   4.501   7.352  0.5771  0.6412 -0.8773
24227SOL    HW274123   1.710   4.585   7.473  0.3254  0.2959 -0.7142
24228SOL     OW74124   3.854   2.516   4.189  0.2408 -0.6312 -0.2747
24228SOL    HW174125   3.776   2.470   4.160  0.8297 -1.1683 -1.0654
24228SOL    HW274126   3.906   2.528   4.109  2.0395 -2.3731  0.5281
24229SOL     OW74127   4.179   3.171   0.290  0.4427 -0.5097  0.3384
24229SOL    HW174128   4.239   3.192   0.218 -0.4421 -0.3628 -0.3694
24229SOL    HW274129   4.146   3.256   0.320  0.4814 -0.5982  0.6377
24230SOL     OW74130   6.531   1.513  11.018  0.2610  0.4414  0.1387
24230SOL    HW174131   6.549   1.429  10.977  2.3669  1.4058 -1.0227
24230SOL    HW274132   6.464   1.553  10.962  0.7944  0.4167 -0.5228
24231SOL     OW74133   3.892   1.963   6.657  0.0915 -0.4232  0.0153
24231SOL    HW174134   3.948   2.034   6.626  0.5287 -0.4484  0.7094
24231SOL    HW274135   3.822   1.957   6.593 -0.4068  1.1852  0.3670
24232SOL     OW74136   0.642   3.456   1.177 -0.6048  0.0048 -0.4488
24232SOL    HW174137   0.658   3.546   1.147  1.2367 -0.0322  0.2991
24232SOL    HW274138   0.704   3.403   1.126  1.6600 -0.2237  2.2928
24233SOL     OW74139   2.535   5.741   6.624 -0.3522 -0.7486 -0.2654
24233SOL    HW174140   2.458   5.736   6.568  0.5189 -0.3089 -1.5494
24233SOL    HW274141   2.532   5.829   6.661  1.0589  0.4490 -2.7064
24234SOL     OW74142   6.427   7.075   5.653  0.6892  0.0428 -0.5239
24234SOL    HW174143   6.353   7.135   5.661 -0.2232 -1.1684  0.4932
24234SOL    HW274144   6.468   7.076   5.740  0.4693 -1.0147 -0.3933
24235SOL     OW74145   1.698   6.012   8.435  0.1125 -0.1425  0.0975
24235SOL    HW174146   1.787   6.006   8.401 -0.3297 -0.1856 -1.0877
24235SOL    HW274147   1.688   5.934   8.490  1.2994  0.6486  1.4939
24236SOL     OW74148   5.261   2.294   8.173 -0.4359  0.3979 -0.1813
24236SOL    HW174149   5.307   2.213   8.197 -0.9892 -0.3905 -1.6498
24236SOL    HW274150   5.299   2.321   8.090 -1.1340  0.9331 -0.3421
24237SOL     OW74151   0.113   0.665   1.028  0.3452 -0.1378  0.4617
24237SOL    HW174152   0.044   0.724   1.059  0.5511 -0.1275  0.9114
24237SOL    HW274153   0.072   0.579   1.025  0.1467 -0.0325  0.1578
24238SOL     OW74154   1.317   4.933   7.536  0.3007 -0.6299 -0.3536
24238SOL    HW174155   1.284   4.844   7.547  0.1309 -0.6319 -0.8671
24238SOL    HW274156   1.239   4.989   7.549  0.5487 -0.5078  0.7203
24239SOL     OW74157   4.713   6.477   4.934  0.7579  0.0403  0.2806
24239SOL    HW174158   4.622   6.463   4.909  0.6498  0.7523  0.2725
24239SOL    HW274159   4.731   6.407   4.997  0.1914 -0.0675  0.3293
24240SOL     OW74160   2.463   2.737   1.061  0.4307 -0.5303  0.2553
24240SOL    HW174161   2.446   2.690   0.979  0.5191 -0.2957  0.1001
24240SOL    HW274162   2.554   2.715   1.082  1.4845  1.8328 -1.3600
24241SOL     OW74163   4.738   3.723   2.172 -0.1956 -0.3396  0.2752
24241SOL    HW174164   4.724   3.812   2.140  0.4604  0.4496  2.0182
24241SOL    HW274165   4.660   3.704   2.224 -0.1375 -0.6189  0.2626
24242SOL     OW74166   1.632   4.774   5.290  0.2980  0.5151 -0.1255
24242SOL    HW174167   1.713   4.815   5.322  1.6491 -1.2538 -1.0973
24242SOL    HW274168   1.621   4.808   5.202  0.0092  0.7348 -0.0023
24243SOL     OW74169   5.901   1.930  11.955  0.4054  0.2876  0.5631
24243SOL    HW174170   5.900   1.928  12.051 -0.0971 -0.5014  0.5510
24243SOL    HW274171   5.890   2.023  11.933 -0.1167  0.3992  1.2648
24244SOL     OW74172   6.701   0.124   0.714  0.4505  0.6112 -0.0932
24244SOL    HW174173   6.668   0.107   0.626  1.7855 -2.4026 -0.1332
24244SOL    HW274174   6.797   0.117   0.705  0.9276  4.0871  0.9503
24245SOL     OW74175   0.561   4.677  10.590  0.5378 -0.4840 -0.0387
24245SOL    HW174176   0.609   4.594  10.588  0.3846 -0.5702 -0.3142
24245SOL    HW274177   0.618   4.737  10.636 -0.1553 -1.2478  1.9307
24246SOL     OW74178   6.403   1.274   9.667 -0.0168 -0.3852  0.6233
24246SOL    HW174179   6.355   1.281   9.585 -0.9172  1.1061  1.2467
24246SOL    HW274180   6.342   1.232   9.727  0.3459 -0.7047  0.7765
24247SOL     OW74181   3.791   5.407   6.233  0.1774 -0.3934 -0.8549
24247SOL    HW174182   3.809   5.340   6.167 -0.2561 -0.5083 -0.8574
24247SOL    HW274183   3.808   5.363   6.316  1.3032 -0.0764 -0.8948
24248SOL     OW74184   0.210   6.153   2.073  0.2233  0.1880 -0.2130
24248SOL    HW174185   0.237   6.062   2.058  0.0993  0.4970 -2.7923
24248SOL    HW274186   0.290   6.204   2.061  0.0685  0.4963  0.0676
24249SOL     OW74187   0.426   0.531   2.860 -0.3376  0.2081  0.1907
24249SOL    HW174188   0.387   0.518   2.774  0.2681  1.2781 -0.2720
24249SOL    HW274189   0.518   0.551   2.842  0.0026 -0.4173  1.1424
24250SOL     OW74190   6.014   7.057  11.227  0.4043  0.9092  0.1638
24250SOL    HW174191   5.999   7.127  11.164 -0.0481  0.5167 -0.1704
24250SOL    HW274192   6.084   7.004  11.187 -0.1079  0.4741 -0.1761
24251SOL     OW74193   5.672   3.141   5.573 -0.2281  0.0860  0.2743
24251SOL    HW174194   5.660   3.209   5.640 -1.6192  0.8758 -0.7212
24251SOL    HW274195   5.767   3.129   5.568  0.0513  1.7808  0.6967
24252SOL     OW74196   7.883   3.417  11.969 -0.3336 -0.0001  0.5610
24252SOL    HW174197   7.977   3.396  11.973 -0.0800  0.9225 -0.1183
24252SOL    HW274198   7.854   3.382  11.885 -1.0296 -1.8349  1.5170
24253SOL     OW74199   1.828   4.568   6.953 -0.0736 -0.3596  0.3604
24253SOL    HW174200   1.773   4.641   6.981 -0.9705 -0.6742 -0.5517
24253SOL    HW274201   1.893   4.560   7.023 -0.4300  0.8047  0.8553
24254SOL     OW74202   2.287   1.730   8.515 -0.4531  0.1046  0.0014
24254SOL    HW174203   2.371   1.760   8.549 -1.0202  0.6747  0.9357
24254SOL    HW274204   2.280   1.774   8.430 -1.2110  2.6585  1.2826
24255SOL     OW74205   3.545   6.129   5.296 -0.2465  0.1506 -0.0362
24255SOL    HW174206   3.452   6.112   5.315 -0.3982  0.7148 -0.2685
24255SOL    HW274207   3.562   6.214   5.335  0.2501 -0.0679  0.2352
24256SOL     OW74208   0.997   4.639   6.740  0.8656  0.5944 -0.0889
24256SOL    HW174209   1.058   4.613   6.672  0.5116 -0.2532 -0.0951
24256SOL    HW274210   1.034   4.720   6.776  0.1626  2.0344 -2.4378
24257SOL     OW74211   4.673   4.329   7.471  0.2903  0.1284  0.0676
24257SOL    HW174212   4.707   4.247   7.508 -0.9334 -1.4649 -2.1474
24257SOL    HW274213   4.610   4.301   7.405  0.8382  2.8553 -1.7405
24258SOL     OW74214   5.263   3.684  11.281  0.4162 -0.1405  0.3603
24258SOL    HW174215   5.219   3.603  11.255 -0.5513  0.2940  0.6185
24258SOL    HW274216   5.197   3.733  11.330  1.0729  0.6953  0.4341
24259SOL     OW74217   3.478   0.747   8.867 -0.2611 -0.0883  0.2305
24259SOL    HW174218   3.480   0.832   8.910  0.1793 -1.3888  3.0237
24259SOL    HW274219   3.532   0.758   8.788 -1.8315  2.6621 -0.5761
24260SOL     OW74220   0.439   3.757   0.232  0.8130  0.7163  0.4567
24260SOL    HW174221   0.410   3.669   0.210 -0.9556  1.0391  1.3034
24260SOL    HW274222   0.479   3.790   0.152  0.2852 -0.3723 -0.2799
24261SOL     OW74223   3.315   1.109   7.705  0.1449 -0.0917  0.5733
24261SOL    HW174224   3.313   1.086   7.798  0.6475 -1.2524  0.3041
24261SOL    HW274225   3.390   1.062   7.669 -0.7416 -0.6303 -0.6682
24262SOL     OW74226   1.963   6.266   9.175 -0.5945 -0.6234  0.2446
24262SOL    HW174227   1.898   6.334   9.190 -0.3819 -0.2362 -0.5760
24262SOL    HW274228   2.039   6.293   9.227  0.1538  0.7387 -1.4660
24263SOL     OW74229   0.342   3.288   5.850 -0.2331  0.1702  0.1873
24263SOL    HW174230   0.310   3.360   5.795 -1.0657 -0.3864 -0.0758
24263SOL    HW274231   0.325   3.317   5.940 -0.2518  0.4393  0.0986
24264SOL     OW74232   7.875   1.560   6.864 -0.2384  0.4412  0.0638
24264SOL    HW174233   7.920   1.636   6.827  0.1598 -0.2409 -0.9027
24264SOL    HW274234   7.828   1.522   6.790 -0.7607 -0.0194  0.6277
24265SOL     OW74235   5.737   7.906   6.667  0.3547  0.1002 -0.2755
24265SOL    HW174236   5.691   7.828   6.698 -0.0392  1.1928  2.1776
24265SOL    HW274237   5.742   7.896   6.572 -0.6294 -2.3651 -0.1226
24266SOL     OW74238   2.332   4.447  10.071 -0.5836 -0.0369 -0.2169
24266SOL    HW174239   2.242   4.475  10.057 -1.3832 -2.0490  0.6092
24266SOL    HW274240   2.347   4.462  10.164 -0.5755 -1.0610 -0.0454
24267SOL     OW74241   7.755   5.510  12.038 -0.0008  0.6211 -0.1039
24267SOL    HW174242   7.737   5.492  11.945 -1.2500 -0.0120  0.2355
24267SOL    HW274243   7.756   5.605  12.044 -3.9492  0.8507 -0.1400
24268SOL     OW74244   6.849   1.453   6.009  0.5606  0.2095 -0.1141
24268SOL    HW174245   6.777   1.488   5.955  0.1100 -0.0192  0.3339
24268SOL    HW274246   6.926   1.499   5.977  0.2164  0.4606 -0.6067
24269SOL     OW74247   2.762   0.779   7.294  0.7219 -0.2237 -0.0292
24269SOL    HW174248   2.789   0.688   7.311 -0.0142 -0.3472  0.5480
24269SOL    HW274249   2.778   0.825   7.376 -1.3346 -0.4442  0.5522
24270SOL     OW74250   1.944   0.348   8.641 -0.0077 -0.1893 -0.0270
24270SOL    HW174251   1.972   0.345   8.732  1.4852  0.1210 -0.4465
24270SOL    HW274252   1.971   0.435   8.611 -1.7892  0.2752 -0.3888
24271SOL     OW74253   5.796   0.662   6.153 -0.1489 -0.4564 -0.5511
24271SOL    HW174254   5.815   0.735   6.094 -0.7682 -0.3731 -0.6572
24271SOL    HW274255   5.748   0.702   6.225  0.8014 -0.5173  0.1392
24272SOL     OW74256   2.299   5.112   3.886  0.2715  0.2906  0.0996
24272SOL    HW174257   2.359   5.169   3.934  0.2333  2.3400 -2.1004
24272SOL    HW274258   2.290   5.154   3.800 -3.3203 -0.6141 -0.1210
24273SOL     OW74259   6.457   5.729   3.547  0.5212 -0.1868 -0.1059
24273SOL    HW174260   6.442   5.812   3.593 -1.0598 -0.1486 -0.6367
24273SOL    HW274261   6.471   5.666   3.617  1.3418  0.4380  0.3171
24274SOL     OW74262   1.231   0.405   3.628 -0.2729  0.1440  0.5454
24274SOL    HW174263   1.172   0.476   3.606 -0.3799 -0.0129  0.3181
24274SOL    HW274264   1.187   0.357   3.698 -1.1091 -0.8430 -0.6244
24275SOL     OW74265   6.106   0.290   3.338 -0.5368 -0.0852  0.2137
24275SOL    HW174266   6.110   0.257   3.428 -2.2581  0.8115  0.6670
24275SOL    HW274267   6.023   0.338   3.334  0.7495  2.2120 -1.0729
24276SOL     OW74268   5.717   3.104   3.707  0.1348  0.1370  0.1725
24276SOL    HW174269   5.622   3.106   3.713  0.0545 -0.5632 -0.6615
24276SOL    HW274270   5.747   3.132   3.794 -0.8147  0.9841  0.2478
24277SOL     OW74271   0.977   5.569   7.730  0.0976 -0.0271  0.0364
24277SOL    HW174272   0.937   5.482   7.737  1.1019 -0.6515 -1.4453
24277SOL    HW274273   1.071   5.553   7.740  0.1853  1.1489  1.4504
24278SOL     OW74274   5.020   0.515   9.837  0.0716  0.2366  0.2844
24278SOL    HW174275   5.023   0.593   9.892 -0.7539 -0.5212  1.4594
24278SOL    HW274276   5.087   0.530   9.771 -0.5321  2.2349  0.0540
24279SOL     OW74277   1.947   1.439   4.326 -0.0469  0.2427 -0.5638
24279SOL    HW174278   1.969   1.426   4.418  1.2051  1.8588 -0.5985
24279SOL    HW274279   1.880   1.373   4.308  2.9726 -3.4205  0.2352
24280SOL     OW74280   0.989   6.216   8.190 -0.1167 -0.3261  0.0572
24280SOL    HW174281   1.017   6.225   8.099 -0.6959  1.0775 -0.0101
24280SOL    HW274282   1.071   6.207   8.239  0.1444 -3.6984 -0.7805
24281SOL     OW74283   2.919   3.981   2.302  0.6411  0.1296  0.7354
24281SOL    HW174284   2.959   3.937   2.227  0.4240  2.5201 -0.8777
24281SOL    HW274285   2.990   3.987   2.367  1.4448 -0.0962 -0.1084
24282SOL     OW74286   4.130   5.389  10.916  0.0062 -0.8761 -0.4342
24282SOL    HW174287   4.058   5.401  10.978  0.6399  2.3114 -0.1740
24282SOL    HW274288   4.207   5.375  10.971  0.3443  0.5874 -0.5112
24283SOL     OW74289   6.676   4.744   4.536 -0.1738 -0.2610  0.4432
24283SOL    HW174290   6.671   4.793   4.454 -3.5805 -0.9208  0.1036
24283SOL    HW274291   6.661   4.809   4.605 -2.1758 -0.3674  0.1568
24284SOL     OW74292   6.171   2.413   0.210 -0.5038  0.4417 -0.3188
24284SOL    HW174293   6.119   2.462   0.274 -0.4810  1.9749 -1.4041
24284SOL    HW274294   6.261   2.424   0.240 -0.6365 -0.6345  0.5273
24285SOL     OW74295   7.437   5.829   7.279 -0.3758  0.1824  0.1078
24285SOL    HW174296   7.362   5.811   7.223  0.0065  0.5371 -0.5415
24285SOL    HW274297   7.406   5.894   7.342 -0.7820 -0.1379  0.2367
24286SOL     OW74298   2.410   6.751   6.292  0.8169  0.3590 -0.3541
24286SOL    HW174299   2.346   6.813   6.326 -1.4182 -1.8760 -0.2483
24286SOL    HW274300   2.365   6.704   6.222  2.0140 -1.8014  0.2061
24287SOL     OW74301   0.999   1.332   5.264  0.3737 -0.1464 -0.3845
24287SOL    HW174302   0.920   1.333   5.209  0.8167 -0.4335 -1.0487
24287SOL    HW274303   0.966   1.326   5.353 -0.4405  2.1623 -0.4490
24288SOL     OW74304   6.820   2.792   8.736 -0.5727 -0.1965 -0.2688
24288SOL    HW174305   6.883   2.792   8.808  1.3597  1.3399 -1.8557
24288SOL    HW274306   6.757   2.860   8.759 -0.0187  0.2286  0.0064
24289SOL     OW74307   5.276   3.602   8.038 -0.7036  0.5254 -0.1447
24289SOL    HW174308   5.272   3.507   8.036 -1.3632  0.5517 -0.6556
24289SOL    HW274309   5.369   3.622   8.049 -0.5547 -0.1730 -0.0819
24290SOL     OW74310   3.527   2.427   5.429  0.2013 -0.1394  0.1317
24290SOL    HW174311   3.544   2.505   5.482  0.1294  0.5603 -0.8549
24290SOL    HW274312   3.439   2.400   5.454  0.9410 -1.0713  1.8899
24291SOL     OW74313   3.323   6.600   6.479 -0.5806  0.1450  0.2612
24291SOL    HW174314   3.314   6.682   6.430  0.0147  0.5009  0.7244
24291SOL    HW274315   3.385   6.548   6.428  1.3621  1.1914  1.4378
24292SOL     OW74316   3.242   4.289   8.155 -0.1294 -0.1895 -0.0219
24292SOL    HW174317   3.218   4.360   8.215  0.3404  0.2588 -0.3507
24292SOL    HW274318   3.205   4.316   8.071  0.2938 -0.1995 -0.2095
24293SOL     OW74319   6.380   2.404   4.451  0.3488  0.6291  0.7458
24293SOL    HW174320   6.317   2.435   4.385 -0.2215 -1.3075  0.3097
24293SOL    HW274321   6.394   2.479   4.508 -0.4618  1.8484 -0.5941
24294SOL     OW74322   3.626   6.245   4.077 -0.0833 -0.5260  0.0465
24294SOL    HW174323   3.538   6.253   4.114 -0.4987  0.6450 -1.1232
24294SOL    HW274324   3.661   6.334   4.078  0.0548 -0.5118 -1.8899
24295SOL     OW74325   6.128   1.251  12.326  0.2223 -0.0574  0.0704
24295SOL    HW174326   6.212   1.246  12.281  0.8765  2.0190  0.9548
24295SOL    HW274327   6.065   1.216  12.262  1.6201 -0.8877 -0.9122
24296SOL     OW74328   0.370   4.537   2.548 -0.1839  0.1822 -0.2703
24296SOL    HW174329   0.330   4.569   2.467  0.4474 -0.2242 -0.7584
24296SOL    HW274330   0.309   4.562   2.617 -0.9709  0.1183 -0.9267
24297SOL     OW74331   7.105   2.943   8.623 -0.4405  0.0208 -0.3262
24297SOL    HW174332   7.114   2.998   8.701  1.1699 -1.0880  0.3073
24297SOL    HW274333   7.166   2.980   8.559 -0.8548  0.1910 -0.6263
24298SOL     OW74334   6.458   1.815   0.027 -0.1558 -0.6118 -0.7728
24298SOL    HW174335   6.484   1.834   0.117  1.5130 -0.7020 -1.1932
24298SOL    HW274336   6.534   1.843  -0.026 -0.4487 -2.0370 -2.0064
24299SOL     OW74337   6.816   2.551  11.979 -0.7874 -0.0389  0.6842
24299SOL    HW174338   6.726   2.571  12.002 -1.0435 -0.0160 -0.3051
24299SOL    HW274339   6.868   2.594  12.047 -1.4457  1.5011  0.2639
24300SOL     OW74340   5.986   0.918   9.770 -0.1425  0.3543 -0.3329
24300SOL    HW174341   5.941   0.995   9.736 -1.7904  0.7484  2.4827
24300SOL    HW274342   6.069   0.952   9.804 -0.3958  0.7089 -0.0643
24301SOL     OW74343   0.360   4.084   3.082  0.3594  0.7742 -0.0577
24301SOL    HW174344   0.431   4.107   3.021  0.2944 -2.3260 -1.4878
24301SOL    HW274345   0.280   4.093   3.030 -0.1032  1.7443  0.7776
24302SOL     OW74346   2.004   7.811  11.633 -0.1238  0.4457 -0.5456
24302SOL    HW174347   2.029   7.742  11.572  0.3912 -1.0468  1.2670
24302SOL    HW274348   2.043   7.891  11.596 -0.3231 -0.2770 -2.4249
24303SOL     OW74349   4.920   0.428  11.285  0.0585  0.0493  0.6612
24303SOL    HW174350   4.928   0.433  11.190  0.2439 -1.5797  0.5535
24303SOL    HW274351   4.894   0.516  11.312  0.4291  0.6545 -0.8446
24304SOL     OW74352   6.189   5.749   4.129 -0.1926 -0.0074  0.6139
24304SOL    HW174353   6.176   5.689   4.203 -0.3810 -1.3609 -0.4732
24304SOL    HW274354   6.271   5.794   4.149 -0.3375 -0.2043  1.7330
24305SOL     OW74355   4.004   0.813  11.621 -0.3197 -0.1992 -0.2131
24305SOL    HW174356   3.986   0.761  11.543  1.2467 -1.8204  0.4286
24305SOL    HW274357   3.934   0.789  11.682  1.2289 -3.0029  0.6748
24306SOL     OW74358   1.803   7.338  11.720 -0.2055  0.5122 -0.1946
24306SOL    HW174359   1.802   7.242  11.727 -0.8899  0.6648  2.8398
24306SOL    HW274360   1.892   7.362  11.745 -0.4983  0.7317  0.6566
24307SOL     OW74361   2.395   1.218   1.479  0.1823 -0.3902 -0.2925
24307SOL    HW174362   2.396   1.254   1.568 -1.8115 -2.2050  0.5723
24307SOL    HW274363   2.477   1.170   1.471  1.0907  1.0677 -0.0452
24308SOL     OW74364   5.110   7.502   0.544  0.0094  0.4172  0.0675
24308SOL    HW174365   5.128   7.582   0.593  0.2613 -0.4096  1.3741
24308SOL    HW274366   5.018   7.482   0.563  0.7367 -1.2287  2.3005
24309SOL     OW74367   0.475   5.780   1.602 -0.2173  0.4059  0.0395
24309SOL    HW174368   0.432   5.781   1.517 -1.5412  2.1987  0.6572
24309SOL    HW274369   0.464   5.869   1.636 -1.8779 -0.8129  3.0947
24310SOL     OW74370   4.829   1.124   0.285 -0.2475 -0.2227  0.9537
24310SOL    HW174371   4.870   1.179   0.217 -0.2805 -0.4133  0.7782
24310SOL    HW274372   4.901   1.071   0.319  0.2560  1.4944  2.6901
24311SOL     OW74373   0.229   2.363   9.316  0.5514  0.1953 -0.2648
24311SOL    HW174374   0.211   2.326   9.402  0.2007  1.7662  0.3662
24311SOL    HW274375   0.322   2.386   9.319  0.8826 -1.0022 -0.8193
24312SOL     OW74376   3.851   0.030   8.808  0.0901 -0.3214 -0.4215
24312SOL    HW174377   3.786  -0.006   8.748  1.3047  0.3583 -2.2205
24312SOL    HW274378   3.909   0.082   8.752  0.5654  1.3702  1.5178
24313SOL     OW74379   2.956   2.781   8.185  0.7330 -0.4686 -0.6611
24313SOL    HW174380   2.910   2.714   8.134 -0.3602 -0.5681  0.4133
24313SOL    HW274381   2.990   2.842   8.119 -1.1866 -0.2380 -1.5085
24314SOL     OW74382   4.931   6.388   9.272  0.2999  0.0231  0.6877
24314SOL    HW174383   4.920   6.403   9.366  0.3192 -1.8504  1.0266
24314SOL    HW274384   4.852   6.424   9.232  0.6727  1.6012  1.3135
24315SOL     OW74385   1.295   4.958   1.744  0.3245 -0.2456  0.1561
24315SOL    HW174386   1.335   5.022   1.685  2.9267 -0.9380  1.0158
24315SOL    HW274387   1.213   4.934   1.701  1.3565  0.4325 -2.4005
24316SOL     OW74388   0.923   6.907   1.170  0.2614  0.2628 -0.5299
24316SOL    HW174389   0.954   6.995   1.190  1.4618 -0.3717  0.5726
24316SOL    HW274390   0.875   6.917   1.087 -0.6689  2.1341  0.1704
24317SOL     OW74391   6.556   6.844  11.767 -0.4255  0.1899  0.0347
24317SOL    HW174392   6.565   6.914  11.702 -2.9708 -0.4696 -1.1681
24317SOL    HW274393   6.589   6.766  11.724 -3.1948 -0.4944 -1.0886
24318SOL     OW74394   5.019   0.690   4.968  0.7834  0.4988  0.3252
24318SOL    HW174395   4.988   0.759   5.027  1.7339  1.2445 -0.0331
24318SOL    HW274396   5.026   0.733   4.883  0.5838 -0.2648 -0.0895
24319SOL     OW74397   5.268   1.264   8.717  0.4430 -0.0306  0.2882
24319SOL    HW174398   5.322   1.325   8.767  0.5850 -1.6669  2.2540
24319SOL    HW274399   5.331   1.204   8.678  0.1880 -0.2176  0.1669
24320SOL     OW74400   1.288   3.867   5.564  0.0233 -0.2432  0.3813
24320SOL    HW174401   1.346   3.943   5.564 -0.2414  0.0260  2.7768
24320SOL    HW274402   1.205   3.899   5.598  0.0920 -1.7023  2.0344
24321SOL     OW74403   7.876   7.616  10.419 -0.3427  0.1462  0.1456
24321SOL    HW174404   7.951   7.650  10.468 -0.8266  0.2647  0.8028
24321SOL    HW274405   7.876   7.522  10.438  0.8792 -0.2474 -1.5186
24322SOL     OW74406   7.008   1.962   5.588 -0.0519  0.8162  0.2755
24322SOL    HW174407   7.037   2.051   5.608 -0.3708  0.9150  0.2995
24322SOL    HW274408   7.080   1.906   5.618  0.3035  1.0862 -0.0643
24323SOL     OW74409   3.046   6.430   6.290 -0.0945  0.6190  0.1897
24323SOL    HW174410   3.140   6.422   6.306 -0.2676 -0.3409  0.7854
24323SOL    HW274411   3.008   6.442   6.376 -0.7230 -1.2908  0.2220
24324SOL     OW74412   1.620   3.490   4.306 -0.0283 -0.5674 -0.4185
24324SOL    HW174413   1.538   3.477   4.259  0.2073  0.0426 -1.0126
24324SOL    HW274414   1.686   3.496   4.238  0.4460 -0.5597  0.0341
24325SOL     OW74415   6.748   6.109   2.175  0.0362  0.0876 -0.5684
24325SOL    HW174416   6.676   6.096   2.236  0.4519 -0.2349 -0.1342
24325SOL    HW274417   6.799   6.181   2.213 -0.9182  1.4202 -1.7025
24326SOL     OW74418   6.218   1.216   7.604 -0.6839  0.6458  0.5641
24326SOL    HW174419   6.261   1.162   7.538  0.2218  2.4166 -0.3549
24326SOL    HW274420   6.228   1.166   7.685  0.9831 -0.1318 -0.0616
24327SOL     OW74421   0.467   0.375   1.892 -0.5109  0.2040 -0.1339
24327SOL    HW174422   0.399   0.378   1.825  1.4601  1.3954 -2.2134
24327SOL    HW274423   0.437   0.435   1.960 -1.1073  1.4588 -1.4662
24328SOL     OW74424   0.151   7.191  11.971 -0.4480 -0.2072 -0.0369
24328SOL    HW174425   0.061   7.181  11.942  0.1815 -1.4700 -1.7179
24328SOL    HW274426   0.197   7.226  11.895  0.4234  0.8680  0.9384
24329SOL     OW74427   4.857   1.077   3.099  0.4549  0.0791  0.4177
24329SOL    HW174428   4.929   1.097   3.159 -0.1085  0.6729  0.9126
24329SOL    HW274429   4.898   1.076   3.012  1.2343 -0.5500  0.7713
24330SOL     OW74430   0.959   4.942   2.818  0.1358 -0.4935 -0.3749
24330SOL    HW174431   0.994   4.892   2.744  0.3619 -0.1417 -0.5086
24330SOL    HW274432   0.904   4.879   2.865  2.2157 -1.5609  0.7834
24331SOL     OW74433   4.798   0.099  12.348 -0.0869 -0.3965 -0.2647
24331SOL    HW174434   4.877   0.094  12.403 -0.1130 -2.6437 -0.3462
24331SOL    HW274435   4.726   0.084  12.409 -0.6713  2.9299  0.0532
24332SOL     OW74436   1.046   0.840   6.393  0.2925 -0.3127  0.2845
24332SOL    HW174437   1.015   0.925   6.361 -1.3563 -0.6437  0.8895
24332SOL    HW274438   0.968   0.800   6.433  0.7686 -2.5037 -0.8121
24333SOL     OW74439   1.329   7.454   8.605  0.1099 -0.0429  0.3942
24333SOL    HW174440   1.402   7.467   8.544  1.3219 -2.6573  1.1455
24333SOL    HW274441   1.365   7.476   8.690 -0.5729  0.4193  0.5746
24334SOL     OW74442   7.748   7.739   9.436  0.2321  0.0991 -0.0117
24334SOL    HW174443   7.832   7.750   9.481  0.3754  2.1982 -0.7188
24334SOL    HW274444   7.713   7.657   9.471  2.0659 -0.2584  1.1048
24335SOL     OW74445   6.001   3.929  10.978  1.0204  0.4206 -0.3739
24335SOL    HW174446   5.941   3.866  10.937 -0.2173  1.3344 -0.0487
24335SOL    HW274447   6.059   3.876  11.032 -1.2127 -0.3585  1.4174
24336SOL     OW74448   4.290   5.785   0.155 -0.1848  0.4387  0.8230
24336SOL    HW174449   4.376   5.783   0.197  0.6961 -0.5477 -0.9095
24336SOL    HW274450   4.228   5.782   0.228  1.2436  0.0475  2.0894
24337SOL     OW74451   5.098   7.812   4.163  0.3346 -0.8986  0.1492
24337SOL    HW174452   5.128   7.814   4.072  0.2275 -0.2149  0.1203
24337SOL    HW274453   5.114   7.722   4.192  0.6459 -1.0427 -0.4512
24338SOL     OW74454   1.576   7.280   5.193 -0.1856  0.6518  0.0165
24338SOL    HW174455   1.632   7.333   5.250  1.9581 -0.1736 -1.2127
24338SOL    HW274456   1.585   7.191   5.228 -1.3551  0.6068  0.2399
24339SOL     OW74457   4.380   7.155  10.512 -0.0690  0.0803  0.0667
24339SOL    HW174458   4.462   7.183  10.552  0.2405  0.7429 -1.0025
24339SOL    HW274459   4.375   7.062  10.531  1.1300 -0.0515 -0.2004
24340SOL     OW74460   1.820   3.086   9.614  0.2409  0.1249  0.0861
24340SOL    HW174461   1.731   3.119   9.608  0.3719  0.5954  0.6538
24340SOL    HW274462   1.822   3.012   9.553 -0.4424  0.3043 -0.1656
24341SOL     OW74463   2.927   5.659  10.310 -0.3369  0.3305 -0.0649
24341SOL    HW174464   2.894   5.736  10.264 -1.9194  0.5990  1.4390
24341SOL    HW274465   2.999   5.693  10.364 -0.8050  0.7120  0.3309
24342SOL     OW74466   0.769   4.630   1.929  0.0255  0.1221  0.5634
24342SOL    HW174467   0.721   4.660   1.852  0.3029  1.0226  0.7327
24342SOL    HW274468   0.766   4.535   1.923 -2.2693  0.1120  0.8694
24343SOL     OW74469   4.628   6.753   1.317  0.6368 -0.0951 -0.1737
24343SOL    HW174470   4.587   6.667   1.313 -0.1599  0.2489  0.3732
24343SOL    HW274471   4.669   6.764   1.231  0.4248 -0.8633 -0.3780
24344SOL     OW74472   1.217   3.957   4.710  0.5854 -0.4444  0.5164
24344SOL    HW174473   1.169   4.003   4.640 -0.0578 -0.2770  1.0544
24344SOL    HW274474   1.150   3.938   4.776  0.8210 -2.2426  0.2784
24345SOL     OW74475   3.650   5.375   1.179  0.5356  0.4501 -0.5846
24345SOL    HW174476   3.648   5.440   1.249  2.0789  0.7759 -0.7883
24345SOL    HW274477   3.692   5.298   1.218 -0.4364 -0.1058 -0.6044
24346SOL     OW74478   1.308   2.028   7.042  0.2112 -0.4696  0.1625
24346SOL    HW174479   1.401   2.019   7.025  0.5968 -1.7838  2.4911
24346SOL    HW274480   1.272   1.940   7.028 -0.6894  0.0037 -0.6561
24347SOL     OW74481   5.921   5.781  12.224  0.5427 -0.6812 -0.0229
24347SOL    HW174482   6.014   5.767  12.202  1.2530 -1.5637  3.0496
24347SOL    HW274483   5.896   5.701  12.271 -0.8306  0.7774  1.8648
24348SOL     OW74484   4.989   6.145   8.964 -0.0710 -0.2070  0.5461
24348SOL    HW174485   4.905   6.154   9.009  0.5874 -0.2594  1.8286
24348SOL    HW274486   5.008   6.051   8.966  0.6612 -0.0562  1.5140
24349SOL     OW74487   6.313   7.083   0.239 -0.3851 -0.6935  0.3777
24349SOL    HW174488   6.344   7.107   0.326 -1.6743  0.7905  0.4762
24349SOL    HW274489   6.393   7.069   0.188  0.3930 -0.1821  1.4290
24350SOL     OW74490   3.031   6.629   7.263 -0.3523  0.0354  0.5943
24350SOL    HW174491   3.093   6.612   7.192 -0.8013  1.1626 -0.0952
24350SOL    HW274492   2.947   6.596   7.230 -0.1384 -1.6195  1.5827
24351SOL     OW74493   4.468   3.795   4.347  0.3654  0.1789 -0.0877
24351SOL    HW174494   4.372   3.788   4.349  0.3572  0.4539  0.9091
24351SOL    HW274495   4.486   3.889   4.354  0.7140  0.0460  1.0422
24352SOL     OW74496   2.138   2.009   8.712  0.5138 -0.6989  1.0083
24352SOL    HW174497   2.203   1.944   8.739  0.8991  0.2816  2.5372
24352SOL    HW274498   2.103   2.044   8.794  0.1540  0.8718  0.2256
24353SOL     OW74499   2.130   2.273   4.888  0.0553  0.4263 -0.3097
24353SOL    HW174500   2.146   2.278   4.982  2.9188  1.0779 -0.7324
24353SOL    HW274501   2.193   2.207   4.856  0.0114  1.0999 -1.9036
24354SOL     OW74502   6.387   6.786   4.175 -0.0952  0.2408  0.0497
24354SOL    HW174503   6.464   6.825   4.218  0.0025  0.4603 -0.3165
24354SOL    HW274504   6.422   6.713   4.125 -0.1615  0.1897  0.0782
24355SOL     OW74505   2.714   1.293   8.810  0.1369 -0.2549 -0.4863
24355SOL    HW174506   2.697   1.388   8.808 -1.6588 -0.3707  2.6365
24355SOL    HW274507   2.646   1.256   8.753 -0.3550  0.2387 -0.2327
24356SOL     OW74508   2.837   5.674   6.971 -0.5098  0.0052  0.3797
24356SOL    HW174509   2.841   5.746   6.908 -1.6892  0.7397  1.1158
24356SOL    HW274510   2.758   5.690   7.021  0.2222 -0.7578  1.8366
24357SOL     OW74511   0.062   7.696   9.280 -0.4344 -0.0933  0.2589
24357SOL    HW174512  -0.033   7.703   9.295 -0.6704 -1.6605 -0.3365
24357SOL    HW274513   0.080   7.602   9.287  0.9320  0.0990 -0.5189
24358SOL     OW74514   2.290   6.874  10.787 -0.7021 -0.6941  0.5182
24358SOL    HW174515   2.354   6.925  10.737  0.9195 -1.9346  1.2377
24358SOL    HW274516   2.205   6.908  10.758  0.1884 -0.3194 -1.9337
24359SOL     OW74517   7.855   4.203   9.418  0.3910 -0.1279  0.3389
24359SOL    HW174518   7.918   4.144   9.376  0.7801 -1.6622  2.8562
24359SOL    HW274519   7.769   4.166   9.397  0.3414  0.9440 -1.6097
24360SOL     OW74520   7.721   7.199   3.750 -0.2008  0.6233 -0.0495
24360SOL    HW174521   7.804   7.203   3.797  0.4216 -0.4294 -1.0019
24360SOL    HW274522   7.711   7.286   3.712  0.3210  0.8522  0.3193
24361SOL     OW74523   1.709   6.289  11.367  0.2569 -0.5712  0.0787
24361SOL    HW174524   1.663   6.209  11.394 -1.4657  1.2536  3.0276
24361SOL    HW274525   1.639   6.347  11.336  1.1212  0.7728  0.6021
24362SOL     OW74526   4.089   1.299   7.750  0.1748  0.2444 -0.3162
24362SOL    HW174527   4.045   1.380   7.776  0.5121  0.6197 -0.9072
24362SOL    HW274528   4.126   1.317   7.664 -0.4726 -0.8185 -0.8397
24363SOL     OW74529   5.888   1.296  11.173  0.3645  0.2323 -0.4315
24363SOL    HW174530   5.901   1.243  11.094  2.3312 -1.7680  1.0869
24363SOL    HW274531   5.942   1.252  11.240 -0.3514  2.4556  1.7465
24364SOL     OW74532   5.986   4.858   4.075 -0.1112  0.3105 -0.2876
24364SOL    HW174533   5.927   4.785   4.094  0.2077  0.4353  1.2545
24364SOL    HW274534   6.017   4.887   4.160  2.5652 -0.0833 -1.0343
24365SOL     OW74535   3.882   1.673   4.075 -0.1935  0.2999  0.3746
24365SOL    HW174536   3.897   1.578   4.079 -1.1586  0.0742 -0.8763
24365SOL    HW274537   3.966   1.709   4.048  0.0769 -0.2279  0.4857
24366SOL     OW74538   6.927   6.673   3.698  0.2688 -0.1070  0.0836
24366SOL    HW174539   6.978   6.658   3.618  1.6890  3.5829  0.0955
24366SOL    HW274540   6.845   6.712   3.667 -0.4777 -1.4253  0.3343
24367SOL     OW74541   4.843   7.465   0.597  0.0415 -0.0099 -0.1715
24367SOL    HW174542   4.844   7.537   0.660 -1.1232 -1.1054  1.1613
24367SOL    HW274543   4.751   7.454   0.574  0.3839  0.0005 -1.6768
24368SOL     OW74544   0.604   7.539   8.765 -0.3468 -0.2035  0.0182
24368SOL    HW174545   0.597   7.555   8.860 -0.5661 -0.8228  0.1114
24368SOL    HW274546   0.513   7.524   8.738 -0.4989  1.5577 -0.5927
24369SOL     OW74547   3.331   4.004   4.262  0.2178  0.5886 -0.1159
24369SOL    HW174548   3.400   3.939   4.269  0.1029  0.2348 -1.8645
24369SOL    HW274549   3.252   3.958   4.290 -0.1388 -0.5792 -2.7583
24370SOL     OW74550   6.053   6.783  12.108 -0.0985 -0.6684 -0.1296
24370SOL    HW174551   6.036   6.698  12.150  1.0777 -2.8700 -3.7248
24370SOL    HW274552   6.145   6.801  12.126  0.4097 -1.6202 -1.6110
24371SOL     OW74553   6.303   2.629   7.014  0.1863 -0.3263 -0.0317
24371SOL    HW174554   6.246   2.570   7.064  1.6142 -1.8460 -0.0948
24371SOL    HW274555   6.287   2.605   6.923 -0.3776  0.5075 -0.1588
24372SOL     OW74556   2.006   1.438   8.592  0.1727  0.1614  0.3694
24372SOL    HW174557   1.955   1.383   8.651  0.0953 -1.5558 -1.2237
24372SOL    HW274558   2.073   1.477   8.648  1.4527 -3.0577  1.2699
24373SOL     OW74559   1.889   2.435   7.191  0.5908 -0.3140  0.0511
24373SOL    HW174560   1.835   2.391   7.256  0.3646 -0.3649 -0.1698
24373SOL    HW274561   1.826   2.475   7.130  0.7805  0.6291  0.4558
24374SOL     OW74562   1.570   1.036   2.142 -0.2241  0.1153 -0.2606
24374SOL    HW174563   1.523   0.960   2.176  2.2122 -1.3725  0.0807
24374SOL    HW274564   1.534   1.111   2.189 -1.8143 -0.9908  0.3527
24375SOL     OW74565   4.048   5.496  10.521  0.0242 -0.4863  0.3975
24375SOL    HW174566   3.956   5.502  10.546 -0.1266 -0.2509 -0.1836
24375SOL    HW274567   4.094   5.551  10.584 -0.1602 -1.0667  1.0428
24376SOL     OW74568   7.062   1.611   2.633  0.1259 -0.2379  1.0159
24376SOL    HW174569   7.137   1.660   2.667 -0.0758  0.3328  0.6610
24376SOL    HW274570   7.037   1.658   2.553 -1.0816  0.0409  1.5362
24377SOL     OW74571   7.541   0.210   7.643  0.4414  0.2158 -0.0994
24377SOL    HW174572   7.600   0.226   7.570  1.1698  0.4697  0.5419
24377SOL    HW274573   7.555   0.283   7.702 -0.2716  0.1047  0.2191
24378SOL     OW74574   5.817   4.972  11.584  0.0358 -0.4854 -0.2295
24378SOL    HW174575   5.778   4.939  11.665 -0.3930  0.7577  0.1077
24378SOL    HW274576   5.892   4.915  11.568  2.2458  1.2135  2.9320
24379SOL     OW74577   7.734   3.012  11.079  0.2202  0.1755  0.0502
24379SOL    HW174578   7.772   3.081  11.133 -1.3032  2.3544 -1.4908
24379SOL    HW274579   7.803   2.945  11.074  1.3316  1.0225  2.5289
24380SOL     OW74580   5.606   3.593   3.080 -0.2961  0.0948  0.0646
24380SOL    HW174581   5.586   3.587   2.986 -1.1290 -1.1942  0.3084
24380SOL    HW274582   5.611   3.687   3.097  0.0780  0.3538 -1.3069
24381SOL     OW74583   6.395   2.590   8.501  0.1211  0.2190 -0.4818
24381SOL    HW174584   6.476   2.609   8.453  0.0968 -0.8382 -0.9884
24381SOL    HW274585   6.350   2.526   8.445 -0.3833 -0.2782  0.4787
24382SOL     OW74586   6.540   6.084   8.681  0.0148 -0.4364  0.4495
24382SOL    HW174587   6.626   6.112   8.713 -0.6423  0.5935  1.4292
24382SOL    HW274588   6.512   6.153   8.621  1.0508 -2.1544 -2.2053
24383SOL     OW74589   7.726   4.626   1.187  0.1567 -0.7379  0.1510
24383SOL    HW174590   7.652   4.678   1.156 -0.1025 -1.6190 -0.7944
24383SOL    HW274591   7.794   4.640   1.120  0.6386 -0.3984  0.7052
24384SOL     OW74592   1.699   0.619   5.494 -0.1946  0.6495  0.3620
24384SOL    HW174593   1.701   0.674   5.573  1.4995 -0.5155  1.1950
24384SOL    HW274594   1.676   0.532   5.526  1.6672 -0.0953 -0.2362
24385SOL     OW74595   7.864   4.073   6.087 -0.4891  0.0657  0.8148
24385SOL    HW174596   7.836   4.023   6.164 -0.3894 -1.3661 -0.0474
24385SOL    HW274597   7.959   4.080   6.097 -0.1997 -1.8564 -0.1210
24386SOL     OW74598   3.464   5.350   5.048 -0.2174  0.1433  0.3092
24386SOL    HW174599   3.497   5.320   4.963  0.5953 -0.4180  0.8095
24386SOL    HW274600   3.539   5.396   5.087 -0.1934 -0.6502  1.2212
24387SOL     OW74601   3.173   6.099   6.174  0.6049  0.2472  0.5588
24387SOL    HW174602   3.233   6.163   6.213  0.7151  0.0106  0.7786
24387SOL    HW274603   3.137   6.052   6.249  2.2475 -1.5158  0.3092
24388SOL     OW74604   0.211   0.130   9.436 -0.8374 -0.5662 -0.1045
24388SOL    HW174605   0.274   0.069   9.476 -0.7307 -0.2111  0.2795
24388SOL    HW274606   0.173   0.176   9.511 -3.6253 -2.7109 -0.0328
24389SOL     OW74607   4.888   4.071   6.037  0.1139 -0.3634  0.1734
24389SOL    HW174608   4.807   4.085   6.087 -0.8184 -1.5861 -0.9384
24389SOL    HW274609   4.958   4.096   6.097 -1.1044  2.4892  0.5851
24390SOL     OW74610   0.129   1.447   8.936  0.0726  0.1385 -0.2551
24390SOL    HW174611   0.157   1.360   8.962 -0.4173  0.1410  0.2835
24390SOL    HW274612   0.138   1.448   8.840  0.6648 -0.2889 -0.2121
24391SOL     OW74613   7.781   5.393  11.530  1.0068  0.0207  0.2896
24391SOL    HW174614   7.818   5.329  11.590  3.2360  1.7708  0.9248
24391SOL    HW274615   7.838   5.390  11.453 -0.3367 -0.4362 -0.7374
24392SOL     OW74616   0.947   1.682  11.692 -0.0164  0.1362 -0.0459
24392SOL    HW174617   1.019   1.703  11.632  0.1498  0.2923  0.2052
24392SOL    HW274618   0.950   1.752  11.757  1.5407 -1.4651  1.7278
24393SOL     OW74619   1.314   6.899   3.696  0.3366 -0.1002  0.2787
24393SOL    HW174620   1.266   6.856   3.767  1.6455 -0.4873  0.9601
24393SOL    HW274621   1.397   6.852   3.691  0.9415  0.9923 -0.4019
24394SOL     OW74622   4.649   5.783   8.064 -0.0579  0.4071 -0.1255
24394SOL    HW174623   4.608   5.869   8.071  0.6903  0.7247  0.5477
24394SOL    HW274624   4.735   5.801   8.026  0.0706 -0.0593 -0.0609
24395SOL     OW74625   1.531   5.550   0.941 -0.1844  0.4027  0.0778
24395SOL    HW174626   1.508   5.477   0.998  0.8745  1.1039  1.4844
24395SOL    HW274627   1.451   5.569   0.892 -1.1290 -0.2705  1.3125
24396SOL     OW74628   2.792   4.231  11.443 -0.0028  0.7881  0.8648
24396SOL    HW174629   2.864   4.276  11.488 -0.1457 -0.4448  2.4053
24396SOL    HW274630   2.717   4.290  11.452  1.0314  2.6700 -1.8399
24397SOL     OW74631   5.444   1.343   4.402  0.2693 -0.6029 -0.7855
24397SOL    HW174632   5.407   1.288   4.333  0.2746 -0.3372 -0.9982
24397SOL    HW274633   5.531   1.306   4.419  0.1219 -0.8993 -0.6549
24398SOL     OW74634   1.139   0.459   1.376  0.1029 -0.2053  0.0306
24398SOL    HW174635   1.197   0.405   1.429 -0.3838 -0.4177  0.3545
24398SOL    HW274636   1.075   0.398   1.340  0.2206 -0.0089 -0.5164
24399SOL     OW74637   6.753   2.017   2.701  0.7789  0.4310 -0.2799
24399SOL    HW174638   6.663   2.026   2.731  0.4831  1.9657 -1.5139
24399SOL    HW274639   6.797   1.970   2.772 -1.1189 -0.9676  0.0299
24400SOL     OW74640   2.582   2.370   3.774 -0.7146  0.7685  0.2252
24400SOL    HW174641   2.529   2.450   3.773 -2.6886 -0.4754 -0.3439
24400SOL    HW274642   2.562   2.329   3.858 -0.0949  0.6151  0.3035
24401SOL     OW74643   5.994   4.858   2.987 -0.1069 -0.1407 -0.1660
24401SOL    HW174644   6.030   4.938   3.027  0.8115 -0.9479  0.6591
24401SOL    HW274645   6.066   4.821   2.938 -0.1466 -1.1417  0.5133
24402SOL     OW74646   6.010   7.022   7.769  0.5925 -0.0921  0.2907
24402SOL    HW174647   5.989   6.928   7.770 -1.5579  0.3359  0.9845
24402SOL    HW274648   6.085   7.030   7.828  0.6701 -1.3473  0.3983
24403SOL     OW74649   3.770   6.054  12.057  0.0667 -0.3124  0.4078
24403SOL    HW174650   3.720   5.990  12.007  0.5534 -0.2085 -0.2244
24403SOL    HW274651   3.717   6.071  12.135 -1.3180  0.4629 -0.6608
24404SOL     OW74652   0.601   1.680   7.635  0.1836  0.5276 -0.1536
24404SOL    HW174653   0.609   1.636   7.720 -0.1684  0.8150  0.0314
24404SOL    HW274654   0.581   1.610   7.574 -2.0472  0.6036  0.4031
24405SOL     OW74655   1.841   5.321  11.744  0.4535 -0.7951  0.1394
24405SOL    HW174656   1.890   5.385  11.692 -0.6162  0.0991  0.2105
24405SOL    HW274657   1.818   5.252  11.682 -0.4439  0.0602 -0.5002
24406SOL     OW74658   5.021   0.468   5.307  0.3998 -0.1115  0.7999
24406SOL    HW174659   4.977   0.446   5.389  0.3336  2.0064  1.3684
24406SOL    HW274660   4.950   0.471   5.242  0.2520 -0.3882  0.9466
24407SOL     OW74661   3.103   7.016   9.916 -0.4767 -0.0991 -0.2052
24407SOL    HW174662   3.083   7.106   9.889 -0.5740 -0.0820 -0.0792
24407SOL    HW274663   3.185   7.024   9.964 -0.2097 -0.1563 -0.6452
24408SOL     OW74664   4.039   7.073   8.705 -0.4607  0.5322 -0.0666
24408SOL    HW174665   3.948   7.103   8.703 -1.6285 -2.4096  1.5662
24408SOL    HW274666   4.046   7.024   8.787  1.8036 -1.5538 -1.3662
24409SOL     OW74667   5.087   2.561  10.731 -0.5034 -0.2005  0.4843
24409SOL    HW174668   5.019   2.536  10.794  0.1933 -1.3653  0.7994
24409SOL    HW274669   5.041   2.568  10.648 -1.0110 -1.0017  0.6905
24410SOL     OW74670   2.142   3.815   5.799  0.6282 -0.2134 -0.9016
24410SOL    HW174671   2.211   3.750   5.805 -0.7245 -1.5985  2.2895
24410SOL    HW274672   2.178   3.891   5.846  0.3323 -0.6632  0.0937
24411SOL     OW74673   7.852   2.330   5.363  0.0733  0.1416  0.2524
24411SOL    HW174674   7.900   2.280   5.429  0.6099  1.1456  0.6416
24411SOL    HW274675   7.781   2.272   5.336  1.0027 -1.0480  0.2803
24412SOL     OW74676   5.504   7.750   8.700 -0.1428  0.1554  0.2764
24412SOL    HW174677   5.523   7.815   8.768  1.8348 -0.2391  0.1667
24412SOL    HW274678   5.541   7.788   8.620 -1.4687  0.1204 -0.3781
24413SOL     OW74679   6.250   6.711   2.967  0.3600  0.2331  0.2775
24413SOL    HW174680   6.239   6.763   2.888  0.6805 -0.7797 -0.4559
24413SOL    HW274681   6.245   6.620   2.937  0.7414 -0.1709  1.3791
24414SOL     OW74682   0.986   3.135   0.102  0.6277 -0.8488  0.1021
24414SOL    HW174683   0.999   3.041   0.118 -0.0580 -0.7882  1.1279
24414SOL    HW274684   1.070   3.165   0.067  1.0029 -1.7572  0.1854
24415SOL     OW74685   4.780   3.195   7.886 -0.6938  0.3840 -0.1633
24415SOL    HW174686   4.848   3.149   7.837 -1.4085 -0.8367 -0.0476
24415SOL    HW274687   4.797   3.173   7.977 -2.3835 -1.6304 -0.2519
24416SOL     OW74688   2.023   1.246  10.789 -0.3852  0.0815 -0.1411
24416SOL    HW174689   2.049   1.195  10.866  0.1811 -0.6068 -0.7676
24416SOL    HW274690   2.045   1.337  10.812 -0.3686 -0.0946  0.5656
24417SOL     OW74691   2.041   3.061   1.791  0.8279  0.6044 -0.6121
24417SOL    HW174692   2.067   2.973   1.821 -1.0269 -0.1154 -1.0152
24417SOL    HW274693   2.073   3.119   1.860  2.0716 -0.3629 -0.3220
24418SOL     OW74694   3.166   0.808   1.893 -0.1503  0.5741 -0.3773
24418SOL    HW174695   3.208   0.789   1.977  0.6368 -0.6106 -1.0134
24418SOL    HW274696   3.086   0.856   1.916  0.3056  0.7063  1.0062
24419SOL     OW74697   0.713   3.668   0.904  0.5666 -0.3541 -0.5071
24419SOL    HW174698   0.757   3.618   0.836 -1.7793 -2.0372 -0.8912
24419SOL    HW274699   0.625   3.630   0.910 -1.2481  3.3962 -0.4554
24420SOL     OW74700   0.327   0.413   4.474 -0.4671 -0.1086  0.0337
24420SOL    HW174701   0.320   0.341   4.412 -5.0516  0.6327 -0.6803
24420SOL    HW274702   0.357   0.487   4.421  0.9576 -0.6559  0.0250
24421SOL     OW74703   0.895   6.999   8.895  0.1120 -0.0080  0.2701
24421SOL    HW174704   0.904   7.018   8.988  1.0642  1.7301 -0.1272
24421SOL    HW274705   0.829   7.061   8.864 -0.5748 -0.9185 -0.1454
24422SOL     OW74706   5.857   2.522   7.051  0.1548  0.8257 -0.1949
24422SOL    HW174707   5.858   2.592   6.986  1.9278 -1.6012 -3.0512
24422SOL    HW274708   5.792   2.460   7.018  1.3752 -0.6395  0.0288
24423SOL     OW74709   5.214   5.476   5.304  0.1851  0.1175  0.2078
24423SOL    HW174710   5.244   5.454   5.216  1.3828 -0.1498  0.6697
24423SOL    HW274711   5.160   5.554   5.292 -0.7331 -0.6534 -0.9269
24424SOL     OW74712   0.995   3.030   4.318 -0.4500  0.2228 -0.2464
24424SOL    HW174713   0.960   2.981   4.392  0.6898  0.4486  0.4675
24424SOL    HW274714   1.038   3.106   4.358  1.7181 -0.5531 -0.9634
24425SOL     OW74715   0.458   2.005   8.350 -0.3367  0.3450 -0.2832
24425SOL    HW174716   0.436   2.078   8.293 -0.4103  1.1169  0.7094
24425SOL    HW274717   0.390   2.005   8.417  2.1339  2.3793  2.4939
24426SOL     OW74718   5.996   3.226   1.663 -0.0853 -0.2650  0.6191
24426SOL    HW174719   5.973   3.211   1.755 -0.3516 -1.1264  0.4259
24426SOL    HW274720   6.023   3.140   1.631 -0.8585 -0.1667 -0.3510
24427SOL     OW74721   0.059   5.370   4.641  0.4475  0.2241 -0.2311
24427SOL    HW174722  -0.020   5.316   4.632  0.2861  0.4792 -0.3524
24427SOL    HW274723   0.123   5.327   4.584 -0.0404  0.8213 -1.2548
24428SOL     OW74724   5.511   1.703   0.502  0.7964  0.4859  0.1183
24428SOL    HW174725   5.456   1.769   0.546  0.9704  0.4877  0.3331
24428SOL    HW274726   5.496   1.719   0.409  1.1083  1.0625  0.1600
24429SOL     OW74727   3.533   3.524  11.399  0.3195 -0.3570  0.0458
24429SOL    HW174728   3.444   3.559  11.402  0.8427  0.9580  1.5062
24429SOL    HW274729   3.534   3.457  11.467  0.4248 -0.4487 -0.0449
24430SOL     OW74730   3.732   5.023  12.027  0.6187  0.0959 -0.2033
24430SOL    HW174731   3.784   5.104  12.029  1.3179 -0.3551  0.2613
24430SOL    HW274732   3.706   5.009  12.118  0.5438 -0.2321 -0.2729
24431SOL     OW74733   6.693   3.275   7.080 -0.4574 -0.1515  0.2663
24431SOL    HW174734   6.707   3.332   7.005 -1.1842 -1.0773 -0.6016
24431SOL    HW274735   6.610   3.232   7.062  0.2897 -1.8387  0.6463
24432SOL     OW74736   6.594   7.626   5.823  0.6448 -0.3812  0.1608
24432SOL    HW174737   6.685   7.597   5.830  0.3410 -1.0606  2.1806
24432SOL    HW274738   6.543   7.545   5.820  0.0472 -0.0188  0.2864
24433SOL     OW74739   4.416   6.584   4.143 -0.1155 -0.2942  0.4199
24433SOL    HW174740   4.365   6.517   4.189 -1.4255  0.5289  0.2008
24433SOL    HW274741   4.443   6.541   4.061 -0.0765 -0.8705  0.7247
24434SOL     OW74742   4.777   3.586   1.163 -0.3528 -0.3159 -0.1172
24434SOL    HW174743   4.706   3.607   1.223  0.4722  0.0049  0.7775
24434SOL    HW274744   4.825   3.669   1.153 -0.2765 -0.4519 -0.9522
24435SOL     OW74745   2.502   7.100   0.810 -0.0111  0.3245  0.1356
24435SOL    HW174746   2.508   7.081   0.903  1.2066 -1.3536 -0.2403
24435SOL    HW274747   2.547   7.184   0.800  0.0132  0.4280  1.0347
24436SOL     OW74748   5.784   1.236  11.729  0.0099  0.1196 -0.1654
24436SOL    HW174749   5.758   1.317  11.774  0.6648  0.5944 -0.6393
24436SOL    HW274750   5.850   1.263  11.666  0.5593 -0.8548 -0.0289
24437SOL     OW74751   2.307   3.768   1.484 -0.2052 -0.6605  0.3060
24437SOL    HW174752   2.250   3.844   1.500 -2.0233 -1.9122  0.0727
24437SOL    HW274753   2.248   3.701   1.450  1.4822 -1.9707 -0.1479
24438SOL     OW74754   7.239   2.430   2.290  0.0509 -0.9451 -0.2607
24438SOL    HW174755   7.202   2.510   2.326  5.4359  1.4656  0.8156
24438SOL    HW274756   7.222   2.363   2.357 -2.7869 -0.3594 -0.2675
24439SOL     OW74757   4.772   5.954   0.829 -0.1864  0.4293  0.1570
24439SOL    HW174758   4.816   6.020   0.882 -1.2054  1.8909 -0.7289
24439SOL    HW274759   4.681   5.984   0.824 -0.3105 -0.1086 -1.6458
24440SOL     OW74760   4.964   5.429   6.012  0.6265  0.2186  0.0307
24440SOL    HW174761   4.953   5.471   5.927  1.5525 -0.9916 -0.7211
24440SOL    HW274762   4.877   5.397   6.035  0.5840 -0.4825 -1.0408
24441SOL     OW74763   2.622   1.218   4.309  0.2410 -0.6828 -0.4145
24441SOL    HW174764   2.706   1.172   4.314  0.7979  0.3706  0.3569
24441SOL    HW274765   2.558   1.155   4.344  0.7820 -1.2981 -0.5104
24442SOL     OW74766   7.291   7.730   6.641 -0.5333 -0.1463 -0.0553
24442SOL    HW174767   7.364   7.729   6.579 -0.6026 -0.1641 -0.1352
24442SOL    HW274768   7.213   7.732   6.587 -0.6108 -0.7784  0.0273
24443SOL     OW74769   7.768   6.053   9.537 -0.5505  0.2870 -0.1305
24443SOL    HW174770   7.697   6.067   9.475 -0.5704 -0.3100 -0.2418
24443SOL    HW274771   7.833   6.002   9.488 -2.0808 -3.3984  1.3211
24444SOL     OW74772   2.896   7.926   2.802  0.6231 -0.6260  0.1480
24444SOL    HW174773   2.911   7.857   2.866  0.2728 -1.8545 -1.0456
24444SOL    HW274774   2.980   7.933   2.755  1.3126  1.1706  1.5100
24445SOL     OW74775   6.922   5.412  12.177 -0.3391  0.7294 -0.2327
24445SOL    HW174776   6.953   5.494  12.215  0.9377  0.5630 -0.8569
24445SOL    HW274777   6.990   5.388  12.114 -0.5403 -0.9484  0.1499
24446SOL     OW74778   2.853   3.729   1.798 -0.0185 -0.2135 -0.0598
24446SOL    HW174779   2.919   3.788   1.762  0.6333 -1.7171 -1.4956
24446SOL    HW274780   2.813   3.778   1.870  0.7314  1.7930 -0.9382
24447SOL     OW74781   0.110   0.434  11.258 -0.6438 -0.3783  0.8120
24447SOL    HW174782   0.168   0.357  11.261 -2.4953 -1.8249  2.2057
24447SOL    HW274783   0.067   0.435  11.344  0.0300  2.8688  1.2140
24448SOL     OW74784   5.230   3.451   6.711 -0.5073  0.3255 -0.4333
24448SOL    HW174785   5.269   3.510   6.646  0.4628  0.3965  0.1878
24448SOL    HW274786   5.150   3.495   6.739 -1.1988  0.0783 -1.8980
24449SOL     OW74787   4.622   1.350   4.996 -0.4604  0.5976  0.2954
24449SOL    HW174788   4.620   1.328   5.089 -0.0624  1.2694  0.4664
24449SOL    HW274789   4.557   1.420   4.987  0.6491  1.6817  0.3846
24450SOL     OW74790   3.564   3.122   9.274  0.1970 -0.2884  0.3138
24450SOL    HW174791   3.557   3.186   9.344  0.2412  0.7124 -0.5749
24450SOL    HW274792   3.651   3.137   9.236  0.8936 -1.9875  1.1385
24451SOL     OW74793   4.004   3.736   2.496  0.5747  0.0466  0.6266
24451SOL    HW174794   4.034   3.732   2.405  0.9181 -1.0613  0.7782
24451SOL    HW274795   3.984   3.829   2.510 -0.5197  0.0866 -0.9104
24452SOL     OW74796   2.228   4.553   3.299  0.1422  0.1437 -0.0046
24452SOL    HW174797   2.170   4.524   3.229 -0.1231 -1.1671  0.7246
24452SOL    HW274798   2.286   4.616   3.257 -1.1821  0.7686 -0.9669
24453SOL     OW74799   0.362   6.688   7.169  0.3638  0.0736  0.1948
24453SOL    HW174800   0.293   6.728   7.116  0.4471 -0.0045  0.0290
24453SOL    HW274801   0.331   6.697   7.259  0.0980 -0.0371  0.1134
24454SOL     OW74802   1.129   1.983   9.639  0.7382 -0.0422  0.1304
24454SOL    HW174803   1.043   2.002   9.602  1.9500  0.2294 -2.7804
24454SOL    HW274804   1.112   1.974   9.733 -1.7899  4.5522  0.4417
24455SOL     OW74805   5.372   4.910   5.882 -0.3320  0.0892  0.1882
24455SOL    HW174806   5.449   4.924   5.936 -0.1144  3.9310 -0.8156
24455SOL    HW274807   5.405   4.870   5.801  0.4635  0.7831  0.1636
24456SOL     OW74808   2.500   3.905   3.821  0.1199 -0.2499 -0.5775
24456SOL    HW174809   2.408   3.929   3.812  0.1607  1.1529  1.7229
24456SOL    HW274810   2.547   3.988   3.812  0.8878 -0.4745  0.9436
24457SOL     OW74811   7.359   5.102   0.342  0.3443  0.2759  0.6191
24457SOL    HW174812   7.278   5.151   0.359  0.2847  0.1594  0.6649
24457SOL    HW274813   7.333   5.010   0.343  0.3573  0.2610  0.0147
24458SOL     OW74814   0.369   6.677  10.502  0.0094  0.3593  0.3340
24458SOL    HW174815   0.316   6.714  10.573 -0.1753 -0.4633  0.6475
24458SOL    HW274816   0.313   6.684  10.425 -1.0437 -1.4384  0.8514
24459SOL     OW74817   0.051   5.389   3.506  0.1864  0.3496 -0.4002
24459SOL    HW174818   0.127   5.342   3.473  1.6639  0.7997  2.1471
24459SOL    HW274819   0.049   5.369   3.599 -1.8370  1.7365 -0.0912
24460SOL     OW74820   3.233   1.489   4.416  0.2799  0.2476  0.4236
24460SOL    HW174821   3.205   1.397   4.426  3.1663 -0.7960 -0.1537
24460SOL    HW274822   3.173   1.525   4.351 -1.8767 -0.7434  1.7484
24461SOL     OW74823   3.080   6.984   8.648  0.4604 -0.1507  0.0224
24461SOL    HW174824   3.156   6.927   8.635 -0.5797 -1.1514 -2.1193
24461SOL    HW274825   3.105   7.067   8.606  0.6745 -0.1749  0.0988
24462SOL     OW74826   4.537   2.186   2.237 -0.1516  0.1514 -0.4139
24462SOL    HW174827   4.610   2.141   2.194 -0.6524 -0.4751 -0.6223
24462SOL    HW274828   4.498   2.240   2.169 -0.6794 -0.5140 -0.6572
24463SOL     OW74829   0.529   0.464   7.972  0.2868  0.2575  0.5507
24463SOL    HW174830   0.530   0.559   7.985  1.9886  0.5693 -1.3717
24463SOL    HW274831   0.560   0.429   8.056 -0.1241  1.3859  1.2058
24464SOL     OW74832   5.016   5.682   1.102  0.1741  0.4239 -0.0403
24464SOL    HW174833   4.936   5.710   1.146  0.8023  1.3779  0.5100
24464SOL    HW274834   4.990   5.604   1.053 -1.6294  1.9035 -1.5845
24465SOL     OW74835   3.620   2.249   4.360 -0.1442 -0.1885 -0.2269
24465SOL    HW174836   3.686   2.197   4.314  0.1888  0.7568 -0.8561
24465SOL    HW274837   3.614   2.330   4.309 -1.2806  0.0353  0.2297
24466SOL     OW74838   4.868   6.529   1.191 -0.7214  0.3579 -0.2082
24466SOL    HW174839   4.797   6.504   1.132 -0.5380 -1.0483  0.1424
24466SOL    HW274840   4.872   6.625   1.185 -1.0645  0.2820 -2.0414
24467SOL     OW74841   3.233   3.213  11.916  0.1612  0.1237 -0.0051
24467SOL    HW174842   3.232   3.165  11.833  0.1574 -0.5976  0.4032
24467SOL    HW274843   3.303   3.172  11.967 -0.2643  0.1181  0.5972
24468SOL     OW74844   3.500   2.353   8.698  0.2512 -0.3069 -0.0473
24468SOL    HW174845   3.483   2.419   8.631  2.4023 -0.7430 -1.0727
24468SOL    HW274846   3.484   2.270   8.654 -0.7841 -0.5515  0.7510
24469SOL     OW74847   3.011   3.914  11.919  0.0285 -0.1989 -0.3225
24469SOL    HW174848   3.094   3.921  11.871  0.6398 -0.6696  0.6282
24469SOL    HW274849   3.028   3.846  11.984 -1.4877 -1.1487 -0.8710
24470SOL     OW74850   7.380   3.890   1.030  0.1139  0.6148  0.0901
24470SOL    HW174851   7.315   3.823   1.051  0.0955  1.0520  1.5691
24470SOL    HW274852   7.445   3.844   0.978 -1.1469  0.0632 -1.0592
24471SOL     OW74853   2.811   7.292   6.423  0.2594 -0.0111 -0.0227
24471SOL    HW174854   2.852   7.363   6.373 -0.5454  0.3252 -0.2224
24471SOL    HW274855   2.816   7.321   6.514  0.8757 -0.1848  0.0007
24472SOL     OW74856   3.944   4.923   1.182 -0.4274 -0.0780 -0.2647
24472SOL    HW174857   3.909   4.993   1.237  1.3751  0.3005  0.4757
24472SOL    HW274858   4.036   4.914   1.210 -0.0875 -1.4182 -1.6745
24473SOL     OW74859   0.554   1.860  12.135 -0.4878  0.2111  0.0569
24473SOL    HW174860   0.593   1.930  12.187  0.4230 -0.3890  0.1908
24473SOL    HW274861   0.476   1.834  12.185 -0.9856  1.2860 -0.1244
24474SOL     OW74862   5.819   5.755   0.837 -0.0426 -0.6446 -0.0922
24474SOL    HW174863   5.871   5.695   0.890  1.4916 -0.6554 -1.5087
24474SOL    HW274864   5.815   5.836   0.888  0.7864 -0.8732  0.3560
24475SOL     OW74865   0.284   2.037   9.740  0.3337  0.1798 -0.0889
24475SOL    HW174866   0.354   1.974   9.722  1.2700  1.0431  0.3926
24475SOL    HW274867   0.220   1.988   9.791  1.3038 -0.2545  0.7540
24476SOL     OW74868   3.661   7.161   7.792 -0.2004  0.1060 -0.1671
24476SOL    HW174869   3.750   7.158   7.827 -0.4946 -1.8801  0.5687
24476SOL    HW274870   3.605   7.160   7.870 -0.8492 -1.3025 -0.6118
24477SOL     OW74871   3.163   5.486  10.688  0.1699 -0.3886 -0.1660
24477SOL    HW174872   3.145   5.550  10.619 -0.1776 -0.6682 -0.3403
24477SOL    HW274873   3.221   5.531  10.749  0.6775 -0.2178 -0.7665
24478SOL     OW74874   4.130   7.509  10.517  0.5581 -0.4011 -0.2224
24478SOL    HW174875   4.091   7.463  10.591 -0.4046 -0.2445 -0.6137
24478SOL    HW274876   4.148   7.440  10.453  1.1647 -0.5059  0.0581
24479SOL     OW74877   7.545   4.727   6.437  0.3850  0.0777  0.4512
24479SOL    HW174878   7.579   4.801   6.387  1.5557 -0.8584 -0.1978
24479SOL    HW274879   7.496   4.675   6.373  2.4767 -1.4980  0.0107
24480SOL     OW74880   0.070   3.038   9.763 -0.1815 -0.3291  0.0690
24480SOL    HW174881   0.129   3.017   9.835  0.1678 -0.5560 -0.2774
24480SOL    HW274882   0.005   2.968   9.763  0.0725 -0.5663 -0.1079
24481SOL     OW74883   6.440   3.592   1.092 -0.4086 -0.3899 -0.3911
24481SOL    HW174884   6.457   3.616   1.002  1.6483 -2.6014 -0.6782
24481SOL    HW274885   6.526   3.590   1.134 -1.2632  0.1180  1.5279
24482SOL     OW74886   3.727   5.453   3.536  0.0791  0.6874  0.2694
24482SOL    HW174887   3.753   5.372   3.492  0.3183  0.5015  0.7453
24482SOL    HW274888   3.674   5.500   3.471  2.0367  1.3309 -0.9395
24483SOL     OW74889   5.470   5.109  11.485 -0.2328 -0.3352 -0.1865
24483SOL    HW174890   5.385   5.129  11.444 -1.6675 -1.0914  2.2374
24483SOL    HW274891   5.451   5.101  11.578  2.3387 -1.6484  0.3193
24484SOL     OW74892   6.359   2.740   1.968 -0.5868  0.0932 -0.0178
24484SOL    HW174893   6.289   2.730   1.904 -0.4891 -0.4264 -0.0485
24484SOL    HW274894   6.314   2.765   2.049 -0.8367 -0.4930  0.0280
24485SOL     OW74895   5.240   3.756  11.024 -0.4289  0.2285 -0.0230
24485SOL    HW174896   5.314   3.711  10.982 -1.1509 -0.5050 -0.5328
24485SOL    HW274897   5.240   3.723  11.113  0.2810  0.7706  0.1928
24486SOL     OW74898   6.312   0.623   4.803 -0.6420  0.1046  0.1305
24486SOL    HW174899   6.290   0.548   4.748 -2.1299  1.2788 -0.9703
24486SOL    HW274900   6.362   0.681   4.746  1.1207 -0.3020  1.1775
24487SOL     OW74901   4.471   4.105   3.798  0.4723 -0.7215  0.4264
24487SOL    HW174902   4.401   4.125   3.735  0.9987 -0.1515  0.0174
24487SOL    HW274903   4.510   4.024   3.765  0.7181 -0.4481  0.0420
24488SOL     OW74904   7.737   6.161  11.831 -0.6836  0.2644  0.2410
24488SOL    HW174905   7.733   6.250  11.865  0.4892  0.1114  0.8468
24488SOL    HW274906   7.810   6.162  11.769  0.2841 -0.6051  1.3360
24489SOL     OW74907   2.512   2.697  10.517 -0.4344  0.0199  0.2217
24489SOL    HW174908   2.541   2.709  10.608 -0.0339 -0.7222  0.1975
24489SOL    HW274909   2.460   2.617  10.519  0.0545 -0.3183 -0.3069
24490SOL     OW74910   2.587   6.594  10.914 -0.2596  0.3552  0.3903
24490SOL    HW174911   2.535   6.523  10.953 -2.1913  1.5659  0.1464
24490SOL    HW274912   2.538   6.619  10.836  0.7985  1.4528  0.0639
24491SOL     OW74913   7.311   6.252   2.442  0.5731  0.0358 -0.0308
24491SOL    HW174914   7.396   6.237   2.482 -0.1418  0.9148  1.9439
24491SOL    HW274915   7.331   6.286   2.355  2.1888 -2.7190 -0.8305
24492SOL     OW74916   6.608   3.012   0.681 -0.2023  0.0977  0.3165
24492SOL    HW174917   6.670   3.062   0.627  0.1629 -0.1027  0.5466
24492SOL    HW274918   6.663   2.961   0.740 -0.5933  0.5431  1.0964
24493SOL     OW74919   5.808   4.225   5.894 -0.4499 -0.2431 -0.1519
24493SOL    HW174920   5.873   4.186   5.953  1.0409  1.5420 -0.5195
24493SOL    HW274921   5.840   4.203   5.806 -0.7970 -0.0338 -0.3338
24494SOL     OW74922   0.725   2.335   0.509  0.0930 -0.6187 -0.4187
24494SOL    HW174923   0.817   2.322   0.485  0.9641  2.2604  0.9620
24494SOL    HW274924   0.722   2.317   0.603 -1.1433 -2.1058 -0.6942
24495SOL     OW74925   4.148   1.914   3.153 -0.5352 -0.0138  0.0018
24495SOL    HW174926   4.160   1.821   3.169 -1.4890 -0.1969 -0.2388
24495SOL    HW274927   4.151   1.954   3.240 -1.6403 -0.4768  0.2680
24496SOL     OW74928   4.963   2.871   4.211  0.3686  0.0222 -0.3805
24496SOL    HW174929   5.021   2.796   4.208  1.8898  1.1711 -1.7783
24496SOL    HW274930   4.948   2.888   4.304  2.4756 -0.1879  0.0377
24497SOL     OW74931   2.901   3.513  10.699  0.2758  0.5377  0.0754
24497SOL    HW174932   2.828   3.459  10.668  0.0061 -1.4949  3.6875
24497SOL    HW274933   2.860   3.596  10.723 -0.5220  0.1499  0.1283
24498SOL     OW74934   1.828   0.490   0.134 -0.4740 -0.5319 -0.3618
24498SOL    HW174935   1.923   0.475   0.139 -0.6597 -1.6166  0.1244
24498SOL    HW274936   1.789   0.403   0.145 -1.6780  0.2927  3.8807
24499SOL     OW74937   4.766   2.357   6.884 -0.1787  0.3811 -0.4919
24499SOL    HW174938   4.799   2.381   6.798 -0.9091  0.9532 -0.6163
24499SOL    HW274939   4.762   2.261   6.882 -0.3209  0.3976 -1.1413
24500SOL     OW74940   6.724   6.686   6.194 -0.0914  0.1431  0.2669
24500SOL    HW174941   6.737   6.617   6.258 -1.5206 -1.0760 -0.6937
24500SOL    HW274942   6.743   6.767   6.242  2.7756 -0.9090  1.1085
24501SOL     OW74943   2.055   4.702   1.011  0.1322  0.1964  0.5631
24501SOL    HW174944   2.099   4.656   0.939 -2.1481 -1.2578  0.0002
24501SOL    HW274945   2.033   4.633   1.074 -2.3398  0.6324  0.2692
24502SOL     OW74946   5.192   0.210   5.491  0.2673 -0.0144 -0.2027
24502SOL    HW174947   5.104   0.191   5.524 -0.4003  0.1399 -1.8329
24502SOL    HW274948   5.212   0.138   5.432  0.4418  0.8884 -1.2889
24503SOL     OW74949   6.255   0.579   4.325  0.1213  0.1280  0.0427
24503SOL    HW174950   6.279   0.631   4.248  2.1139  0.5339  0.8736
24503SOL    HW274951   6.296   0.494   4.311  1.3347  0.5155  1.0622
24504SOL     OW74952   6.750   4.934   6.386 -0.2171  0.4260 -0.0219
24504SOL    HW174953   6.742   4.898   6.474  0.1818 -0.3265 -0.2802
24504SOL    HW274954   6.660   4.947   6.357 -0.3751 -0.4217  0.0652
24505SOL     OW74955   0.967   7.565   0.327 -0.2827  0.7855 -0.3413
24505SOL    HW174956   0.972   7.645   0.381 -2.1087  0.9430 -0.3421
24505SOL    HW274957   0.997   7.592   0.241 -2.2065  1.9024 -0.7265
24506SOL     OW74958   4.021   7.026   4.929 -0.3812  0.5405  0.3832
24506SOL    HW174959   3.971   7.072   4.861  1.5121  0.6434 -1.0312
24506SOL    HW274960   4.018   6.934   4.902 -0.3948  0.4572  0.6710
24507SOL     OW74961   1.650   5.117   9.666 -0.0358 -1.0444 -0.3274
24507SOL    HW174962   1.689   5.058   9.731 -1.2201 -0.9029  0.5413
24507SOL    HW274963   1.556   5.115   9.684 -0.0397  2.4053  0.9347
24508SOL     OW74964   5.852   4.994   8.068  0.5221  0.4547 -0.1163
24508SOL    HW174965   5.845   4.908   8.110 -1.2085  1.0804  0.9585
24508SOL    HW274966   5.844   5.056   8.140  0.7974  1.5371 -1.0028
24509SOL     OW74967   2.459   6.841   8.990 -0.3319 -0.1216  0.5389
24509SOL    HW174968   2.399   6.812   8.921  1.5427  0.1204 -1.3267
24509SOL    HW274969   2.508   6.913   8.950  1.9597 -1.0415  1.5294
24510SOL     OW74970   3.602   3.711   5.836  0.0537 -0.0807  0.4659
24510SOL    HW174971   3.624   3.759   5.915  0.0614  0.1764  0.3088
24510SOL    HW274972   3.542   3.642   5.865 -2.6026  1.9833  0.2293
24511SOL     OW74973   2.870   0.697   3.066  0.4904  0.5179 -0.3775
24511SOL    HW174974   2.887   0.630   3.000  0.0352 -2.6630  2.4615
24511SOL    HW274975   2.954   0.710   3.109 -0.0771 -1.0158  1.3487
24512SOL     OW74976   3.931   5.881   0.787 -0.0043 -0.0019  0.2003
24512SOL    HW174977   3.848   5.876   0.833 -0.8870 -0.3597 -1.3463
24512SOL    HW274978   3.932   5.968   0.748  0.7653  0.3264  0.9103
24513SOL     OW74979   3.733   6.852   7.430 -0.1796  0.1983 -0.2418
24513SOL    HW174980   3.694   6.874   7.515  0.5742  1.5363 -0.2043
24513SOL    HW274981   3.827   6.862   7.445 -0.0629  0.9072 -1.3477
24514SOL     OW74982   0.972   7.303   2.075  0.3131  0.1612  0.5906
24514SOL    HW174983   0.961   7.291   1.981  1.0540 -2.0896  0.7395
24514SOL    HW274984   1.050   7.357   2.084  1.3407 -1.1763 -0.0748
24515SOL     OW74985   0.431   4.946   0.565 -0.1663  0.3748 -0.0101
24515SOL    HW174986   0.403   5.034   0.541 -2.3571 -0.6172 -1.3715
24515SOL    HW274987   0.422   4.943   0.660  2.9834  2.5225  0.5085
24516SOL     OW74988   6.863   2.381   1.520  0.5890 -0.0968  0.5630
24516SOL    HW174989   6.835   2.319   1.588  0.9714 -1.5962 -0.5878
24516SOL    HW274990   6.956   2.363   1.509  1.3941  2.6252  2.1006
24517SOL     OW74991   5.289   4.702  10.873  0.3462  0.3954  0.3349
24517SOL    HW174992   5.276   4.659  10.789 -1.4069 -2.2687  1.8152
24517SOL    HW274993   5.382   4.723  10.875  0.6711 -0.5683 -1.7609
24518SOL     OW74994   3.331   6.130   1.939 -0.4881  0.0744  0.1358
24518SOL    HW174995   3.312   6.222   1.961 -2.7582 -0.4627  0.6450
24518SOL    HW274996   3.387   6.100   2.010  0.7236  1.1780 -0.3063
24519SOL     OW74997   6.806   3.938  10.959 -0.9184  0.3763  0.2586
24519SOL    HW174998   6.839   3.849  10.969 -0.4410  0.7329  2.4351
24519SOL    HW274999   6.721   3.937  11.002 -0.7010  1.0643  0.7292
24520SOL     OW75000   2.499   0.507  11.517 -0.3347 -0.1728 -0.1379
24520SOL    HW175001   2.501   0.555  11.600  0.3699 -0.0620 -0.2081
24520SOL    HW275002   2.407   0.489  11.501 -0.8345  2.5102 -0.8635
24521SOL     OW75003   6.864   0.089   6.733  0.3661 -0.1220 -0.0266
24521SOL    HW175004   6.880   0.053   6.821  0.3033  0.0945  0.0737
24521SOL    HW275005   6.829   0.014   6.684 -1.3072  0.1731  0.6303
24522SOL     OW75006   7.311   0.039   9.263 -0.0739 -0.4331  0.0643
24522SOL    HW175007   7.316   0.058   9.170  2.2488  1.0361  0.3891
24522SOL    HW275008   7.348  -0.049   9.271 -3.0672 -1.8562 -0.6201
24523SOL     OW75009   1.091   2.209   6.203 -0.4737 -0.2659  0.0137
24523SOL    HW175010   1.014   2.156   6.182 -1.0870  0.7315 -0.3360
24523SOL    HW275011   1.155   2.187   6.136 -0.2420 -1.4971  0.6136
24524SOL     OW75012   2.418   5.661   4.137 -0.0723  1.0572 -0.0423
24524SOL    HW175013   2.360   5.698   4.070 -0.0221  1.0285 -0.1016
24524SOL    HW275014   2.417   5.726   4.208 -1.3861  0.3510  0.6158
24525SOL     OW75015   5.523   6.171  10.563 -0.3605 -0.1208  0.3395
24525SOL    HW175016   5.571   6.156  10.482 -1.9125 -1.3783 -0.4080
24525SOL    HW275017   5.567   6.114  10.627  0.6014  0.5506  0.2971
24526SOL     OW75018   2.977   7.466   5.839  0.0328 -0.4145  0.5079
24526SOL    HW175019   3.006   7.510   5.919 -0.2945  1.9620 -0.5900
24526SOL    HW275020   3.058   7.444   5.794  0.2677 -2.8109  1.9140
24527SOL     OW75021   5.116   0.183  11.097 -0.7036 -0.1792 -0.1726
24527SOL    HW175022   5.062   0.262  11.103 -0.4106  0.0562 -0.5319
24527SOL    HW275023   5.057   0.111  11.116 -1.1029  0.0896 -0.3841
24528SOL     OW75024   2.080   5.855   3.474 -0.0211 -0.9361 -0.4797
24528SOL    HW175025   2.062   5.947   3.453  1.0092 -0.3475  1.0245
24528SOL    HW275026   1.994   5.816   3.487 -0.4721 -0.1612 -1.0238
24529SOL     OW75027   2.878   0.727   3.809 -0.2739  0.4378  0.4895
24529SOL    HW175028   2.971   0.709   3.805  0.1521  2.2494  0.9665
24529SOL    HW275029   2.837   0.643   3.826  1.2583 -0.4015  0.1598
24530SOL     OW75030   3.026   6.952  10.217 -0.3676 -0.1362  0.5144
24530SOL    HW175031   2.956   6.946  10.152  1.0699 -1.6523 -1.0213
24530SOL    HW275032   3.079   6.874  10.201  1.5151  0.8154  1.7849
24531SOL     OW75033   6.632   4.076   9.193 -0.1302 -0.7866 -0.1117
24531SOL    HW175034   6.631   4.031   9.108  0.0835 -1.0220  0.0093
24531SOL    HW275035   6.722   4.109   9.201 -0.9216  2.0341 -1.4367
24532SOL     OW75036   0.317   7.245  10.235  0.0355 -0.3654 -0.4005
24532SOL    HW175037   0.377   7.183  10.277 -1.0188 -0.7332  0.6156
24532SOL    HW275038   0.230   7.216  10.263 -0.4375  3.1784  2.5118
24533SOL     OW75039   5.653   7.879   0.717 -1.1555  0.0759 -0.5023
24533SOL    HW175040   5.584   7.821   0.684 -1.5424  0.8542 -1.0924
24533SOL    HW275041   5.650   7.868   0.812 -2.7880  0.8609 -0.4393
24534SOL     OW75042   7.796   1.515  11.311 -0.1596 -0.3199  0.2401
24534SOL    HW175043   7.712   1.553  11.335  0.8587  2.1613  0.1461
24534SOL    HW275044   7.793   1.509  11.215  0.3752  1.4199  0.0842
24535SOL     OW75045   4.471   4.409   3.308  0.0414  0.0638 -0.0565
24535SOL    HW175046   4.414   4.486   3.311 -0.5228 -0.3622  0.8866
24535SOL    HW275047   4.516   4.409   3.393  1.5099  0.4167 -0.8076
24536SOL     OW75048   0.241   6.917   9.887 -0.3129  0.9459 -0.0416
24536SOL    HW175049   0.227   6.900   9.793 -1.5961 -2.1037  0.5597
24536SOL    HW275050   0.221   6.833   9.929  2.1975  1.6249  2.8241
24537SOL     OW75051   5.789   4.546   5.853  1.1514  0.5863 -0.0881
24537SOL    HW175052   5.813   4.587   5.770  0.0491 -1.0125 -1.2548
24537SOL    HW275053   5.778   4.453   5.831  0.9853  0.1008  1.8897
24538SOL     OW75054   0.614   0.643   9.471  0.0425 -0.0123 -0.3094
24538SOL    HW175055   0.578   0.638   9.382 -0.1049  3.3203 -0.5807
24538SOL    HW275056   0.559   0.585   9.523 -1.6913  0.1090 -1.9055
24539SOL     OW75057   0.597   6.486  11.897 -0.6250  0.1768 -0.2208
24539SOL    HW175058   0.632   6.542  11.828  2.6350  1.1552  1.9647
24539SOL    HW275059   0.628   6.526  11.978  1.4738 -4.3418  1.5382
24540SOL     OW75060   5.042   5.088  10.634 -0.5677 -0.3925 -0.3392
24540SOL    HW175061   5.092   5.050  10.562 -0.0742 -1.3836  0.5116
24540SOL    HW275062   5.029   5.017  10.696  0.7853  0.8768  1.5270
24541SOL     OW75063   3.056   0.778   9.807  0.2872 -0.0111 -0.5046
24541SOL    HW175064   3.105   0.813   9.733 -0.7797  2.9709  0.0589
24541SOL    HW275065   2.966   0.771   9.775 -0.2527  1.6242  0.5371
24542SOL     OW75066   4.128   3.648  11.993  0.3919 -0.0415 -0.0983
24542SOL    HW175067   4.108   3.559  11.967  0.7483 -0.9898  2.5150
24542SOL    HW275068   4.223   3.649  12.006  0.3849  0.7026 -0.0384
24543SOL     OW75069   0.603   1.298   1.688 -0.2559 -0.0689  0.3175
24543SOL    HW175070   0.587   1.279   1.595 -0.8155  0.6531  0.2600
24543SOL    HW275071   0.677   1.241   1.711  0.0683 -0.0604 -0.6415
24544SOL     OW75072   3.050   3.765   9.549  0.2097 -0.2578  0.1084
24544SOL    HW175073   3.141   3.738   9.537  0.7579  1.9627 -1.3036
24544SOL    HW275074   3.056   3.847   9.598 -1.1417 -0.7633  1.1808
24545SOL     OW75075   3.069   7.041   6.178 -0.3554  0.2559 -0.4217
24545SOL    HW175076   3.126   7.117   6.169  1.8371 -1.0918  1.1012
24545SOL    HW275077   3.057   7.031   6.272  0.3719 -1.9013 -0.4990
24546SOL     OW75078   7.296   5.108   2.663 -0.0002  0.1050 -1.0182
24546SOL    HW175079   7.202   5.100   2.649  0.1722 -3.1590 -1.0196
24546SOL    HW275080   7.324   5.172   2.597 -1.8535 -0.9683 -2.9898
24547SOL     OW75081   4.991   7.820   1.004 -0.1556 -0.1928  0.1802
24547SOL    HW175082   5.042   7.757   1.054  0.3600 -0.6331 -0.8784
24547SOL    HW275083   4.902   7.786   1.005 -0.1214 -0.2712  0.6686
24548SOL     OW75084   4.038   1.237   3.665 -0.3750  0.3930  0.2009
24548SOL    HW175085   4.050   1.239   3.570 -1.6848 -1.6550 -0.0863
24548SOL    HW275086   4.020   1.328   3.689  0.8341  1.0894 -1.3710
24549SOL     OW75087   5.470   0.528   3.289  0.1382  0.2420 -0.9338
24549SOL    HW175088   5.392   0.473   3.291 -0.1867  0.5079 -3.3627
24549SOL    HW275089   5.520   0.498   3.213  1.1045  1.7691 -0.9618
24550SOL     OW75090   4.987   4.777   4.404 -0.3417 -0.1662  0.3686
24550SOL    HW175091   4.903   4.733   4.415 -0.8499  1.0067  1.3355
24550SOL    HW275092   5.021   4.788   4.493  1.0146 -0.9296 -0.0193
24551SOL     OW75093   3.185   6.710   7.473 -0.3098 -0.1359  0.4639
24551SOL    HW175094   3.128   6.691   7.398  0.3471  0.8237 -0.3079
24551SOL    HW275095   3.245   6.778   7.441  0.8556 -0.6593  1.4454
24552SOL     OW75096   1.665   4.032   6.223  0.3405  0.1703  0.7218
24552SOL    HW175097   1.588   4.066   6.179 -0.4052  0.7876  2.3899
24552SOL    HW275098   1.647   3.938   6.234 -0.5886  0.4460  1.8121
24553SOL     OW75099   0.126   0.912  12.126  0.3295  0.2024 -0.1236
24553SOL    HW175100   0.159   0.965  12.198 -0.0061 -0.5584  0.5987
24553SOL    HW275101   0.031   0.913  12.137  0.3750 -1.5452  0.6215
24554SOL     OW75102   5.177   2.733   2.418 -0.1922  0.2776 -0.0223
24554SOL    HW175103   5.109   2.784   2.373  1.3512  1.7492 -0.7938
24554SOL    HW275104   5.172   2.646   2.379 -2.0612  0.1378  0.4253
24555SOL     OW75105   0.783   4.133   2.527  0.2226 -0.1262  0.2874
24555SOL    HW175106   0.784   4.185   2.608 -1.4847  1.0576 -0.3921
24555SOL    HW275107   0.845   4.062   2.543  1.2812  1.1018  1.9506
24556SOL     OW75108   6.784   2.124   6.105 -0.7141  0.0419  0.3556
24556SOL    HW175109   6.764   2.069   6.181 -1.2986 -0.0134  0.1642
24556SOL    HW275110   6.699   2.148   6.070 -0.4498  0.5037  0.0266
24557SOL     OW75111   5.001   2.014  11.835 -0.0929 -0.3701 -0.1011
24557SOL    HW175112   5.084   1.975  11.810  0.4721  0.3022  0.6490
24557SOL    HW275113   4.946   1.940  11.861  0.8331 -0.7135  0.9731
24558SOL     OW75114   6.765   4.955  11.612  0.6035  0.0493  0.0368
24558SOL    HW175115   6.733   4.865  11.606  1.7875 -0.5058  1.3843
24558SOL    HW275116   6.748   4.992  11.525 -0.8419 -1.1301 -0.2292
24559SOL     OW75117   2.439   2.110   7.560 -0.2951  0.2450 -0.2738
24559SOL    HW175118   2.484   2.193   7.547 -0.1680  0.2344  0.0821
24559SOL    HW275119   2.509   2.048   7.581 -0.4695  0.2204  0.2433
24560SOL     OW75120   2.210   6.863   2.688  0.4757 -0.2812  0.0224
24560SOL    HW175121   2.278   6.928   2.668 -0.8855  1.1972 -0.0003
24560SOL    HW275122   2.242   6.783   2.647  1.7879  0.5925 -0.7646
24561SOL     OW75123   1.235   6.660   5.661 -0.4725  0.3688 -0.4300
24561SOL    HW175124   1.257   6.585   5.716  1.1540  0.6112 -0.6778
24561SOL    HW275125   1.246   6.627   5.571  0.4757  0.9463 -0.5361
24562SOL     OW75126   5.331   2.262  11.813  0.7844 -0.4830 -0.1064
24562SOL    HW175127   5.295   2.183  11.773  0.3098 -0.1883 -0.2782
24562SOL    HW275128   5.287   2.268  11.898  1.0648 -0.5811  0.0462
24563SOL     OW75129   7.624   7.354   6.673  0.3595 -0.5887 -0.4380
24563SOL    HW175130   7.589   7.356   6.584 -0.6451 -0.0540 -0.0458
24563SOL    HW275131   7.696   7.290   6.669 -0.2421 -1.2291 -1.4247
24564SOL     OW75132   7.907   4.665   8.064  0.4224  0.0301 -0.3676
24564SOL    HW175133   7.868   4.751   8.045  1.7411  0.7803  0.1720
24564SOL    HW275134   7.991   4.666   8.018  0.2073 -1.2258 -0.8364
24565SOL     OW75135   6.634   2.887   8.437  0.4865 -0.2650  0.3309
24565SOL    HW175136   6.679   2.948   8.495  0.6712 -0.7985  0.7637
24565SOL    HW275137   6.677   2.803   8.452  1.0105 -0.2895 -1.0949
24566SOL     OW75138   0.676   3.168   5.097  0.3591 -0.3363 -0.5596
24566SOL    HW175139   0.639   3.245   5.139 -1.7770 -1.4412 -0.2684
24566SOL    HW275140   0.767   3.192   5.078 -0.5866  2.7680 -1.8208
24567SOL     OW75141   2.198   0.738  10.602 -0.2914  0.2897 -0.0523
24567SOL    HW175142   2.255   0.760  10.528  0.2743 -0.2471  0.2115
24567SOL    HW275143   2.188   0.821  10.649 -0.3107  0.5437 -0.4887
24568SOL     OW75144   0.798   2.565   7.347  0.5145 -0.1505  0.1312
24568SOL    HW175145   0.706   2.591   7.338  0.3109 -0.3030  1.4790
24568SOL    HW275146   0.831   2.561   7.257 -0.3448  1.4837 -0.3093
24569SOL     OW75147   7.606   3.867  11.786 -0.4519 -0.3905  0.3857
24569SOL    HW175148   7.589   3.825  11.870 -0.5167 -1.3193 -0.0817
24569SOL    HW275149   7.661   3.942  11.808 -3.6049  1.7411  1.7622
24570SOL     OW75150   7.013   6.045   7.236 -0.7624 -0.0860 -0.7062
24570SOL    HW175151   6.997   6.111   7.303 -2.2604 -0.7893 -0.3459
24570SOL    HW275152   7.038   6.097   7.159 -0.9590  0.8474 -0.1656
24571SOL     OW75153   4.718   4.254   3.575 -0.2277 -0.4307 -0.1019
24571SOL    HW175154   4.766   4.320   3.625  0.6087  0.5847 -2.1309
24571SOL    HW275155   4.735   4.172   3.621  1.2659  0.3138  0.7517
24572SOL     OW75156   3.643   4.754   4.382 -0.0206  0.1059  0.2630
24572SOL    HW175157   3.561   4.800   4.367 -0.0072  0.4157  1.0719
24572SOL    HW275158   3.685   4.802   4.454  1.0288  0.1635 -0.3537
24573SOL     OW75159   4.917   0.492   2.300 -0.4454  0.2584 -0.4945
24573SOL    HW175160   4.975   0.418   2.286 -0.9209 -0.2330  0.0652
24573SOL    HW275161   4.975   0.569   2.295  0.2128 -0.2028 -0.1652
24574SOL     OW75162   3.709   2.449   0.322 -0.4996  0.5737 -0.4569
24574SOL    HW175163   3.615   2.435   0.335 -0.5246  1.2619  0.1702
24574SOL    HW275164   3.718   2.544   0.310  0.4084  0.9544  2.4566
24575SOL     OW75165   5.185   0.525   3.755  0.2025  0.2640  0.2229
24575SOL    HW175166   5.141   0.458   3.702  1.5855 -1.0777  0.7107
24575SOL    HW275167   5.155   0.608   3.718 -1.9854 -0.5842 -0.0640
24576SOL     OW75168   1.467   0.512   3.411  0.1013  0.1316  0.2630
24576SOL    HW175169   1.479   0.490   3.318  1.8353 -0.4685  0.5920
24576SOL    HW275170   1.493   0.604   3.417  0.0565  0.1509  0.1745
24577SOL     OW75171   0.634   5.542   6.866 -0.7118 -0.5318 -0.1389
24577SOL    HW175172   0.648   5.636   6.876  0.6819 -0.7712  0.3671
24577SOL    HW275173   0.673   5.520   6.782  1.5604 -1.0787  0.9584
24578SOL     OW75174   1.457   4.166   7.966 -0.4398 -0.1296  0.0423
24578SOL    HW175175   1.514   4.095   7.936 -0.8421 -1.1394  1.5769
24578SOL    HW275176   1.517   4.237   7.989  0.1374 -0.8425  0.7722
24579SOL     OW75177   4.482   6.806   5.454  0.2264 -0.0207 -0.1477
24579SOL    HW175178   4.421   6.737   5.426  2.4606 -1.9486 -0.5678
24579SOL    HW275179   4.501   6.855   5.374  0.2797 -0.2907 -0.3007
24580SOL     OW75180   6.909   5.290   4.662 -0.4361  0.1212  0.6132
24580SOL    HW175181   6.849   5.346   4.614 -0.7148  0.1915  1.0400
24580SOL    HW275182   6.858   5.212   4.684 -0.2276 -0.0362  0.5511
24581SOL     OW75183   6.310   0.490   2.317  0.2712 -0.4632  0.7944
24581SOL    HW175184   6.240   0.439   2.277  1.5000 -0.8276 -1.0380
24581SOL    HW275185   6.311   0.462   2.408 -2.0294 -0.3191  0.9182
24582SOL     OW75186   0.361   3.556   3.290  0.1855  0.5310  0.6993
24582SOL    HW175187   0.350   3.650   3.302 -0.9080  0.4369  0.5475
24582SOL    HW275188   0.329   3.539   3.201 -0.4074 -0.0951  1.0239
24583SOL     OW75189   3.272   5.327   2.516  0.1225 -0.5235  0.2522
24583SOL    HW175190   3.343   5.283   2.470  0.8673  0.7895  0.0864
24583SOL    HW275191   3.316   5.397   2.565 -1.0866  0.5451 -0.1389
24584SOL     OW75192   3.719   2.593   4.956  0.0336  0.4236  0.3560
24584SOL    HW175193   3.637   2.548   4.974 -0.4176  1.0849 -0.0126
24584SOL    HW275194   3.695   2.686   4.950  1.2799  1.0808  3.4873
24585SOL     OW75195   6.543   6.610   3.986  0.1392  0.4474  0.0976
24585SOL    HW175196   6.623   6.588   4.034  1.5212  1.3147 -1.6951
24585SOL    HW275197   6.503   6.526   3.965  0.9758 -0.0195  0.3600
24586SOL     OW75198   7.856   7.268  11.164 -0.5375  0.2587 -0.7393
24586SOL    HW175199   7.845   7.310  11.249 -0.1447  0.2103 -0.6635
24586SOL    HW275200   7.921   7.200  11.179 -2.1880 -1.3314 -0.5273
24587SOL     OW75201   4.174   5.950   1.133 -0.0670 -0.7338  0.1467
24587SOL    HW175202   4.151   6.036   1.098  0.3396 -0.4263  0.6162
24587SOL    HW275203   4.227   5.909   1.064  1.7393  0.3321  0.8278
24588SOL     OW75204   2.595   5.930  11.307  0.1970 -0.6882  0.4927
24588SOL    HW175205   2.672   5.873  11.302  1.1596  0.2763  2.7387
24588SOL    HW275206   2.612   5.986  11.383 -2.2874  0.2355  0.4569
24589SOL     OW75207   6.502   3.240   2.312  0.1580  0.6399 -0.1315
24589SOL    HW175208   6.492   3.302   2.240 -1.9457  1.0918  0.4737
24589SOL    HW275209   6.559   3.284   2.374  1.7588  0.3635 -1.3510
24590SOL     OW75210   4.251   0.516   6.959  0.2963  0.0607 -0.1266
24590SOL    HW175211   4.212   0.437   6.922 -0.5118  0.2522  0.2978
24590SOL    HW275212   4.200   0.587   6.920  1.0343  0.3849 -0.5279
24591SOL     OW75213   5.969   0.270   8.853  0.2405  0.4037  0.4991
24591SOL    HW175214   6.039   0.275   8.787  1.3059 -1.0951  1.4499
24591SOL    HW275215   5.995   0.333   8.920 -0.2521  1.1105  0.0354
24592SOL     OW75216   7.464   1.782   2.559  0.0179  0.0682 -0.2303
24592SOL    HW175217   7.526   1.756   2.491 -1.1573 -1.1530 -0.8878
24592SOL    HW275218   7.421   1.701   2.585  0.8757  0.3646  2.5025
24593SOL     OW75219   5.873   3.228   4.752  0.4493  0.0469 -0.2279
24593SOL    HW175220   5.830   3.312   4.736 -0.6460 -0.7709 -1.8104
24593SOL    HW275221   5.823   3.190   4.825  0.5811  0.4941  0.1050
24594SOL     OW75222   5.669   3.930   8.835 -0.0770 -0.1480 -0.6179
24594SOL    HW175223   5.676   3.835   8.821 -0.3709 -0.0697 -1.3695
24594SOL    HW275224   5.692   3.968   8.751 -1.4872  0.3857 -0.7974
24595SOL     OW75225   6.886   4.014   9.938 -0.5209 -0.0662 -0.2245
24595SOL    HW175226   6.909   3.934   9.891 -0.8451 -0.7558  0.7685
24595SOL    HW275227   6.860   4.075   9.868  1.1814 -0.2977 -1.1046
24596SOL     OW75228   0.877   1.943   3.205  0.0701 -0.8200  0.2973
24596SOL    HW175229   0.787   1.913   3.193 -0.2304  0.4082 -0.7102
24596SOL    HW275230   0.922   1.917   3.125  0.1570  0.1115  0.0359
24597SOL     OW75231   5.047   3.855   0.101  0.1373 -0.1817  0.8509
24597SOL    HW175232   4.954   3.851   0.078  0.2116 -0.7349  0.6417
24597SOL    HW275233   5.077   3.764   0.095  1.2429  0.2855 -1.2996
24598SOL     OW75234   4.733   7.227   7.924  0.5309 -0.0347 -0.4072
24598SOL    HW175235   4.823   7.211   7.953  1.6543  1.2700 -2.8723
24598SOL    HW275236   4.725   7.322   7.922 -0.5572 -0.1208 -1.1852
24599SOL     OW75237   2.544   1.444  10.113  0.2414  0.0473 -0.1929
24599SOL    HW175238   2.459   1.489  10.115  0.7750  1.3330 -2.5900
24599SOL    HW275239   2.607   1.512  10.090  1.6201 -1.2950 -0.5529
24600SOL     OW75240   6.301   3.321   9.674 -0.0956  0.6772 -0.1946
24600SOL    HW175241   6.213   3.328   9.710 -0.3403  1.2290 -0.8689
24600SOL    HW275242   6.359   3.334   9.749 -0.5893  0.9713  0.1440
24601SOL     OW75243   4.302   5.085   0.808 -0.8248  0.2613 -0.3150
24601SOL    HW175244   4.258   5.031   0.742 -0.0482 -0.4294 -0.2855
24601SOL    HW275245   4.380   5.034   0.832 -1.2842  0.3115  1.4097
24602SOL     OW75246   3.160   3.014   8.463 -0.2181  0.4022 -0.1821
24602SOL    HW175247   3.172   3.084   8.400  2.5882 -1.0936 -1.4871
24602SOL    HW275248   3.223   3.033   8.533  0.2039 -0.5335 -0.2957
24603SOL     OW75249   7.894   4.093   8.841  0.0334 -0.4769  0.1385
24603SOL    HW175250   7.916   4.164   8.900 -1.3503 -1.4457  1.9192
24603SOL    HW275251   7.923   4.123   8.755  1.8390  1.1117  1.2350
24604SOL     OW75252   0.922   6.154   1.673 -0.2156  0.0011  0.2291
24604SOL    HW175253   0.952   6.091   1.739 -1.2269 -0.9141 -0.1466
24604SOL    HW275254   0.997   6.164   1.614  0.8375  1.1316  1.6848
24605SOL     OW75255   1.873   0.397   2.569  0.0729  0.5135 -0.6082
24605SOL    HW175256   1.852   0.424   2.658 -0.2725 -1.1368 -0.1489
24605SOL    HW275257   1.798   0.423   2.517  0.1259  1.1788 -0.3650
24606SOL     OW75258   7.113   1.058   3.724 -0.4382 -0.3417  0.4534
24606SOL    HW175259   7.035   1.053   3.779 -0.8027  0.1314 -0.0072
24606SOL    HW275260   7.172   0.991   3.759  0.1313  1.1822  2.6174
24607SOL     OW75261   3.540   3.509   4.900 -0.1110 -0.2713 -0.2956
24607SOL    HW175262   3.508   3.460   4.824 -2.2217 -0.5818  0.7319
24607SOL    HW275263   3.464   3.519   4.956  1.3331  0.1842  1.6874
24608SOL     OW75264   1.420   5.159   2.537 -0.0044 -0.4157 -0.0502
24608SOL    HW175265   1.467   5.168   2.620  1.0230  0.4869 -0.7079
24608SOL    HW275266   1.487   5.175   2.470 -0.8184 -1.1186 -1.0605
24609SOL     OW75267   6.140   5.945   8.550 -0.0880  0.4346 -0.2343
24609SOL    HW175268   6.048   5.947   8.578 -0.0812  0.4637 -0.2149
24609SOL    HW275269   6.186   5.905   8.623 -0.0507  0.6358 -0.1464
24610SOL     OW75270   2.848   6.005   1.420  0.0695  0.1980 -0.0875
24610SOL    HW175271   2.765   6.041   1.451  0.0830  1.5679 -1.5219
24610SOL    HW275272   2.833   5.910   1.418 -0.0366  0.0072  3.5537
24611SOL     OW75273   3.720   6.095   7.335 -0.1515  0.1331  0.8458
24611SOL    HW175274   3.648   6.159   7.340 -2.1527 -1.8887 -0.1544
24611SOL    HW275275   3.738   6.086   7.242 -0.4749 -1.2909  0.8971
24612SOL     OW75276   4.609   7.365  11.391 -0.0859  0.4422 -0.4943
24612SOL    HW175277   4.555   7.419  11.449  0.7373  1.9221 -1.0647
24612SOL    HW275278   4.686   7.343  11.443  0.0201  0.6120 -0.5814
24613SOL     OW75279   1.504   2.240   5.021  0.0749 -0.4494  0.0762
24613SOL    HW175280   1.483   2.334   5.014 -1.8681 -0.7842  0.7752
24613SOL    HW275281   1.513   2.225   5.115  0.3089 -0.9756 -0.0307
24614SOL     OW75282   4.919   5.273   1.371  0.1701 -0.9281  0.4903
24614SOL    HW175283   4.830   5.307   1.355  0.1366 -1.0779  0.3479
24614SOL    HW275284   4.961   5.277   1.285  0.8669  0.7432  0.8713
24615SOL     OW75285   5.083   2.538   6.535  0.3772 -0.9089  0.0409
24615SOL    HW175286   5.001   2.503   6.569 -0.5719  2.3008  1.4660
24615SOL    HW275287   5.151   2.493   6.585 -0.7403 -0.6487  1.8657
24616SOL     OW75288   1.324   1.059   4.092 -0.0365  0.0441 -0.5944
24616SOL    HW175289   1.234   1.040   4.117 -0.6880  2.3253 -0.9362
24616SOL    HW275290   1.342   1.000   4.019 -1.4197 -0.1014 -0.8404
24617SOL     OW75291   7.189   3.248   5.260 -0.1867 -0.7711 -0.0261
24617SOL    HW175292   7.237   3.331   5.260 -0.7777 -0.3906  1.7801
24617SOL    HW275293   7.250   3.185   5.223  1.2730 -0.0581  1.0807
24618SOL     OW75294   6.173   6.275   5.116 -0.3092 -0.2027 -0.1507
24618SOL    HW175295   6.223   6.238   5.044 -0.6255 -1.4149  0.2232
24618SOL    HW275296   6.206   6.230   5.194 -0.8153  0.1924  0.3021
24619SOL     OW75297   5.722   1.720   2.339 -0.4264  0.1080 -0.2742
24619SOL    HW175298   5.769   1.758   2.414 -1.6739  0.3295  0.4265
24619SOL    HW275299   5.786   1.720   2.268  1.0779 -0.8807  1.0044
24620SOL     OW75300   4.462   3.703  10.969  0.2699 -0.6274  0.0791
24620SOL    HW175301   4.534   3.696  10.906  0.0724 -0.7151 -0.1339
24620SOL    HW275302   4.505   3.728  11.051  0.4726 -0.0702 -0.1943
24621SOL     OW75303   0.630   5.065   8.448 -0.0116 -0.1202  0.6376
24621SOL    HW175304   0.598   5.135   8.392  1.0925  0.9958  1.3261
24621SOL    HW275305   0.566   5.060   8.519 -0.0720  0.2556  0.6150
24622SOL     OW75306   6.696   6.747   3.606  0.4898  0.2022 -0.4271
24622SOL    HW175307   6.636   6.692   3.555  1.1056  0.8310 -1.9032
24622SOL    HW275308   6.642   6.784   3.676 -0.0167 -1.9808  0.4066
24623SOL     OW75309   2.690   7.233  10.046  0.1961 -0.1132 -0.2868
24623SOL    HW175310   2.632   7.249   9.971  2.0431 -0.0163 -1.7931
24623SOL    HW275311   2.746   7.311  10.049 -0.5133  0.3614  1.9084
24624SOL     OW75312   1.614   4.793  11.808  0.4307  0.5545 -0.5930
24624SOL    HW175313   1.611   4.889  11.815 -0.9958  0.5079 -0.3737
24624SOL    HW275314   1.606   4.775  11.715  2.0966  0.6627 -0.7913
24625SOL     OW75315   3.812   3.119   2.482  0.2772  0.4197  0.2245
24625SOL    HW175316   3.734   3.107   2.536 -0.7346  1.2810 -1.0089
24625SOL    HW275317   3.883   3.083   2.536 -1.1351 -1.7064  0.7906
24626SOL     OW75318   2.010   0.244   2.758  0.3127  0.4830  0.0635
24626SOL    HW175319   1.972   0.286   2.681  0.5029 -1.4721 -1.1747
24626SOL    HW275320   1.940   0.247   2.824 -1.4894 -1.5479 -1.6030
24627SOL     OW75321   4.496   7.866   7.257  0.5644 -0.4998 -0.2804
24627SOL    HW175322   4.425   7.929   7.272  0.9095 -0.3016  0.6268
24627SOL    HW275323   4.471   7.820   7.177 -1.2343 -1.3226  0.6737
24628SOL     OW75324   0.467   0.378   1.378 -0.5662  0.2224  0.1079
24628SOL    HW175325   0.459   0.414   1.466  2.8179  0.9869  0.2462
24628SOL    HW275326   0.521   0.299   1.389 -0.8530 -0.1895 -1.1947
24629SOL     OW75327   4.886   0.052   2.076 -1.1826  0.5000 -0.4088
24629SOL    HW175328   4.976   0.019   2.081 -0.4042  2.3639 -0.9597
24629SOL    HW275329   4.837  -0.017   2.033 -0.0851 -0.6940  0.1945
24630SOL     OW75330   4.673   4.726   9.884 -0.1087  0.7597  0.1992
24630SOL    HW175331   4.636   4.719   9.796 -0.3696  0.3542  0.3406
24630SOL    HW275332   4.599   4.716   9.943  0.5643 -4.1812  0.6384
24631SOL     OW75333   0.367   6.223   8.052 -0.5418 -0.6955 -0.0633
24631SOL    HW175334   0.310   6.207   7.977 -1.5146  1.9227  0.0140
24631SOL    HW275335   0.452   6.190   8.025 -0.5198  1.3505 -2.9395
24632SOL     OW75336   0.713   3.600   4.733  0.1794 -0.4033  0.1925
24632SOL    HW175337   0.619   3.583   4.722  0.5330 -1.3916 -1.7587
24632SOL    HW275338   0.719   3.653   4.813 -2.0492 -0.0765  0.1983
24633SOL     OW75339   0.401   0.146  10.142  0.1468  0.4025 -0.2016
24633SOL    HW175340   0.447   0.129  10.060 -1.4957  1.4945 -1.4068
24633SOL    HW275341   0.331   0.081  10.145 -1.1379  1.6890 -0.8009
24634SOL     OW75342   3.965   2.412  11.172  0.5522  0.3227  0.0230
24634SOL    HW175343   3.910   2.420  11.250 -0.0719  1.1638 -0.4823
24634SOL    HW275344   4.020   2.491  11.173 -0.9622  1.4768 -1.4919
24635SOL     OW75345   1.614   5.492   8.178 -0.4923  0.3323  0.1873
24635SOL    HW175346   1.699   5.493   8.135 -1.2881 -2.1054 -1.6501
24635SOL    HW275347   1.554   5.529   8.114 -1.3575 -1.4028 -0.0721
24636SOL     OW75348   7.773   0.041   1.767 -0.1059  0.2431 -0.0527
24636SOL    HW175349   7.721   0.088   1.702  1.7364  0.3458 -1.5324
24636SOL    HW275350   7.749   0.081   1.851 -2.0884  0.5186 -0.7132
24637SOL     OW75351   3.181   6.851  11.272  0.3569 -0.1684  0.3288
24637SOL    HW175352   3.232   6.795  11.213  0.1800 -0.0134  0.0255
24637SOL    HW275353   3.245   6.911  11.309  0.5327 -0.5051  0.5830
24638SOL     OW75354   6.792   2.428   8.293  0.6260  0.0996  0.7634
24638SOL    HW175355   6.860   2.377   8.250 -0.3075 -0.9943  0.5246
24638SOL    HW275356   6.761   2.488   8.225 -0.0315 -0.8107  0.2323
24639SOL     OW75357   6.721   7.365   6.804 -0.0899  0.0283 -0.1563
24639SOL    HW175358   6.796   7.310   6.826 -0.5032 -0.8673 -0.9177
24639SOL    HW275359   6.670   7.313   6.741 -1.0973  0.8099 -0.0224
24640SOL     OW75360   0.337   1.209   3.064  0.4736  0.1300  1.0660
24640SOL    HW175361   0.415   1.235   3.112  1.3899  1.2493 -0.9085
24640SOL    HW275362   0.265   1.248   3.113  1.3424  1.0659  1.6556
24641SOL     OW75363   3.368   1.034   2.255  0.6904 -0.2430  0.2313
24641SOL    HW175364   3.390   1.098   2.187  1.5547 -1.8692 -1.1066
24641SOL    HW275365   3.450   0.988   2.271  0.3524 -0.2685  1.9982
24642SOL     OW75366   2.938   5.624   1.945 -0.0033 -0.8380 -0.1633
24642SOL    HW175367   2.899   5.623   2.033 -2.1591 -0.8327 -1.0409
24642SOL    HW275368   3.020   5.672   1.955 -0.8991  0.4489  1.5746
24643SOL     OW75369   2.041   1.814  10.153  0.4633 -0.1942 -0.0383
24643SOL    HW175370   1.957   1.778  10.180 -0.6386 -1.3052 -4.1743
24643SOL    HW275371   2.104   1.745  10.171 -0.2931 -1.0848 -0.6736
24644SOL     OW75372   5.049   6.923  10.601  0.2356  0.4878  0.0426
24644SOL    HW175373   4.970   6.910  10.653  0.9339 -0.1244  0.9689
24644SOL    HW275374   5.039   6.863  10.527 -1.8059  2.9252 -1.8464
24645SOL     OW75375   5.714   1.179   6.238  0.2142  0.0259 -0.6306
24645SOL    HW175376   5.747   1.114   6.301 -1.2222 -1.7055 -1.5658
24645SOL    HW275377   5.670   1.245   6.292  0.3304 -0.6148  0.2707
24646SOL     OW75378   6.600   0.447   6.584  0.1014 -0.1221  0.0583
24646SOL    HW175379   6.526   0.424   6.527  0.5923  0.0212 -0.6418
24646SOL    HW275380   6.614   0.541   6.569  0.1763 -0.0589  0.4914
24647SOL     OW75381   1.420   5.526   0.554  0.5956  0.5418  0.7995
24647SOL    HW175382   1.445   5.577   0.631 -0.0166  2.0221  0.0697
24647SOL    HW275383   1.342   5.570   0.521 -0.5101 -1.4370  0.6181
24648SOL     OW75384   7.642   0.093   8.651  0.1865  0.6791 -0.4901
24648SOL    HW175385   7.572   0.038   8.615  0.2559  0.7676 -0.7630
24648SOL    HW275386   7.700   0.031   8.696  0.7349  0.4050 -1.5402
24649SOL     OW75387   0.586   6.591   9.703 -0.4593  0.3862  0.2275
24649SOL    HW175388   0.576   6.540   9.784  0.6277 -1.2511 -0.6101
24649SOL    HW275389   0.507   6.572   9.653 -0.8983  0.9955  0.6805
24650SOL     OW75390   7.921   5.900   9.321 -0.4460  0.0822  0.6370
24650SOL    HW175391   7.844   5.844   9.308 -0.0879 -0.4190  0.6631
24650SOL    HW275392   7.990   5.858   9.270  0.5420 -1.0027  2.7311
24651SOL     OW75393   6.854   7.846   8.727 -0.4724  0.6799 -0.0084
24651SOL    HW175394   6.784   7.911   8.731 -0.4902  0.7749 -1.2483
24651SOL    HW275395   6.809   7.762   8.717 -0.4498  0.8307 -1.7857
24652SOL     OW75396   6.278   4.360   3.575 -0.6000  0.1039 -0.3556
24652SOL    HW175397   6.225   4.336   3.500 -0.8952 -0.4154  0.0192
24652SOL    HW275398   6.262   4.454   3.587 -0.6255  0.1646 -0.8770
24653SOL     OW75399   2.888   7.856  11.898 -0.2046 -0.4720 -0.5041
24653SOL    HW175400   2.908   7.902  11.816 -0.3255  1.0626  0.2920
24653SOL    HW275401   2.793   7.844  11.896 -0.5907  1.9568  0.5624
24654SOL     OW75402   6.987   4.687  11.798  0.4911 -0.1537 -0.3533
24654SOL    HW175403   7.074   4.726  11.797  0.0208  0.9227 -0.5732
24654SOL    HW275404   6.949   4.715  11.881  0.7079 -1.4635  0.2088
24655SOL     OW75405   6.230   1.147   9.841  0.4292 -0.0524  0.7810
24655SOL    HW175406   6.244   1.092   9.918  2.0274  0.6487  1.0393
24655SOL    HW275407   6.167   1.214   9.870  1.9747  0.9783  1.9385
24656SOL     OW75408   0.776   6.316  10.818 -0.3164  0.2390  0.0778
24656SOL    HW175409   0.817   6.262  10.751  1.9766  2.9843 -0.8917
24656SOL    HW275410   0.683   6.318  10.794  0.3642  0.8106 -2.8574
24657SOL     OW75411   3.136   2.942   6.179  0.1059  0.4772 -0.0156
24657SOL    HW175412   3.088   2.932   6.097 -1.1506 -0.8609  0.8359
24657SOL    HW275413   3.068   2.947   6.246  1.0713 -2.1915  1.3016
24658SOL     OW75414   5.228   0.050   0.571  0.7964 -0.1950 -0.3097
24658SOL    HW175415   5.280   0.055   0.491  1.3968 -1.8116 -0.0670
24658SOL    HW275416   5.265   0.116   0.628  0.3917  0.9514 -1.3202
24659SOL     OW75417   7.001   5.892   3.897 -0.1802  0.3979 -0.8155
24659SOL    HW175418   6.949   5.963   3.934  0.5416  0.6871 -0.3381
24659SOL    HW275419   6.944   5.852   3.831 -0.1601  2.1922 -1.9907
24660SOL     OW75420   4.866   2.128   0.876  0.2793  0.3963  0.0503
24660SOL    HW175421   4.795   2.100   0.818  0.1038 -0.2102  0.5434
24660SOL    HW275422   4.832   2.206   0.920 -1.4998 -1.7791  2.8262
24661SOL     OW75423   1.544   0.902   6.966 -0.4917 -0.6051  0.2011
24661SOL    HW175424   1.512   0.856   7.044  0.3722 -1.1311  0.2614
24661SOL    HW275425   1.465   0.923   6.917 -1.1721  0.9057  1.8427
24662SOL     OW75426   7.228   7.040  10.037 -0.8091 -0.3117 -0.2455
24662SOL    HW175427   7.169   7.040   9.962 -1.5890  4.2904  0.0887
24662SOL    HW275428   7.218   7.127  10.077  4.9296  0.3033  0.8593
24663SOL     OW75429   2.165   5.551   0.241 -0.2339  0.6598  0.1470
24663SOL    HW175430   2.125   5.508   0.317 -1.5121  1.7803  0.1434
24663SOL    HW275431   2.094   5.603   0.203  0.6304  0.8441 -1.2861
24664SOL     OW75432   0.224   1.363   5.075  0.0655 -0.1084  0.0691
24664SOL    HW175433   0.140   1.396   5.043  0.2638  0.4499  0.0999
24664SOL    HW275434   0.233   1.277   5.034 -1.3796 -1.0067  1.5313
24665SOL     OW75435   3.525   0.251   4.935  0.7281  0.4586  0.4775
24665SOL    HW175436   3.587   0.293   4.993  2.0282  1.4994 -1.5338
24665SOL    HW275437   3.571   0.245   4.851 -1.2302 -0.4589 -0.6105
24666SOL     OW75438   1.835   5.599  11.225  0.3953 -0.1471 -0.2183
24666SOL    HW175439   1.842   5.692  11.248  0.3104  0.0873 -1.1040
24666SOL    HW275440   1.745   5.589  11.194  0.7957 -0.2316 -1.3745
24667SOL     OW75441   2.897   6.873  12.124  0.4437  0.0247  0.2144
24667SOL    HW175442   2.890   6.869  12.219  0.4679 -1.1882  0.1846
24667SOL    HW275443   2.970   6.815  12.103 -0.6351 -1.0650 -0.6461
24668SOL     OW75444   0.732   6.683   1.017 -0.1649  0.4131 -0.5948
24668SOL    HW175445   0.653   6.628   1.025 -0.9100  1.6772  1.3817
24668SOL    HW275446   0.699   6.769   0.994  0.3988  1.3911  1.9316
24669SOL     OW75447   4.224   2.854   9.915 -0.1722  0.6781  0.3708
24669SOL    HW175448   4.216   2.876  10.007 -1.0208  0.1552  0.4367
24669SOL    HW275449   4.134   2.857   9.881 -0.1586 -1.0859  0.0452
24670SOL     OW75450   4.563   6.932   1.519  0.0688  0.3790 -0.1347
24670SOL    HW175451   4.621   6.865   1.484  1.0253  1.6284 -1.0405
24670SOL    HW275452   4.519   6.968   1.441 -0.3057  0.9036  0.3134
24671SOL     OW75453   2.296   1.044   6.470  0.2984  0.4568  0.2155
24671SOL    HW175454   2.204   1.069   6.478 -0.0331 -0.7173  0.3080
24671SOL    HW275455   2.294   0.958   6.427  1.3489  0.3651  0.3153
24672SOL     OW75456   6.618   0.522   4.528 -0.1086  0.0150 -0.7561
24672SOL    HW175457   6.656   0.474   4.455  1.3131  0.3052 -0.2495
24672SOL    HW275458   6.689   0.579   4.558 -0.0313 -1.4104  2.0220
24673SOL     OW75459   5.818   5.124   4.495  0.4622  0.2469  0.0974
24673SOL    HW175460   5.726   5.102   4.507  0.7893 -0.7669  0.8587
24673SOL    HW275461   5.829   5.127   4.399 -0.1345 -0.6395 -0.0104
24674SOL     OW75462   0.388   7.499   3.997 -0.0300  0.1230 -0.2738
24674SOL    HW175463   0.350   7.577   3.956 -1.3557 -0.1410  0.4072
24674SOL    HW275464   0.334   7.427   3.965  2.0954 -0.7769 -2.1064
24675SOL     OW75465   0.548   5.994   8.558 -0.1354 -0.4124  0.9752
24675SOL    HW175466   0.620   5.931   8.562 -1.3579 -1.8561  1.3272
24675SOL    HW275467   0.560   6.049   8.636  1.7149  0.7204 -0.0530
24676SOL     OW75468   1.894   2.573   5.411  0.0629 -0.2593 -0.2987
24676SOL    HW175469   1.919   2.652   5.362  3.6042  0.1898  1.8705
24676SOL    HW275470   1.972   2.517   5.407 -1.2583 -2.2890  0.8726
24677SOL     OW75471   0.756   2.687   6.022 -0.2992 -0.0542  0.0092
24677SOL    HW175472   0.755   2.594   6.046  0.7115 -0.4328 -1.3064
24677SOL    HW275473   0.738   2.733   6.104 -0.4875 -1.3926  0.7519
24678SOL     OW75474   4.811   1.567   0.609  0.1663 -0.1114 -0.5304
24678SOL    HW175475   4.783   1.551   0.519 -0.7794  2.6716 -0.8260
24678SOL    HW275476   4.900   1.600   0.601  0.8153 -1.6995 -0.2266
24679SOL     OW75477   7.216   1.909   8.169  0.3413  0.1590  0.2942
24679SOL    HW175478   7.149   1.978   8.164 -0.1673 -0.4143 -1.3148
24679SOL    HW275479   7.242   1.894   8.078  0.3301 -1.8745  0.5850
24680SOL     OW75480   6.065   3.385   9.809  0.0528  0.0135  0.2501
24680SOL    HW175481   6.011   3.307   9.802 -1.0620  0.7337  0.5050
24680SOL    HW275482   6.006   3.457   9.784  0.1913  1.0741  2.6662
24681SOL     OW75483   5.980   2.937   8.561  0.6493 -0.1886  0.1671
24681SOL    HW175484   6.038   2.861   8.556  1.2013  0.1951  0.5651
24681SOL    HW275485   5.895   2.902   8.588  0.3610 -0.9190 -1.5603
24682SOL     OW75486   3.376   2.905  10.873 -0.1997  0.2791 -0.0969
24682SOL    HW175487   3.327   2.840  10.923 -0.2402 -1.1334 -1.8591
24682SOL    HW275488   3.311   2.944  10.814  0.0363  1.1811  0.2266
24683SOL     OW75489   4.439   1.658   1.019 -0.1054 -0.1448 -0.4374
24683SOL    HW175490   4.483   1.740   1.000 -0.5854  0.2799  0.2111
24683SOL    HW275491   4.507   1.600   1.053  0.1807  0.0890 -0.6184
24684SOL     OW75492   0.069   2.211   7.348 -0.7292 -0.2992  0.2105
24684SOL    HW175493   0.140   2.151   7.326 -0.9673 -0.2085 -0.8845
24684SOL    HW275494  -0.005   2.154   7.371 -0.6666 -0.4181  0.1195
24685SOL     OW75495   6.943   0.365   0.974  0.2315  0.1808 -0.3793
24685SOL    HW175496   6.978   0.432   1.033  0.7413  0.1280 -0.6175
24685SOL    HW275497   7.010   0.355   0.907  0.1346 -0.5260 -0.3781
24686SOL     OW75498   3.049   4.140  10.505 -0.4350  0.0392  0.6341
24686SOL    HW175499   3.086   4.053  10.487 -0.3021 -0.4476  2.9204
24686SOL    HW275500   2.959   4.135  10.471 -0.5472 -1.1405  1.0397
24687SOL     OW75501   1.235   3.564   8.898 -0.2726 -0.2976  0.6978
24687SOL    HW175502   1.186   3.521   8.969 -1.0671 -0.5108  0.0304
24687SOL    HW275503   1.223   3.506   8.823 -1.9196  1.3863 -0.4084
24688SOL     OW75504   1.889   0.137   9.538 -0.2573  0.4023  0.6544
24688SOL    HW175505   1.835   0.075   9.489 -0.4958  1.0857  0.0334
24688SOL    HW275506   1.975   0.094   9.543 -0.0915  0.5194 -0.7957
24689SOL     OW75507   0.929   4.058   6.514  0.5118 -0.2953 -0.1724
24689SOL    HW175508   0.924   3.990   6.581  0.5591  0.2025  0.3465
24689SOL    HW275509   0.889   4.019   6.437  1.7461 -1.3879 -0.2919
24690SOL     OW75510   4.373   4.149   7.854 -0.5233 -0.4638 -0.8467
24690SOL    HW175511   4.310   4.091   7.898 -2.2095  1.8247 -0.0961
24690SOL    HW275512   4.427   4.184   7.925 -0.9154  0.4923 -1.0095
24691SOL     OW75513   5.970   0.147  12.320  0.2507 -0.0188  0.3302
24691SOL    HW175514   5.964   0.123  12.413 -1.3102 -0.0423  0.2448
24691SOL    HW275515   5.897   0.208  12.306 -0.6087 -1.3476 -1.2772
24692SOL     OW75516   3.676   4.063   6.731  0.2469  0.5717 -0.2197
24692SOL    HW175517   3.596   4.031   6.772  0.6172 -0.4102 -0.2347
24692SOL    HW275518   3.645   4.117   6.658 -0.4378 -1.3125 -1.3949
24693SOL     OW75519   7.275   5.219   6.572 -0.3451  0.4761 -0.2546
24693SOL    HW175520   7.252   5.296   6.520  1.0142  0.5550 -0.7846
24693SOL    HW275521   7.286   5.149   6.507  1.2377  0.5432 -0.0887
24694SOL     OW75522   6.176   6.953   7.481  0.1015  0.0416 -0.2134
24694SOL    HW175523   6.116   6.926   7.411 -1.2716 -0.9046  1.2818
24694SOL    HW275524   6.159   7.047   7.491 -0.9088 -0.1455 -0.0421
24695SOL     OW75525   1.143   5.732   1.133 -0.4692 -0.0803  0.6229
24695SOL    HW175526   1.159   5.651   1.085 -1.7996  1.0321 -1.8915
24695SOL    HW275527   1.079   5.709   1.200  1.4672 -1.6808  2.0728
24696SOL     OW75528   1.976   5.198   4.734  0.0269  0.4621 -0.2794
24696SOL    HW175529   2.028   5.159   4.663 -1.1235  0.2041 -1.0144
24696SOL    HW275530   1.885   5.181   4.708 -0.4381  1.5242  0.6103
24697SOL     OW75531   0.188   4.347   4.768  0.1481 -0.4530 -0.6541
24697SOL    HW175532   0.279   4.345   4.797  0.4937  1.3803 -1.4310
24697SOL    HW275533   0.149   4.267   4.804  1.7960 -0.7818  0.5190
24698SOL     OW75534   6.686   4.586  10.007 -0.1731 -0.1528  0.5804
24698SOL    HW175535   6.610   4.627  10.048  0.5169  1.9556 -0.0912
24698SOL    HW275536   6.760   4.639  10.037  1.1092 -2.3500  1.4770
24699SOL     OW75537   3.184   3.657   3.809  0.4051  0.0658  0.4366
24699SOL    HW175538   3.170   3.724   3.875  0.2203  1.6057 -1.1098
24699SOL    HW275539   3.124   3.679   3.738  0.3576 -1.7316 -0.1439
24700SOL     OW75540   4.348   5.729   7.038 -0.5771 -0.5414  0.1320
24700SOL    HW175541   4.436   5.694   7.045 -0.4647 -0.6362 -1.3974
24700SOL    HW275542   4.359   5.824   7.042 -0.2232 -0.4939 -1.4588
24701SOL     OW75543   5.759   5.614   3.075  0.1032  0.3106 -0.1570
24701SOL    HW175544   5.691   5.600   3.142  0.3528  0.8444  0.2154
24701SOL    HW275545   5.836   5.569   3.110 -0.0885 -0.4435 -0.6602
24702SOL     OW75546   5.704   4.025   9.576  0.2086  0.9362 -0.2060
24702SOL    HW175547   5.761   4.038   9.500  0.6584  0.3180  0.0083
24702SOL    HW275548   5.616   4.046   9.545  0.3110  0.1842 -1.0597
24703SOL     OW75549   2.059   2.769   0.432 -0.3865  0.0926 -0.3834
24703SOL    HW175550   2.116   2.752   0.356  0.7310  3.2557 -0.4182
24703SOL    HW275551   2.111   2.741   0.507 -0.1397 -0.0350 -0.5989
24704SOL     OW75552   1.439   7.567   8.342  0.6412 -0.1272 -0.3288
24704SOL    HW175553   1.526   7.595   8.313  0.9151 -0.5697  0.0531
24704SOL    HW275554   1.392   7.649   8.359  1.8771  0.1644  2.1066
24705SOL     OW75555   4.532   6.475   1.318 -0.1497 -0.0203 -0.0352
24705SOL    HW175556   4.591   6.402   1.336 -0.8748 -0.6012  0.0174
24705SOL    HW275557   4.450   6.434   1.290 -1.3884  0.6306  2.2977
24706SOL     OW75558   1.274   4.156   0.124 -0.4798  0.7841 -0.0463
24706SOL    HW175559   1.268   4.063   0.104  0.8407  0.8604 -0.8986
24706SOL    HW275560   1.189   4.177   0.163 -1.0233 -0.6351 -0.3876
24707SOL     OW75561   5.909   0.769   5.468  0.1793  0.4233 -0.1711
24707SOL    HW175562   5.884   0.678   5.485  0.6970  0.5221  1.2772
24707SOL    HW275563   6.004   0.767   5.457  0.4126  0.9651  1.4627
24708SOL     OW75564   7.543   1.199   1.564  0.1879 -0.5033 -0.2522
24708SOL    HW175565   7.500   1.218   1.647  2.8390 -0.6860  1.2830
24708SOL    HW275566   7.496   1.124   1.528 -3.9996  2.3419 -1.3650
24709SOL     OW75567   4.530   0.632   5.450 -0.2491 -0.2014 -0.3486
24709SOL    HW175568   4.549   0.596   5.364  0.8091 -0.8741  0.1575
24709SOL    HW275569   4.444   0.596   5.474  0.2726 -1.4695 -0.3482
24710SOL     OW75570   2.335   2.302   6.538  0.3749 -0.1163 -0.3161
24710SOL    HW175571   2.299   2.276   6.623 -0.1242 -1.9304 -1.0373
24710SOL    HW275572   2.318   2.396   6.533 -0.0830 -0.0730  1.3456
24711SOL     OW75573   0.989   0.852   5.130  0.3730 -0.2761  0.1675
24711SOL    HW175574   0.906   0.811   5.106 -0.3402  1.8635 -1.2676
24711SOL    HW275575   1.039   0.856   5.049  0.2830  1.8984  0.1664
24712SOL     OW75576   1.218   4.436   7.866 -0.4370  0.0823  0.4234
24712SOL    HW175577   1.306   4.472   7.855 -0.6594  0.3870 -0.3922
24712SOL    HW275578   1.233   4.345   7.892  0.1196  0.2611  0.7492
24713SOL     OW75579   2.996   0.743  12.175 -0.2994 -0.1627  0.6913
24713SOL    HW175580   3.021   0.815  12.117  1.4666  1.1210  2.8773
24713SOL    HW275581   2.931   0.694  12.125  1.5292  0.4359 -2.5977
24714SOL     OW75582   2.832   5.781   8.712 -0.0248  0.1594  0.0216
24714SOL    HW175583   2.851   5.708   8.653 -1.2232 -1.7466  1.8681
24714SOL    HW275584   2.918   5.813   8.739  0.6377 -2.4193  1.2861
24715SOL     OW75585   0.093   5.925   5.625  0.1698  0.5043 -0.0132
24715SOL    HW175586   0.153   5.899   5.556  0.5094  1.2764 -0.0247
24715SOL    HW275587   0.137   5.902   5.707  0.7313  1.5296 -0.0052
24716SOL     OW75588   2.619   0.393   6.766  0.1120  0.0243 -0.0541
24716SOL    HW175589   2.531   0.409   6.731  1.1321  1.7992 -2.0997
24716SOL    HW275590   2.605   0.369   6.857 -2.4764  0.4706 -0.2560
24717SOL     OW75591   3.080   2.847   7.190 -0.2477 -0.8101  0.2839
24717SOL    HW175592   3.025   2.799   7.128  0.1462  0.5815 -1.2486
24717SOL    HW275593   3.161   2.863   7.142 -0.4395  1.4977  0.6132
24718SOL     OW75594   1.723   4.497   0.919  0.0988 -0.2726 -0.4107
24718SOL    HW175595   1.672   4.455   0.989  0.2157 -0.6060 -0.5208
24718SOL    HW275596   1.703   4.445   0.841  0.4761 -0.3033 -0.4888
24719SOL     OW75597   6.620   4.293  11.487  0.1981 -0.0633  0.4014
24719SOL    HW175598   6.699   4.345  11.472  0.2108  0.5096  2.1758
24719SOL    HW275599   6.553   4.335  11.432  1.0515 -0.4630 -1.0047
24720SOL     OW75600   2.944   1.070   3.766 -0.4184  0.0043  0.3959
24720SOL    HW175601   2.904   1.119   3.837 -0.3019 -0.0317  0.4851
24720SOL    HW275602   3.012   1.127   3.732 -1.1576  0.4580 -0.3681
24721SOL     OW75603   1.080   2.009   2.024 -0.6082 -0.3478  0.1582
24721SOL    HW175604   1.140   2.059   1.968 -1.5387 -0.5204 -1.0375
24721SOL    HW275605   1.129   1.930   2.047  0.1900  0.2376  0.5054
24722SOL     OW75606   6.351   1.098   5.053 -0.4724 -0.0032 -0.6836
24722SOL    HW175607   6.353   1.032   5.122 -3.8549  1.5221  1.0838
24722SOL    HW275608   6.316   1.052   4.977 -0.5221 -0.7745 -0.2104
24723SOL     OW75609   3.264   7.233   6.028 -0.1125 -0.4867 -0.4530
24723SOL    HW175610   3.213   7.200   5.954 -1.2059  1.3540 -0.5830
24723SOL    HW275611   3.228   7.320   6.045 -0.5919 -1.2319  2.9443
24724SOL     OW75612   0.731   0.744   1.531  0.3478 -0.6424 -0.1422
24724SOL    HW175613   0.806   0.688   1.548 -0.1842 -1.1353  0.6198
24724SOL    HW275614   0.662   0.712   1.589 -0.1685  0.3953 -0.1499
24725SOL     OW75615   5.301   5.873   3.132 -0.4578  0.4368 -0.1560
24725SOL    HW175616   5.372   5.811   3.114 -0.4277  1.3106 -3.6531
24725SOL    HW275617   5.225   5.834   3.089 -1.2835  1.2378  0.5428
24726SOL     OW75618   6.331   5.908  10.997 -0.0698 -0.0329 -0.4448
24726SOL    HW175619   6.377   5.981  10.956  1.5922 -1.5489 -1.4292
24726SOL    HW275620   6.382   5.831  10.973 -1.9910 -1.5915  0.1904
24727SOL     OW75621   3.233   1.685   2.791 -0.4525 -0.3278  0.2866
24727SOL    HW175622   3.311   1.715   2.837 -0.7070  0.5032  0.1840
24727SOL    HW275623   3.160   1.723   2.839 -0.6941  2.6719 -2.1455
24728SOL     OW75624   1.849   1.306   8.257 -0.5754  0.2556 -0.0037
24728SOL    HW175625   1.805   1.337   8.177  1.4714  0.0678 -1.2695
24728SOL    HW275626   1.876   1.216   8.236  0.5070  0.4080  0.6665
24729SOL     OW75627   1.603   6.793   3.190 -0.4740  0.1903  1.0861
24729SOL    HW175628   1.670   6.832   3.247  0.2886 -1.6923  1.5675
24729SOL    HW275629   1.641   6.798   3.102 -0.1011 -0.0146  1.2297
24730SOL     OW75630   3.428   6.664   8.013 -0.2162  0.5841  0.4445
24730SOL    HW175631   3.466   6.700   7.933  1.1693 -1.0802  0.2885
24730SOL    HW275632   3.365   6.600   7.983  1.8740 -1.6683  0.5504
24731SOL     OW75633   3.737   0.178   3.937  0.1798 -0.0183  0.0790
24731SOL    HW175634   3.716   0.271   3.942  0.1458  0.0051 -0.4636
24731SOL    HW275635   3.735   0.148   4.028  1.3193  0.7525  0.3742
24732SOL     OW75636   5.095   6.900   8.673  0.1818  0.5768  0.1209
24732SOL    HW175637   5.148   6.820   8.669 -1.7357 -0.7203 -0.9333
24732SOL    HW275638   5.039   6.887   8.749 -0.5304  0.6342 -0.3865
24733SOL     OW75639   5.587   2.885   6.898  0.3115 -0.1136 -0.6400
24733SOL    HW175640   5.673   2.914   6.867  0.6216  0.7961  0.9488
24733SOL    HW275641   5.590   2.790   6.889  0.2979  0.0734 -3.4247
24734SOL     OW75642   0.821   5.996   5.225  0.2708 -0.3281  0.6991
24734SOL    HW175643   0.837   6.029   5.314  1.6632 -1.9575  1.0868
24734SOL    HW275644   0.888   5.929   5.211  0.7618  0.6155 -2.0110
24735SOL     OW75645   7.574   1.708  11.619  0.4636 -0.1104 -0.6679
24735SOL    HW175646   7.541   1.797  11.609  1.9261  0.6522  0.8733
24735SOL    HW275647   7.557   1.685  11.710  0.0533 -1.4493 -1.0578
24736SOL     OW75648   6.147   4.269   3.352 -0.0254  0.8841  0.5053
24736SOL    HW175649   6.196   4.195   3.317  0.0924  0.9423  0.5459
24736SOL    HW275650   6.162   4.339   3.288  2.2068  1.7466  1.8755
24737SOL     OW75651   1.719   3.965   6.722  0.3411 -0.1186 -0.1088
24737SOL    HW175652   1.781   4.037   6.733  1.2705 -0.3309 -3.1596
24737SOL    HW275653   1.763   3.889   6.759  1.3674  0.0106 -1.0084
24738SOL     OW75654   2.762   7.218  12.328 -0.5785 -0.0813 -0.5127
24738SOL    HW175655   2.712   7.165  12.267 -0.0922  0.6218 -1.5542
24738SOL    HW275656   2.841   7.244  12.279  0.4262 -0.5111  0.8177
24739SOL     OW75657   1.021   2.404   7.940 -0.1428 -0.1640  0.1450
24739SOL    HW175658   0.943   2.449   7.907  0.2338  1.1798  0.9912
24739SOL    HW275659   1.057   2.359   7.864 -0.8972  0.4477 -0.6018
24740SOL     OW75660   5.400   7.549  11.246  0.2294 -0.8088  0.0467
24740SOL    HW175661   5.416   7.547  11.341 -1.1664 -2.9092  0.3149
24740SOL    HW275662   5.415   7.458  11.218  0.4682 -0.2521 -1.7363
24741SOL     OW75663   7.902   1.749  10.536 -0.1797  0.0247  0.0746
24741SOL    HW175664   7.854   1.800  10.602  0.1462 -0.7020  0.8889
24741SOL    HW275665   7.933   1.815  10.474 -1.9156  0.5655 -0.2945
24742SOL     OW75666   0.565   0.524   8.619  0.2591 -0.1268 -0.5910
24742SOL    HW175667   0.562   0.619   8.629 -0.6741 -0.2785  0.8319
24742SOL    HW275668   0.502   0.505   8.550 -0.1914  0.2349 -0.2889
24743SOL     OW75669   2.984   3.613   0.451  0.1453  0.1879  0.4798
24743SOL    HW175670   3.062   3.651   0.411 -0.5396  0.8905 -0.2122
24743SOL    HW275671   3.000   3.519   0.450  1.1482  0.3452  0.7107
24744SOL     OW75672   5.176   2.274  10.015  0.0689  0.0577 -0.5452
24744SOL    HW175673   5.123   2.194  10.018 -3.0593  1.9234 -1.3439
24744SOL    HW275674   5.213   2.275   9.927  0.4882 -0.6484 -0.3935
24745SOL     OW75675   2.537   0.348  10.239  0.4666 -0.4112 -0.2232
24745SOL    HW175676   2.572   0.436  10.221  2.1659 -1.0588 -0.2430
24745SOL    HW275677   2.492   0.357  10.322 -0.3774  0.7366 -0.7795
24746SOL     OW75678   3.825   5.410   3.784  0.5281 -0.1248  0.0800
24746SOL    HW175679   3.790   5.440   3.700  3.4448 -1.1048 -1.6191
24746SOL    HW275680   3.841   5.317   3.772  1.5570 -0.1761  1.5181
24747SOL     OW75681   5.866   4.740   3.218 -0.2448  0.2128  0.2056
24747SOL    HW175682   5.843   4.656   3.178 -1.5172  0.4631  0.3521
24747SOL    HW275683   5.881   4.798   3.143 -0.1274  0.0448  0.0981
24748SOL     OW75684   3.423   1.717   4.290  0.3190 -0.2069 -0.1330
24748SOL    HW175685   3.472   1.671   4.223  0.4600 -0.3201  0.0476
24748SOL    HW275686   3.376   1.786   4.243 -1.7115 -1.9219 -0.7763
24749SOL     OW75687   2.265   4.010   9.339  0.4604  0.0224  0.3483
24749SOL    HW175688   2.311   4.094   9.331 -0.6168  0.4693 -1.8662
24749SOL    HW275689   2.284   3.964   9.257 -3.1530  0.3658 -0.8570
24750SOL     OW75690   7.168   5.230   7.359 -0.0287 -0.0321 -0.2744
24750SOL    HW175691   7.261   5.239   7.340 -0.2420  0.6623 -1.0805
24750SOL    HW275692   7.139   5.319   7.383 -0.4180 -0.3048  0.3073
24751SOL     OW75693   0.306   1.766   0.597 -0.4496  0.0213  0.2639
24751SOL    HW175694   0.292   1.780   0.503 -2.6068  0.6062  0.6084
24751SOL    HW275695   0.355   1.684   0.603 -1.2804 -0.6309 -1.3496
24752SOL     OW75696   2.465   2.661   9.902  0.0731 -0.3400  0.1546
24752SOL    HW175697   2.524   2.735   9.885  0.1542 -0.6229 -0.8745
24752SOL    HW275698   2.379   2.701   9.912  0.3744  0.0474  1.3497
24753SOL     OW75699   1.208   0.927  11.556  0.4999  0.0863  0.7569
24753SOL    HW175700   1.268   0.938  11.630  2.2538 -0.1758 -0.5576
24753SOL    HW275701   1.251   0.973  11.484 -1.9390  1.7511  0.2521
24754SOL     OW75702   5.813   2.934  10.598  0.2193 -0.0236 -0.6901
24754SOL    HW175703   5.884   2.874  10.618 -0.3007 -0.1113  1.0639
24754SOL    HW275704   5.737   2.896  10.641 -0.2544  1.5688 -0.0644
24755SOL     OW75705   0.649   2.781   2.298 -0.2007  0.4943  0.5809
24755SOL    HW175706   0.660   2.818   2.210  1.4876  0.3537  0.6948
24755SOL    HW275707   0.594   2.704   2.284  0.8619 -0.1044 -0.5452
24756SOL     OW75708   7.595   6.845  10.480  0.1084 -0.3231  0.5755
24756SOL    HW175709   7.505   6.835  10.451  0.3056  1.6191 -0.8982
24756SOL    HW275710   7.626   6.925  10.437  2.8280 -1.4044  0.2896
24757SOL     OW75711   5.068   3.273   3.589  0.4498 -0.0423  0.0766
24757SOL    HW175712   5.128   3.314   3.651  0.8745 -0.0446 -0.3244
24757SOL    HW275713   5.039   3.346   3.533 -1.2192  0.2819  1.2715
24758SOL     OW75714   3.887   1.991   9.639  0.2068  0.0016 -0.5352
24758SOL    HW175715   3.896   1.930   9.566 -1.4563 -1.9369  0.8036
24758SOL    HW275716   3.813   2.047   9.615  0.8384  0.6045 -1.1276
24759SOL     OW75717   4.600   3.774   7.061  0.0530  0.4304 -0.1420
24759SOL    HW175718   4.617   3.789   7.154  0.6832  2.3501 -0.5210
24759SOL    HW275719   4.664   3.829   7.016  1.6593 -2.5221 -1.8057
24760SOL     OW75720   5.793   1.577  10.272 -0.2426 -0.2732 -0.4747
24760SOL    HW175721   5.868   1.635  10.256 -0.1161 -0.8820 -2.4141
24760SOL    HW275722   5.717   1.635  10.274 -0.1176  0.0229 -2.3718
24761SOL     OW75723   1.501   3.689   5.624 -0.4943 -0.4667 -0.1782
24761SOL    HW175724   1.465   3.604   5.601 -0.3553 -0.9507  1.2971
24761SOL    HW275725   1.424   3.746   5.632 -0.8553 -1.1466  1.5556
24762SOL     OW75726   2.198   6.316   1.490  0.7342  0.9626  0.2478
24762SOL    HW175727   2.279   6.272   1.515 -0.6978 -0.8590  1.9429
24762SOL    HW275728   2.138   6.245   1.467 -0.8650  2.1633  0.5350
24763SOL     OW75729   0.064   2.214   6.940 -0.2387  0.0821 -0.6362
24763SOL    HW175730   0.061   2.263   7.021  1.7529  0.5311 -0.8040
24763SOL    HW275731   0.032   2.275   6.873  1.2756  0.8745 -0.6833
24764SOL     OW75732   0.247   3.904   5.435  0.9958  0.1012 -0.1934
24764SOL    HW175733   0.182   3.847   5.475  0.4157  0.2120 -0.9579
24764SOL    HW275734   0.220   3.993   5.460  2.1577  0.0575  1.3833
24765SOL     OW75735   2.145   2.659   0.740  0.1233 -0.2225  0.5257
24765SOL    HW175736   2.233   2.670   0.777  1.2387  2.5913 -2.4731
24765SOL    HW275737   2.156   2.592   0.672 -0.4161 -0.8103  1.0026
24766SOL     OW75738   2.523   2.744   4.078  0.2748  0.4879  0.3305
24766SOL    HW175739   2.524   2.728   3.984 -0.1825  1.0759  0.2213
24766SOL    HW275740   2.616   2.747   4.102  0.5102  2.8428 -0.5648
24767SOL     OW75741   3.880   3.397   0.092 -0.0458 -0.5461 -0.7614
24767SOL    HW175742   3.810   3.449   0.054 -0.4943  0.6340  1.4741
24767SOL    HW275743   3.837   3.345   0.161  1.0515 -0.7949 -0.2377
24768SOL     OW75744   5.518   1.910   1.814 -0.3546 -0.3179  0.1032
24768SOL    HW175745   5.547   1.874   1.897  0.5572 -1.8681 -0.8397
24768SOL    HW275746   5.581   1.878   1.750  0.9603  3.4900 -0.7963
24769SOL     OW75747   4.786   0.101   2.323 -0.4788  1.0137 -0.0100
24769SOL    HW175748   4.857   0.077   2.383 -2.8064 -2.1857  1.7302
24769SOL    HW275749   4.821   0.083   2.236  1.5933  1.7907  0.6092
24770SOL     OW75750   0.720   3.989   4.717 -0.1508 -0.7874 -0.1259
24770SOL    HW175751   0.733   4.065   4.661  0.8501 -0.9113 -0.0830
24770SOL    HW275752   0.792   3.930   4.695 -1.4920 -2.2059 -0.9003
24771SOL     OW75753   4.950   6.229   1.069 -0.1157 -0.0707  0.4594
24771SOL    HW175754   4.959   6.316   1.031  1.7524  0.2148  1.4223
24771SOL    HW275755   4.994   6.171   1.007  2.0551  0.2580  1.6045
24772SOL     OW75756   1.196   4.906   4.151 -0.4281 -0.0531 -0.2108
24772SOL    HW175757   1.185   4.825   4.201 -1.5967  0.2578  0.0528
24772SOL    HW275758   1.208   4.876   4.060  1.8475 -0.6248  0.2084
24773SOL     OW75759   0.157   4.824  10.724  0.0980 -0.0774  0.0685
24773SOL    HW175760   0.077   4.844  10.675 -0.6111 -3.1040 -0.2293
24773SOL    HW275761   0.221   4.887  10.692 -1.9310  2.0031 -0.1972
24774SOL     OW75762   2.492   6.656  10.665 -0.3641  0.0529  0.5368
24774SOL    HW175763   2.411   6.704  10.648 -0.2394 -0.0180 -0.2935
24774SOL    HW275764   2.500   6.595  10.592  2.4004  2.6708 -1.6123
24775SOL     OW75765   6.049   7.825   9.883  0.4763  0.2426  0.1714
24775SOL    HW175766   6.063   7.747   9.829  3.9931  0.5207  0.4450
24775SOL    HW275767   5.979   7.872   9.838  1.4794 -0.7904 -2.7503
24776SOL     OW75768   0.072   7.097  10.275  0.1676  0.0703 -0.3453
24776SOL    HW175769   0.056   7.013  10.231  1.2595 -1.2180  1.5207
24776SOL    HW275770  -0.014   7.123  10.308 -0.3304  0.1224 -1.6315
24777SOL     OW75771   0.747   3.780  10.556 -0.2562 -0.1936  0.1904
24777SOL    HW175772   0.755   3.865  10.513  0.5226  0.2865  1.2570
24777SOL    HW275773   0.774   3.795  10.646 -1.5126 -1.2639  0.7814
24778SOL     OW75774   3.182   5.060   9.723 -0.3954 -0.1557 -0.0492
24778SOL    HW175775   3.237   5.052   9.801  0.4599 -1.5886 -0.7598
24778SOL    HW275776   3.233   5.116   9.664  0.1895 -1.2064 -0.5740
24779SOL     OW75777   2.155   0.481  10.724 -0.7219 -0.3720  0.2147
24779SOL    HW175778   2.185   0.544  10.659 -0.2215 -1.7875 -0.9893
24779SOL    HW275779   2.060   0.489  10.725 -0.6226  0.8741  0.6002
24780SOL     OW75780   6.911   2.309   5.822  0.4131  0.5070 -0.4062
24780SOL    HW175781   6.847   2.377   5.845  0.9077  0.4610  1.2883
24780SOL    HW275782   6.995   2.355   5.819  1.3373 -0.3885  4.1904
24781SOL     OW75783   1.913   2.329   5.667  0.1459 -0.3987 -0.1694
24781SOL    HW175784   1.944   2.259   5.609  1.6585 -0.8540  1.1029
24781SOL    HW275785   1.991   2.381   5.686  0.1077 -1.1516  2.5915
24782SOL     OW75786   2.314   6.618   3.706 -0.0907 -0.4837 -0.1392
24782SOL    HW175787   2.311   6.559   3.631 -0.2439 -0.0187 -0.5061
24782SOL    HW275788   2.222   6.628   3.732  0.0838 -2.2439  1.4064
24783SOL     OW75789   4.831   4.769   0.724  0.6605 -0.2595 -0.8376
24783SOL    HW175790   4.842   4.847   0.778  1.7297 -0.7114 -0.3723
24783SOL    HW275791   4.745   4.780   0.683 -0.0261  0.2419  0.6932
24784SOL     OW75792   2.988   1.481  11.327 -0.1952 -0.1456  0.2789
24784SOL    HW175793   2.914   1.434  11.367  1.1361 -2.0442  0.6304
24784SOL    HW275794   3.027   1.418  11.267  0.4991  1.2185 -0.7636
24785SOL     OW75795   7.869   2.330   3.360 -0.2025  0.2924 -0.0709
24785SOL    HW175796   7.837   2.363   3.276 -1.0408  2.7218  1.1205
24785SOL    HW275797   7.827   2.244   3.369 -0.5267  0.2254 -1.8661
24786SOL     OW75798   7.423   0.190   7.368  0.6768 -0.6757  0.1626
24786SOL    HW175799   7.425   0.102   7.331  0.6450 -0.9310  0.7549
24786SOL    HW275800   7.372   0.181   7.449 -0.1967  0.0914 -0.2784
24787SOL     OW75801   4.136   7.071   7.409 -0.7377 -0.8439 -0.5830
24787SOL    HW175802   4.199   7.001   7.390 -0.5563 -0.2929 -2.1549
24787SOL    HW275803   4.191   7.148   7.424 -0.9202 -1.0680  1.4720
24788SOL     OW75804   6.613   4.178   5.858  0.4373  0.3379  0.2570
24788SOL    HW175805   6.600   4.162   5.952 -0.8451  0.7072  0.1580
24788SOL    HW275806   6.687   4.121   5.835  0.2529 -0.3763  1.3225
24789SOL     OW75807   3.032   2.682  12.286 -0.2212 -0.2961 -0.0318
24789SOL    HW175808   2.956   2.668  12.344  0.0346  1.1120  0.6873
24789SOL    HW275809   2.998   2.737  12.215  0.1916  0.7191  0.5283
24790SOL     OW75810   7.006   4.131  11.132  0.4084  0.4591 -0.1541
24790SOL    HW175811   7.101   4.120  11.138  0.3304 -1.3356 -1.4947
24790SOL    HW275812   6.970   4.070  11.196  0.1398  1.5714  0.7836
24791SOL     OW75813   4.243   5.445   0.354 -0.2090  0.5277  0.0685
24791SOL    HW175814   4.187   5.507   0.308  0.1942 -0.1550 -1.3895
24791SOL    HW275815   4.182   5.382   0.393 -0.5130  0.5270 -0.4085
24792SOL     OW75816   4.482   3.774   7.923 -0.0327  0.1532  0.0409
24792SOL    HW175817   4.424   3.712   7.879  0.1955  0.7400 -1.1067
24792SOL    HW275818   4.431   3.806   7.998  0.4308 -2.6453  1.7085
24793SOL     OW75819   5.611   5.890  10.412 -0.0291 -0.2951  0.1420
24793SOL    HW175820   5.587   5.887  10.319  0.0764 -0.0611  0.1063
24793SOL    HW275821   5.528   5.900  10.458  0.0828  2.1464 -0.0586
24794SOL     OW75822   3.092   5.641   7.090  0.0342 -0.7068 -0.4747
24794SOL    HW175823   2.999   5.652   7.068 -0.2881 -1.2434  0.5322
24794SOL    HW275824   3.109   5.706   7.158  1.1691  1.3296 -2.5637
24795SOL     OW75825   5.112   4.942   5.536 -0.2812 -0.2351 -0.2664
24795SOL    HW175826   5.185   4.969   5.479 -0.0364 -0.5636 -0.1122
24795SOL    HW275827   5.144   4.960   5.624 -0.2874 -0.6232 -0.1844
24796SOL     OW75828   1.013   4.512   8.632  0.7969 -0.3493 -0.5447
24796SOL    HW175829   1.079   4.571   8.669  1.1847 -2.4020  2.4150
24796SOL    HW275830   1.063   4.436   8.604 -0.0234 -0.6183 -1.3067
24797SOL     OW75831   6.288   6.549   4.196  0.0837  0.3955 -0.2295
24797SOL    HW175832   6.310   6.642   4.203 -0.2257  0.6058 -1.6452
24797SOL    HW275833   6.201   6.543   4.235  0.0888  0.7129 -0.1624
24798SOL     OW75834   3.731   4.684   7.636 -0.0874  0.1196 -0.0158
24798SOL    HW175835   3.655   4.657   7.585  0.0365 -0.6100  0.1741
24798SOL    HW275836   3.766   4.602   7.671  0.5381  0.4949  0.2412
24799SOL     OW75837   4.920   1.567   6.955  0.0215  0.5760  0.2083
24799SOL    HW175838   4.864   1.644   6.950 -0.5668  0.2795  1.6964
24799SOL    HW275839   5.006   1.602   6.981 -0.9316  0.5745  3.9194
24800SOL     OW75840   0.226   3.053   8.902 -0.0978  0.3464 -0.3912
24800SOL    HW175841   0.297   3.051   8.967  0.2334  1.1427 -0.7181
24800SOL    HW275842   0.271   3.061   8.818 -0.4757 -1.5322 -0.8301
24801SOL     OW75843   0.581   1.123  10.105 -0.0921 -0.2820  0.4551
24801SOL    HW175844   0.603   1.106  10.013 -0.8542  0.6581  0.0833
24801SOL    HW275845   0.594   1.039  10.148  1.3600 -0.4731 -0.2921
24802SOL     OW75846   0.035   6.214   7.457  0.6070 -0.2121 -0.6269
24802SOL    HW175847   0.013   6.172   7.541  1.1828 -0.2994 -0.5159
24802SOL    HW275848  -0.000   6.155   7.391  3.1599 -1.9801 -0.5458
24803SOL     OW75849   0.790   7.893  10.206 -0.3163 -0.2583 -0.0486
24803SOL    HW175850   0.797   7.877  10.300  0.0601  0.6587  0.0857
24803SOL    HW275851   0.752   7.812  10.171  1.5375 -1.4785  0.5920
24804SOL     OW75852   7.011   5.785   1.819 -0.6974 -0.3719 -0.1313
24804SOL    HW175853   6.959   5.833   1.883  1.6369  1.1571  0.7212
24804SOL    HW275854   7.094   5.767   1.863 -0.3136 -2.4783 -1.5320
24805SOL     OW75855   0.569   4.796  12.274  0.1026  0.1552 -0.7142
24805SOL    HW175856   0.569   4.717  12.220 -0.0335 -0.5673  0.3197
24805SOL    HW275857   0.579   4.764  12.364 -0.9494  1.2386 -0.1819
24806SOL     OW75858   4.408   0.363  11.690  0.5437 -0.1427  0.0328
24806SOL    HW175859   4.404   0.275  11.727 -2.5512 -0.5328 -0.9122
24806SOL    HW275860   4.369   0.354  11.603 -0.1524  2.2142  0.0325
24807SOL     OW75861   2.947   6.457  11.407 -0.0245  0.0082  0.2892
24807SOL    HW175862   2.944   6.535  11.353 -2.7524 -0.6661 -0.6726
24807SOL    HW275863   3.020   6.406  11.371 -0.6591  0.3806 -1.6272
24808SOL     OW75864   1.479   4.444   7.771  0.7338 -0.7689 -0.1643
24808SOL    HW175865   1.545   4.401   7.825 -0.6974 -1.8655  0.7794
24808SOL    HW275866   1.452   4.377   7.709 -1.3348 -1.2597  1.1568
24809SOL     OW75867   4.606   7.772  10.817 -0.0810 -0.2870 -0.0879
24809SOL    HW175868   4.700   7.763  10.833  0.1178  0.6526 -0.6295
24809SOL    HW275869   4.597   7.857  10.772 -1.3391  0.3645  1.2876
24810SOL     OW75870   2.087   3.720   2.115  0.1167 -0.2081 -0.5610
24810SOL    HW175871   2.069   3.705   2.208 -0.4310 -0.4943 -0.7086
24810SOL    HW275872   2.143   3.798   2.113  0.1223 -0.1965  0.0036
24811SOL     OW75873   0.267   1.839  11.386  0.8127 -0.3554  0.4915
24811SOL    HW175874   0.218   1.759  11.405  1.4254 -0.9438 -0.3576
24811SOL    HW275875   0.325   1.850  11.461 -1.3563  0.9801  2.0840
24812SOL     OW75876   0.973   1.199   8.455 -0.1282 -0.3401  0.8325
24812SOL    HW175877   1.036   1.213   8.385 -1.3418  0.8590 -0.0720
24812SOL    HW275878   1.003   1.254   8.527 -0.4722  0.7410  0.1698
24813SOL     OW75879   4.835   5.486   7.162 -0.0993 -0.4307  0.2056
24813SOL    HW175880   4.902   5.536   7.116 -0.5119 -0.5604 -0.5497
24813SOL    HW275881   4.853   5.395   7.138  0.6038 -0.6667  1.5125
24814SOL     OW75882   4.217   0.832  10.189  0.4133  0.0133 -0.6151
24814SOL    HW175883   4.136   0.849  10.236 -0.4265  0.7008 -2.2629
24814SOL    HW275884   4.285   0.875  10.243 -0.6618  1.8028 -0.5971
24815SOL     OW75885   2.532   0.815   8.171 -0.2362 -0.3099  0.3312
24815SOL    HW175886   2.522   0.846   8.080  1.6319 -0.5719 -0.0009
24815SOL    HW275887   2.599   0.748   8.166 -0.8179 -1.0376  1.7933
24816SOL     OW75888   7.399   0.651   7.159 -0.7508  0.0706  0.5072
24816SOL    HW175889   7.414   0.687   7.246 -1.6267  0.3869  0.5441
24816SOL    HW275890   7.438   0.564   7.161  0.0989  0.4446  0.8939
24817SOL     OW75891   2.576   2.563   7.291  0.2784 -0.4713 -0.6285
24817SOL    HW175892   2.544   2.576   7.202 -0.1465  0.3880 -0.3604
24817SOL    HW275893   2.638   2.635   7.305  1.3847 -1.3750 -0.6920
24818SOL     OW75894   2.829   3.200   7.073 -0.3785 -0.2129 -0.5582
24818SOL    HW175895   2.824   3.271   7.137  0.6088  1.8899 -2.6526
24818SOL    HW275896   2.760   3.220   7.011 -1.8996 -2.7109  0.2037
24819SOL     OW75897   0.019   3.184  10.460  0.4331  0.0618  0.0502
24819SOL    HW175898   0.097   3.143  10.498  0.5154  0.8053  0.7085
24819SOL    HW275899   0.050   3.225  10.380  0.7222  0.3353  0.2966
24820SOL     OW75900   6.830   1.369   6.667 -0.0277  0.4146 -0.5107
24820SOL    HW175901   6.848   1.287   6.622 -1.3503  0.1849 -0.6334
24820SOL    HW275902   6.916   1.411   6.674  0.7503 -1.1696 -0.0290
24821SOL     OW75903   1.088   7.534   5.832  0.1924  0.1258  0.3056
24821SOL    HW175904   1.017   7.516   5.893  1.8853  0.2598  2.4406
24821SOL    HW275905   1.074   7.624   5.804 -1.1303 -0.2404 -0.3028
24822SOL     OW75906   1.535   7.033  10.039 -0.1481  0.3891 -0.0590
24822SOL    HW175907   1.551   7.106   9.979 -0.3161  0.9252  0.5447
24822SOL    HW275908   1.447   7.003  10.017 -1.0518  1.9242  1.2964
24823SOL     OW75909   1.719   6.518  10.693 -0.4970  0.0866 -0.3099
24823SOL    HW175910   1.680   6.588  10.641 -1.4742  0.0945  0.4030
24823SOL    HW275911   1.654   6.500  10.761  1.0314  0.5623  1.3520
24824SOL     OW75912   2.217   1.978   0.544 -0.2152  0.1123  0.3283
24824SOL    HW175913   2.241   1.888   0.519 -1.2551  0.2353 -1.3141
24824SOL    HW275914   2.151   1.966   0.613  0.0482 -0.3678  0.5059
24825SOL     OW75915   7.628   1.932   5.701 -0.0986 -0.0176 -0.4592
24825SOL    HW175916   7.720   1.913   5.718  0.0394 -2.0226 -2.8430
24825SOL    HW275917   7.583   1.907   5.781  1.4081  1.5988  0.9974
24826SOL     OW75918   2.814   7.867   0.518  0.0139 -0.2051  0.0630
24826SOL    HW175919   2.739   7.877   0.459 -0.2666  1.8083  0.6963
24826SOL    HW275920   2.850   7.781   0.496  0.0460  0.5073 -3.1784
24827SOL     OW75921   4.961   3.746   9.579 -0.7715  0.0018 -0.0178
24827SOL    HW175922   4.932   3.663   9.542  0.9165 -1.0660  0.9203
24827SOL    HW275923   4.930   3.745   9.669 -2.0386  1.1065 -0.4088
24828SOL     OW75924   5.290   0.446   5.333  0.3179  0.2511  0.4091
24828SOL    HW175925   5.197   0.467   5.318  1.0075  1.5459 -2.8664
24828SOL    HW275926   5.291   0.351   5.346 -1.4707  0.2038  0.4552
24829SOL     OW75927   6.507   5.321   9.454  0.2773 -0.4596 -0.3698
24829SOL    HW175928   6.419   5.327   9.492  0.9186  1.6038  0.9561
24829SOL    HW275929   6.564   5.301   9.528  1.0703 -0.4900 -0.9774
24830SOL     OW75930   0.050   1.780   7.340 -0.6856 -0.2795  0.3024
24830SOL    HW175931   0.019   1.829   7.264 -2.2608 -1.7156 -0.0605
24830SOL    HW275932  -0.010   1.705   7.346  0.5544 -1.2194  1.8445
24831SOL     OW75933   7.898   0.332   3.072 -0.3687  0.0466  0.2507
24831SOL    HW175934   7.812   0.349   3.034  0.2258  0.6567 -0.8529
24831SOL    HW275935   7.955   0.401   3.037  0.2364  0.5763  2.1758
24832SOL     OW75936   5.573   1.232   7.701  0.5566  0.5445  0.1047
24832SOL    HW175937   5.556   1.227   7.607  2.1307  0.0326 -0.1788
24832SOL    HW275938   5.622   1.152   7.722  1.4350  1.2912  1.0700
24833SOL     OW75939   5.759   0.387  11.184 -0.1974 -0.0363  0.1471
24833SOL    HW175940   5.821   0.329  11.227  1.3484  1.4279 -0.0113
24833SOL    HW275941   5.674   0.364  11.223  0.7029 -0.8264  1.7423
24834SOL     OW75942   3.163   2.739   7.721  0.4383  0.1081  0.0815
24834SOL    HW175943   3.108   2.696   7.787  0.3745  1.3859  0.8920
24834SOL    HW275944   3.134   2.701   7.638  0.4880 -1.4978  0.7700
24835SOL     OW75945   6.974   3.603   5.426  0.1948 -0.6035  0.2894
24835SOL    HW175946   7.039   3.646   5.370 -1.2376  1.2126 -0.0534
24835SOL    HW275947   6.909   3.567   5.366 -0.9825  0.7334  0.7159
24836SOL     OW75948   1.741   2.395   2.603 -0.2037 -0.4099 -0.2222
24836SOL    HW175949   1.743   2.301   2.620 -0.4486 -0.2848  0.5427
24836SOL    HW275950   1.811   2.431   2.658 -2.0275  0.1966  1.8786
24837SOL     OW75951   7.208   6.136   2.902  0.0019 -0.6515 -0.1095
24837SOL    HW175952   7.211   6.193   2.824  0.2650  0.7757  0.9002
24837SOL    HW275953   7.121   6.097   2.900  0.0358 -0.7190 -1.1639
24838SOL     OW75954   4.018   2.671   4.360  0.1807 -0.4887  0.2920
24838SOL    HW175955   4.032   2.733   4.289  1.2689  0.3012  1.1688
24838SOL    HW275956   3.956   2.607   4.324  0.7255 -0.1343 -1.3699
24839SOL     OW75957   0.416   0.272  11.792 -0.3630 -0.7826 -0.4374
24839SOL    HW175958   0.457   0.299  11.710 -0.7457 -0.8473 -0.6518
24839SOL    HW275959   0.486   0.228  11.840  0.5683  1.3623  0.3211
24840SOL     OW75960   0.427   6.965  11.333  0.1272  0.2348 -0.3143
24840SOL    HW175961   0.448   6.945  11.425  0.8323  1.7331 -0.1147
24840SOL    HW275962   0.333   6.981  11.334  0.6151  4.1055  1.0384
24841SOL     OW75963   5.324   2.331   2.032  0.5491 -0.0642 -0.6459
24841SOL    HW175964   5.342   2.406   1.975 -0.7036 -0.5628 -1.7376
24841SOL    HW275965   5.319   2.256   1.972 -0.8172 -0.6014  0.1009
24842SOL     OW75966   3.202   5.817   8.025  0.1581  0.1623 -0.4536
24842SOL    HW175967   3.212   5.882   7.955  0.8318 -0.2203 -0.7216
24842SOL    HW275968   3.160   5.742   7.983 -1.9880  0.9189  0.1727
24843SOL     OW75969   3.161   6.129   4.324  0.4104  0.1442 -0.4152
24843SOL    HW175970   3.253   6.109   4.308  0.8984  1.4702  0.5751
24843SOL    HW275971   3.162   6.206   4.380 -1.2717 -1.4206  1.9438
24844SOL     OW75972   2.114   3.404   7.363 -0.1406  0.3489 -0.4071
24844SOL    HW175973   2.077   3.455   7.435  3.1090  1.6185  0.5734
24844SOL    HW275974   2.182   3.350   7.403 -0.2655 -1.2162 -2.1390
24845SOL     OW75975   3.966   3.157   4.340  0.5237  0.0379  0.0551
24845SOL    HW175976   3.975   3.071   4.380  0.1366 -0.1443 -0.2503
24845SOL    HW275977   4.043   3.166   4.283  0.3193 -0.3063 -0.2807
24846SOL     OW75978   6.141   7.251   4.075 -0.2909  0.1399 -0.2676
24846SOL    HW175979   6.092   7.330   4.100  0.5208  0.4132  0.5440
24846SOL    HW275980   6.218   7.252   4.133  0.0987 -0.8645 -0.7498
24847SOL     OW75981   6.185   7.488   5.376  0.0885 -0.6895 -0.5976
24847SOL    HW175982   6.092   7.498   5.395  0.1841  0.3754 -0.6302
24847SOL    HW275983   6.212   7.410   5.424 -0.6505 -0.5500  0.0501
24848SOL     OW75984   0.827   2.351  11.094  0.3557 -0.1061  0.2297
24848SOL    HW175985   0.907   2.344  11.146 -0.2485 -1.2054  1.0310
24848SOL    HW275986   0.763   2.388  11.154 -0.0565 -0.3657 -0.0503
24849SOL     OW75987   2.309   0.195   3.222 -0.0346 -0.2567 -0.5422
24849SOL    HW175988   2.328   0.273   3.171  2.4488 -0.0526  0.5545
24849SOL    HW275989   2.335   0.121   3.167  0.1962 -0.1727 -0.5430
24850SOL     OW75990   6.985   6.639   3.044 -0.0530 -0.7303  0.4149
24850SOL    HW175991   7.031   6.714   3.005 -0.8252  0.4425  1.6588
24850SOL    HW275992   7.055   6.584   3.078  0.5334 -0.6119 -0.5383
24851SOL     OW75993   7.569   5.469   9.546 -0.4674  0.6892 -0.6791
24851SOL    HW175994   7.578   5.379   9.577 -0.6551  0.8645 -0.1087
24851SOL    HW275995   7.476   5.488   9.557 -0.5909  0.6660 -1.6054
24852SOL     OW75996   6.963   6.355   1.862  0.0723 -0.3468 -0.4714
24852SOL    HW175997   6.888   6.348   1.803  0.0265 -0.5433 -0.3928
24852SOL    HW275998   6.937   6.420   1.927 -0.2314 -0.7827 -0.1508
24853SOL     OW75999   1.623   2.847   7.127 -0.2765  0.1054  0.3912
24853SOL    HW176000   1.707   2.866   7.168  0.5637 -0.4459 -0.9843
24853SOL    HW276001   1.618   2.910   7.054  0.5188 -1.9568 -1.5507
24854SOL     OW76002   0.006   5.772   0.486 -0.5160  0.3487  0.4689
24854SOL    HW176003   0.035   5.805   0.401  1.2563  0.1273  0.9554
24854SOL    HW276004  -0.075   5.724   0.466 -0.9311  1.4990 -0.8505
24855SOL     OW76005   5.366   0.982  10.468 -0.5721 -0.4307 -0.1612
24855SOL    HW176006   5.283   0.999  10.423  1.1320  0.0455 -3.4760
24855SOL    HW276007   5.399   1.069  10.489 -0.3869 -0.5732  0.1367
24856SOL     OW76008   0.072   7.774  11.380 -0.0690 -0.2529 -0.6497
24856SOL    HW176009  -0.004   7.830  11.393 -0.5388 -0.9145 -0.5093
24856SOL    HW276010   0.109   7.802  11.296 -0.0061  0.5875 -0.3588
24857SOL     OW76011   6.926   1.161   5.733 -0.1157 -0.2289  0.3609
24857SOL    HW176012   7.004   1.205   5.766  0.3550 -0.8800  0.1277
24857SOL    HW276013   6.955   1.117   5.653 -0.9989  0.4943 -0.3894
24858SOL     OW76014   1.219   5.485   0.107 -0.1574 -0.0240  0.4416
24858SOL    HW176015   1.245   5.575   0.126  2.1962 -0.2789 -1.1549
24858SOL    HW276016   1.277   5.430   0.160 -0.9424 -0.6344  0.6989
24859SOL     OW76017   4.016   1.062  12.017 -0.0185 -0.0972  0.1487
24859SOL    HW176018   4.098   1.097  12.051 -0.1087  1.0933 -0.8198
24859SOL    HW276019   3.949   1.124  12.048 -0.0294  1.4365 -2.6851
24860SOL     OW76020   1.439   3.775   9.658  0.0748 -0.2860 -0.0310
24860SOL    HW176021   1.483   3.802   9.738 -0.8591  0.0624  0.3647
24860SOL    HW276022   1.498   3.710   9.620  0.0239 -1.2614  1.4882
24861SOL     OW76023   7.103   0.502   3.662 -0.0921  0.0929  0.2884
24861SOL    HW176024   7.184   0.527   3.617  1.0038 -0.7943  1.6666
24861SOL    HW276025   7.132   0.478   3.750 -1.3685 -3.3241 -0.0784
24862SOL     OW76026   6.876   3.623   5.903 -0.3284  0.8023  0.6825
24862SOL    HW176027   6.795   3.590   5.943 -0.4149 -0.1911 -0.2770
24862SOL    HW276028   6.939   3.623   5.976 -0.6113 -0.5257  0.9669
24863SOL     OW76029   0.977   0.639   1.559  0.4097  0.2974  0.4990
24863SOL    HW176030   1.067   0.670   1.569  1.0301 -0.8106 -1.3158
24863SOL    HW276031   0.984   0.560   1.505 -1.7313  0.5866 -0.2833
24864SOL     OW76032   5.244   3.007   2.835  0.4328  0.1046 -0.7873
24864SOL    HW176033   5.321   3.058   2.861  1.2553 -0.6986 -1.5469
24864SOL    HW276034   5.258   2.988   2.742 -0.1446 -0.9470 -0.6797
24865SOL     OW76035   0.039   4.331   0.819 -0.0396 -0.2156  0.0853
24865SOL    HW176036   0.071   4.260   0.764  0.4903 -0.9768  1.3250
24865SOL    HW276037   0.117   4.380   0.844 -0.3520  0.5503 -0.3866
24866SOL     OW76038   2.583   5.642   7.069 -0.1396  0.2616  0.2272
24866SOL    HW176039   2.603   5.556   7.033 -0.6510 -0.3403  1.3270
24866SOL    HW276040   2.495   5.661   7.037  0.2120  0.6582 -0.5167
24867SOL     OW76041   6.341   7.754   3.138  0.7518 -0.2051  0.4060
24867SOL    HW176042   6.363   7.711   3.221 -0.1887  0.7254  1.1734
24867SOL    HW276043   6.289   7.690   3.091 -0.4273 -0.0461  1.4325
24868SOL     OW76044   7.250   4.057   3.563  0.2690  0.1636 -0.5941
24868SOL    HW176045   7.239   4.129   3.626  1.0340  0.5464 -0.8852
24868SOL    HW276046   7.200   3.984   3.601  0.3458  0.5257  0.2295
24869SOL     OW76047   2.631   1.205   0.814  0.8293 -0.3897 -0.3174
24869SOL    HW176048   2.570   1.276   0.836  1.3051 -0.1243  0.1797
24869SOL    HW276049   2.718   1.244   0.826  1.2137  0.2325 -4.0393
24870SOL     OW76050   0.096   6.300   4.567  0.0076  0.1399 -0.0603
24870SOL    HW176051   0.110   6.211   4.534  3.4895 -0.0415  1.5386
24870SOL    HW276052   0.116   6.356   4.492 -1.0281 -0.3653 -0.7370
24871SOL     OW76053   2.399   5.553   3.580  0.2743  0.1265 -0.4531
24871SOL    HW176054   2.462   5.556   3.508  0.7903  0.5600  0.0105
24871SOL    HW276055   2.359   5.640   3.581 -0.9792 -0.4099 -1.2992
24872SOL     OW76056   7.265   7.875   8.762 -0.1652 -0.5742  0.2131
24872SOL    HW176057   7.280   7.916   8.677 -0.8829 -2.0933 -0.6854
24872SOL    HW276058   7.223   7.792   8.742 -1.3665 -0.5033  2.1172
24873SOL     OW76059   4.334   2.366   1.889  0.2191  0.3532  0.0876
24873SOL    HW176060   4.350   2.274   1.906 -1.0734  0.4235  1.9681
24873SOL    HW276061   4.338   2.374   1.794  1.6779 -1.3504 -0.0476
24874SOL     OW76062   4.807   4.933   5.813 -0.1916 -0.5583  0.3594
24874SOL    HW176063   4.725   4.896   5.845  1.1796 -3.0224  1.3818
24874SOL    HW276064   4.832   4.875   5.740  1.4394 -0.9748  1.1950
24875SOL     OW76065   2.637   6.568   9.009 -0.5972  0.0130  0.7896
24875SOL    HW176066   2.560   6.617   9.039 -1.2929 -0.9259  0.5828
24875SOL    HW276067   2.644   6.589   8.916 -1.6885 -1.2782  0.3920
24876SOL     OW76068   5.832   1.563  12.256  1.2696 -0.3011 -0.0893
24876SOL    HW176069   5.897   1.628  12.230  0.0593  1.0769  0.2300
24876SOL    HW276070   5.868   1.524  12.335  2.6043 -0.9689 -0.9768
24877SOL     OW76071   4.543   0.366   5.910 -0.0573 -0.0922 -0.1823
24877SOL    HW176072   4.543   0.459   5.890 -0.6934  0.1561  0.9416
24877SOL    HW276073   4.465   0.332   5.866  1.1608 -0.4896 -2.1933
24878SOL     OW76074   1.546   2.461   3.272  0.0532 -0.0783 -0.3567
24878SOL    HW176075   1.513   2.508   3.195 -0.8622  0.6929  0.4792
24878SOL    HW276076   1.564   2.373   3.239  2.1014  0.8813 -2.0255
24879SOL     OW76077   7.133   7.374   5.658  0.2314 -0.0582 -0.3611
24879SOL    HW176078   7.193   7.428   5.709 -1.0258  0.3416  0.7773
24879SOL    HW276079   7.183   7.295   5.637  1.6651  0.9458 -0.9019
24880SOL     OW76080   7.915   1.514   8.327  0.1920 -0.0386 -0.0201
24880SOL    HW176081   7.900   1.424   8.356 -1.5160  0.3960  0.6141
24880SOL    HW276082   8.006   1.516   8.299  0.2759 -1.9489 -0.0093
24881SOL     OW76083   6.800   7.433  11.146 -0.0169  0.2975 -0.4722
24881SOL    HW176084   6.815   7.338  11.142 -0.2659  0.2841 -1.2424
24881SOL    HW276085   6.711   7.442  11.179 -0.4332  0.2215 -1.5309
24882SOL     OW76086   6.404   1.045   7.463 -0.6895 -0.3880 -0.1930
24882SOL    HW176087   6.387   0.975   7.399  0.8034 -0.0853 -0.9744
24882SOL    HW276088   6.456   1.004   7.531  0.1793 -0.0689 -0.6462
24883SOL     OW76089   1.632   0.478   7.450  0.1670 -0.2203  0.3214
24883SOL    HW176090   1.717   0.450   7.416  0.3960  0.5877  0.1985
24883SOL    HW276091   1.579   0.495   7.372 -0.1051 -0.6888  0.3974
24884SOL     OW76092   1.007   4.463   8.936  0.1791  0.9068  0.1460
24884SOL    HW176093   1.027   4.487   9.026  0.6713  0.3189  0.1988
24884SOL    HW276094   0.927   4.410   8.942  1.6913 -1.4642  0.5697
24885SOL     OW76095   3.775   1.701   4.351  0.4943  0.1990 -0.7390
24885SOL    HW176096   3.746   1.788   4.379 -2.0973 -0.1852 -1.9415
24885SOL    HW276097   3.798   1.712   4.259 -2.8783 -0.8797 -1.8484
24886SOL     OW76098   7.390   7.908   8.991  0.1804 -0.0228  0.1742
24886SOL    HW176099   7.411   7.816   9.005  0.7218  0.3679  2.2313
24886SOL    HW276100   7.357   7.912   8.901  0.8375 -2.0831 -0.2007
24887SOL     OW76101   0.060   6.736   3.175 -0.4536  0.3909 -0.3457
24887SOL    HW176102   0.031   6.788   3.100  0.6760 -0.2821 -1.2836
24887SOL    HW276103   0.107   6.799   3.230 -2.6444  1.2525  0.6633
24888SOL     OW76104   7.392   1.550   0.355 -0.7418  0.5009 -0.0406
24888SOL    HW176105   7.308   1.517   0.326  0.6621 -1.6008 -2.0689
24888SOL    HW276106   7.388   1.644   0.339 -2.2076  0.2369 -1.4158
24889SOL     OW76107   5.225   0.521   0.335 -0.6601 -0.1773 -0.5298
24889SOL    HW176108   5.150   0.526   0.276  0.9875  0.0173 -2.7493
24889SOL    HW276109   5.268   0.606   0.328  1.1413 -1.0757 -1.3353
24890SOL     OW76110   6.652   0.064   3.550 -0.1933 -0.0171 -0.0693
24890SOL    HW176111   6.646   0.023   3.636 -0.4922  0.6007  0.2164
24890SOL    HW276112   6.583   0.131   3.551 -1.3077 -1.0914 -1.3961
24891SOL     OW76113   3.675   6.139   5.043  0.2413 -0.7726 -0.5344
24891SOL    HW176114   3.768   6.164   5.043 -0.0791  0.4715 -1.2274
24891SOL    HW276115   3.657   6.117   5.134  0.7620  0.7606 -0.0294
24892SOL     OW76116   0.833   4.504   6.144 -0.5367 -0.0637  0.1449
24892SOL    HW176117   0.825   4.589   6.100 -1.7469  0.1289  0.6963
24892SOL    HW276118   0.848   4.526   6.236  1.9748 -0.4609 -0.0947
24893SOL     OW76119   2.601   3.715   6.326  0.0318 -0.2848 -0.3879
24893SOL    HW176120   2.551   3.783   6.372  0.1274  0.6102 -1.5699
24893SOL    HW276121   2.551   3.698   6.246  0.6628 -0.6975 -0.7012
24894SOL     OW76122   0.957   1.970   5.289  0.0924 -0.3398 -0.2780
24894SOL    HW176123   0.950   1.935   5.201 -3.5806 -0.2831 -0.1458
24894SOL    HW276124   0.892   2.040   5.293  1.7686  1.2576  1.8232
24895SOL     OW76125   2.585   1.222   9.948 -0.0506  0.7047  0.6046
24895SOL    HW176126   2.585   1.305   9.995  0.6181 -0.2325  2.3389
24895SOL    HW276127   2.677   1.206   9.928 -0.1097  0.0971  0.8070
24896SOL     OW76128   4.001   7.717   4.048 -0.0177  0.2492 -0.0555
24896SOL    HW176129   4.063   7.772   4.096  1.1943 -1.8870  0.9780
24896SOL    HW276130   3.978   7.648   4.110  0.2364 -1.6339 -1.9654
24897SOL     OW76131   5.764   5.481   8.909  0.0499 -0.4739  0.2773
24897SOL    HW176132   5.671   5.495   8.894  0.0599 -0.3544  0.3255
24897SOL    HW276133   5.767   5.413   8.976 -0.0058 -0.3214  0.4349
24898SOL     OW76134   6.649   7.003   1.246 -0.4142 -0.3206  0.4362
24898SOL    HW176135   6.730   6.961   1.278  0.9566  2.3722  0.7591
24898SOL    HW276136   6.609   7.040   1.324 -0.9550  0.0237 -0.0029
24899SOL     OW76137   0.511   2.913   8.689  1.3369 -0.0428 -0.1517
24899SOL    HW176138   0.570   2.924   8.615 -0.0571 -0.1683 -1.3299
24899SOL    HW276139   0.520   2.821   8.714  0.7749 -0.3740 -1.1156
24900SOL     OW76140   2.622   1.097   3.582  0.1308 -0.2782 -0.0475
24900SOL    HW176141   2.584   1.037   3.518  1.3399 -0.3912 -0.7096
24900SOL    HW276142   2.557   1.166   3.593 -0.1196 -0.2624 -1.4166
24901SOL     OW76143   3.233   6.388   0.958 -0.5963  0.4273 -0.1188
24901SOL    HW176144   3.161   6.358   0.902 -0.5582 -1.1923  0.6528
24901SOL    HW276145   3.190   6.418   1.038 -0.4666  0.0842  0.0817
24902SOL     OW76146   2.789   0.765  10.940  0.9586  0.8659 -0.7078
24902SOL    HW176147   2.819   0.686  10.986 -0.7643  0.9029  0.5858
24902SOL    HW276148   2.855   0.831  10.960  0.7680  0.5984  0.9518
24903SOL     OW76149   6.224   3.135   6.486 -0.3521  0.1131 -0.0877
24903SOL    HW176150   6.137   3.159   6.454 -0.4388  3.5079  2.1496
24903SOL    HW276151   6.281   3.206   6.455  0.8513 -0.0986  1.4947
24904SOL     OW76152   7.316   7.661   0.756  0.3507 -0.4150 -0.4905
24904SOL    HW176153   7.279   7.577   0.730 -0.3513  0.0564 -1.0713
24904SOL    HW276154   7.356   7.645   0.841  1.4135 -1.6539 -1.1811
24905SOL     OW76155   0.925   5.930  11.647 -0.0671  0.0851  0.0052
24905SOL    HW176156   0.923   6.026  11.651  0.2381  0.1528 -1.1222
24905SOL    HW276157   0.918   5.902  11.739  0.6258  1.1976  0.4154
24906SOL     OW76158   1.430   2.526   1.893 -0.3873  0.1342  0.4124
24906SOL    HW176159   1.479   2.528   1.975 -1.4262  0.2197  1.0553
24906SOL    HW276160   1.357   2.586   1.908  0.0109  1.0112 -0.9840
24907SOL     OW76161   4.731   0.813   0.402  0.3564 -0.2472  0.3546
24907SOL    HW176162   4.800   0.818   0.337  0.0467 -1.8090 -0.1362
24907SOL    HW276163   4.761   0.868   0.474  1.5129  0.0962 -0.3719
24908SOL     OW76164   1.503   2.062   3.592 -0.1093 -0.0328  0.4739
24908SOL    HW176165   1.525   1.990   3.652 -2.1068 -1.1908 -0.0847
24908SOL    HW276166   1.511   2.141   3.645  1.7715 -0.6560  1.2136
24909SOL     OW76167   1.600   7.371   0.131  0.2251  0.0381 -0.1415
24909SOL    HW176168   1.576   7.377   0.039  0.9684  1.9899 -0.2618
24909SOL    HW276169   1.696   7.373   0.131  0.2564 -0.7605  0.6531
24910SOL     OW76170   2.665   3.078  11.721 -0.3363 -0.3483 -0.4731
24910SOL    HW176171   2.755   3.050  11.708 -0.1589  0.8446 -2.1876
24910SOL    HW276172   2.673   3.167  11.756 -0.8789 -1.0251  1.4858
24911SOL     OW76173   6.526   4.110   0.089 -0.0264  0.2229  0.4415
24911SOL    HW176174   6.609   4.075   0.057 -0.1471  1.1461 -0.9893
24911SOL    HW276175   6.460   4.068   0.034 -0.2428  1.8882 -0.6210
24912SOL     OW76176   0.279   6.847   3.320 -0.3013  0.0664 -0.1738
24912SOL    HW176177   0.324   6.770   3.354  1.4259  0.3971 -1.5614
24912SOL    HW276178   0.213   6.867   3.386 -0.3825 -2.2147  0.5157
24913SOL     OW76179   6.856   6.949   9.503  0.6092  0.1848 -0.1096
24913SOL    HW176180   6.787   6.903   9.550 -0.0349  0.5113 -0.7277
24913SOL    HW276181   6.814   6.983   9.424  1.3818  0.7049 -0.3146
24914SOL     OW76182   4.193   5.419   4.935 -0.0129  0.2152  0.6537
24914SOL    HW176183   4.266   5.371   4.974 -0.2522 -0.9171 -0.2343
24914SOL    HW276184   4.167   5.366   4.860 -0.3818  1.6980 -0.2991
24915SOL     OW76185   0.110   0.585   5.215  0.1403 -0.3257  0.4311
24915SOL    HW176186   0.095   0.495   5.185  0.2187 -1.2792  2.9389
24915SOL    HW276187   0.205   0.596   5.213  0.0620  0.3228 -1.3673
24916SOL     OW76188   4.005   4.277   1.049 -0.0980  0.3550 -0.9145
24916SOL    HW176189   4.048   4.202   1.007 -0.3951  0.1070 -0.7851
24916SOL    HW276190   3.970   4.329   0.977 -0.1786  0.1919 -0.9931
24917SOL     OW76191   1.892   2.220   0.218 -0.2776 -0.4118  0.1995
24917SOL    HW176192   1.895   2.269   0.135 -0.6791 -0.1985  0.3086
24917SOL    HW276193   1.909   2.286   0.285 -0.4737 -0.4850  0.3233
24918SOL     OW76194   6.074   5.212   6.425 -0.5275 -0.3343  0.3538
24918SOL    HW176195   6.104   5.122   6.439 -2.7227 -1.1795 -0.0189
24918SOL    HW276196   6.026   5.235   6.505  1.4378  1.1996  1.1808
24919SOL     OW76197   6.897   6.548   2.072 -0.4174  0.8264  0.2965
24919SOL    HW176198   6.870   6.473   2.124 -1.4116  0.2338 -0.9948
24919SOL    HW276199   6.929   6.612   2.135 -1.6079  0.1595  1.6171
24920SOL     OW76200   6.796   2.221   4.106 -0.3269  0.2536 -0.2194
24920SOL    HW176201   6.890   2.238   4.103  0.0555 -0.1422  3.5918
24920SOL    HW276202   6.755   2.306   4.090  0.6435  0.4831 -1.6423
24921SOL     OW76203   7.521   2.252   6.547 -0.0897 -0.5628 -0.4471
24921SOL    HW176204   7.593   2.251   6.610 -1.8306  2.5655  1.8649
24921SOL    HW276205   7.559   2.284   6.466  1.3229 -0.0306  0.4070
24922SOL     OW76206   0.848   7.571   4.632  0.4327  0.3668  0.8227
24922SOL    HW176207   0.820   7.483   4.610  1.7504  0.0933  0.0938
24922SOL    HW276208   0.928   7.559   4.683  0.8890  1.1233  0.3226
24923SOL     OW76209   5.851   1.853   4.579 -0.5458  0.6169  0.1628
24923SOL    HW176210   5.807   1.874   4.497 -0.9958 -2.6526 -0.5696
24923SOL    HW276211   5.782   1.813   4.633  0.1691  1.0225  1.4075
24924SOL     OW76212   2.875   1.307  10.519 -0.4358 -0.4187 -0.4326
24924SOL    HW176213   2.814   1.380  10.513 -1.9132 -1.4407  1.1810
24924SOL    HW276214   2.825   1.231  10.487 -0.2786 -1.3977  1.5179
24925SOL     OW76215   5.668   6.856   6.137 -0.0825  0.0414  0.0757
24925SOL    HW176216   5.682   6.881   6.228  0.3221  1.1890 -0.2814
24925SOL    HW276217   5.591   6.799   6.139 -1.5992  2.0357  0.8589
24926SOL     OW76218   5.497   3.428   2.412 -0.2015  0.7312  0.4228
24926SOL    HW176219   5.569   3.367   2.393 -0.3053  0.7882 -0.1506
24926SOL    HW276220   5.489   3.481   2.333 -0.5720  1.0340  0.6624
24927SOL     OW76221   7.315   5.701   3.180  0.4199 -0.4254 -0.2618
24927SOL    HW176222   7.349   5.784   3.146  0.9638 -0.2731  0.6144
24927SOL    HW276223   7.389   5.662   3.227  0.3119 -1.6471 -1.0672
24928SOL     OW76224   5.026   3.429   3.845 -0.0251  0.6131  0.3724
24928SOL    HW176225   4.932   3.446   3.843  0.1534  1.6266 -0.0473
24928SOL    HW276226   5.065   3.507   3.806  0.8299 -0.8625 -1.9505
24929SOL     OW76227   1.952   5.006  11.695  0.1982  0.0226 -0.5039
24929SOL    HW176228   1.868   5.025  11.654  0.5031 -1.6092 -2.0023
24929SOL    HW276229   1.985   4.929  11.648  1.5379 -0.6857  1.4618
24930SOL     OW76230   1.848   4.306   7.621  0.0209  0.8098 -0.1549
24930SOL    HW176231   1.834   4.339   7.710  1.5603 -1.1224  0.8842
24930SOL    HW276232   1.762   4.276   7.592 -0.3850  0.8756  0.9349
24931SOL     OW76233   5.222   3.885   8.101  0.0158 -0.1941 -0.0439
24931SOL    HW176234   5.241   3.900   8.194 -2.5362  0.3234  0.4832
24931SOL    HW276235   5.222   3.790   8.092 -0.6213 -0.2888  0.7514
24932SOL     OW76236   3.564   1.323   2.586  0.2349 -0.0266  0.2713
24932SOL    HW176237   3.552   1.231   2.560 -0.7791  0.5958 -1.6233
24932SOL    HW276238   3.476   1.361   2.585  0.9256  1.9643 -3.2668
24933SOL     OW76239   0.856   7.252   0.365  0.3080 -0.0225 -0.3811
24933SOL    HW176240   0.844   7.285   0.454 -1.2280 -0.4666 -0.3830
24933SOL    HW276241   0.811   7.167   0.365  2.5713 -1.2956 -0.8781
24934SOL     OW76242   7.001   7.767  10.940  0.6639 -0.3804  0.1975
24934SOL    HW176243   7.053   7.734  10.867  1.1477 -1.5367  1.0306
24934SOL    HW276244   7.024   7.711  11.014 -2.3892 -1.5147  0.4333
24935SOL     OW76245   6.154   3.373   9.012  0.1774 -0.3668  0.4120
24935SOL    HW176246   6.093   3.362   9.086  1.7376  1.5750  2.0805
24935SOL    HW276247   6.208   3.294   9.014  0.8522  0.0954  2.0378
24936SOL     OW76248   4.734   6.163   9.068  0.1212 -0.3773 -0.1884
24936SOL    HW176249   4.696   6.117   9.142 -2.0135 -0.0177 -0.9859
24936SOL    HW276250   4.658   6.191   9.015  1.5211  0.0881 -2.0677
24937SOL     OW76251   5.474   3.250   7.579  0.0972 -0.0344 -0.2067
24937SOL    HW176252   5.396   3.305   7.565  0.3991 -0.1255 -2.7382
24937SOL    HW276253   5.440   3.161   7.588 -0.1787  0.1318  0.4441
24938SOL     OW76254   3.205   7.721   8.053 -0.2084  0.0059  0.6216
24938SOL    HW176255   3.299   7.702   8.048 -0.4535 -1.0000 -0.5978
24938SOL    HW276256   3.183   7.754   7.966 -0.5851  2.3999  1.5394
24939SOL     OW76257   3.614   2.985   5.590 -0.0880 -0.3873  0.1734
24939SOL    HW176258   3.656   3.046   5.528  0.1363 -0.7940 -0.0775
24939SOL    HW276259   3.520   3.000   5.577 -0.0781 -1.2178 -1.0398
24940SOL     OW76260   2.915   2.193  10.385 -0.0563 -0.1542  0.2732
24940SOL    HW176261   2.917   2.191  10.290 -1.0754  0.5986  0.2108
24940SOL    HW276262   2.868   2.113  10.410  1.8191 -1.3224  0.2699
24941SOL     OW76263   3.490   2.414   9.995 -0.4626 -0.0151 -0.3515
24941SOL    HW176264   3.479   2.509  10.003  0.8691  0.1982 -0.8613
24941SOL    HW276265   3.464   2.396   9.904  0.1606  0.0078 -0.5387
24942SOL     OW76266   4.803   6.775   4.150 -0.3986 -0.3430  0.0166
24942SOL    HW176267   4.717   6.816   4.162 -0.8232 -1.2059  0.0542
24942SOL    HW276268   4.842   6.774   4.237  0.1042  1.0020 -0.1816
24943SOL     OW76269   0.339   1.638  10.350 -0.3720 -0.7682  0.1191
24943SOL    HW176270   0.354   1.731  10.368 -0.7413 -0.6974  0.0704
24943SOL    HW276271   0.294   1.637  10.266  0.6544 -1.0595 -0.4403
24944SOL     OW76272   6.173   2.457   3.242 -0.2705  0.3070 -0.0546
24944SOL    HW176273   6.191   2.547   3.270 -1.2608  0.7736 -0.8444
24944SOL    HW276274   6.256   2.412   3.252  0.9134  1.9026 -1.8445
24945SOL     OW76275   6.087   2.374   7.595  0.6009 -0.5200  0.6131
24945SOL    HW176276   6.152   2.318   7.553  2.5479  1.1407  1.2410
24945SOL    HW276277   6.003   2.333   7.575  1.7649 -2.2880 -0.9679
24946SOL     OW76278   2.860   5.224   0.162  0.4638 -0.0628 -0.9895
24946SOL    HW176279   2.873   5.161   0.233 -4.3034 -2.2611 -1.6467
24946SOL    HW276280   2.898   5.181   0.085  0.7017 -0.2815 -0.7519
24947SOL     OW76281   4.460   6.927  11.985  0.3229  0.0893 -0.1005
24947SOL    HW176282   4.504   6.927  12.071  0.5988  0.1927 -0.2389
24947SOL    HW276283   4.413   6.844  11.982  0.9098 -0.2493 -0.1456
24948SOL     OW76284   2.947   3.890   0.255 -0.2976  0.3982  0.1133
24948SOL    HW176285   2.928   3.961   0.316 -1.1691  0.1991  0.0758
24948SOL    HW276286   2.862   3.862   0.222 -0.1338 -1.6788  1.2495
24949SOL     OW76287   1.327   7.748   1.139  0.5248 -0.6793  0.0323
24949SOL    HW176288   1.266   7.767   1.210  1.3472  1.9375  0.1379
24949SOL    HW276289   1.308   7.657   1.115 -3.3369 -0.0777  0.0976
24950SOL     OW76290   7.238   5.896   6.864  0.0029  0.1112 -0.3642
24950SOL    HW176291   7.204   5.807   6.855 -1.3571  0.7895 -3.0182
24950SOL    HW276292   7.164   5.946   6.899 -0.3879  0.7785 -2.0513
24951SOL     OW76293   2.740   1.637   4.374  0.0338 -0.5507 -0.4064
24951SOL    HW176294   2.648   1.614   4.359  0.3559 -1.6964 -0.6622
24951SOL    HW276295   2.746   1.645   4.469 -0.3374 -0.4310 -0.3883
24952SOL     OW76296   2.457   1.047   4.449  0.1531 -0.0113 -0.6962
24952SOL    HW176297   2.385   0.985   4.451 -0.8009  1.0681 -0.6779
24952SOL    HW276298   2.467   1.076   4.539  0.5098 -0.0333 -0.7255
24953SOL     OW76299   7.699   5.970   0.634  0.1645  0.0238 -0.2986
24953SOL    HW176300   7.763   5.951   0.702 -0.5110 -0.1045  0.3149
24953SOL    HW276301   7.645   5.890   0.629 -0.1559  0.2526 -0.5678
24954SOL     OW76302   5.427   7.519   4.122 -0.3910  0.0414 -0.8473
24954SOL    HW176303   5.446   7.598   4.072  1.8079 -0.5062 -1.0091
24954SOL    HW276304   5.456   7.539   4.211  2.2620 -1.1720 -1.3230
24955SOL     OW76305   0.785   5.047   0.386 -0.1655 -0.2432  0.0079
24955SOL    HW176306   0.742   5.132   0.398  1.2564  0.4662  0.3787
24955SOL    HW276307   0.731   4.985   0.434 -0.9162  0.5571  0.2259
24956SOL     OW76308   2.452   2.700   3.512 -0.1924  0.1211 -0.2161
24956SOL    HW176309   2.371   2.709   3.461  1.1885  1.6323 -2.3408
24956SOL    HW276310   2.511   2.654   3.453  1.7176  2.5802 -0.3821
24957SOL     OW76311   4.035   7.761  10.446  0.1764  0.2411  0.2846
24957SOL    HW176312   4.095   7.791  10.378 -0.1771 -0.4532 -0.3561
24957SOL    HW276313   4.056   7.668  10.456 -1.2581 -0.1792 -0.4559
24958SOL     OW76314   7.390   3.410   8.638  0.2860 -0.0378 -0.1608
24958SOL    HW176315   7.480   3.434   8.620  0.3982 -0.1669  0.2232
24958SOL    HW276316   7.387   3.315   8.626  0.6662 -0.3212  1.6947
24959SOL     OW76317   0.852   4.310   3.444  0.0136  0.1352  0.0561
24959SOL    HW176318   0.943   4.281   3.440  0.1714  0.7164 -0.8088
24959SOL    HW276319   0.843   4.352   3.530  0.2587 -0.8713  0.5866
24960SOL     OW76320   6.419   4.367  10.076 -0.3425  0.3946 -0.2843
24960SOL    HW176321   6.463   4.283  10.063  0.6867  0.8603  0.0609
24960SOL    HW276322   6.474   4.413  10.140 -1.7612  0.6917  0.7601
24961SOL     OW76323   3.299   4.318   8.812 -0.1891  0.6567  0.1364
24961SOL    HW176324   3.293   4.411   8.834 -0.1084 -0.0744  4.0267
24961SOL    HW276325   3.213   4.297   8.776  0.1818  2.3898 -1.9452
24962SOL     OW76326   6.978   4.585   6.243  0.0208 -0.1868 -0.3390
24962SOL    HW176327   6.929   4.503   6.237 -1.3684  0.6059 -0.2973
24962SOL    HW276328   7.017   4.583   6.330  2.0770 -1.8890 -1.2280
24963SOL     OW76329   0.040   5.465   4.944  0.4402 -0.3839  0.0378
24963SOL    HW176330   0.055   5.411   4.867 -4.0978 -0.0268 -1.4178
24963SOL    HW276331   0.024   5.402   5.015 -0.4463 -0.8968 -0.5993
24964SOL     OW76332   5.171   3.235   3.991  0.1616 -0.1570 -0.0452
24964SOL    HW176333   5.215   3.268   4.069  1.1955 -1.0012 -0.2337
24964SOL    HW276334   5.109   3.304   3.966  0.9138  0.7809  0.6219
24965SOL     OW76335   4.296   6.768   8.529 -0.4712 -0.0166  0.1124
24965SOL    HW176336   4.359   6.697   8.519  0.5077  0.8774 -0.3433
24965SOL    HW276337   4.295   6.812   8.444 -1.5277  0.1454  0.1933
24966SOL     OW76338   5.294   2.424   3.895  0.2599  0.4232 -0.0850
24966SOL    HW176339   5.281   2.489   3.827  1.1819  0.4419 -0.2422
24966SOL    HW276340   5.386   2.430   3.918 -0.1050  0.6856  1.4351
24967SOL     OW76341   0.771   1.958   9.021  0.0347  0.0359 -0.1038
24967SOL    HW176342   0.679   1.973   9.040 -0.2262 -0.0819 -1.1818
24967SOL    HW276343   0.783   1.864   9.030 -0.2587 -0.1172 -1.1371
24968SOL     OW76344   5.478   0.898   1.738 -0.4263  0.1436  0.1618
24968SOL    HW176345   5.502   0.972   1.681 -0.6083  0.1409  0.0824
24968SOL    HW276346   5.473   0.824   1.679  0.6554 -0.1246  0.3728
24969SOL     OW76347   3.545   2.615   0.595  0.5346  0.3202  0.1414
24969SOL    HW176348   3.569   2.661   0.514  0.6736  1.7783  0.9680
24969SOL    HW276349   3.627   2.576   0.625  0.7865  0.9265  0.2650
24970SOL     OW76350   6.058   6.777   7.277  0.3884  0.3593 -0.6821
24970SOL    HW176351   6.001   6.735   7.341  1.7357  2.0328  1.7924
24970SOL    HW276352   6.140   6.727   7.282  0.5741  0.6386 -0.9161
24971SOL     OW76353   1.103   4.250  12.167 -0.2855 -0.2635  0.5691
24971SOL    HW176354   1.065   4.163  12.177  0.0779 -0.5024 -0.0545
24971SOL    HW276355   1.154   4.264  12.246 -0.2130 -0.6862  0.5970
24972SOL     OW76356   1.495   3.666   7.288 -0.1181  0.3275  0.3304
24972SOL    HW176357   1.579   3.690   7.326 -0.1873  0.0237  0.6864
24972SOL    HW276358   1.497   3.700   7.199  0.7628 -0.5199  0.0135
24973SOL     OW76359   3.075   3.432   8.916 -0.4830 -0.1487  0.6109
24973SOL    HW176360   3.066   3.527   8.913  1.0701  0.0019 -0.4664
24973SOL    HW276361   3.050   3.408   9.005 -1.3990  1.1930  0.7462
24974SOL     OW76362   3.574   4.820   3.318 -0.3219 -0.1989 -0.1750
24974SOL    HW176363   3.560   4.889   3.254 -0.1844 -0.7335 -0.7885
24974SOL    HW276364   3.640   4.763   3.279  2.6691  1.4777  2.0226
24975SOL     OW76365   3.075   3.463   1.453  0.0046 -0.4574 -0.3808
24975SOL    HW176366   3.078   3.402   1.527  1.1410  2.5231  2.2803
24975SOL    HW276367   3.167   3.474   1.428  0.2153  2.1188  1.1273
24976SOL     OW76368   6.550   4.329  11.869  0.8560 -0.0555  0.1344
24976SOL    HW176369   6.522   4.239  11.852 -0.4263  0.2184  0.6585
24976SOL    HW276370   6.530   4.342  11.962  2.4520  0.2933  0.4647
24977SOL     OW76371   6.188   0.184   4.480  0.7211  0.0838 -0.1445
24977SOL    HW176372   6.140   0.118   4.431 -0.5588  2.0664 -1.7591
24977SOL    HW276373   6.245   0.225   4.415  0.3358  1.5760  0.4105
24978SOL     OW76374   1.696   3.707   0.637  0.2283 -0.0605 -0.5494
24978SOL    HW176375   1.733   3.624   0.606 -0.7577  0.5490 -3.7948
24978SOL    HW276376   1.734   3.773   0.580  0.3058  1.6649  1.3959
24979SOL     OW76377   6.537   0.836   8.838 -1.0383  0.4866 -0.4878
24979SOL    HW176378   6.489   0.865   8.915  0.5579 -1.4376  1.3372
24979SOL    HW276379   6.579   0.754   8.865 -0.6272 -0.4179 -3.5009
24980SOL     OW76380   4.188   3.251   3.510  0.0889  0.0889 -0.8371
24980SOL    HW176381   4.161   3.339   3.482 -0.7850 -0.1140 -0.6802
24980SOL    HW276382   4.283   3.251   3.501  0.0019  0.6417 -2.0141
24981SOL     OW76383   1.215   0.330   9.573 -0.0725  0.3215 -0.0843
24981SOL    HW176384   1.157   0.268   9.617  1.2291 -1.7316 -1.1045
24981SOL    HW276385   1.159   0.377   9.512 -1.1223  0.2858  0.8214
24982SOL     OW76386   4.442   2.883   5.787  0.0038  0.3804  0.5437
24982SOL    HW176387   4.416   2.794   5.812  2.5629 -0.4042  0.6760
24982SOL    HW276388   4.492   2.915   5.862  0.9738  1.0709 -0.3698
24983SOL     OW76389   5.029   7.444   7.256 -0.1744 -0.0484  0.2059
24983SOL    HW176390   5.086   7.458   7.331  0.6513 -0.6637 -0.2891
24983SOL    HW276391   4.941   7.434   7.293  0.1695  0.0494  1.0477
24984SOL     OW76392   7.454   4.385   8.091 -0.3194  0.4718 -0.5652
24984SOL    HW176393   7.546   4.361   8.092 -0.9610 -2.3253  0.3182
24984SOL    HW276394   7.454   4.480   8.077  2.7050  0.8009  0.8970
24985SOL     OW76395   6.156   7.839   8.904  0.2509 -0.1973  0.0290
24985SOL    HW176396   6.118   7.788   8.976 -0.1138  1.7816  1.2888
24985SOL    HW276397   6.083   7.855   8.845  0.0416  0.0624  0.3530
24986SOL     OW76398   5.771   5.146   1.472  0.3885  0.4995 -0.2196
24986SOL    HW176399   5.800   5.058   1.495 -0.7398 -0.6231 -2.6948
24986SOL    HW276400   5.685   5.155   1.513 -0.0432 -0.0750 -0.9725
24987SOL     OW76401   5.271   0.075   8.923  0.2544 -0.4187 -0.0690
24987SOL    HW176402   5.352   0.028   8.901  0.3842 -0.9188  1.3294
24987SOL    HW276403   5.201   0.012   8.905  0.3211 -0.6354  0.4101
24988SOL     OW76404   3.674   7.836   7.982 -0.8128  0.2475  0.0202
24988SOL    HW176405   3.727   7.851   8.061  0.4493 -0.8078 -0.5698
24988SOL    HW276406   3.736   7.848   7.910 -1.7269  0.3017 -0.7612
24989SOL     OW76407   2.922   4.147   0.338 -0.6488  0.0059  0.1015
24989SOL    HW176408   2.973   4.127   0.417  0.0963 -0.6029 -0.5138
24989SOL    HW276409   2.987   4.178   0.275 -1.5074  2.6077  0.3731
24990SOL     OW76410   0.277   6.154   0.974 -0.2854 -0.1957 -0.1406
24990SOL    HW176411   0.268   6.177   1.067  0.8275 -1.5517  0.3253
24990SOL    HW276412   0.269   6.238   0.929  2.9275  1.1109  1.4278
24991SOL     OW76413   7.660   4.785   5.196  0.2999 -0.4156  0.0559
24991SOL    HW176414   7.651   4.712   5.136 -0.9533  1.7639 -2.6449
24991SOL    HW276415   7.574   4.827   5.196  1.9316  3.5032 -2.0852
24992SOL     OW76416   0.202   0.882   1.371  0.3595 -0.6027  0.3029
24992SOL    HW176417   0.263   0.809   1.380  0.4451 -0.6767 -0.7616
24992SOL    HW276418   0.240   0.952   1.424  0.3850 -1.2555  1.1619
24993SOL     OW76419   7.825   5.620   8.306 -0.1160 -0.0617  0.1886
24993SOL    HW176420   7.783   5.683   8.365  0.8886 -1.0727  2.0830
24993SOL    HW276421   7.878   5.674   8.247 -0.9947  0.9762  0.3174
24994SOL     OW76422   4.236   6.920   1.839  0.0862  0.0473 -0.2876
24994SOL    HW176423   4.317   6.884   1.804 -0.0056  0.7608 -1.2718
24994SOL    HW276424   4.191   6.845   1.878  0.7634 -0.5291 -0.5944
24995SOL     OW76425   3.804   0.629   8.111 -0.6571 -0.1592 -0.2430
24995SOL    HW176426   3.869   0.675   8.166 -1.6129 -0.7122  1.4306
24995SOL    HW276427   3.844   0.543   8.095 -0.3034  0.0614 -0.5816
24996SOL     OW76428   6.263   7.171   1.451 -0.8185 -0.1324  0.5661
24996SOL    HW176429   6.223   7.109   1.390 -0.5613 -0.9494  1.2117
24996SOL    HW276430   6.304   7.236   1.395 -2.5348  0.4177 -0.1239
24997SOL     OW76431   7.861   2.626  10.909 -0.3085 -0.1303  0.1035
24997SOL    HW176432   7.906   2.702  10.947 -0.4607  0.5951 -1.1160
24997SOL    HW276433   7.812   2.589  10.983 -0.3790  1.0725  0.6956
24998SOL     OW76434   1.675   5.471   2.563  0.3718  0.5382 -0.3552
24998SOL    HW176435   1.588   5.446   2.596  0.6123 -0.1526 -0.2233
24998SOL    HW276436   1.671   5.566   2.554 -0.7086  0.4249 -1.2384
24999SOL     OW76437   4.303   6.923   5.627 -0.4355 -0.0426  0.1452
24999SOL    HW176438   4.379   6.886   5.583  0.9991 -0.2619  2.6151
24999SOL    HW276439   4.313   7.018   5.618  1.7467  0.0891  2.7314
25000SOL     OW76440   2.629   0.661  12.215  0.6363 -0.1225  0.1430
25000SOL    HW176441   2.650   0.754  12.203  0.3217 -0.1908 -1.1604
25000SOL    HW276442   2.652   0.621  12.131  1.4280 -1.3636  0.9188
25001SOL     OW76443   4.471   7.521   9.068  0.0548 -0.4743 -0.0088
25001SOL    HW176444   4.389   7.491   9.030  1.0240 -0.9563 -1.8487
25001SOL    HW276445   4.449   7.602   9.114 -1.9636 -2.0832  2.0741
25002SOL     OW76446   7.561   3.698   0.909 -0.4012 -0.2673  0.3166
25002SOL    HW176447   7.535   3.700   0.816  0.7152  0.6339 -0.0001
25002SOL    HW276448   7.504   3.632   0.948 -1.9103  0.3788 -0.6983
25003SOL     OW76449   6.440   4.699   2.420 -0.5640  0.2955 -0.1559
25003SOL    HW176450   6.425   4.696   2.325 -1.0929 -0.0619 -0.0658
25003SOL    HW276451   6.432   4.607   2.448 -0.2132  0.3757  0.2023
25004SOL     OW76452   1.906   2.811   3.648  0.2856 -0.2503 -0.0826
25004SOL    HW176453   1.914   2.885   3.709 -0.0128 -1.3110  1.2969
25004SOL    HW276454   1.812   2.793   3.645  0.5214 -2.0213  1.4472
25005SOL     OW76455   0.243   7.053   5.019  0.0611 -0.0416 -0.2049
25005SOL    HW176456   0.263   6.989   5.087 -0.1487  0.8484  0.7173
25005SOL    HW276457   0.171   7.013   4.970  1.4471 -1.5097 -1.0953
25006SOL     OW76458   4.798   6.442   8.987 -0.7915  0.2138 -0.1520
25006SOL    HW176459   4.880   6.490   9.004 -0.4108 -0.5136  0.1335
25006SOL    HW276460   4.821   6.350   9.002 -1.7531  0.0320  0.2837
25007SOL     OW76461   3.859   6.438   0.669  0.5983  0.1576  0.5499
25007SOL    HW176462   3.816   6.523   0.674  0.1464 -0.1284  3.7693
25007SOL    HW276463   3.882   6.428   0.577 -0.3975  3.2004 -0.1440
25008SOL     OW76464   0.240   1.010  10.276 -0.1705 -0.6980  0.8307
25008SOL    HW176465   0.186   0.951  10.329 -1.3185  0.1396  0.6219
25008SOL    HW276466   0.226   0.980  10.186 -0.3501 -0.4371  0.7711
25009SOL     OW76467   0.793   7.856  11.305  0.1474  0.1291 -0.3679
25009SOL    HW176468   0.775   7.766  11.331  0.4154  0.1165 -0.2218
25009SOL    HW276469   0.885   7.869  11.326 -0.1399  0.7593  0.5452
25010SOL     OW76470   6.381   4.742   3.065  0.1030 -0.0005 -0.1263
25010SOL    HW176471   6.373   4.670   3.003 -0.7614 -0.4848  0.5293
25010SOL    HW276472   6.402   4.818   3.011 -1.4466 -0.2463 -1.1119
25011SOL     OW76473   6.348   1.951   8.569  0.3950  0.1011 -0.0853
25011SOL    HW176474   6.258   1.935   8.596  0.5022  0.0468  0.2452
25011SOL    HW276475   6.400   1.935   8.648  0.8313 -1.2330 -0.6081
25012SOL     OW76476   2.482   2.790   6.698  0.2318  0.1025  0.8458
25012SOL    HW176477   2.439   2.769   6.781 -0.2710 -1.4971  0.2344
25012SOL    HW276478   2.575   2.778   6.715  0.1984  0.6075  1.3959
25013SOL     OW76479   2.462   3.375   0.989 -0.0974 -0.4025 -0.2375
25013SOL    HW176480   2.440   3.372   1.083 -1.5641 -2.3846 -0.5786
25013SOL    HW276481   2.558   3.377   0.988  0.0364 -2.1481  1.3601
25014SOL     OW76482   7.324   6.860   8.639  0.4569  0.6036 -0.0335
25014SOL    HW176483   7.390   6.906   8.691  1.0865 -0.7028  0.3704
25014SOL    HW276484   7.375   6.807   8.578 -0.0759 -2.0488  1.6772
25015SOL     OW76485   0.108   0.280   5.214 -1.0042 -0.2022  0.0348
25015SOL    HW176486   0.193   0.285   5.170 -0.6937  2.4645  0.7704
25015SOL    HW276487   0.051   0.236   5.151  0.1272  0.8813 -1.8331
25016SOL     OW76488   0.539   1.485   3.055  0.0853  0.1137 -0.1292
25016SOL    HW176489   0.625   1.484   3.097  0.1060 -1.9479 -0.0995
25016SOL    HW276490   0.558   1.475   2.961  0.0036  3.8812 -0.6918
25017SOL     OW76491   5.943   4.253   5.384 -0.1804 -0.7816 -0.2218
25017SOL    HW176492   5.964   4.335   5.341 -3.0663 -0.1673 -0.6915
25017SOL    HW276493   5.972   4.185   5.324  0.6295 -0.0752 -0.6436
25018SOL     OW76494   1.650   1.862   5.898 -0.3154 -0.3578  0.3688
25018SOL    HW176495   1.729   1.827   5.939 -0.2235 -0.8211 -0.2084
25018SOL    HW276496   1.672   1.870   5.805 -0.1288  1.7539  0.5385
25019SOL     OW76497   4.602   5.366   8.908  0.6050  0.0288  0.5153
25019SOL    HW176498   4.551   5.292   8.938  0.1120  0.4524  0.7401
25019SOL    HW276499   4.627   5.413   8.988 -0.2435  0.8546  0.3196
25020SOL     OW76500   1.338   0.238   2.661 -0.0247 -0.3737  0.5074
25020SOL    HW176501   1.317   0.301   2.591 -0.0956 -2.6507 -1.6729
25020SOL    HW276502   1.414   0.276   2.704 -0.3281  1.4188 -0.3956
25021SOL     OW76503   5.953   7.106   8.895 -0.1837 -0.4611  0.1288
25021SOL    HW176504   5.980   7.017   8.919 -1.7065 -0.6870  1.0662
25021SOL    HW276505   5.908   7.095   8.811 -0.4880 -0.5951  0.3086
25022SOL     OW76506   5.846   4.930   5.966  0.0465  0.1818  0.0606
25022SOL    HW176507   5.880   4.993   5.903  0.3750  0.0977  0.1518
25022SOL    HW276508   5.901   4.853   5.955 -0.3230 -0.0744 -0.0188
25023SOL     OW76509   4.554   1.824   0.057 -0.1995 -0.0777  0.4815
25023SOL    HW176510   4.536   1.871   0.138 -0.7331 -0.6255  0.6822
25023SOL    HW276511   4.482   1.847  -0.001  0.9292  1.5019 -0.3882
25024SOL     OW76512   6.598   5.403   5.348  0.5279 -0.1983  0.0604
25024SOL    HW176513   6.524   5.343   5.358  0.6808 -0.5702 -0.9117
25024SOL    HW276514   6.558   5.489   5.334  0.2723 -0.3774 -0.3468
25025SOL     OW76515   0.345   6.274   3.535  0.0901 -0.7468  0.1288
25025SOL    HW176516   0.374   6.340   3.598 -1.1047  0.7594 -0.8034
25025SOL    HW276517   0.394   6.295   3.455  0.6225 -1.7991  0.1678
25026SOL     OW76518   5.196   5.827   9.303  0.1738  0.1082  0.4147
25026SOL    HW176519   5.123   5.833   9.364 -1.0626 -1.7918 -0.7692
25026SOL    HW276520   5.182   5.899   9.242 -0.1007  0.3848  0.7964
25027SOL     OW76521   1.687   0.482   8.623 -0.0113 -0.3666  0.5983
25027SOL    HW176522   1.757   0.424   8.653 -0.1287 -0.6431  0.3422
25027SOL    HW276523   1.689   0.555   8.684  2.1224  0.8653 -0.8208
25028SOL     OW76524   3.575   5.107  10.095 -0.1190  0.1464  0.2521
25028SOL    HW176525   3.652   5.067  10.135 -1.6597 -3.6502 -0.2022
25028SOL    HW276526   3.543   5.168  10.161  1.6523 -0.2895  1.6000
25029SOL     OW76527   3.737   7.476   9.432 -0.3521  0.0410 -0.0306
25029SOL    HW176528   3.737   7.458   9.526 -1.5497  1.2272  0.2347
25029SOL    HW276529   3.816   7.529   9.418 -0.3594  0.1589  0.3696
25030SOL     OW76530   3.627   3.200   5.397 -0.1660 -0.2656  0.2029
25030SOL    HW176531   3.536   3.231   5.403  0.6793  2.6480 -0.2680
25030SOL    HW276532   3.635   3.167   5.308 -0.2560  1.5636 -0.5312
25031SOL     OW76533   2.546   1.366   9.582  0.0203 -0.4780  0.3443
25031SOL    HW176534   2.556   1.360   9.487  0.1085  0.7473  0.2695
25031SOL    HW276535   2.526   1.276   9.609  1.9707 -1.2478 -0.5866
25032SOL     OW76536   5.541   2.481   5.353 -0.5920  0.4794 -0.3354
25032SOL    HW176537   5.497   2.468   5.269 -1.6169  0.0041  0.2466
25032SOL    HW276538   5.531   2.397   5.398  0.3445  0.5818  0.0783
25033SOL     OW76539   7.514   1.323   2.678  0.5836  0.2363  0.5345
25033SOL    HW176540   7.608   1.302   2.681  0.8569  0.8226 -1.9545
25033SOL    HW276541   7.472   1.241   2.652  0.4846  0.1929  0.8248
25034SOL     OW76542   7.203   2.208   8.726  0.2016  0.2521  0.7281
25034SOL    HW176543   7.169   2.119   8.742  0.4859  0.5313  3.4304
25034SOL    HW276544   7.190   2.222   8.632 -0.2412 -2.4732  0.2893
25035SOL     OW76545   2.117   3.023  11.735  0.3526  1.0873 -0.3576
25035SOL    HW176546   2.053   3.093  11.732  0.6096  1.4320  1.1011
25035SOL    HW276547   2.202   3.067  11.731  0.5438  0.6339 -2.3256
25036SOL     OW76548   6.572   6.039   5.205  0.5161  0.5726  0.2134
25036SOL    HW176549   6.665   6.023   5.224  0.9293  2.0054 -0.5295
25036SOL    HW276550   6.532   6.049   5.292  0.8601 -0.8875  0.5809
25037SOL     OW76551   3.789   7.642   0.411 -0.5915 -0.9697 -0.0958
25037SOL    HW176552   3.694   7.649   0.424 -0.7778  3.4716 -2.1989
25037SOL    HW276553   3.804   7.674   0.322  3.0457  0.3258  0.8101
25038SOL     OW76554   6.884   0.843   7.686  0.0047  0.2650  0.1335
25038SOL    HW176555   6.903   0.850   7.593 -2.2176  0.4925 -0.3532
25038SOL    HW276556   6.954   0.787   7.721 -0.7967 -2.5128 -2.2814
25039SOL     OW76557   1.165   3.149  11.130  0.3315  0.2854 -0.4023
25039SOL    HW176558   1.114   3.230  11.125 -1.3199 -0.7574 -1.6930
25039SOL    HW276559   1.108   3.088  11.178  1.5423 -0.1374  0.5435
25040SOL     OW76560   7.379   0.696   3.249  0.3605  0.5095 -0.4710
25040SOL    HW176561   7.469   0.666   3.264  0.1664  0.5741  1.0099
25040SOL    HW276562   7.349   0.645   3.174  1.1828 -0.5244 -0.1247
25041NA      NA76563   1.468   1.281  10.397 -0.2045  0.6713 -0.2396
25042NA      NA76564   6.971   0.540   7.180 -0.0400  0.5844 -0.1741
25043NA      NA76565   6.625   0.604   6.090 -0.0055  0.0674  0.0209
25044NA      NA76566   1.360   1.951   4.353 -0.2415  0.2602 -0.0751
25045NA      NA76567   1.449   5.393   8.623 -0.0153 -0.0460  0.0869
25046NA      NA76568   0.582   4.869   3.247 -0.0750  0.2163 -0.4504
25047NA      NA76569   7.484   7.638   4.037 -0.0750  0.1632 -0.0639
25048NA      NA76570   1.473   0.345   3.565 -0.3857  0.2457 -0.0955
25049NA      NA76571   3.462   1.770  11.841  0.1609  0.0634 -0.1228
25050NA      NA76572   5.374   7.653   5.467  0.2683  0.4275  0.0861
25051NA      NA76573   7.522   2.830   4.123  0.4481 -0.1047 -0.2917
25052NA      NA76574   5.729   6.594   7.439  0.0411 -0.6659  0.0786
25053NA      NA76575   2.513   0.562   7.667 -0.4495 -0.1595  0.4357
25054NA      NA76576   4.385   3.597  11.492  0.4911  0.0902 -0.1918
25055NA      NA76577   5.400   4.206   0.289 -0.5154 -0.0679  0.1598
25056NA      NA76578   1.129   1.994  11.108 -0.1879 -0.1261  0.2669
25057NA      NA76579   5.308   7.055   3.275  0.0764  0.1373  0.2361
25058NA      NA76580   5.162   3.724  12.152 -0.4065  0.2142  0.1812
25059NA      NA76581   0.843   6.756   8.082  0.0278  0.2185 -0.3474
25060NA      NA76582   2.452   0.099   1.115 -0.5462 -0.3100 -0.3950
25061NA      NA76583   3.239   5.812   0.700 -0.2449 -0.1447  0.7232
25062NA      NA76584   0.106   4.959   1.518  0.1729 -0.0742 -0.1477
25063NA      NA76585   6.229   4.776   9.808  0.0807 -0.0500  0.3046
25064NA      NA76586   0.048   0.609  11.111  0.2128  0.0707 -0.1076
25065NA      NA76587   4.189   0.183  11.963  0.0239  0.0252 -0.2830
25066NA      NA76588   3.872   6.597   5.279 -0.1132 -0.2604 -0.2607
25067NA      NA76589   4.191   1.095   2.717 -0.0410  0.0247  0.2112
25068NA      NA76590   4.642   4.436  10.460 -0.0624  0.3820  0.4881
25069NA      NA76591   2.119   7.122   0.568 -0.4947 -0.4686 -0.5170
25070NA      NA76592   7.651   4.833   2.757  0.4739  0.0987 -0.0574
25071NA      NA76593   0.991   4.077   7.126  0.1620  0.2591 -0.5467
25072NA      NA76594   1.120   4.102   8.654 -0.4186  0.3861 -0.0409
25073NA      NA76595   1.228   2.792  11.965 -0.3470 -0.2406 -0.0801
25074NA      NA76596   7.094   7.182   8.880  0.5042  0.2820  0.1667
25075NA      NA76597   3.762   7.235   3.557 -0.1839 -0.3936 -0.2751
25076NA      NA76598   7.672   2.160   8.738  0.2866  0.2656  0.3913
25077NA      NA76599   5.009   6.600  12.179 -0.0616 -0.0456  0.4103
25078NA      NA76600   2.939   4.137  10.703 -0.1244 -0.1472 -0.1784
25079NA      NA76601   5.456   2.799  10.005  0.4497  0.2401  0.1233
25080NA      NA76602   3.316   0.358   4.923  0.0292  0.1155 -0.1551
25081NA      NA76603   0.498   4.740   0.422 -0.3088 -0.6209  0.0844
25082NA      NA76604   0.612   5.288   2.554 -0.0045  0.5070 -0.0059
25083NA      NA76605   6.389   4.089   4.088  0.0958  0.0170 -0.0295
25084NA      NA76606   2.040   5.003   4.231 -0.2634 -0.0454 -0.3667
25085NA      NA76607   0.049   1.639   3.611  0.1341 -0.3212 -0.1448
25086NA      NA76608   6.604   3.347  11.519 -0.3372 -0.5482 -0.0993
25087NA      NA76609   3.286   5.502   7.544 -0.4241 -0.7636 -0.6492
25088NA      NA76610   3.916   2.188   2.580 -0.4196 -0.0506 -0.2723
25089NA      NA76611   0.671   2.456   1.742 -0.3899 -0.0248  0.4169
25090NA      NA76612   1.066   7.015   2.989  0.3952  0.4610 -0.3080
25091NA      NA76613   7.718   1.929   1.165 -0.1176  0.4083 -0.7431
25092NA      NA76614   4.247   4.823   6.776 -0.1955  0.1071  0.8287
25093NA      NA76615   2.281   0.539   1.960  0.5314  0.4051 -0.1813
25094NA      NA76616   4.002   0.250   6.651  0.1510  0.0422  0.7383
25095NA      NA76617   2.321   3.121  10.668 -0.8883  0.5446  0.6279
25096NA      NA76618   0.126   0.467  10.403 -0.1751  0.3335 -0.0073
25097NA      NA76619   3.996   6.303   3.087  0.2694 -0.1508  0.1811
25098NA      NA76620   5.946   7.424   0.515 -0.1794 -0.6013  0.2241
25099NA      NA76621   5.373   6.637   1.333  0.0635  0.0398  0.2495
25100NA      NA76622   2.259   6.529   0.038  0.2155 -0.4175 -0.1619
25101NA      NA76623   5.458   5.011   0.504  0.6836 -0.0113  0.4645
25102NA      NA76624   4.180   5.055   7.329  0.1348  0.2067  0.6505
25103NA      NA76625   7.861   1.373   7.000  0.1099 -0.1351  0.2560
25104NA      NA76626   3.426   2.757   4.428  0.0816  0.5472  0.0537
25105NA      NA76627   5.933   7.245   3.311  0.2376 -0.1087 -0.4177
25106NA      NA76628   4.575   4.776   1.319 -0.3821 -0.3034 -0.2715
25107NA      NA76629   2.256   4.331   3.702 -0.0648  0.0293  0.4734
25108NA      NA76630   0.975   7.319   2.318 -0.5085 -0.3720 -0.4532
25109NA      NA76631   7.676   7.702   8.013 -1.1733  0.4352  0.6474
25110NA      NA76632   7.571   3.784   8.836 -0.2114 -0.0960 -0.4702
25111NA      NA76633   2.959   2.248   5.197 -0.2002  0.0355  0.3983
25112NA      NA76634   0.105   6.054   0.853 -0.3117  0.1718  0.2455
25113NA      NA76635   7.650   6.473   3.024  0.4170  0.3527 -0.1764
25114NA      NA76636   1.970   3.517   9.123 -0.1338 -0.0033  0.0415
25115NA      NA76637   4.961   5.417   3.576 -0.0387  0.4458 -0.0192
25116NA      NA76638   7.614   2.914   7.172 -0.0399 -0.0730 -0.1195
25117NA      NA76639   7.004   5.327   6.926  0.1999  0.0558  0.2334
25118NA      NA76640   4.678   3.407   7.807 -0.3521 -0.2901 -0.2551
25119NA      NA76641   6.065   3.548  10.503  0.1715 -0.3247 -0.3596
25120NA      NA76642   2.752   7.751   8.092  0.0065 -0.0189  0.2175
25121NA      NA76643   4.145   4.625   8.515  0.3274  0.2776 -0.7530
25122NA      NA76644   2.474   4.111   6.242 -0.4188 -0.2167 -0.5224
25123NA      NA76645   2.388   5.939  11.181  0.0122  0.4712 -0.4004
25124NA      NA76646   7.007   6.325   8.534 -0.4636  0.0399  0.1399
25125NA      NA76647   3.538   4.627  10.116  0.3426 -0.0453 -0.0542
25126NA      NA76648   6.494   4.099   3.194  0.3514 -0.6619 -0.2468
25127NA      NA76649   2.950   4.265   4.424  0.1347  0.3776 -0.4534
25128NA      NA76650   1.818   7.338   4.290  0.1375 -0.0843 -0.1050
25129NA      NA76651   3.763   0.579   7.476 -0.0948 -0.1202  0.3635
25130NA      NA76652   7.658   1.655   3.405  0.1244 -0.3060 -0.1302
25131NA      NA76653   7.038   4.569   8.015  0.6695  0.2343 -0.0083
25132NA      NA76654   1.306   6.847   5.769  0.0802  0.3477 -0.0019
25133NA      NA76655   6.481   7.535  11.751  0.4738  0.3537  0.0032
25134NA      NA76656   5.911   2.578   5.751  0.5817  0.0446 -0.3953
25135NA      NA76657   0.069   0.561   4.512 -0.3858 -0.5454 -0.1189
25136NA      NA76658   6.038   7.910  12.183  0.2815 -0.1382 -0.5764
25137NA      NA76659   3.142   0.029   6.201 -0.3704 -0.7399 -0.0880
25138NA      NA76660   6.692   5.775   0.363 -0.2828  0.1986 -0.1953
25139NA      NA76661   5.470   6.412   0.395  0.7087 -0.3160  0.4050
25140NA      NA76662   2.671   2.073   1.287  0.0477  0.3713 -0.1662
25141NA      NA76663   3.150   6.708   5.485  0.3701  0.5257 -0.0797
25142NA      NA76664   4.008   7.054  11.836  0.4882 -0.1440 -0.1078
25143NA      NA76665   3.586   4.466  11.100  0.0668 -0.5801  0.5512
25144NA      NA76666   2.145   2.153   8.534 -0.0543 -0.3579  0.3197
25145NA      NA76667   1.852   4.858   5.966 -0.2044 -0.1217 -0.5377
25146NA      NA76668   2.308   3.135   3.868  0.4460  0.6308 -0.3894
25147NA      NA76669   6.119   6.566  10.145 -0.0238 -0.1272  0.0104
25148NA      NA76670   7.763   3.976  11.374  0.1427 -0.5989 -0.1548
25149NA      NA76671   3.200   1.001   5.041  0.3051  0.2824 -0.0009
25150NA      NA76672   3.889   4.908   2.765 -0.4334 -0.2463  0.3077
25151NA      NA76673   6.624   3.518   4.087  0.0883 -0.6274  0.0679
25152NA      NA76674   2.756   1.139   2.759  0.0622 -0.0610 -0.1223
25153NA      NA76675   2.857   5.824   3.643  0.1880 -0.3781 -0.1843
25154NA      NA76676   6.366   7.703   8.302  0.3528  0.1077  0.4361
25155NA      NA76677   7.291   3.829   6.716  0.2702 -0.0284 -0.3627
25156NA      NA76678   1.387   4.846   1.922 -0.0022 -0.0379 -0.0609
25157NA      NA76679   4.945   4.222  11.394  0.1449  0.3603  0.3029
25158NA      NA76680   4.137   5.559   5.364  0.0978 -0.0407  0.0931
25159NA      NA76681   2.562   1.728   3.290 -0.5017  0.0546  0.2056
25160NA      NA76682   3.159   3.827   0.149  0.0411  0.0253 -0.1480
25161NA      NA76683   1.969   0.199   8.458 -0.3819  0.0441  0.4776
25162NA      NA76684   2.253   6.067   6.136  0.0256  0.3159 -0.3323
25163NA      NA76685   3.535   7.447   9.302  0.4509  0.4346  0.5634
25164NA      NA76686   4.322   6.083   5.678 -0.3836  0.1002  0.3429
25165NA      NA76687   4.037   4.613  11.517  0.4798 -0.0949  0.3045
25166NA      NA76688   5.955   0.522   7.470 -0.4183 -0.0132  0.0212
25167NA      NA76689   1.555   2.397   1.753 -0.2561 -0.2745 -0.2736
25168NA      NA76690   2.995   1.300   2.173  0.8976 -0.4028  0.2661
25169NA      NA76691   6.572   2.227   6.919 -0.5318 -0.0024  0.1422
25170NA      NA76692   1.259   0.900  12.379  0.4024  0.0149 -0.4829
25171NA      NA76693   3.290   0.087  10.023 -0.1200 -0.5328 -0.0841
25172NA      NA76694   2.910   4.763   8.020 -0.1222 -0.3461  0.1726
25173NA      NA76695   7.495   1.584   7.264  0.2832 -0.0237 -0.0892
25174NA      NA76696   0.986   4.339   4.058 -0.1201 -0.4810 -0.2950
25175NA      NA76697   4.434   6.999   8.635  0.1373 -0.3870 -0.5946
25176NA      NA76698   1.700   4.683   8.320 -0.2332  0.1443 -0.0162
25177NA      NA76699   5.147   4.820   4.227  0.3401 -0.5999  0.2874
25178NA      NA76700   4.585   4.846   1.870 -0.2096 -0.2035 -0.2373
25179NA      NA76701   3.315   1.748   4.495 -0.1073  0.1456  0.1891
25180NA      NA76702   1.610   7.164   8.991 -0.5838  0.0604 -0.2360
25181NA      NA76703   3.188   6.453   1.368 -0.1027  0.3477  0.1699
25182NA      NA76704   0.615   1.727   1.053  0.2670  0.1159 -0.1625
25183NA      NA76705   4.675   4.964  11.185  0.0119 -0.0729  0.4192
25184NA      NA76706   3.950   3.831   5.278  0.0080  0.2774 -0.6277
25185NA      NA76707   0.453   0.365   7.774 -0.2187  0.1575 -0.0410
25186NA      NA76708   4.626   1.407  10.924  0.2772 -0.6111 -0.1648
25187NA      NA76709   2.653   5.357   9.007  0.2461  1.0070  0.3298
25188NA      NA76710   7.761   2.619   1.145  0.3473  0.3671 -0.1512
25189NA      NA76711   1.286   7.304  11.291 -0.1305  0.7421  0.2983
25190NA      NA76712   7.454   1.492   9.642  0.4658  0.4829  0.0984
25191NA      NA76713   5.944   2.424   1.086  0.0630  0.3638 -0.3947
25192NA      NA76714   6.429   2.207   2.966 -0.2512 -0.4184  0.2281
25193NA      NA76715   3.331   6.837   9.608  0.0985  0.0423  0.2271
25194NA      NA76716   7.164   5.348   2.914 -0.0438  0.0726 -0.4679
25195NA      NA76717   1.575   1.118   6.162 -0.2574  0.2308 -0.2432
25196NA      NA76718   0.678   1.876   8.322  0.4349 -0.0848 -0.2133
25197NA      NA76719   4.709   2.660   0.841  0.3810 -0.2153 -0.2989
25198NA      NA76720   6.794   0.401  10.944 -0.4942  0.0608 -0.3613
25199NA      NA76721   6.648   4.626   0.868 -0.0937  0.2859 -0.1772
25200NA      NA76722   1.673   0.928   6.733  0.2610  0.1344 -0.4652
25201NA      NA76723   7.742   3.958   7.811 -0.3091 -0.1555  0.1897
25202NA      NA76724   5.100   6.354  10.495  0.4929  0.1248  0.1020
25203NA      NA76725   1.247   1.249   4.265 -0.0716  0.2639  0.5521
25204NA      NA76726   0.407   1.553  10.567 -0.7925 -0.3271  0.2092
25205NA      NA76727   1.405   5.451  11.879 -0.1325 -0.3375 -0.2342
25206NA      NA76728   6.703   1.654   5.270 -0.0350  0.0421  0.2528
25207NA      NA76729   2.907   3.035   9.637  0.2676  0.1311  0.2045
25208NA      NA76730   1.045   3.221   4.818  0.1811  0.2635 -0.0828
25209NA      NA76731   1.657   0.919   8.144 -0.0174 -0.0285  0.0579
25210NA      NA76732   5.100   3.092   3.442 -0.2545 -0.3620  0.5549
25211NA      NA76733   4.335   3.514  10.916  0.1210 -0.1188 -0.3786
25212NA      NA76734   0.310   2.415   9.741  0.5404 -0.3543  0.3818
25213NA      NA76735   7.640   1.005  10.536 -0.0955 -0.2648 -0.2112
25214NA      NA76736   3.184   5.344   0.558 -0.2220 -0.1259  0.1631
25215NA      NA76737   0.453   7.260   2.901 -0.3563 -0.7749  0.2798
25216NA      NA76738   5.346   0.972   8.118 -0.2643 -0.2904  0.1831
25217NA      NA76739   3.767   6.452   8.617 -0.1157  0.2386  0.3504
25218NA      NA76740   2.690   4.310   5.622  0.0542 -0.2815  0.2226
25219NA      NA76741   7.349   7.903   0.707  0.3999  0.3954 -0.3079
25220NA      NA76742   3.442   4.250   8.263 -0.0459  0.1526  0.0198
25221NA      NA76743   7.621   3.994   3.198 -0.5298  0.2934  0.2421
25222NA      NA76744   6.308   4.097   2.862  0.0209 -0.4007 -0.1071
25223NA      NA76745   5.153   3.666   1.200 -0.2039  0.1325  0.1158
25224NA      NA76746   0.078   4.722   5.489 -0.4542 -0.2124 -0.0236
25225NA      NA76747   2.384   3.407   7.703  0.0993 -0.1806 -0.3138
25226NA      NA76748   7.807   7.565   0.724 -0.4647  0.1335  0.6322
25227NA      NA76749   6.026   3.061   4.652 -0.0516  0.2612 -0.1867
25228NA      NA76750   7.187   2.847   6.100 -0.0607 -0.3386  0.4310
25229NA      NA76751   3.280   6.956   2.248 -0.1660  0.1636  0.1277
25230NA      NA76752   5.960   0.244   2.025  0.0893 -0.1463 -0.2450
25231NA      NA76753   6.199   3.024   6.216 -0.2578  0.0726  0.0069
25232NA      NA76754   4.577   2.995   9.714  0.1269  0.1320  0.0789
25233NA      NA76755   0.496   4.174   6.849  0.2314  0.7290  0.0712
25234NA      NA76756   0.506   7.633   6.845 -0.1130 -0.0703 -0.3775
25235NA      NA76757   6.306   4.950   7.988  0.0833 -0.0482 -0.1232
25236NA      NA76758   5.074   1.381   0.943 -0.1812  0.2228  0.1970
25237NA      NA76759   3.228   7.790   3.812 -0.1538  0.5183  0.2003
25238NA      NA76760   4.778   7.877   5.358  0.2207  0.2217 -0.5483
25239NA      NA76761   3.428   2.117   7.537  0.3355  0.0349  0.6336
25240NA      NA76762   5.539   7.085   4.326  0.5962 -0.2375 -0.5211
25241NA      NA76763   7.159   6.219   1.891 -0.0276  0.0563 -0.1154
25242NA      NA76764   3.767   0.883   0.259 -0.7530 -0.2033 -0.5027
25243NA      NA76765   3.337   1.497   5.470 -0.8496  0.4023 -0.1950
25244NA      NA76766   4.653   6.484   5.715  0.4996 -0.2778 -0.4167
25245NA      NA76767   6.729   7.156   2.540  0.3103 -0.2952 -0.0596
25246NA      NA76768   2.480   2.665   4.486  0.0405 -0.2502  0.4643
25247NA      NA76769   7.112   1.265   8.154 -0.5731 -0.0630 -0.0996
25248NA      NA76770   4.552   2.661  10.561  0.7083  0.0324 -0.0376
25249NA      NA76771   7.137   2.222   8.010 -0.1150 -0.1934  0.2737
25250NA      NA76772   3.374   4.784   5.054  0.0871 -1.0252  0.0912
25251NA      NA76773   4.473   2.241   7.236  0.7609 -0.2088  0.7165
25252NA      NA76774   5.456   7.527   9.902 -0.3260 -0.3365 -0.0413
25253NA      NA76775   5.552   7.343   1.712 -0.2806  0.5244  0.2321
25254NA      NA76776   6.705   1.743   3.871 -0.5382  0.1284  0.3211
25255NA      NA76777   7.186   7.318   0.148 -0.3328  0.2800  0.1470
25256NA      NA76778   1.451   7.686   4.544  0.2253 -0.3942  0.5913
25257NA      NA76779   3.049   1.772   0.194  0.2458 -0.0824 -0.1236
25258NA      NA76780   2.355   1.834   1.927 -0.1690 -0.0043 -0.1504
25259NA      NA76781   6.746   4.122  10.121 -0.5082  0.3694  0.0100
25260NA      NA76782   2.588   5.923   9.313 -0.0025  0.2851 -0.1723
25261NA      NA76783   6.084   3.188   0.356 -0.1983  0.1499  0.4278
25262NA      NA76784   2.734   6.845   8.165 -0.0272  0.0073  0.1052
25263NA      NA76785   1.579   3.652  10.798 -0.0917  0.3102  0.4503
25264NA      NA76786   1.276   6.140  11.065  0.0814  0.0308 -0.1972
25265NA      NA76787   4.862   1.308   3.712 -0.1433 -0.3954 -0.1089
25266NA      NA76788   7.300   4.592   4.033  0.1946  0.0167 -0.4393
25267NA      NA76789   7.533   3.551   1.470  0.3545 -0.0594 -0.4823
25268NA      NA76790   5.535   4.156   5.920  0.0716  0.4790 -0.0719
25269NA      NA76791   6.138   0.778  11.143 -0.2209  0.3813  0.3190
25270NA      NA76792   1.487   5.396   8.988 -0.3071 -0.0667 -0.0157
25271NA      NA76793   6.390   0.655  11.881  0.4115  0.2718 -0.0831
25272NA      NA76794   5.167   1.915   0.582  0.4063 -0.6520 -0.4009
25273NA      NA76795   3.875   3.107   6.342 -0.0195 -0.3541  0.1571
25274NA      NA76796   0.492   0.084   3.384  0.5262 -0.5857 -0.8967
25275NA      NA76797   2.814   3.929  10.114 -0.0475 -0.5172 -0.0663
25276NA      NA76798   3.070   0.697  10.598  0.1587  0.2866 -0.1434
25277NA      NA76799   1.195   4.576   0.589  0.1011  0.0607  0.2000
25278NA      NA76800   1.844   6.183   9.682 -0.2876 -0.4853  0.0201
25279NA      NA76801   5.124   7.724   5.816 -0.3191 -0.0254 -0.3479
25280NA      NA76802   2.516   5.157   9.826  0.1270  0.0174  0.1683
25281NA      NA76803   7.492   3.991   7.536 -0.2822 -0.1362  0.0203
25282NA      NA76804   4.635   6.040   6.503  0.0237 -0.0506 -0.4820
25283NA      NA76805   1.320   1.458   8.717 -0.1564  0.1075  0.0126
25284NA      NA76806   2.350   0.356   4.088  0.3069  0.1098  0.0887
25285NA      NA76807   3.356   4.377   2.693 -0.4395  0.4104 -0.1325
25286NA      NA76808   1.613   1.303   1.121 -0.3265 -0.0182  0.4166
25287NA      NA76809   0.435   0.744   8.162  0.1250 -0.5811  0.1556
25288NA      NA76810   3.996   2.964   9.572  0.1542  0.4416  0.1243
25289NA      NA76811   5.287   3.429   2.538  0.2380  0.3018 -0.6322
25290NA      NA76812   5.498   1.749   3.679  0.4358 -0.0742 -0.2263
25291NA      NA76813   2.068   5.796   1.101 -0.0021  0.0331 -0.3559
25292NA      NA76814   6.787   1.397  11.827 -0.1902  0.3858  0.5586
25293NA      NA76815   3.431   2.402  12.222 -0.0665  0.2463 -0.5066
25294NA      NA76816   6.556   4.076   5.152 -0.2536  0.0030 -0.0727
25295NA      NA76817   7.876   6.104   5.546 -0.6278 -0.6275 -0.6204
25296NA      NA76818   2.633   5.071  11.864 -0.6920 -0.1162  0.3911
25297NA      NA76819   2.992   0.923  11.618  0.3671 -0.2797  0.2244
25298NA      NA76820   1.013   2.941   8.999  0.2051  0.1329  0.8389
25299NA      NA76821   3.168   7.027  11.800  0.2024 -0.4980  0.3526
25300NA      NA76822   7.088   7.095   6.986 -0.5503  0.5350  0.2959
25301NA      NA76823   4.255   1.513   0.994 -0.3173 -0.6106  0.2643
25302NA      NA76824   4.326   1.368  10.076 -0.1341 -0.2744  0.0497
25303NA      NA76825   2.463   3.481   7.036 -0.0398 -0.5553  0.8056
25304NA      NA76826   0.578   5.734   6.391  0.5619  0.5722  0.2070
25305NA      NA76827   3.031   1.926   3.530  0.2810 -0.5468  0.0130
25306NA      NA76828   3.991   3.042   0.373 -0.3832  0.1346 -0.1340
25307NA      NA76829   3.272   7.763   1.918 -0.0811 -0.1203  0.6688
25308NA      NA76830   7.831   6.143   9.784 -0.1389  0.3372 -0.1753
25309NA      NA76831   2.820   4.712   6.922 -0.2079  0.0283 -0.1218
25310NA      NA76832   5.227   4.499   9.085  0.3929 -0.0226 -0.0568
25311NA      NA76833   7.298   6.097   3.856  0.2611  0.1831  0.5321
25312NA      NA76834   2.937   1.216   8.395  0.2031 -0.0517 -0.1164
25313NA      NA76835   4.607   5.054   4.120  0.2636 -0.2528 -0.0808
25314NA      NA76836   6.826   6.854  10.168  0.0294 -0.0589 -0.2515
25315NA      NA76837   2.224   2.574   8.238  0.0356  0.0067  0.0268
25316NA      NA76838   4.760   2.884   3.667 -0.8104 -0.3117 -0.0199
25317NA      NA76839   1.173   0.633   7.175 -0.5280 -0.0840 -0.1868
25318NA      NA76840   4.062   2.076   9.164  0.0555 -0.2895  0.2701
25319NA      NA76841   6.124   6.434  12.361  0.0504 -0.4119 -0.1009
25320NA      NA76842   0.517   3.335  11.531  0.1850  0.3786 -0.3490
25321NA      NA76843   2.824   4.649   2.936 -0.4503 -0.5270 -0.4266
25322NA      NA76844   6.489   1.483   7.903 -0.2502  0.4041 -0.2793
25323NA      NA76845   4.262   7.089   2.015  0.0964  0.7476 -0.2047
25324NA      NA76846   3.281   2.570   8.356 -0.4079 -0.3545 -0.3127
25325NA      NA76847   4.652   2.239   1.647  0.0061  0.1222 -0.1660
25326NA      NA76848   3.228   3.036   0.058  0.0816 -0.1120  0.0993
25327NA      NA76849   7.703   7.016   2.471  1.1075 -0.2528 -0.0706
25328NA      NA76850   1.768   5.714  10.732  0.2892  0.2556  0.0618
25329NA      NA76851   4.068   2.063  12.279 -0.0677  0.5921 -0.2449
25330NA      NA76852   3.858   6.591  12.292  0.1342 -0.2976  0.1238
25331NA      NA76853   1.455   0.341   9.498 -0.0855 -0.6059 -0.6698
25332NA      NA76854   6.533   2.561   1.978  0.0156  0.2386 -0.0626
25333NA      NA76855   1.655   2.699   8.847  0.3415 -0.0576  0.4864
25334NA      NA76856   5.379   4.072  10.038  0.0702 -0.0185 -0.2706
25335NA      NA76857   1.722   7.534   0.973  0.5205 -0.0209  0.3801
25336NA      NA76858   6.491   4.513   6.293 -0.2874  0.2453  0.1780
25337NA      NA76859   5.666   0.191  10.975  0.3163  0.7682 -0.3311
25338NA      NA76860   0.523   2.116  11.574  0.1302  0.4377 -0.2125
25339NA      NA76861   2.835   5.871   4.485  0.0543  0.4510 -0.0214
25340NA      NA76862   0.527   4.215   7.851 -0.3603  0.1081 -0.3404
25341NA      NA76863   6.188   6.784   3.171 -0.0837  0.1875  0.2812
25342NA      NA76864   0.647   0.625  11.920 -0.2953 -0.2970  0.4877
25343NA      NA76865   1.433   1.162   5.150  0.7897  0.6561 -0.1599
25344NA      NA76866   7.701   2.510   8.851 -0.3269  0.0707  0.5126
25345NA      NA76867   4.832   4.555   2.475  0.2392 -0.1950  0.0194
25346NA      NA76868   0.548   5.777   7.514  0.2889  0.0503  0.0775
25347NA      NA76869   0.451   3.037   7.796 -0.3884  0.0005  0.0836
25348NA      NA76870   5.508   3.157   8.916  0.0617  0.3958 -0.0441
25349NA      NA76871   3.953   7.845   5.432  0.0543 -0.0454 -0.5577
25350NA      NA76872   3.798   4.014   6.105 -0.5569 -0.6976 -0.2914
25351NA      NA76873   7.868   4.530   5.865  0.3379  0.0440 -0.0600
25352NA      NA76874   6.666   5.813   9.459  0.4578 -0.2379 -0.6924
25353NA      NA76875   6.188   0.659   2.869 -0.0415  0.0011 -0.0851
25354NA      NA76876   7.564   5.262   5.119 -0.6838 -0.0706 -0.0284
25355NA      NA76877   5.881   0.404   0.300  0.0175 -0.0324 -0.2525
25356NA      NA76878   6.420   0.052   3.144  0.3640  0.4749  0.3811
25357NA      NA76879   5.573   4.712   7.372 -0.5230  0.5966 -0.0346
25358NA      NA76880   7.795   0.468   9.290 -0.2103  0.2994  0.2765
25359NA      NA76881   2.790   0.907   3.703  0.0797  0.2433  0.1474
25360NA      NA76882   6.926   5.054   8.998  0.1287 -0.3028 -0.0681
25361NA      NA76883   2.348   3.973  10.669  0.1709  0.1102  0.0493
25362NA      NA76884   6.366   0.629   8.342 -0.0431  0.4162  0.4529
25363NA      NA76885   3.277   0.242   0.169 -0.5572 -0.2832 -0.0150
25364NA      NA76886   0.788   6.072   8.989 -0.1770  0.2263 -0.0495
25365NA      NA76887   2.146   2.143   9.111 -0.2935 -0.2724  0.1378
25366NA      NA76888   4.711   6.635   2.087  0.3443  0.3030  0.4201
25367NA      NA76889   7.349   0.931   3.299 -0.0241 -0.0960  0.2244
25368NA      NA76890   7.556   3.147   5.120  0.3471 -0.1551  0.2154
25369NA      NA76891   3.520   4.401   0.384 -0.2145 -0.2138  0.1560
25370NA      NA76892   4.579   1.838   5.536 -0.3618 -0.0125 -0.2665
25371NA      NA76893   7.520   4.005  10.119  0.6289  0.2446 -0.6467
25372NA      NA76894   7.684   5.786  10.220  0.1385 -0.1587  0.2477
25373NA      NA76895   0.029   3.677  12.160  0.1295 -0.4102 -0.1426
25374NA      NA76896   2.682   4.593   0.286  0.1596  0.0864 -0.3794
25375NA      NA76897   6.014   2.333   0.031  0.2400 -0.0834 -0.4029
25376NA      NA76898   5.766   5.728  11.413  0.3119 -0.3864 -0.3898
25377NA      NA76899   1.498   2.738   8.210 -0.4463 -0.1341 -0.5669
25378NA      NA76900   5.699   5.413  10.300 -0.7026 -0.2099 -0.1972
25379NA      NA76901   2.773   0.817   7.045 -0.2784 -0.0340 -0.0480
25380NA      NA76902   5.198   4.148   1.027 -0.0570 -0.2041 -0.2832
25381NA      NA76903   6.735   6.291   9.164  0.2047  0.1585 -0.5836
25382NA      NA76904   7.114   0.610   1.765 -0.2843 -0.2586  0.0509
25383NA      NA76905   6.883   2.079  10.725 -0.3374  0.1093 -0.8066
25384NA      NA76906   0.830   6.543   7.127 -0.1734  0.3288 -0.0710
25385NA      NA76907   6.025   1.722   7.309  0.1995 -0.4866  0.1342
25386NA      NA76908   0.235   7.121  10.011  0.3115  0.1731 -0.0497
25387NA      NA76909   1.880   2.705  11.953 -0.6262 -0.2065  0.2529
25388NA      NA76910   1.836   5.980   2.457 -0.1265  0.1529 -0.3791
25389NA      NA76911   3.060   3.376   2.147  0.2463  0.0821 -0.1987
25390NA      NA76912   4.705   5.604  11.923  0.2695  0.5938 -0.4410
25391NA      NA76913   4.820   2.098   8.712  0.4474 -0.3194  0.0594
25392NA      NA76914   7.408   0.694   6.920 -0.2910  0.0499 -0.4555
25393NA      NA76915   4.016   3.813  12.121 -0.0912  0.5640  0.0742
25394NA      NA76916   7.423   6.593   4.934  0.5545 -1.2436 -0.1887
25395NA      NA76917   3.594   4.381   0.017  0.3722  0.3354 -0.3509
25396NA      NA76918   0.249   2.347   5.601  0.1014  0.2514 -0.2280
25397NA      NA76919   2.398   7.650   6.493  0.0807 -0.3154 -0.0611
25398NA      NA76920   2.045   2.812  11.089  0.1534  0.2503  0.5209
25399NA      NA76921   1.472   5.281   5.421 -0.1980 -0.3239 -0.1600
25400NA      NA76922   3.167   2.423   5.844  0.3571 -0.0098  0.0565
25401NA      NA76923   6.288   0.269   4.701 -0.0739 -0.2558 -0.1456
25402NA      NA76924   4.761   1.928   9.069  0.0176 -0.3860 -0.1983
25403NA      NA76925   4.055   5.700   0.741 -0.0366 -0.5614  0.0296
25404NA      NA76926   2.133   0.030   2.822 -0.0699  0.2008 -0.2991
25405NA      NA76927   7.714   4.766  10.615  0.1297  0.1043 -0.0359
25406NA      NA76928   3.356   5.414   1.624  0.4698  0.0444 -0.2853
25407NA      NA76929   5.562   7.187   9.149 -0.0380  0.1405  0.0151
25408NA      NA76930   2.886   3.341   3.922 -0.2310  0.4198 -0.0221
25409NA      NA76931   7.095   0.996   9.624 -0.6261  0.4241 -0.1890
25410NA      NA76932   1.891   2.911   0.443  0.2873 -0.2809 -0.4645
25411NA      NA76933   7.539   7.146  10.850  0.3856 -0.7887  0.2462
25412NA      NA76934   7.200   4.784   5.939  0.2655 -0.1341  0.0426
25413NA      NA76935   7.515   6.876   5.990 -0.2973  0.2461 -0.1331
25414NA      NA76936   0.746   7.024   4.180  0.1071  0.4738  0.4450
25415NA      NA76937   0.650   6.007   5.038  0.2046  0.2086 -0.2437
25416NA      NA76938   4.250   3.066   7.001 -0.1286  0.3630  0.0921
25417NA      NA76939   4.782   4.573   8.105 -0.2053 -0.4078  0.4236
25418NA      NA76940   4.980   2.144  11.253 -0.0645  0.2164 -0.0797
25419NA      NA76941   5.262   4.790   2.761 -0.2283  0.7111  0.1225
25420NA      NA76942   4.777   0.509   1.860  0.2871 -0.6658 -0.0505
25421NA      NA76943   2.011   4.963  11.921  0.0109 -0.2368  0.3565
25422NA      NA76944   0.266   7.667   0.052  0.0931  0.0581 -0.0293
25423NA      NA76945   6.747   7.480   9.241  0.5613 -0.3033  0.5173
25424NA      NA76946   5.891   3.512   7.293  0.4868 -0.0829 -0.0907
25425NA      NA76947   0.713   3.022   3.532  0.0063 -0.0214 -0.0049
25426NA      NA76948   5.384   0.914   4.405 -0.2343  0.0983 -0.4544
25427NA      NA76949   4.190   3.370   8.819 -0.3796 -0.5299 -0.1431
25428NA      NA76950   1.165   6.132   1.303 -0.0814  0.4398  0.1845
25429NA      NA76951   3.915   2.814   1.754  0.0930  0.5574 -0.1289
25430NA      NA76952   4.387   2.713   4.062 -0.4615 -0.4167  0.2954
25431NA      NA76953   6.974   2.135   5.974 -0.0269  0.5121  0.6773
25432NA      NA76954   4.441   0.043   2.898 -0.3293  0.2549 -0.0109
25433NA      NA76955   6.756   1.414   1.684 -0.0707 -0.1319 -0.0901
25434NA      NA76956   7.509   3.530   3.620  0.1203 -0.1796 -0.1984
25435NA      NA76957   3.685   1.304   7.046 -0.4088  0.1204 -0.3183
25436NA      NA76958   1.159   6.339   9.836 -0.2464  0.2424 -0.4240
25437NA      NA76959   3.633   3.438  11.808 -0.7129  0.4109  0.2649
25438NA      NA76960   4.233   5.392   2.745  0.1089 -0.3020 -0.3756
25439NA      NA76961   0.454   3.535  10.768  0.2440 -0.1562  0.0387
25440NA      NA76962   7.304   2.708   9.639  0.5068  0.1912 -0.0161
25441NA      NA76963   7.396   6.936   1.570  0.1617  0.3897 -0.2913
25442NA      NA76964   3.623   1.759  10.743 -0.4198  0.4567 -0.3402
25443NA      NA76965   1.306   3.956   9.571 -0.2659 -0.3879 -0.1177
25444NA      NA76966   5.982   4.952   4.570 -0.4917  0.3049  0.5433
25445NA      NA76967   2.236   0.158   5.860 -0.1541 -0.5665  0.2543
25446NA      NA76968   5.228   5.990   5.092 -0.2145 -0.5865  0.3172
25447NA      NA76969   0.025   6.740   8.135  0.3576 -0.0668 -0.0711
25448NA      NA76970   4.807   0.252  11.403  0.2242  0.0981 -0.3293
25449NA      NA76971   6.931   2.810   8.533 -0.0039  0.0164 -0.2025
25450NA      NA76972   5.724   7.491  10.708  0.2944  0.1734  0.1037
25451NA      NA76973   2.593   6.151   8.130 -0.2554  0.0477  0.0450
25452NA      NA76974   5.646   6.557   4.584 -0.2011 -0.1704  0.3624
25453NA      NA76975   1.490   5.276   7.212 -0.2298  0.2572  0.1732
25454NA      NA76976   1.236   2.221   2.705  0.0580 -0.2425  0.0541
25455NA      NA76977   1.053   7.340   0.293  0.1040  0.4644 -0.0975
25456NA      NA76978   2.295   1.719   8.052  0.0647 -0.0661 -0.6603
25457NA      NA76979   5.005   4.000   8.054  0.1028  0.2333  0.0587
25458NA      NA76980   2.841   3.131   1.540 -0.1821  0.0987  0.1558
25459NA      NA76981   4.057   1.476  11.918  0.1723 -0.4216  0.0759
25460NA      NA76982   7.849   3.352   6.545 -0.0018  0.0714  0.1103
25461NA      NA76983   3.912   1.446   9.096 -0.2892  0.6011  0.2709
25462NA      NA76984   3.592   0.282   2.301  0.2690  0.3414 -0.2268
25463NA      NA76985   3.915   7.613   6.035  0.2255 -0.3861  0.6484
25464NA      NA76986   5.166   0.528  11.407 -0.1098 -0.2413 -0.4974
25465NA      NA76987   0.879   4.162   5.912  0.6982 -0.3787 -0.3109
25466NA      NA76988   7.887   0.696   2.282 -0.5417 -0.5774 -0.1076
25467NA      NA76989   4.298   3.123  10.196  0.1388 -0.4147 -0.1604
25468NA      NA76990   6.932   1.332   0.621 -0.2436 -0.3148 -0.1451
25469NA      NA76991   5.434   5.786   9.706 -0.0675  0.5209  0.2723
25470NA      NA76992   3.857   6.635  10.913  0.0590 -0.0746 -0.1628
25471NA      NA76993   4.512   1.612   9.015  0.1937  0.0838  0.0185
25472NA      NA76994   3.029   7.437  10.508  0.2966 -0.3664 -0.6908
25473NA      NA76995   3.145   3.824   8.825 -0.4895 -0.0956  0.1171
25474NA      NA76996   0.318   3.271   1.655 -0.1655 -0.2960 -0.0003
25475NA      NA76997   0.220   7.138   0.328  0.3695  0.2022  0.5307
25476NA      NA76998   1.888   0.124  11.079 -0.6714 -0.4062  0.6985
25477NA      NA76999   0.137   1.418   9.434  0.3560 -0.1637 -0.0880
25478NA      NA77000   3.221   0.476   0.393  0.4677 -0.0317  0.5224
25479NA      NA77001   2.276   1.343   6.877 -0.4074 -0.3472  0.2212
25480NA      NA77002   2.883   3.153   7.491  0.0002  0.1178 -0.3617
25481NA      NA77003   5.599   2.438   1.913 -0.0045  0.4108  0.0773
25482NA      NA77004   4.191   1.462   2.108 -0.0637 -0.1744  0.2350
25483NA      NA77005   5.042   3.053   4.073  0.0605  0.0180 -0.3247
25484NA      NA77006   4.713   1.300   2.048  0.1823 -0.1454  0.3205
25485NA      NA77007   1.693   2.596   0.914 -0.0281  0.2712 -0.2570
25486NA      NA77008   6.109   2.004   8.181  0.7305  0.3232  0.3936
25487NA      NA77009   6.633   1.246   9.742  0.4773  0.3881 -0.4898
25488NA      NA77010   7.864   5.361   9.121  0.0476  0.2598 -0.3731
25489NA      NA77011   5.120   0.533   7.844 -0.5366  0.4292 -0.0934
25490NA      NA77012   5.336   6.022   1.284  0.1298  0.0128 -0.2759
25491NA      NA77013   1.778   7.468   7.744  0.4902 -0.4703 -0.6091
25492NA      NA77014   4.900   2.878   7.378 -0.0553 -0.1283 -0.1508
25493NA      NA77015   6.767   3.799   8.116 -0.0427 -0.1038 -0.3191
25494NA      NA77016   5.877   1.524   5.141 -0.5216 -0.4830  0.0633
25495NA      NA77017   3.456   6.559  10.644 -0.0911  0.1010 -0.3260
25496NA      NA77018   6.063   5.312   6.202  0.1401  0.4894  0.7558
25497NA      NA77019   7.924   0.102   3.014  0.1769  0.0176  0.1446
25498NA      NA77020   6.324   7.537   6.218 -0.1090  0.6894  0.5193
25499NA      NA77021   5.800   0.723   0.128  0.1376  0.1789  0.3555
25500NA      NA77022   0.545   0.360   6.850 -0.3816 -0.4690 -0.3360
25501NA      NA77023   2.231   2.423   7.576 -0.5258  0.5778  0.3085
25502NA      NA77024   5.717   6.618  10.927 -0.5330 -0.2191 -0.1350
25503NA      NA77025   5.464   3.069   1.688 -0.6633 -0.2102 -0.2273
25504NA      NA77026   7.916   5.622   2.004  0.1823 -0.2515  0.0375
25505NA      NA77027   2.926   0.263   9.463 -1.0733  0.5344 -0.2449
25506NA      NA77028   5.804   0.905   8.173 -0.1166 -0.4970  0.0667
25507NA      NA77029   5.327   6.851   7.164  0.5185  0.2062  0.5149
25508NA      NA77030   1.807   3.366  11.594 -0.3304  0.4075  0.0116
25509NA      NA77031   0.630   6.464  10.088  0.9497  0.0851  0.2480
25510NA      NA77032   2.025   0.026   2.117 -0.1660  0.0878  0.5693
25511NA      NA77033   5.242   6.271   2.559  0.0939 -0.4553  0.3031
25512NA      NA77034   0.829   2.165   7.183  0.0645 -0.1703 -0.3287
25513NA      NA77035   6.262   4.958  11.667 -0.1664  0.8362  0.2276
25514NA      NA77036   3.082   5.303  11.396  0.0914  0.8085 -0.2943
25515NA      NA77037   4.065   5.937  10.470  0.4338  0.0288  0.1103
25516NA      NA77038   2.452   7.685  10.680  0.5638 -0.3972  0.6236
25517NA      NA77039   7.799   5.421   6.823 -0.2708  0.3060 -0.2266
25518NA      NA77040   6.986   3.183   5.355 -0.1558 -0.1323  0.2133
25519NA      NA77041   6.350   3.375   9.450  0.9136  0.4230  0.2814
25520NA      NA77042   3.387   3.889   7.176  0.2953 -0.0511 -0.1928
25521NA      NA77043   1.315   3.384   1.694  0.2201  0.2740  0.2820
25522NA      NA77044   5.998   0.942   1.674  0.0682 -0.3413 -0.1779
25523NA      NA77045   1.928   4.471   5.484 -0.0873 -0.2385 -0.4638
25524NA      NA77046   5.071   5.069   7.737  0.3529  0.2264 -0.0757
25525NA      NA77047   2.497   4.799   4.581  0.1340  0.2905  0.1301
25526NA      NA77048   5.895   2.974   1.011  0.4158  0.4957  0.4095
25527NA      NA77049   1.225   4.039   8.067  0.4073 -0.0012  0.2341
25528NA      NA77050   7.878   4.191   0.979  0.3147  0.2661 -0.4714
25529NA      NA77051   1.117   0.554  12.344  0.2520 -0.0861  0.3846
25530NA      NA77052   2.140   0.540   9.610  0.1531  0.3604  0.1266
25531NA      NA77053   2.741   6.765   3.807  0.1287 -0.1633 -0.1361
25532NA      NA77054   4.122   4.312   9.686  0.1313 -0.0967  0.5483
25533NA      NA77055   2.773   4.133   1.011  0.1087 -0.0050  0.4684
25534NA      NA77056   6.893   1.569   2.779 -0.3689  0.1692  0.1725
25535NA      NA77057   3.595   4.076   1.395 -0.2138  0.2244  0.1851
25536NA      NA77058   5.040   5.796   4.243 -0.3896  0.4199  0.1546
25537NA      NA77059   6.875   5.475   4.149 -0.4361  0.1877  0.1039
25538NA      NA77060   5.036   0.204   8.428  0.3786  0.2294  0.2125
25539NA      NA77061   6.705   5.318  12.250  0.2045 -0.0562 -0.2038
25540NA      NA77062   0.272   7.116   1.976 -0.0137  0.0887  0.9022
25541NA      NA77063   3.737   3.745   8.580  0.1126  0.0357  0.8058
25542NA      NA77064   2.555   0.442   5.216 -0.2310 -0.1412  0.6721
25543NA      NA77065   7.802   1.461  12.066 -0.0791  0.0737  0.0804
25544NA      NA77066   7.302   4.162   9.632 -0.2503  0.4365  0.0312
25545NA      NA77067   6.962   4.102  10.904 -0.2314  0.3339  0.5519
25546NA      NA77068   2.335   7.038   5.786 -0.1537 -0.6757  0.2077
25547CL      CL77069   4.920   6.217   7.903  0.3573 -0.0291  0.2918
25548CL      CL77070   6.166   7.886  11.612 -0.5033 -0.1134  0.2369
25549CL      CL77071   4.579   3.688   3.466  0.1838 -0.3248 -0.0854
25550CL      CL77072   6.898   1.642   3.039 -0.0385 -0.1513 -0.0539
25551CL      CL77073   3.104   6.075   6.845  0.1691 -0.2579 -0.4390
25552CL      CL77074   7.091   2.026   1.990 -0.1317  0.1178 -0.2734
25553CL      CL77075   0.487   2.869  10.891 -0.0929 -0.5388  0.2434
25554CL      CL77076   0.781   0.224   5.741 -0.0052 -0.1685 -0.0365
25555CL      CL77077   0.037   5.524   6.642 -0.2326  0.0981  0.0127
25556CL      CL77078   0.548   7.094  10.409  0.1394  0.1062  0.4197
25557CL      CL77079   2.095   5.304   8.368  0.3762 -0.4866  0.1410
25558CL      CL77080   5.569   7.592   9.456  0.5193 -0.1053 -0.4261
25559CL      CL77081   7.533   3.638  12.027  0.1498  0.0967 -0.4678
25560CL      CL77082   7.629   0.666   2.357  0.1853  0.0745  0.5412
25561CL      CL77083   3.216   6.457   2.002  0.0445 -0.1619  0.1172
25562CL      CL77084   2.412   1.185   8.348  0.2004  0.2448  0.2453
25563CL      CL77085   3.563   1.680  12.070 -0.3845  0.3811 -0.4465
25564CL      CL77086   2.142   2.786   1.845 -0.0699 -0.1220 -0.0005
25565CL      CL77087   7.102   4.652  10.206  0.3976 -0.3056 -0.0926
25566CL      CL77088   6.110   1.076   1.176  0.1413 -0.2516  0.2570
25567CL      CL77089   5.882   7.092   6.588  0.1954  0.2346 -0.3363
25568CL      CL77090   1.988   5.714  12.143 -0.0660 -0.2673 -0.0337
25569CL      CL77091   7.290   2.035   3.494 -0.2074  0.1325 -0.1980
25570CL      CL77092   2.235   5.928   7.615  0.7453 -0.1184 -0.2917
25571CL      CL77093   6.228   3.482   6.020 -0.2054 -0.3477  0.1361
25572CL      CL77094   7.825   1.218   3.434  0.2114 -0.0360  0.3288
25573CL      CL77095   6.982   3.630  10.919 -0.3939  0.2423  0.0697
25574CL      CL77096   0.344   1.235   9.418  0.1084 -0.0821  0.3524
25575CL      CL77097   4.962   1.279   2.452 -0.0743 -0.1243 -0.3480
25576CL      CL77098   3.714   4.714   2.761 -0.3047  0.2434  0.0682
25577CL      CL77099   3.497   4.884  11.116 -0.1696 -0.1547 -0.1186
25578CL      CL77100   5.295   6.949   0.603 -0.0729 -0.4008 -0.2751
25579CL      CL77101   4.010   0.517   5.054 -0.3802 -0.2730 -0.2360
25580CL      CL77102   7.214   0.549   6.837  0.0249 -0.0020  0.0897
25581CL      CL77103   2.357   2.213   8.014  0.5508 -0.2494 -0.0082
25582CL      CL77104   6.222   5.281  12.318  0.0705 -0.0069 -0.2678
25583CL      CL77105   2.758   4.995   9.387 -0.1358 -0.2450 -0.3152
25584CL      CL77106   0.051   2.053   3.785  0.3301  0.1277 -0.0655
25585CL      CL77107   4.960   4.563   7.634  0.2079 -0.0341 -0.2345
25586CL      CL77108   2.367   5.217  11.545 -0.0569  0.1949 -0.1502
25587CL      CL77109   5.583   5.930  10.781 -0.2833 -0.0617  0.0326
25588CL      CL77110   2.903   6.106   0.564  0.2464 -0.2554 -0.2797
25589CL      CL77111   6.611   0.763  11.125 -0.2408 -0.1361  0.4481
25590CL      CL77112   1.208   1.029  10.961  0.1769  0.3050 -0.2574
25591CL      CL77113   4.294   4.742  11.294  0.1578  0.2339 -0.2454
25592CL      CL77114   0.694   6.875   2.489  0.0638  0.2597 -0.0537
25593CL      CL77115   0.016   4.459   2.012  0.1887 -0.1918 -0.1314
25594CL      CL77116   0.465   4.660   7.922 -0.2743 -0.0701  0.2010
25595CL      CL77117   2.581   7.355   5.545 -0.1351  0.5411  0.0690
25596CL      CL77118   0.938   5.966   6.764  0.1304  0.2062 -0.2329
25597CL      CL77119   7.454   2.906   0.855 -0.4335 -0.3940  0.0544
25598CL      CL77120   6.924   6.360   0.379 -0.2316 -0.2747 -0.1989
25599CL      CL77121   7.721   1.687   3.946 -0.1384 -0.0300 -0.5089
25600CL      CL77122   7.098   5.230   0.406  0.1521 -0.0105 -0.2977
25601CL      CL77123   5.468   3.806   3.417 -0.2246  0.2077  0.5644
25602CL      CL77124   6.573   2.684   6.290 -0.0036 -0.2464 -0.1957
25603CL      CL77125   6.611   1.000   2.613  0.1537 -0.1575 -0.5947
25604CL      CL77126   1.199   6.200  10.634  0.4950 -0.0317  0.4425
25605CL      CL77127   3.021   6.818  10.759 -0.0907 -0.0352  0.3642
25606CL      CL77128   2.866   0.969   1.835 -0.3853 -0.2146  0.1176
25607CL      CL77129   0.136   7.047  11.300  0.5409 -0.1194 -0.2590
25608CL      CL77130   0.869   5.290   7.767  0.4800 -0.1169 -0.3388
25609CL      CL77131   7.601   6.781   9.058 -0.0659 -0.5684 -0.3384
25610CL      CL77132   5.865   7.216  10.340 -0.2569 -0.2811 -0.1443
25611CL      CL77133   0.457   2.963   1.325 -0.1758 -0.5150  0.0458
25612CL      CL77134   3.604   2.048   2.320  0.3644 -0.5222  0.3502
25613CL      CL77135   4.420   6.832  10.844 -0.2506  0.5358  0.3538
25614CL      CL77136   3.936   6.172   2.024  0.1155 -0.2380  0.4101
25615CL      CL77137   5.573   2.715   2.687 -0.0096 -0.1631  0.0846
25616CL      CL77138   3.290   7.466  10.601  0.0794  0.0698 -0.1829
25617CL      CL77139   5.362   2.685   3.696  0.0799 -0.3477 -0.7669
25618CL      CL77140   3.497   7.681   0.463 -0.0180 -0.0899 -0.3419
25619CL      CL77141   4.961   3.352   4.502 -0.3610 -0.0273  0.0934
25620CL      CL77142   0.213   4.850   5.275 -0.0754 -0.1221 -0.1656
25621CL      CL77143   6.374   1.017   3.268  0.0015 -0.1575  0.3250
25622CL      CL77144   5.548   6.498   5.574 -0.0396  0.0135 -0.1207
25623CL      CL77145   1.654   6.172   2.816 -0.1614  0.1266  0.2887
25624CL      CL77146   5.028   6.755   6.761  0.3082 -0.2600  0.4609
25625CL      CL77147   6.296   2.277  11.445 -0.0180 -0.3200  0.1909
25626CL      CL77148   1.088   5.109   5.802 -0.1656 -0.3015 -0.3461
25627CL      CL77149   1.542   4.015   8.594 -0.2885  0.0153 -0.1605
25628CL      CL77150   2.927   2.375   0.980  0.0067  0.4714 -0.1272
25629CL      CL77151   4.944   7.268   1.064 -0.4392  0.2262 -0.1311
25630CL      CL77152   5.910   3.322   9.199 -0.1186  0.1684 -0.0817
25631CL      CL77153   7.262   0.031   2.847  0.1533  0.1742  0.3792
25632CL      CL77154   2.791   0.437   1.285 -0.4210  0.6294  0.3109
25633CL      CL77155   7.595   6.343   2.583 -0.0391  0.1431  0.0998
25634CL      CL77156   1.011   3.942  12.181 -0.1176 -0.0077  0.2702
25635CL      CL77157   1.720   6.198   1.400 -0.0735  0.2380 -0.5584
25636CL      CL77158   3.723   6.910   2.384  0.1903  0.3002  0.3582
25637CL      CL77159   7.004   6.904   1.882  0.0216 -0.1396 -0.2997
25638CL      CL77160   3.124   2.294   3.158  0.3412 -0.0808 -0.1647
25639CL      CL77161   2.583   3.317   4.473  0.0179 -0.0750 -0.0376
25640CL      CL77162   2.785   1.561   3.333 -0.3585  0.2558  0.1372
25641CL      CL77163   6.455   4.008   3.829  0.3796  0.3032  0.0920
25642CL      CL77164   6.586   4.475   6.555 -0.4092  0.0845  0.2450
25643CL      CL77165   5.070   5.280   1.102 -0.1751  0.1198  0.0442
25644CL      CL77166   1.540   0.853   6.073 -0.0508  0.5408  0.4089
25645CL      CL77167   4.165   2.311   1.089  0.6678 -0.3140 -0.1680
25646CL      CL77168   5.577   5.480   3.306 -0.0156  0.2792  0.0018
25647CL      CL77169   7.336   3.700   3.528 -0.1495  0.2081  0.3372
25648CL      CL77170   6.718   5.706   6.623  0.2662  0.1629  0.6656
25649CL      CL77171   2.131   3.580   8.320  0.2850  0.0092  0.2840
25650CL      CL77172   4.634   3.922   2.794 -0.0947 -0.0599  0.1977
25651CL      CL77173   7.033   5.255   9.635  0.1682  0.1599  0.1750
25652CL      CL77174   7.638   0.755  10.450 -0.6629 -0.0636 -0.1984
25653CL      CL77175   2.060   2.068   1.368  0.8911  0.0812  0.1956
25654CL      CL77176   6.778   3.375   6.287  0.2466  0.0258  0.4348
25655CL      CL77177   3.954   1.361   4.064  0.3784 -0.3873 -0.1950
25656CL      CL77178   4.005   1.703   5.106  0.1052 -0.1849  0.1600
25657CL      CL77179   4.754   5.389   9.888 -0.0598  0.2940  0.2903
25658CL      CL77180   1.457   0.608   7.219  0.2106  0.3516 -0.1353
25659CL      CL77181   1.415   4.801   6.436  0.0642  0.0709  0.3318
25660CL      CL77182   5.421   6.284   3.977  0.3675  0.3493  0.0664
25661CL      CL77183   7.369   1.331   7.239  0.0341 -0.0791 -0.1178
25662CL      CL77184   6.496   4.390   2.514 -0.0149  0.0855  0.2841
25663CL      CL77185   5.092   7.232   4.090 -0.0932  0.0376 -0.0624
25664CL      CL77186   4.622   3.040   3.454  0.0014 -0.0737 -0.0650
25665CL      CL77187   3.928   1.967   3.492 -0.4482  0.0096 -0.0480
25666CL      CL77188   1.517   0.694  12.128 -0.2821  0.1538  0.1766
25667CL      CL77189   7.758   7.162   0.570 -0.5374 -0.1509 -0.1620
25668CL      CL77190   4.889   6.028   0.034  0.1255 -0.1605 -0.1435
25669CL      CL77191   0.868   2.075   4.401 -0.1180  0.2897  0.2387
25670CL      CL77192   3.895   6.593  11.514 -0.1579 -0.4949 -0.1910
25671CL      CL77193   0.036   6.828   1.060 -0.1255  0.6775 -0.3538
25672CL      CL77194   1.594   5.515  10.790 -0.5097 -0.1388  0.1389
25673CL      CL77195   5.757   4.663   4.176  0.1922  0.2498 -0.3871
25674CL      CL77196   5.552   3.951   0.611  0.0893  0.1539  0.2667
25675CL      CL77197   2.181   7.172   1.084 -0.3880 -0.0487 -0.1230
25676CL      CL77198   7.490   4.277   8.914  0.0053 -0.1574  0.3989
25677CL      CL77199   7.105   1.554   1.345  0.2306  0.1516 -0.0696
25678CL      CL77200   3.954   7.905   7.112 -0.2005 -0.1345 -0.1290
25679CL      CL77201   3.962   7.603   5.613  0.5919 -0.2638  0.3607
25680CL      CL77202   1.009   5.019   0.786 -0.3520  0.1757 -0.0252
25681CL      CL77203   3.353   5.016   4.685  0.6612  0.3174  0.3540
25682CL      CL77204   4.358   5.826   2.830  0.0095  0.0100 -0.5306
25683CL      CL77205   3.184   7.548   6.111 -0.4007 -0.1914 -0.0603
25684CL      CL77206   2.371   1.600   5.831  0.0628  0.5554 -0.1831
25685CL      CL77207   1.891   6.939   3.782 -0.1191 -0.0063 -0.0151
25686CL      CL77208   7.173   1.091   0.199 -0.0189  0.1952  0.2497
25687CL      CL77209   1.228   1.481   1.398 -0.1666  0.0084 -0.0346
25688CL      CL77210   0.609   4.070   9.560  0.0845 -0.0857 -0.0656
25689CL      CL77211   3.989   4.887   9.742  0.2242 -0.4163 -0.1904
25690CL      CL77212   7.570   3.755   7.676  0.2685 -0.4130  0.3973
25691CL      CL77213   1.616   2.573   8.045 -0.1224  0.1734  0.6427
25692CL      CL77214   2.171   7.607  10.028  0.1560  0.1016  0.0219
25693CL      CL77215   2.197   7.348   5.069 -0.6124  0.1885  0.0643
25694CL      CL77216   3.827   7.802   2.864  0.0847 -0.0970  0.5036
25695CL      CL77217   0.284   0.854   8.371  0.2644  0.2054  0.2470
25696CL      CL77218   7.417   3.886   5.100 -0.3928 -0.1626 -0.0375
25697CL      CL77219   0.576   1.164   6.749  0.3465  0.1369 -0.1084
25698CL      CL77220   1.060   6.002   9.442 -0.1473 -0.3633  0.2962
25699CL      CL77221   5.157   1.258   1.741  0.2444 -0.1245  0.3008
25700CL      CL77222   7.166   7.872  11.470 -0.2219  0.2852 -0.1438
25701CL      CL77223   7.751   7.237   4.206 -0.5833  0.1710  0.1908
25702CL      CL77224   0.978   7.317   4.008  0.3951  0.2610  0.4331
25703CL      CL77225   7.698   7.367   5.077  0.1401 -0.3406  0.0518
25704CL      CL77226   6.972   6.813   2.623 -0.1809 -0.4195 -0.2813
25705CL      CL77227   0.056   2.120   6.016  0.0793 -0.1003  0.3657
25706CL      CL77228   7.049   6.355   4.152 -0.0520  0.0165 -0.1568
25707CL      CL77229   6.421   0.337   4.262 -0.0171 -0.2808  0.0882
25708CL      CL77230   4.716   3.270   4.926 -0.1834 -0.3276 -0.3869
25709CL      CL77231   1.915   2.968   7.277  0.1122  0.0334 -0.2185
25710CL      CL77232   1.087   4.567   3.120 -0.0530  0.2983  0.1790
25711CL      CL77233   1.695   3.967   7.885  0.3458 -0.3492  0.3331
25712CL      CL77234   4.169   7.832  10.150 -0.2518  0.0369  0.1362
25713CL      CL77235   0.967   2.710  10.874 -0.2981  0.3585 -0.0886
25714CL      CL77236   5.432   0.076   0.330 -0.2407 -0.3473 -0.0031
25715CL      CL77237   7.293   6.052   0.750 -0.5183 -0.0447  0.3040
25716CL      CL77238   6.086   1.448   2.081  0.2559  0.2713  0.2860
25717CL      CL77239   4.042   1.806   5.552  0.2519 -0.0775 -0.1039
25718CL      CL77240   3.190   1.380  12.272 -0.6131  0.2597 -0.3412
25719CL      CL77241   6.796   3.170   0.508  0.1257  0.2649 -0.2714
25720CL      CL77242   4.023   0.753   8.549 -0.2151  0.0680 -0.0099
25721CL      CL77243   3.976   1.871   9.002 -0.1046 -0.0457 -0.3957
25722CL      CL77244   1.533   2.968   0.013 -0.0537 -0.1508  0.1549
25723CL      CL77245   4.677   4.790   4.104  0.4884  0.3592  0.4435
25724CL      CL77246   1.585   5.288   5.905 -0.1318 -0.8825  0.0935
25725CL      CL77247   5.834   7.491   4.596  0.2358  0.0723 -0.0710
25726CL      CL77248   2.723   4.383   7.804 -0.0765 -0.2263  0.0370
25727CL      CL77249   3.819   0.558   2.687  0.1581  0.1011  0.2618
25728CL      CL77250   0.902   3.957   9.128  0.0903 -0.0565  0.0805
25729CL      CL77251   2.287   7.837   3.022 -0.0080 -0.3111  0.4834
25730CL      CL77252   0.696   2.419   8.929  0.3582  0.2549  0.1821
25731CL      CL77253   6.476   2.831   5.838  0.0398  0.1962 -0.2431
25732CL      CL77254   3.543   1.343   1.164  0.3507 -0.3345  0.2396
25733CL      CL77255   6.406   2.998   2.910 -0.0354 -0.3266  0.1987
25734CL      CL77256   6.350   1.608   3.536  0.0108 -0.0869  0.0745
25735CL      CL77257   4.846   4.933   7.826  0.1518 -0.4346 -0.1685
25736CL      CL77258   2.579   4.845   0.220 -0.1326 -0.1800  0.3927
25737CL      CL77259   7.554   2.435   7.820  0.5515  0.0132  0.1565
25738CL      CL77260   2.264   0.151   6.732 -0.0288 -0.1143  0.3919
25739CL      CL77261   6.923   4.321   7.362  0.4222 -0.2935 -0.3031
25740CL      CL77262   7.508   1.217  10.093 -0.1283  0.1495 -0.0420
25741CL      CL77263   6.498   7.472  11.218  0.2801 -0.2382 -0.2829
25742CL      CL77264   6.531   3.818   5.198 -0.0078 -0.3330  0.2791
25743CL      CL77265   2.819   1.623   6.693  0.3179 -0.2124  0.1348
25744CL      CL77266   2.793   1.116   5.451  0.0096 -0.0440 -0.7359
25745CL      CL77267   3.088   6.671   8.199 -0.1565  0.3398  0.5549
25746CL      CL77268   5.695   3.337   0.916  0.5049  0.1250 -0.0452
25747CL      CL77269   2.790   3.820   7.200  0.2469 -0.5893 -0.0883
25748CL      CL77270   1.816   0.383   3.040  0.0309 -0.1044  0.0509
25749CL      CL77271   0.546   1.746   9.393 -0.2046 -0.1426 -0.6066
25750CL      CL77272   6.641   1.374  10.214  0.2132  0.2711 -0.6367
25751CL      CL77273   3.220   0.257  10.506  0.2568 -0.3555  0.0143
25752CL      CL77274   4.376   2.581   3.493  0.0816  0.1156  0.0435
25753CL      CL77275   7.179   0.946   7.316  0.1625 -0.4289  0.1819
25754CL      CL77276   7.370   5.397   8.349 -0.2841 -0.0559  0.2577
25755CL      CL77277   3.219   0.752   5.981 -0.4861 -0.0479  0.0229
25756CL      CL77278   3.219   6.499   0.534  0.3227 -0.2636 -0.0599
25757CL      CL77279   5.736   1.798   1.608  0.0737  0.3071  0.2873
25758CL      CL77280   5.279   1.253   4.150  0.1177 -0.2317 -0.3972
25759CL      CL77281   2.178   6.664  11.472  0.0303  0.4343  0.2839
25760CL      CL77282   0.489   2.526   7.224 -0.2950 -0.2473  0.4981
25761CL      CL77283   0.359   4.464   3.714  0.0948  0.0942  0.0943
25762CL      CL77284   2.207   6.188  10.030  0.6635  0.4870 -0.2655
25763CL      CL77285   2.969   0.152   4.234 -0.4084  0.0354 -0.1081
25764CL      CL77286   7.420   7.353   8.333  0.1073 -0.1354 -0.1714
25765CL      CL77287   6.697   4.320   8.255  0.0164 -0.2437 -0.0196
25766CL      CL77288   2.919   4.124   3.921 -0.2401  0.1343  0.3417
25767CL      CL77289   6.640   2.471   4.069  0.0858  0.9056  0.1272
25768CL      CL77290   7.926   7.164   9.223  0.2234 -0.0703  0.3454
25769CL      CL77291   0.784   0.826  10.918  0.0862 -0.1198  0.2213
25770CL      CL77292   0.390   7.832   2.874 -0.1294  0.2720  0.2854
25771CL      CL77293   3.776   5.140   1.364  0.6538  0.2612 -0.0204
25772CL      CL77294   7.453   7.837   8.454  0.1725 -0.0922 -0.1168
25773CL      CL77295   1.860   7.724   7.821 -0.0293  0.0614 -0.2011
25774CL      CL77296   3.746   5.114   2.869  0.1026 -0.2346 -0.0654
25775CL      CL77297   4.451   0.984   1.761 -0.0176 -0.3540  0.1569
25776CL      CL77298   4.851   2.355   6.595  0.1140  0.0296  0.4012
25777CL      CL77299   0.350   0.478   9.767 -0.0488 -0.0552  0.1311
25778CL      CL77300   1.199   2.931   8.557 -0.2334  0.1317  0.3728
25779CL      CL77301   1.213   1.397   2.767 -0.2065  0.0924  0.1175
25780CL      CL77302   1.417   1.212   3.228  0.4148  0.4370  0.1600
25781CL      CL77303   3.731   7.041   8.957 -0.1916 -0.3694 -0.3573
25782CL      CL77304   3.143   5.874   7.282  0.0507 -0.0184 -0.2627
25783CL      CL77305   7.238   0.038   0.953  0.1289  0.1033 -0.0687
25784CL      CL77306   7.865   4.468   7.283 -0.5346  0.2320  0.1101
25785CL      CL77307   6.349   3.874  10.072 -0.2599 -0.1582  0.2988
25786CL      CL77308   7.717   5.487   0.511  0.1293 -0.0751 -0.3947
25787CL      CL77309   6.514   0.393   5.203 -0.1204  0.3706  0.1551
25788CL      CL77310   2.624   3.071  10.143 -0.1048  0.1410 -0.1220
25789CL      CL77311   2.229   7.495   4.196 -0.0591 -0.0801 -0.3372
25790CL      CL77312   1.552   0.776   1.450  0.0117  0.2398 -0.2158
25791CL      CL77313   2.857   1.093  11.764 -0.0751 -0.1559 -0.0679
25792CL      CL77314   6.100   2.731   1.797  0.2705  0.5135 -0.1099
25793CL      CL77315   6.110   5.301   9.178 -0.4395 -0.3504 -0.1524
25794CL      CL77316   7.207   2.215   7.562  0.0991 -0.2181 -0.1031
25795CL      CL77317   2.472   6.205   4.238 -0.0769  0.1261  0.1874
25796CL      CL77318   3.940   0.381   8.012 -0.0620  0.0524  0.0808
25797CL      CL77319   2.767   3.107   5.853  0.1376 -0.4577  0.1745
25798CL      CL77320   4.022   6.748   4.795  0.2374  0.3642 -0.2742
25799CL      CL77321   4.096   2.605   0.413  0.2431 -0.0887 -0.2116
25800CL      CL77322   3.647   3.113   5.124  0.2562 -0.3631  0.2540
25801CL      CL77323   3.332   0.833   3.203 -0.1304  0.2605 -0.2066
25802CL      CL77324   7.719   0.807   6.246  0.3359 -0.2566  0.0374
25803CL      CL77325   2.640   0.418   9.044 -0.3528  0.2442  0.1448
25804CL      CL77326   5.634   7.766   1.031 -0.0506  0.0645 -0.0809
25805CL      CL77327   2.689   0.618  10.209 -0.0741 -0.1579 -0.0651
25806CL      CL77328   3.313   5.558   0.641  0.2561  0.1207 -0.1437
25807CL      CL77329   1.382   3.402   4.113  0.1113  0.1697  0.1762
25808CL      CL77330   2.567   4.469  12.153 -0.1758  0.4259  0.1310
25809CL      CL77331   7.901   2.781   6.310 -0.3038  0.0193  0.1274
25810CL      CL77332   5.100   0.912  12.375  0.1900  0.3349 -0.2293
25811CL      CL77333   4.631   6.862   9.147  0.0931 -0.0393 -0.3711
25812CL      CL77334   2.995   4.604   8.547  0.4102 -0.5556  0.1363
25813CL      CL77335   1.990   2.004   6.337 -0.4023  0.2034  0.0205
25814CL      CL77336   6.763   3.349  10.005  0.2809 -0.1973  0.1559
25815CL      CL77337   3.254   0.908  11.597 -0.1953  0.2821  0.0815
25816CL      CL77338   3.685   0.066   5.765 -0.2186  0.1461  0.0775
25817CL      CL77339   2.403   5.727   9.272  0.2731  0.0282  0.0357
25818CL      CL77340   0.111   4.187  10.417 -0.1881  0.6585 -0.4177
25819CL      CL77341   7.878   2.347   8.760 -0.1727  0.1402 -0.0141
25820CL      CL77342   1.360   0.683   4.281  0.3087 -0.0014  0.0821
25821CL      CL77343   3.690   4.040   1.899 -0.0577  0.2039  0.2542
25822CL      CL77344   0.527   2.114   5.039  0.1552 -0.0400 -0.1544
25823CL      CL77345   4.249   4.710   5.714 -0.2470 -0.0912 -0.1729
25824CL      CL77346   0.940   2.766  12.283 -0.0736  0.4544 -0.1435
25825CL      CL77347   4.553   0.319   7.232  0.1486 -0.2827 -0.3690
25826CL      CL77348   1.010   2.422  11.708 -0.3759  0.2996 -0.1348
25827CL      CL77349   1.193   2.686   1.431 -0.2210  0.4620  0.0278
25828CL      CL77350   6.087   6.325  11.886  0.0260 -0.2642 -0.4117
25829CL      CL77351   2.720   1.460   7.782  0.2050  0.0470  0.5179
25830CL      CL77352   5.566   6.046   4.417 -0.1116  0.2869 -0.0295
25831CL      CL77353   4.328   5.977   3.605  0.1534  0.5258  0.1792
25832CL      CL77354   7.049   1.020   5.469  0.3197 -0.6120 -0.2597
25833CL      CL77355   7.478   0.725   8.606  0.2590 -0.0479 -0.5001
25834CL      CL77356   3.065   2.276   8.116  0.1608  0.3009 -0.1144
25835CL      CL77357   5.230   5.128  10.995  0.3360  0.0428  0.2086
25836CL      CL77358   6.348   4.718  11.223  0.0543 -0.0092 -0.0144
25837CL      CL77359   6.444   7.057   6.366 -0.3119 -0.2498 -0.0815
25838CL      CL77360   2.411   0.832   2.460  0.4365 -0.1714  0.0703
25839CL      CL77361   4.895   5.342   2.206  0.1739  0.1205 -0.2358
25840CL      CL77362   4.380   5.850   5.804 -0.2245  0.3676  0.1580
25841CL      CL77363   4.039   3.039   3.881 -0.3259  0.1334  0.0913
25842CL      CL77364   7.461   7.617   6.411 -0.0019 -0.0426 -0.1532
25843CL      CL77365   6.364   5.271   9.979 -0.3083 -0.1431 -0.0858
25844CL      CL77366   3.363   3.699   1.993 -0.0135 -0.0617  0.0629
25845CL      CL77367   2.414   2.872   5.148  0.1750 -0.2045  0.0668
25846CL      CL77368   1.879   4.879   5.040  0.1701  0.2366  0.0848
25847CL      CL77369   5.187   7.576   2.012 -0.2410 -0.2758 -0.0256
25848CL      CL77370   1.146   6.763   7.426  0.2351  0.0610  0.1750
25849CL      CL77371   0.361   3.652  10.214  0.1220 -0.0650  0.0888
25850CL      CL77372   4.743   5.096   4.628 -0.4031 -0.5992  0.3692
25851CL      CL77373   4.099   5.118  11.585 -0.2026  0.0548  0.0559
25852CL      CL77374   7.373   4.993   0.927  0.0660  0.0427 -0.0556
25853CL      CL77375   6.642   6.532   9.254  0.0665 -0.2485  0.1611
25854CL      CL77376   7.412   3.412   6.347  0.0745  0.0110 -0.3471
25855CL      CL77377   0.872   7.080   9.448  0.2046 -0.3765  0.4679
25856CL      CL77378   0.145   5.053   7.980 -0.1790 -0.2416 -0.1636
25857CL      CL77379   7.355   4.540   0.622  0.0057 -0.2742 -0.5268
25858CL      CL77380   5.095   1.886   5.358  0.6753 -0.0095 -0.0397
25859CL      CL77381   5.407   5.845   0.888 -0.0946  0.4232 -0.2477
25860CL      CL77382   7.802   3.915   6.359 -0.9633  0.1193 -0.1513
25861CL      CL77383   1.207   0.196   1.529 -0.5006 -0.0227 -0.4011
25862CL      CL77384   7.386   7.121  11.320  0.4964  0.2100 -0.3598
25863CL      CL77385   4.404   1.033  10.404 -0.1862  0.2919 -0.2103
25864CL      CL77386   0.642   7.504   0.901 -0.0825 -0.2520  0.0243
25865CL      CL77387   2.095   1.280   6.506 -0.0886 -0.2772  0.2296
25866CL      CL77388   1.663   0.673   9.167  0.0554  0.1441 -0.4505
25867CL      CL77389   7.123   4.156   8.345 -0.1725  0.0622  0.2414
25868CL      CL77390   5.638   0.004  10.046  0.2651  0.0149 -0.1230
25869CL      CL77391   5.134   4.251   8.012  0.1927  0.4051  0.4252
25870CL      CL77392   0.185   6.648  10.074 -0.4530 -0.0521 -0.1971
25871CL      CL77393   7.762   0.986  12.239  0.5198 -0.2731 -0.0983
25872CL      CL77394   6.400   7.316   3.402 -0.1620  0.5344 -0.0171
25873CL      CL77395   4.496   7.433  12.314  0.0080 -0.0418  0.3944
25874CL      CL77396   2.621   1.623   5.384  0.0887  0.6342 -0.1422
25875CL      CL77397   4.318   6.671  11.946 -0.1516  0.1230 -0.0952
25876CL      CL77398   5.770   4.012   2.063 -0.2224  0.4084 -0.3441
25877CL      CL77399   7.464   1.991   9.548  0.1037 -0.0600  0.3281
25878CL      CL77400   0.035   2.714  11.351  0.3099 -0.0648 -0.0720
25879CL      CL77401   7.744   1.786   5.300  0.2584 -0.2748 -0.2406
25880CL      CL77402   5.455   6.453  12.309  0.2203  0.4275 -0.1586
25881CL      CL77403   7.807   1.503   7.255  0.1126  0.2042  0.1407
25882CL      CL77404   7.793   3.348  11.643  0.2028  0.0280  0.0168
25883CL      CL77405   2.466   6.105   8.810  0.1211  0.2240  0.0235
25884CL      CL77406   2.997   1.734   4.016 -0.2714  0.0849 -0.0464
25885CL      CL77407   6.315   6.144   3.364  0.1777 -0.4643  0.3438
25886CL      CL77408   3.883   5.176   5.584 -0.0192 -0.0576  0.2478
25887CL      CL77409   4.225   1.603   9.384 -0.0163  0.0351 -0.2511
25888CL      CL77410   1.930   7.464   7.070  0.2992  0.1473  0.1429
25889CL      CL77411   2.577   7.921   1.595  0.1686  0.1307 -0.2508
25890CL      CL77412   6.834   0.761  12.306  0.3238 -0.2127 -0.3118
25891CL      CL77413   7.201   4.824   5.485 -0.2499  0.3913 -0.1062
25892CL      CL77414   7.741   5.993   7.993 -0.4139 -0.0419  0.2203
25893CL      CL77415   1.813   6.923   6.193  0.3328  0.2244  0.3659
25894CL      CL77416   3.389   6.987  10.080  0.0532 -0.2188 -0.1125
25895CL      CL77417   0.655   5.503   1.903 -0.1532 -0.3575 -0.2017
25896CL      CL77418   1.204   3.474  11.481 -0.5537 -0.2944  0.1618
25897CL      CL77419   3.033   3.615   5.363 -0.1532 -0.2105  0.1840
25898CL      CL77420   4.985   6.637   2.064  0.1697  0.4246  0.0320
25899CL      CL77421   0.656   7.265  12.042  0.5895  0.1047  0.2806
25900CL      CL77422   0.892   7.304   4.948 -0.0122 -0.0762  0.4094
25901CL      CL77423   6.891   0.788   1.356 -0.4357  0.0885  0.0429
25902CL      CL77424   3.707   7.308  12.114 -0.0553 -0.2047 -0.0311
25903CL      CL77425   3.066   4.060   9.727  0.2833 -0.1852 -0.0065
25904CL      CL77426   1.601   5.923  10.759  0.0461  0.0357  0.0284
25905CL      CL77427   5.465   2.302   1.344 -0.1500 -0.1984  0.2741
25906CL      CL77428   6.230   6.710   4.906 -0.2064 -0.3701  0.4770
25907CL      CL77429   2.421   1.779   2.434 -0.5421  0.1260 -0.1354
25908CL      CL77430   2.839   3.893   5.755 -0.0054 -0.2310  0.4533
25909CL      CL77431   1.393   7.482   0.569 -0.3579 -0.1345  0.8294
25910CL      CL77432   2.112   3.606   1.277 -0.2876  0.0009 -0.0832
25911CL      CL77433   4.643   5.347   1.245 -0.1435 -0.0709  0.0747
25912CL      CL77434   1.423   6.203   0.346 -0.5323 -0.1794 -0.1743
25913CL      CL77435   2.952   2.931  12.093 -0.5076  0.0268 -0.0846
25914CL      CL77436   0.084   3.192  12.268 -0.3250 -0.2027 -0.3560
25915CL      CL77437   7.473   3.929   4.224  0.0569  0.2812 -0.1314
25916CL      CL77438   7.590   6.377  10.294  0.4031 -0.5556 -0.0229
25917CL      CL77439   7.186   4.916   6.432  0.0081 -0.1318 -0.1611
25918CL      CL77440   0.881   5.519   5.091 -0.1824  0.0388  0.0561
25919CL      CL77441   6.709   7.032   9.216  0.5341 -0.0328 -0.0895
25920CL      CL77442   0.469   4.373   1.845  0.2598  0.2315  0.0338
25921CL      CL77443   0.142   7.473   0.751 -0.2445  0.1650  0.0250
25922CL      CL77444   4.330   5.323  12.293  0.4664 -0.3017  0.0554
25923CL      CL77445   5.766   6.735   6.928 -0.5315  0.1533  0.0583
25924CL      CL77446   0.523   0.256  12.190  0.1098 -0.1201 -0.1532
25925CL      CL77447   1.150   4.879   5.289  0.0878 -0.2213 -0.2645
25926CL      CL77448   2.599   7.890  11.197 -0.0482 -0.4187 -0.6528
25927CL      CL77449   6.637   1.267   7.144 -0.3604  0.4853 -0.3242
25928CL      CL77450   0.474   2.100   7.969  0.5257 -0.2927  0.1508
25929CL      CL77451   2.331   2.920   8.546  0.1450  0.2173 -0.3164
25930CL      CL77452   5.405   0.710   9.169 -0.1957 -0.3579 -0.2253
25931CL      CL77453   7.883   3.086   1.964  0.0470  0.0987  0.3769
25932CL      CL77454   2.773   0.574  11.950  0.0887  0.0450  0.1733
25933CL      CL77455   6.234   1.913  10.206 -0.3706 -0.4647  0.1220
25934CL      CL77456   6.713   2.615   8.047  0.1659  0.0057  0.0186
25935CL      CL77457   6.826   6.907  12.219  0.0693  0.2346 -0.1186
25936CL      CL77458   7.112   6.639   7.825  0.2988 -0.1664 -0.1184
25937CL      CL77459   1.207   7.836  12.258 -0.3659  0.2958 -0.2426
25938CL      CL77460   1.783   5.338   3.889  0.1392 -0.1576  0.0030
25939CL      CL77461   2.251   0.861   4.583 -0.0946  0.3387  0.2120
25940CL      CL77462   0.437   4.453  11.422 -0.6563 -0.2275 -0.0295
25941CL      CL77463   2.560   1.885   8.547  0.4312  0.0663  0.3861
25942CL      CL77464   2.259   1.989  10.573 -0.0990  0.4947 -0.0530
25943CL      CL77465   3.111   6.872   3.565 -0.0750  0.7745  0.1343
25944CL      CL77466   7.235   6.481   3.223  0.1620  0.0671  0.0327
25945CL      CL77467   6.830   4.450   5.110 -0.2287  0.0036  0.2955
25946CL      CL77468   3.599   4.930  12.318 -0.0932  0.0121  0.3850
25947CL      CL77469   4.007   0.707   6.844  0.1928  0.0576 -0.3713
25948CL      CL77470   2.737   0.134   7.609  0.1005 -0.0683 -0.2104
25949CL      CL77471   0.802   1.608  11.095  0.4925 -0.0727  0.0231
25950CL      CL77472   0.455   7.189   7.135  0.1126 -0.0790 -0.2009
25951CL      CL77473   6.590   1.617   4.562 -0.0070  0.5726 -0.1315
25952CL      CL77474   3.179   1.176   4.401  0.4521  0.3916 -0.2224
25953CL      CL77475   7.081   4.547   9.465 -0.2076  0.3192  0.0262
25954CL      CL77476   6.181   5.618   5.444 -0.2807  0.2166 -0.3726
25955CL      CL77477   1.535   5.577   6.845 -0.3106 -0.1256  0.0184
25956CL      CL77478   2.687   6.541   2.564  0.2629 -0.3336  0.2840
25957CL      CL77479   5.653   0.922   7.670  0.0262  0.1874  0.1558
25958CL      CL77480   5.474   0.720   8.465 -0.2005 -0.2231 -0.5339
25959CL      CL77481   0.729   2.519   2.992  0.2151 -0.2138 -0.0754
25960CL      CL77482   6.924   6.340   2.326  0.0705 -0.0009 -0.1172
25961CL      CL77483   3.251   6.386   9.366  0.5998 -0.1630 -0.3286
25962CL      CL77484   3.019   7.802   1.864  0.1565  0.2579 -0.2498
25963CL      CL77485   7.081   5.715   9.655  0.2019  0.3987  0.1439
25964CL      CL77486   6.982   5.484  11.050  0.5884 -0.6195  0.2188
25965CL      CL77487   6.924   7.833   1.392 -0.1370  0.2716 -0.5779
25966CL      CL77488   1.255   4.631   9.683  0.1503 -0.4080  0.2067
25967CL      CL77489   6.576   3.478   9.030 -0.1851  0.5939  0.0148
25968CL      CL77490   1.344   5.081   9.682  0.0137 -0.1518 -0.1776
25969CL      CL77491   5.969   5.978   8.002 -0.3314  0.4541 -0.1858
25970CL      CL77492   0.292   0.464   2.578  0.0440  0.2704  0.0799
25971CL      CL77493   4.954   7.863  11.162  0.6046  0.1494 -0.2632
25972CL      CL77494   6.932   1.771   9.002 -0.1392  0.3072 -0.1808
25973CL      CL77495   7.085   5.719   5.237  0.3066 -0.1679 -0.3189
25974CL      CL77496   3.940   0.968   6.388  0.0697 -0.2821 -0.2053
25975CL      CL77497   3.097   1.805   9.200 -0.2069 -0.2848  0.2966
25976CL      CL77498   0.757   3.237   8.668  0.2136 -0.3994 -0.0329
25977CL      CL77499   4.635   2.430   1.442 -0.0279 -0.0533 -0.1802
25978CL      CL77500   5.757   2.123   9.688 -0.0218  0.2564 -0.3016
25979CL      CL77501   3.045   3.677  12.149 -0.1216  0.4945  0.0687
25980CL      CL77502   6.483   2.160   6.194  0.0948  0.3126 -0.1645
25981CL      CL77503   0.674   6.022  10.295 -0.3719  0.0480  0.1496
25982CL      CL77504   1.657   1.368   0.598  0.0303  0.2887 -0.5848
25983CL      CL77505   1.289   7.807  11.157  0.1144 -0.2340  0.2814
25984CL      CL77506   1.396   5.062   4.973 -0.7796  0.0489 -0.1820
25985CL      CL77507   3.703   1.917   0.371 -0.1022  0.0376 -0.0663
25986CL      CL77508   3.361   7.066   5.164  0.2630  0.0602  0.2496
25987CL      CL77509   2.281   5.706   6.483 -0.4091  0.0246 -0.0931
25988CL      CL77510   6.278   0.004   2.352  0.4877  0.2240  0.1608
25989CL      CL77511   6.191   0.367   1.417 -0.1388  0.0522 -0.3069
25990CL      CL77512   6.212   0.257   8.649  0.2556  0.0523 -0.3914
25991CL      CL77513   0.342   5.747   4.673  0.0597  0.0108 -0.1004
25992CL      CL77514   1.988   4.451   5.753  0.1637  0.1067  0.3154
25993CL      CL77515   2.177   1.664   2.925 -0.2449 -0.1497 -0.0520
25994CL      CL77516   5.291   7.870   5.336 -0.0491  0.2807 -0.3753
25995CL      CL77517   0.797   0.708   6.557 -0.0716  0.3041  0.1601
25996CL      CL77518   0.719   0.629   7.363 -0.1369 -0.3930  0.1105
25997CL      CL77519   2.663   5.008   0.653 -0.0234 -0.1831  0.0411
25998CL      CL77520   6.349   5.182   3.636  0.0847  0.1212 -0.1372
25999CL      CL77521   7.886   1.646   9.855  0.3139 -0.5673 -0.2205
26000CL      CL77522   4.859   0.734  11.384  0.0954  0.1085  0.2022
26001CL      CL77523   1.494   2.983   9.223 -0.3465 -0.2471 -0.0050
26002CL      CL77524   5.322   0.071   8.106  0.2149 -0.0635  0.0063
26003CL      CL77525   3.677   7.579   2.202 -0.2173  0.1832  0.5304
26004CL      CL77526   5.332   6.645   8.966 -0.1070  0.2486  0.2129
   7.92844   7.92844  12.38820
